<LesHouchesEvents version="3.0">
<header>
<!--
#*********************************************************************
#                                                                    *
#                        MadGraph5_aMC@NLO                           *
#                                                                    *
#                           Going Beyond                             *
#                                                                    *
#                   http://madgraph.hep.uiuc.edu                     *
#                   http://madgraph.phys.ucl.ac.be                   *
#                   http://amcatnlo.cern.ch                          *
#                                                                    *
#                     The MadGraph5_aMC@NLO team                     *
#                                                                    *
#....................................................................*
#                                                                    *
# This file contains all the information necessary to reproduce      *
# the events generated:                                              *
#                                                                    *
# 1. software version                                                *
# 2. proc_card          : code generation info including model       *
# 3. param_card         : model primary parameters in the LH format  *
# 4. run_card           : running parameters (collider and cuts)     *
# 5. pythia_card        : present only if pythia has been run        *
# 6. pgs_card           : present only if pgs has been run           *
# 7. delphes_cards      : present only if delphes has been run       *
#                                                                    *
#                                                                    *
#*********************************************************************
-->
<MGVersion>
#5.2.2.3
</MGVersion>
<MG5ProcCard>
#************************************************************
#*                     MadGraph5_aMC@NLO                    *
#*                                                          *
#*                *                       *                 *
#*                  *        * *        *                   *
#*                    * * * * 5 * * * *                     *
#*                  *        * *        *                   *
#*                *                       *                 *
#*                                                          *
#*                                                          *
#*         VERSION 2.2.3                 2015-02-10         *
#*                                                          *
#*    The MadGraph5_aMC@NLO Development Team - Find us at   *
#*    https://server06.fynu.ucl.ac.be/projects/madgraph     *
#*                                                          *
#************************************************************
#*                                                          *
#*               Command File for MadGraph5_aMC@NLO         *
#*                                                          *
#*     run as ./bin/mg5_aMC  filename                       *
#*                                                          *
#************************************************************
set group_subprocesses Auto
set ignore_six_quark_processes False
set loop_optimized_output True
set gauge unitary
set complex_mass_scheme False
import model sm
define p = g u c d s u~ c~ d~ s~
define j = g u c d s u~ c~ d~ s~
define l+ = e+ mu+
define l- = e- mu-
define vl = ve vm vt
define vl~ = ve~ vm~ vt~
import model Zprime_UFO
generate p p > zph, zph > j j
add process p p > zph, zph > b b~
output Dijet_signal
</MG5ProcCard>
<MGProcCard>
#*********************************************************************
#                        MadGraph/MadEvent                           *
#                   http://madgraph.hep.uiuc.edu                     *
#                                                                    *
#                          proc_card.dat                             *
#*********************************************************************
#                                                                    *
#            This Files is generated by MADGRAPH 5                   *
#                                                                    *
# WARNING: This Files is generated for MADEVENT (compatibility issue)*
#          This files is NOT a valid MG4 proc_card.dat               *
#          Running this in MG4 will NEVER reproduce the result of MG5*
#                                                                    *
#*********************************************************************
#*********************************************************************
# Process(es) requested : mg2 input                                  *
#*********************************************************************
# Begin PROCESS # This is TAG. Do not modify this line
p p > zph , zph > j j           #Process
# Be carefull the coupling are here in MG5 convention
          
end_coup           # End the couplings input

done               # this tells MG there are no more procs
# End PROCESS  # This is TAG. Do not modify this line
#*********************************************************************
# Model information                                                  *
#*********************************************************************
# Begin MODEL  # This is TAG. Do not modify this line
Zprime_UFO
# End   MODEL  # This is TAG. Do not modify this line
#*********************************************************************
# Start multiparticle definitions                                    *
#*********************************************************************
# Begin MULTIPARTICLES # This is TAG. Do not modify this line

# End  MULTIPARTICLES # This is TAG. Do not modify this line
</MGProcCard>
<MGRunCard>
#*********************************************************************
#                       MadGraph5_aMC@NLO                            *
#                                                                    *
#                     run_card.dat MadEvent                          *
#                                                                    *
#  This file is used to set the parameters of the run.               *
#                                                                    *
#  Some notation/conventions:                                        *
#                                                                    *
#   Lines starting with a '# ' are info or comments                  *
#                                                                    *
#   mind the format:   value    = variable     ! comment             *
#*********************************************************************
#
#*******************                                                 
# Running parameters
#*******************                                                 
#                                                                    
#*********************************************************************
# Tag name for the run (one word)                                    *
#*********************************************************************
  tag_1     = run_tag ! name of the run 
#*********************************************************************
# Run to generate the grid pack                                      *
#*********************************************************************
  .false.     = gridpack  !True = setting up the grid pack
#*********************************************************************
# Number of events and rnd seed                                      *
# Warning: Do not generate more than 1M events in a single run       *
# If you want to run Pythia, avoid more than 50k events in a run.    *
#*********************************************************************
  2000 = nevents ! Number of unweighted events requested 
 2289 = iseed   ! rnd seed (0=assigned automatically=default))
#*********************************************************************
# Collider type and energy                                           *
# lpp: 0=No PDF, 1=proton, -1=antiproton, 2=photon from proton,      *
#                                         3=photon from electron     *
#*********************************************************************
        1     = lpp1    ! beam 1 type 
        1     = lpp2    ! beam 2 type
     4000     = ebeam1  ! beam 1 total energy in GeV
     4000     = ebeam2  ! beam 2 total energy in GeV
#*********************************************************************
# Beam polarization from -100 (left-handed) to 100 (right-handed)    *
#*********************************************************************
        0     = polbeam1 ! beam polarization for beam 1
        0     = polbeam2 ! beam polarization for beam 2
#*********************************************************************
# PDF CHOICE: this automatically fixes also alpha_s and its evol.    *
#*********************************************************************
 'nn23lo1'    = pdlabel     ! PDF set                                     
 230000    = lhaid     ! if pdlabel=lhapdf, this is the lhapdf number
#*********************************************************************
# Renormalization and factorization scales                           *
#*********************************************************************
 F        = fixed_ren_scale  ! if .true. use fixed ren scale
 F        = fixed_fac_scale  ! if .true. use fixed fac scale
 91.1880  = scale            ! fixed ren scale
 91.1880  = dsqrt_q2fact1    ! fixed fact scale for pdf1
 91.1880  = dsqrt_q2fact2    ! fixed fact scale for pdf2
 1        = scalefact        ! scale factor for event-by-event scales
#*********************************************************************
# Matching - Warning! ickkw > 1 is still beta
#*********************************************************************
 0        = ickkw            ! 0 no matching, 1 MLM, 2 CKKW matching
 1        = highestmult      ! for ickkw=2, highest mult group
 1        = ktscheme         ! for ickkw=1, 1 Durham kT, 2 Pythia pTE
 1        = alpsfact         ! scale factor for QCD emission vx
 F        = chcluster        ! cluster only according to channel diag
 T        = pdfwgt           ! for ickkw=1, perform pdf reweighting
 5        = asrwgtflavor     ! highest quark flavor for a_s reweight
 T        = clusinfo         ! include clustering tag in output
 3.0      = lhe_version       ! Change the way clustering information pass to shower.        
#*********************************************************************
#**********************************************************
#
#**********************************************************
# Automatic ptj and mjj cuts if xqcut > 0
# (turn off for VBF and single top processes)
#**********************************************************
   T  = auto_ptj_mjj  ! Automatic setting of ptj and mjj
#**********************************************************
#                                                                    
#**********************************
# BW cutoff (M+/-bwcutoff*Gamma)
#**********************************
  15  = bwcutoff      ! (M+/-bwcutoff*Gamma)
#**********************************************************
# Apply pt/E/eta/dr/mij cuts on decay products or not
# (note that etmiss/ptll/ptheavy/ht/sorted cuts always apply)
#**********************************************************
   T  = cut_decays    ! Cut decay products 
#*************************************************************
# Number of helicities to sum per event (0 = all helicities)
# 0 gives more stable result, but longer run time (needed for
# long decay chains e.g.).
# Use >=2 if most helicities contribute, e.g. pure QCD.
#*************************************************************
   0  = nhel          ! Number of helicities used per event
#*******************                                                 
# Standard Cuts
#*******************                                                 
#                                                                    
#*********************************************************************
# Minimum and maximum pt's (for max, -1 means no cut)                *
#*********************************************************************
 20  = ptj       ! minimum pt for the jets 
  0  = ptb       ! minimum pt for the b 
 10  = pta       ! minimum pt for the photons 
 10  = ptl       ! minimum pt for the charged leptons 
  0  = misset    ! minimum missing Et (sum of neutrino's momenta)
  0  = ptheavy   ! minimum pt for one heavy final state
 1.0 = ptonium   ! minimum pt for the quarkonium states
 -1  = ptjmax    ! maximum pt for the jets
 -1  = ptbmax    ! maximum pt for the b
 -1  = ptamax    ! maximum pt for the photons
 -1  = ptlmax    ! maximum pt for the charged leptons
 -1  = missetmax ! maximum missing Et (sum of neutrino's momenta)
#*********************************************************************
# Minimum and maximum E's (in the center of mass frame)              *
#*********************************************************************
  0  = ej     ! minimum E for the jets 
  0  = eb     ! minimum E for the b 
  0  = ea     ! minimum E for the photons 
  0  = el     ! minimum E for the charged leptons 
 -1   = ejmax ! maximum E for the jets
 -1   = ebmax ! maximum E for the b
 -1   = eamax ! maximum E for the photons
 -1   = elmax ! maximum E for the charged leptons
#*********************************************************************
# Maximum and minimum absolute rapidity (for max, -1 means no cut)   *
#*********************************************************************
   5  = etaj    ! max rap for the jets 
  -1  = etab    ! max rap for the b
 2.5  = etaa    ! max rap for the photons 
 2.5  = etal    ! max rap for the charged leptons 
 0.6  = etaonium ! max rap for the quarkonium states
   0  = etajmin ! min rap for the jets
   0  = etabmin ! min rap for the b
   0  = etaamin ! min rap for the photons
   0  = etalmin ! main rap for the charged leptons
#*********************************************************************
# Minimum and maximum DeltaR distance                                *
#*********************************************************************
 0.4 = drjj    ! min distance between jets 
 0   = drbb    ! min distance between b's 
 0.4 = drll    ! min distance between leptons 
 0.4 = draa    ! min distance between gammas 
 0   = drbj    ! min distance between b and jet 
 0.4 = draj    ! min distance between gamma and jet 
 0.4 = drjl    ! min distance between jet and lepton 
 0   = drab    ! min distance between gamma and b 
 0   = drbl    ! min distance between b and lepton 
 0.4 = dral    ! min distance between gamma and lepton 
 -1  = drjjmax ! max distance between jets
 -1  = drbbmax ! max distance between b's
 -1  = drllmax ! max distance between leptons
 -1  = draamax ! max distance between gammas
 -1  = drbjmax ! max distance between b and jet
 -1  = drajmax ! max distance between gamma and jet
 -1  = drjlmax ! max distance between jet and lepton
 -1  = drabmax ! max distance between gamma and b
 -1  = drblmax ! max distance between b and lepton
 -1  = dralmax ! maxdistance between gamma and lepton
#*********************************************************************
# Minimum and maximum invariant mass for pairs                       *
# WARNING: for four lepton final state mmll cut require to have      *
#          different lepton masses for each flavor!                  *           
#*********************************************************************
 0   = mmjj    ! min invariant mass of a jet pair 
 0   = mmbb    ! min invariant mass of a b pair 
 0   = mmaa    ! min invariant mass of gamma gamma pair
 0   = mmll    ! min invariant mass of l+l- (same flavour) lepton pair
 -1  = mmjjmax ! max invariant mass of a jet pair
 -1  = mmbbmax ! max invariant mass of a b pair
 -1  = mmaamax ! max invariant mass of gamma gamma pair
 -1  = mmllmax ! max invariant mass of l+l- (same flavour) lepton pair
#*********************************************************************
# Minimum and maximum invariant mass for all letpons                 *
#*********************************************************************
 0   = mmnl    ! min invariant mass for all letpons (l+- and vl) 
 -1  = mmnlmax ! max invariant mass for all letpons (l+- and vl) 
#*********************************************************************
# Minimum and maximum pt for 4-momenta sum of leptons                *
#*********************************************************************
 0   = ptllmin  ! Minimum pt for 4-momenta sum of leptons(l and vl)
 -1  = ptllmax  ! Maximum pt for 4-momenta sum of leptons(l and vl)
#*********************************************************************
# Inclusive cuts                                                     *
#*********************************************************************
 0  = xptj ! minimum pt for at least one jet  
 0  = xptb ! minimum pt for at least one b 
 0  = xpta ! minimum pt for at least one photon 
 0  = xptl ! minimum pt for at least one charged lepton 
#*********************************************************************
# Control the pt's of the jets sorted by pt                          *
#*********************************************************************
 0   = ptj1min ! minimum pt for the leading jet in pt
 0   = ptj2min ! minimum pt for the second jet in pt
 0   = ptj3min ! minimum pt for the third jet in pt
 0   = ptj4min ! minimum pt for the fourth jet in pt
 -1  = ptj1max ! maximum pt for the leading jet in pt 
 -1  = ptj2max ! maximum pt for the second jet in pt
 -1  = ptj3max ! maximum pt for the third jet in pt
 -1  = ptj4max ! maximum pt for the fourth jet in pt
 0   = cutuse  ! reject event if fails any (0) / all (1) jet pt cuts
#*********************************************************************
# Control the pt's of leptons sorted by pt                           *
#*********************************************************************
 0   = ptl1min ! minimum pt for the leading lepton in pt
 0   = ptl2min ! minimum pt for the second lepton in pt
 0   = ptl3min ! minimum pt for the third lepton in pt
 0   = ptl4min ! minimum pt for the fourth lepton in pt
 -1  = ptl1max ! maximum pt for the leading lepton in pt 
 -1  = ptl2max ! maximum pt for the second lepton in pt
 -1  = ptl3max ! maximum pt for the third lepton in pt
 -1  = ptl4max ! maximum pt for the fourth lepton in pt
#*********************************************************************
# Control the Ht(k)=Sum of k leading jets                            *
#*********************************************************************
 0   = htjmin ! minimum jet HT=Sum(jet pt)
 -1  = htjmax ! maximum jet HT=Sum(jet pt)
 0   = ihtmin  !inclusive Ht for all partons (including b)
 -1  = ihtmax  !inclusive Ht for all partons (including b)
 0   = ht2min ! minimum Ht for the two leading jets
 0   = ht3min ! minimum Ht for the three leading jets
 0   = ht4min ! minimum Ht for the four leading jets
 -1  = ht2max ! maximum Ht for the two leading jets
 -1  = ht3max ! maximum Ht for the three leading jets
 -1  = ht4max ! maximum Ht for the four leading jets
#***********************************************************************
# Photon-isolation cuts, according to hep-ph/9801442                   *
# When ptgmin=0, all the other parameters are ignored                  *
# When ptgmin>0, pta and draj are not going to be used                 *
#***********************************************************************
   0 = ptgmin ! Min photon transverse momentum
 0.4 = R0gamma ! Radius of isolation code
 1.0 = xn ! n parameter of eq.(3.4) in hep-ph/9801442
 1.0 = epsgamma ! epsilon_gamma parameter of eq.(3.4) in hep-ph/9801442
 .true. = isoEM ! isolate photons from EM energy (photons and leptons)
#*********************************************************************
# WBF cuts                                                           *
#*********************************************************************
 0   = xetamin ! minimum rapidity for two jets in the WBF case  
 0   = deltaeta ! minimum rapidity for two jets in the WBF case 
#*********************************************************************
# KT DURHAM CUT                                                      *
#*********************************************************************
 -1    =  ktdurham        
 0.4  =  dparameter 
#*********************************************************************
# maximal pdg code for quark to be considered as a light jet         *
# (otherwise b cuts are applied)                                     *
#*********************************************************************
 4 = maxjetflavor    ! Maximum jet pdg code
#*********************************************************************
# Jet measure cuts                                                   *
#*********************************************************************
 0   = xqcut   ! minimum kt jet measure between partons
#*********************************************************************
#
#*********************************************************************
# Store info for systematics studies                                 *
# WARNING: If use_syst is T, matched Pythia output is                *
#          meaningful ONLY if plotted taking matchscale              *
#          reweighting into account!                                 *
#*********************************************************************
   F  = use_syst      ! Enable systematics studies
#
#**************************************
# Parameter of the systematics study
#  will be used by SysCalc (if installed)
#**************************************                                  
#
0.5 1 2 = sys_scalefact  # factorization/renormalization scale factor
0.5 1 2 = sys_alpsfact  # \alpha_s emission scale factors
30 50 = sys_matchscale # variation of merging scale
# PDF sets and number of members (0 or none for all members).
CT10nlo.LHgrid = sys_pdf # matching scales
# MSTW2008nlo68cl.LHgrid 1  = sys_pdf
</MGRunCard>
<slha>
######################################################################
## PARAM_CARD AUTOMATICALY GENERATED BY MG5 FOLLOWING UFO MODEL   ####
######################################################################
##                                                                  ##
##  Width set on Auto will be computed following the information    ##
##        present in the decay.py files of the model.               ##
##        See  arXiv:1402.1178 for more details.                    ##
##                                                                  ##
######################################################################

###################################
## INFORMATION FOR CKMBLOCK
###################################
Block ckmblock 
    1 2.277360e-01 # cabi 

###################################
## INFORMATION FOR FRBLOCK
###################################
Block frblock 
    1 1.200000e+00 # gz 

###################################
## INFORMATION FOR MASS
###################################
Block mass 
    1 5.040000e-03 # MD 
    2 2.550000e-03 # MU 
    3 1.010000e-01 # MS 
    4 1.270000e+00 # MC 
    5 4.700000e+00 # MB 
    6 1.720000e+02 # MT 
   11 5.110000e-04 # Me 
   13 1.056600e-01 # MM 
   15 1.777000e+00 # MTA 
   23 9.118760e+01 # MZ 
   25 1.200000e+02 # MH 
  10030 2.400000e+03 # MZph 
  10031 3.000000e+02 # MZpl 
## Dependent parameters, given by model restrictions.
## Those values should be edited following the 
## analytical expression. MG5 ignores those values 
## but they are important for interfacing the output of MG5
## to external program such as Pythia.
  12 0.000000 # ve : 0.0 
  14 0.000000 # vm : 0.0 
  16 0.000000 # vt : 0.0 
  21 0.000000 # g : 0.0 
  22 0.000000 # a : 0.0 
  24 79.824360 # w+ : cmath.sqrt(MZ__exp__2/2. + cmath.sqrt(MZ__exp__4/4. - (aEW*cmath.pi*MZ__exp__2)/(Gf*sqrt__2))) 

###################################
## INFORMATION FOR SMINPUTS
###################################
Block sminputs 
    1 1.279000e+02 # aEWM1 
    2 1.166370e-05 # Gf 
    3 1.184000e-01 # aS 

###################################
## INFORMATION FOR YUKAWA
###################################
Block yukawa 
    1 5.040000e-03 # ymdo 
    2 2.550000e-03 # ymup 
    3 1.010000e-01 # yms 
    4 1.270000e+00 # ymc 
    5 4.700000e+00 # ymb 
    6 1.720000e+02 # ymt 
   11 5.110000e-04 # yme 
   13 1.056600e-01 # ymm 
   15 1.777000e+00 # ymtau 

###################################
## INFORMATION FOR DECAY
###################################
DECAY   6 1.508336e+00 # WT 
DECAY  23 2.495200e+00 # WZ 
DECAY  24 2.085000e+00 # WW 
DECAY  25 5.753088e-03 # WH 
## Dependent parameters, given by model restrictions.
## Those values should be edited following the 
## analytical expression. MG5 ignores those values 
## but they are important for interfacing the output of MG5
## to external program such as Pythia.
DECAY  1 0.000000 # d : 0.0 
DECAY  2 0.000000 # u : 0.0 
DECAY  3 0.000000 # s : 0.0 
DECAY  4 0.000000 # c : 0.0 
DECAY  5 0.000000 # b : 0.0 
DECAY  11 0.000000 # e- : 0.0 
DECAY  12 0.000000 # ve : 0.0 
DECAY  13 0.000000 # mu- : 0.0 
DECAY  14 0.000000 # vm : 0.0 
DECAY  15 0.000000 # ta- : 0.0 
DECAY  16 0.000000 # vt : 0.0 
DECAY  21 0.000000 # g : 0.0 
DECAY  22 0.000000 # a : 0.0 
DECAY  10030 0.308725 # zph : (gz__exp__2*MZph*(5 + cmath.sqrt(1 - (4*MT__exp__2)/MZph__exp__2)))/(144.*cmath.pi) 
DECAY  10031 0.132629 # zpl : (5*gz__exp__2*MZpl)/(144.*cmath.pi) 
#===========================================================
# QUANTUM NUMBERS OF NEW STATE(S) (NON SM PDG CODE)
#===========================================================

Block QNUMBERS 10030  # zph 
        1 0  # 3 times electric charge
        2 3  # number of spin states (2S+1)
        3 1  # colour rep (1: singlet, 3: triplet, 8: octet)
        4 0  # Particle/Antiparticle distinction (0=own anti)
Block QNUMBERS 10031  # zpl 
        1 0  # 3 times electric charge
        2 3  # number of spin states (2S+1)
        3 1  # colour rep (1: singlet, 3: triplet, 8: octet)
        4 0  # Particle/Antiparticle distinction (0=own anti)
</slha>
## END BANNER##
<MGGenerationInfo>
#  Number of Events        :         3940
#  Integrated weight (pb)  :  0.13377E-01
#  Max wgt                 :  0.49140E-05
#  Average wgt             :  0.33952E-05
</MGGenerationInfo>
</header>
<init>
     2212     2212  0.40000000000E+04  0.40000000000E+04 0 0  247000  247000 2   1
  0.13388063996E-01  0.26657029568E-04  0.49140050000E-05   0
</init>
<event>
 5   0  0.4856882E-05  0.2366675E+04  0.7818609E-02  0.8452086E-01
        2   -1    0    0  501    0  0.00000000000E+00  0.00000000000E+00  0.81825351835E+03  0.81825351835E+03  0.25500000920E-02 0. -1.
       -2   -1    0    0    0  501  0.00000000000E+00  0.00000000000E+00 -0.17113122731E+04  0.17113122731E+04  0.25500000920E-02 0.  1.
    10030    2    1    2    0    0  0.00000000000E+00  0.00000000000E+00 -0.89305875480E+03  0.25295657915E+04  0.23666747039E+04 0.  0.
        1    1    3    3  502    0 -0.66250222971E+03  0.15941329377E+03  0.58751059575E+03  0.89971690144E+03  0.50400001928E-02 0. -1.
       -1    1    3    3    0  502  0.66250222971E+03 -0.15941329377E+03 -0.14805693506E+04  0.16298488901E+04  0.50400001928E-02 0.  1.
</event>
<event>
 5   0  0.4856882E-05  0.2423574E+04  0.7818609E-02  0.8430730E-01
       -2   -1    0    0    0  501  0.00000000000E+00  0.00000000000E+00  0.14177660297E+04  0.14177660297E+04  0.25500000920E-02 0.  1.
        2   -1    0    0  501    0  0.00000000000E+00  0.00000000000E+00 -0.10357337909E+04  0.10357337909E+04  0.25500000920E-02 0. -1.
    10030    2    1    2    0    0  0.00000000000E+00  0.00000000000E+00  0.38203223877E+03  0.24534998206E+04  0.24235743723E+04 0.  0.
        1    1    3    3  502    0  0.86417160931E+01 -0.55445414250E+03  0.12817868224E+04  0.13965928303E+04  0.50400001928E-02 0.  1.
       -1    1    3    3    0  502 -0.86417160931E+01  0.55445414250E+03 -0.89975458363E+03  0.10569069903E+04  0.50400001928E-02 0. -1.
</event>
<event>
 5   0  0.4756705E-05  0.2448141E+04  0.7818609E-02  0.8421697E-01
       -2   -1    0    0    0  501  0.00000000000E+00  0.00000000000E+00  0.13211248888E+04  0.13211248888E+04  0.25500000920E-02 0.  1.
        2   -1    0    0  501    0  0.00000000000E+00  0.00000000000E+00 -0.11341463877E+04  0.11341463877E+04  0.25500000920E-02 0. -1.
    10030    2    1    2    0    0  0.00000000000E+00  0.00000000000E+00  0.18697850113E+03  0.24552712765E+04  0.24481413524E+04 0.  0.
        3    1    3    3  502    0  0.37785440918E+03  0.90321584476E+03 -0.64334508714E+03  0.11715228244E+04  0.10100000352E+00 0. -1.
       -3    1    3    3    0  502 -0.37785440918E+03 -0.90321584476E+03  0.83032358827E+03  0.12837484521E+04  0.10100000352E+00 0.  1.
</event>
<event>
 5   0  0.4856882E-05  0.2508972E+04  0.7818609E-02  0.8399796E-01
       -2   -1    0    0    0  501  0.00000000000E+00  0.00000000000E+00  0.11370386672E+04  0.11370386672E+04  0.25500000920E-02 0. -1.
        2   -1    0    0  501    0  0.00000000000E+00  0.00000000000E+00 -0.13840649980E+04  0.13840649980E+04  0.25500000920E-02 0.  1.
    10030    2    1    2    0    0  0.00000000000E+00  0.00000000000E+00 -0.24702633083E+03  0.25211036652E+04  0.25089722363E+04 0.  0.
        1    1    3    3  502    0  0.97964565097E+03  0.52150127425E+03 -0.71120540410E+03  0.13181359214E+04  0.50400001928E-02 0.  1.
       -1    1    3    3    0  502 -0.97964565097E+03 -0.52150127425E+03  0.46417907327E+03  0.12029677438E+04  0.50400001928E-02 0. -1.
</event>
<event>
 5   0  0.4756705E-05  0.2392953E+04  0.7818609E-02  0.8442147E-01
       -2   -1    0    0    0  501  0.00000000000E+00  0.00000000000E+00  0.95592403015E+03  0.95592403015E+03  0.25500000920E-02 0.  1.
        2   -1    0    0  501    0  0.00000000000E+00  0.00000000000E+00 -0.14975624761E+04  0.14975624761E+04  0.25500000920E-02 0. -1.
    10030    2    1    2    0    0  0.00000000000E+00  0.00000000000E+00 -0.54163844599E+03  0.24534865063E+04  0.23929529520E+04 0.  0.
        3    1    3    3  502    0 -0.32805475647E+03 -0.33394750353E+03  0.85813200458E+03  0.97751286735E+03  0.10100000352E+00 0.  1.
       -3    1    3    3    0  502  0.32805475647E+03  0.33394750353E+03 -0.13997704506E+04  0.14759736389E+04  0.10100000352E+00 0. -1.
</event>
<event>
 5   0  0.2090039E-05  0.2364674E+04  0.7818609E-02  0.8452849E-01
       -1   -1    0    0    0  501  0.00000000000E+00  0.00000000000E+00  0.12778127191E+04  0.12778127191E+04  0.50400001928E-02 0. -1.
        1   -1    0    0  501    0  0.00000000000E+00  0.00000000000E+00 -0.10939947070E+04  0.10939947070E+04  0.50400001928E-02 0.  1.
    10030    2    1    2    0    0  0.00000000000E+00  0.00000000000E+00  0.18381801212E+03  0.23718074261E+04  0.23646736361E+04 0.  0.
        1    1    3    3  502    0 -0.88149865090E+03 -0.20926101852E+03 -0.67004736469E+03  0.11268511509E+04  0.50400001928E-02 0.  1.
       -1    1    3    3    0  502  0.88149865090E+03  0.20926101852E+03  0.85386537682E+03  0.12449562752E+04  0.50400001928E-02 0. -1.
</event>
<event>
 5   0  0.2065692E-05  0.2403305E+04  0.7818609E-02  0.8438267E-01
        1   -1    0    0  501    0  0.00000000000E+00  0.00000000000E+00  0.10884292298E+04  0.10884292299E+04  0.50400001928E-02 0.  1.
       -1   -1    0    0    0  501  0.00000000000E+00  0.00000000000E+00 -0.13266538740E+04  0.13266538740E+04  0.50400001928E-02 0. -1.
    10030    2    1    2    0    0  0.00000000000E+00  0.00000000000E+00 -0.23822464419E+03  0.24150831039E+04  0.24033051029E+04 0.  0.
        3    1    3    3  502    0  0.84722014053E+03  0.71370505094E+03  0.34880034971E+03  0.11613864819E+04  0.10100000352E+00 0.  1.
       -3    1    3    3    0  502 -0.84722014053E+03 -0.71370505094E+03 -0.58702499391E+03  0.12536966220E+04  0.10100000352E+00 0. -1.
</event>
<event>
 5   0  0.4856882E-05  0.2414677E+04  0.7818609E-02  0.8434029E-01
       -2   -1    0    0    0  501  0.00000000000E+00  0.00000000000E+00  0.64238908628E+03  0.64238908629E+03  0.25500000920E-02 0.  1.
        2   -1    0    0  501    0  0.00000000000E+00  0.00000000000E+00 -0.22691330232E+04  0.22691330232E+04  0.25500000920E-02 0. -1.
    10030    2    1    2    0    0  0.00000000000E+00  0.00000000000E+00 -0.16267439369E+04  0.29115221095E+04  0.24146770297E+04 0.  0.
        1    1    3    3  502    0  0.78105155231E+03  0.92042407728E+03 -0.83878692860E+03  0.14699610611E+04  0.50400001928E-02 0.  1.
       -1    1    3    3    0  502 -0.78105155231E+03 -0.92042407728E+03 -0.78795700834E+03  0.14415610485E+04  0.50400001928E-02 0. -1.
</event>
<event>
 5   0  0.2139556E-05  0.2393593E+04  0.7818609E-02  0.8441906E-01
       -1   -1    0    0    0  501  0.00000000000E+00  0.00000000000E+00  0.16404963310E+04  0.16404963310E+04  0.50400001928E-02 0. -1.
        1   -1    0    0  501    0  0.00000000000E+00  0.00000000000E+00 -0.87310304048E+03  0.87310304050E+03  0.50400001928E-02 0.  1.
    10030    2    1    2    0    0  0.00000000000E+00  0.00000000000E+00  0.76739329053E+03  0.25135993715E+04  0.23935933945E+04 0.  0.
        2    1    3    3  502    0 -0.87582350451E+03 -0.45098606828E+02 -0.47151779487E+03  0.99570564239E+03  0.25500000920E-02 0.  1.
       -2    1    3    3    0  502  0.87582350451E+03  0.45098606828E+02  0.12389110854E+04  0.15178937291E+04  0.25500000920E-02 0. -1.
</event>
<event>
 5   0  0.4856882E-05  0.2386565E+04  0.7818609E-02  0.8444551E-01
       -2   -1    0    0    0  501  0.00000000000E+00  0.00000000000E+00  0.71489622309E+03  0.71489622310E+03  0.25500000920E-02 0.  1.
        2   -1    0    0  501    0  0.00000000000E+00  0.00000000000E+00 -0.19917895407E+04  0.19917895407E+04  0.25500000920E-02 0. -1.
    10030    2    1    2    0    0  0.00000000000E+00  0.00000000000E+00 -0.12768933177E+04  0.27066857638E+04  0.23865647445E+04 0.  0.
        1    1    3    3  502    0 -0.96459858028E+03  0.24309832156E+02 -0.14346717262E+04  0.17289662666E+04  0.50400001928E-02 0. -1.
       -1    1    3    3    0  502  0.96459858028E+03 -0.24309832156E+02  0.15777840857E+03  0.97771949723E+03  0.50400001928E-02 0.  1.
</event>
<event>
 5   0  0.4713971E-05  0.2398838E+04  0.7818609E-02  0.8439939E-01
       -2   -1    0    0    0  501  0.00000000000E+00  0.00000000000E+00  0.77930963951E+03  0.77930963952E+03  0.25500000920E-02 0.  1.
        2   -1    0    0  501    0  0.00000000000E+00  0.00000000000E+00 -0.18459997152E+04  0.18459997152E+04  0.25500000920E-02 0. -1.
    10030    2    1    2    0    0  0.00000000000E+00  0.00000000000E+00 -0.10666900757E+04  0.26253093547E+04  0.23988375290E+04 0.  0.
        5    1    3    3  502    0 -0.31559702989E+02 -0.84123927125E+03  0.40165677043E+03  0.93275386763E+03  0.46999998093E+01 0.  1.
       -5    1    3    3    0  502  0.31559702989E+02  0.84123927125E+03 -0.14683468461E+04  0.16925554871E+04  0.46999998093E+01 0. -1.
</event>
<event>
 5   0  0.4713971E-05  0.2393621E+04  0.7818609E-02  0.8441896E-01
        2   -1    0    0  501    0  0.00000000000E+00  0.00000000000E+00  0.92076876187E+03  0.92076876187E+03  0.25500000920E-02 0.  1.
       -2   -1    0    0    0  501  0.00000000000E+00  0.00000000000E+00 -0.15556081406E+04  0.15556081406E+04  0.25500000920E-02 0. -1.
    10030    2    1    2    0    0  0.00000000000E+00  0.00000000000E+00 -0.63483937873E+03  0.24763769025E+04  0.23936210072E+04 0.  0.
        5    1    3    3  502    0 -0.44809199174E+03  0.13243649022E+03 -0.14573335386E+04  0.15304146463E+04  0.46999998093E+01 0. -1.
       -5    1    3    3    0  502  0.44809199174E+03 -0.13243649022E+03  0.82249415987E+03  0.94596225613E+03  0.46999998093E+01 0.  1.
</event>
<event>
 5   0  0.2149920E-05  0.2344774E+04  0.7818609E-02  0.8460474E-01
        1   -1    0    0  501    0  0.00000000000E+00  0.00000000000E+00  0.15914597356E+04  0.15914597356E+04  0.50400001928E-02 0.  1.
       -1   -1    0    0    0  501  0.00000000000E+00  0.00000000000E+00 -0.86366671433E+03  0.86366671434E+03  0.50400001928E-02 0. -1.
    10030    2    1    2    0    0  0.00000000000E+00  0.00000000000E+00  0.72779302127E+03  0.24551264500E+04  0.23447735932E+04 0.  0.
        5    1    3    3  502    0 -0.99005688318E+03 -0.43459040316E+03  0.83842217045E+03  0.13682307102E+04  0.46999998093E+01 0.  1.
       -5    1    3    3    0  502  0.99005688318E+03  0.43459040316E+03 -0.11062914917E+03  0.10868957398E+04  0.46999998093E+01 0. -1.
</event>
<event>
 5   0  0.2090039E-05  0.2405858E+04  0.7818609E-02  0.8437314E-01
        1   -1    0    0  501    0  0.00000000000E+00  0.00000000000E+00  0.12158433542E+04  0.12158433542E+04  0.50400001928E-02 0. -1.
       -1   -1    0    0    0  501  0.00000000000E+00  0.00000000000E+00 -0.11901514056E+04  0.11901514056E+04  0.50400001928E-02 0.  1.
    10030    2    1    2    0    0  0.00000000000E+00  0.00000000000E+00  0.25691948536E+02  0.24059947598E+04  0.24058575827E+04 0.  0.
        1    1    3    3  502    0  0.78300986842E+03 -0.82194367763E+03 -0.38509858336E+03  0.11987480061E+04  0.50400001928E-02 0. -1.
       -1    1    3    3    0  502 -0.78300986842E+03  0.82194367763E+03  0.41079053189E+03  0.12072467537E+04  0.50400001928E-02 0.  1.
</event>
<event>
 5   0  0.2065692E-05  0.2418152E+04  0.7818609E-02  0.8432739E-01
       -1   -1    0    0    0  501  0.00000000000E+00  0.00000000000E+00  0.13574790670E+04  0.13574790670E+04  0.50400001928E-02 0. -1.
        1   -1    0    0  501    0  0.00000000000E+00  0.00000000000E+00 -0.10768964073E+04  0.10768964073E+04  0.50400001928E-02 0.  1.
    10030    2    1    2    0    0  0.00000000000E+00  0.00000000000E+00  0.28058265970E+03  0.24343754743E+04  0.24181516331E+04 0.  0.
        3    1    3    3  502    0 -0.68776833174E+03  0.31505956152E+03 -0.80921024189E+03  0.11077495345E+04  0.10100000352E+00 0.  1.
       -3    1    3    3    0  502  0.68776833174E+03 -0.31505956152E+03  0.10897929016E+04  0.13266259397E+04  0.10100000352E+00 0. -1.
</event>
<event>
 5   0  0.2065692E-05  0.2390302E+04  0.7818609E-02  0.8443143E-01
       -1   -1    0    0    0  501  0.00000000000E+00  0.00000000000E+00  0.15101734358E+04  0.15101734358E+04  0.50400001928E-02 0. -1.
        1   -1    0    0  501    0  0.00000000000E+00  0.00000000000E+00 -0.94584237091E+03  0.94584237092E+03  0.50400001928E-02 0.  1.
    10030    2    1    2    0    0  0.00000000000E+00  0.00000000000E+00  0.56433106491E+03  0.24560158068E+04  0.23903020923E+04 0.  0.
        3    1    3    3  502    0  0.15778911594E+03  0.82764624175E+03  0.11531067066E+04  0.14281284233E+04  0.10100000352E+00 0. -1.
       -3    1    3    3    0  502 -0.15778911594E+03 -0.82764624175E+03 -0.58877564166E+03  0.10278873834E+04  0.10100000352E+00 0.  1.
</event>
<event>
 5   0  0.4856882E-05  0.2409775E+04  0.7818609E-02  0.8435853E-01
        2   -1    0    0  501    0  0.00000000000E+00  0.00000000000E+00  0.14272863804E+04  0.14272863804E+04  0.25500000920E-02 0.  1.
       -2   -1    0    0    0  501  0.00000000000E+00  0.00000000000E+00 -0.10171423283E+04  0.10171423283E+04  0.25500000920E-02 0. -1.
    10030    2    1    2    0    0  0.00000000000E+00  0.00000000000E+00  0.41014405206E+03  0.24444287087E+04  0.24097745887E+04 0.  0.
        1    1    3    3  502    0  0.47851542138E+03  0.85558072264E+03 -0.50554343762E+03  0.11029821163E+04  0.50400001928E-02 0.  1.
       -1    1    3    3    0  502 -0.47851542138E+03 -0.85558072264E+03  0.91568748968E+03  0.13414465924E+04  0.50400001928E-02 0. -1.
</event>
<event>
 5   0  0.2057599E-05  0.2404666E+04  0.7818609E-02  0.8437759E-01
        1   -1    0    0  501    0  0.00000000000E+00  0.00000000000E+00  0.14723250908E+04  0.14723250908E+04  0.50400001928E-02 0.  1.
       -1   -1    0    0    0  501  0.00000000000E+00  0.00000000000E+00 -0.98185187847E+03  0.98185187848E+03  0.50400001928E-02 0. -1.
    10030    2    1    2    0    0  0.00000000000E+00  0.00000000000E+00  0.49047321236E+03  0.24541769693E+04  0.24046664269E+04 0.  0.
        4    1    3    3  502    0 -0.46796828621E+03 -0.38338878077E+03 -0.81520547490E+03  0.10151565659E+04  0.12699999809E+01 0. -1.
       -4    1    3    3    0  502  0.46796828621E+03  0.38338878077E+03  0.13056786873E+04  0.14390204034E+04  0.12699999809E+01 0.  1.
</event>
<event>
 5   0  0.2090039E-05  0.2468755E+04  0.7818609E-02  0.8414202E-01
       -1   -1    0    0    0  501  0.00000000000E+00  0.00000000000E+00  0.81540812218E+03  0.81540812219E+03  0.50400001928E-02 0. -1.
        1   -1    0    0  501    0  0.00000000000E+00  0.00000000000E+00 -0.18686200792E+04  0.18686200792E+04  0.50400001928E-02 0.  1.
    10030    2    1    2    0    0  0.00000000000E+00  0.00000000000E+00 -0.10532119570E+04  0.26840282014E+04  0.24687551437E+04 0.  0.
        1    1    3    3  502    0 -0.97671903961E+03 -0.69920276514E+03 -0.21752120076E+03  0.12207293156E+04  0.50400001928E-02 0. -1.
       -1    1    3    3    0  502  0.97671903961E+03  0.69920276514E+03 -0.83569075625E+03  0.14632988858E+04  0.50400001928E-02 0.  1.
</event>
<event>
 5   0  0.4914005E-05  0.2338057E+04  0.7818609E-02  0.8463065E-01
       -2   -1    0    0    0  501  0.00000000000E+00  0.00000000000E+00  0.17580551827E+04  0.17580551827E+04  0.25500000920E-02 0. -1.
        2   -1    0    0  501    0  0.00000000000E+00  0.00000000000E+00 -0.77735164994E+03  0.77735164994E+03  0.25500000920E-02 0.  1.
    10030    2    1    2    0    0  0.00000000000E+00  0.00000000000E+00  0.98070353281E+03  0.25354068327E+04  0.23380565408E+04 0.  0.
        2    1    3    3  502    0 -0.96840034639E+03 -0.44413002391E+03 -0.31491140566E+02  0.10658528984E+04  0.25500000920E-02 0.  1.
       -2    1    3    3    0  502  0.96840034639E+03  0.44413002391E+03  0.10121946734E+04  0.14695539343E+04  0.25500000920E-02 0. -1.
</event>
<event>
 5   0  0.2065692E-05  0.2465478E+04  0.7818609E-02  0.8415389E-01
       -1   -1    0    0    0  501  0.00000000000E+00  0.00000000000E+00  0.11862159973E+04  0.11862159973E+04  0.50400001928E-02 0.  1.
        1   -1    0    0  501    0  0.00000000000E+00  0.00000000000E+00 -0.12810862829E+04  0.12810862829E+04  0.50400001928E-02 0. -1.
    10030    2    1    2    0    0  0.00000000000E+00  0.00000000000E+00 -0.94870285611E+02  0.24673022801E+04  0.24654776759E+04 0.  0.
        3    1    3    3  502    0  0.76685602728E+03  0.46019683341E+03  0.80160049855E+03  0.12010048549E+04  0.10100000352E+00 0.  1.
       -3    1    3    3    0  502 -0.76685602728E+03 -0.46019683341E+03 -0.89647078416E+03  0.12662974252E+04  0.10100000352E+00 0. -1.
</event>
<event>
 5   0  0.4756705E-05  0.2172820E+04  0.7818609E-02  0.8529827E-01
        2   -1    0    0  501    0  0.00000000000E+00  0.00000000000E+00  0.11097317335E+04  0.11097317335E+04  0.25500000920E-02 0.  1.
       -2   -1    0    0    0  501  0.00000000000E+00  0.00000000000E+00 -0.10635785143E+04  0.10635785143E+04  0.25500000920E-02 0. -1.
    10030    2    1    2    0    0  0.00000000000E+00  0.00000000000E+00  0.46153219186E+02  0.21733102478E+04  0.21728201292E+04 0.  0.
        3    1    3    3  502    0 -0.32880556195E+03  0.77834000426E+03  0.70613661735E+03  0.11011608386E+04  0.10100000352E+00 0. -1.
       -3    1    3    3    0  502  0.32880556195E+03 -0.77834000426E+03 -0.65998339816E+03  0.10721494093E+04  0.10100000352E+00 0.  1.
</event>
<event>
 5   0  0.2090039E-05  0.2347204E+04  0.7818609E-02  0.8459538E-01
       -1   -1    0    0    0  501  0.00000000000E+00  0.00000000000E+00  0.10119808133E+04  0.10119808133E+04  0.50400001928E-02 0.  1.
        1   -1    0    0  501    0  0.00000000000E+00  0.00000000000E+00 -0.13610349690E+04  0.13610349690E+04  0.50400001928E-02 0. -1.
    10030    2    1    2    0    0  0.00000000000E+00  0.00000000000E+00 -0.34905415567E+03  0.23730157823E+04  0.23472036766E+04 0.  0.
        1    1    3    3  502    0 -0.85199317625E+03  0.46723085150E+03 -0.83990152524E+03  0.12843798555E+04  0.50400001928E-02 0. -1.
       -1    1    3    3    0  502  0.85199317625E+03 -0.46723085150E+03  0.49084736956E+03  0.10886359268E+04  0.50400001928E-02 0.  1.
</event>
<event>
 5   0  0.4914005E-05  0.2367309E+04  0.7818609E-02  0.8451845E-01
       -2   -1    0    0    0  501  0.00000000000E+00  0.00000000000E+00  0.51142615467E+03  0.51142615467E+03  0.25500000920E-02 0. -1.
        2   -1    0    0  501    0  0.00000000000E+00  0.00000000000E+00 -0.27394723358E+04  0.27394723358E+04  0.25500000920E-02 0.  1.
    10030    2    1    2    0    0  0.00000000000E+00  0.00000000000E+00 -0.22280461812E+04  0.32508984905E+04  0.23673088540E+04 0.  0.
        2    1    3    3  502    0 -0.10864967663E+03  0.34018235518E+03  0.43568356537E+03  0.56333733779E+03  0.25500000920E-02 0. -1.
       -2    1    3    3    0  502  0.10864967663E+03 -0.34018235518E+03 -0.26637297465E+04  0.26875611527E+04  0.25500000920E-02 0.  1.
</event>
<event>
 5   0  0.2139556E-05  0.2164041E+04  0.7818609E-02  0.8533546E-01
       -1   -1    0    0    0  501  0.00000000000E+00  0.00000000000E+00  0.16251858097E+04  0.16251858097E+04  0.50400001928E-02 0.  1.
        1   -1    0    0  501    0  0.00000000000E+00  0.00000000000E+00 -0.72039016744E+03  0.72039016746E+03  0.50400001928E-02 0. -1.
    10030    2    1    2    0    0  0.00000000000E+00  0.00000000000E+00  0.90479564229E+03  0.23455759772E+04  0.21640405520E+04 0.  0.
        2    1    3    3  502    0  0.81143197434E+03 -0.71499507062E+03  0.48880219791E+03  0.11868308172E+04  0.25500000920E-02 0.  1.
       -2    1    3    3    0  502 -0.81143197434E+03  0.71499507062E+03  0.41599344438E+03  0.11587451600E+04  0.25500000920E-02 0. -1.
</event>
<event>
 5   0  0.4756705E-05  0.2246850E+04  0.7818609E-02  0.8499177E-01
       -2   -1    0    0    0  501  0.00000000000E+00  0.00000000000E+00  0.93290112768E+03  0.93290112768E+03  0.25500000920E-02 0.  1.
        2   -1    0    0  501    0  0.00000000000E+00  0.00000000000E+00 -0.13528586067E+04  0.13528586067E+04  0.25500000920E-02 0. -1.
    10030    2    1    2    0    0  0.00000000000E+00  0.00000000000E+00 -0.41995747907E+03  0.22857597344E+04  0.22468496343E+04 0.  0.
        3    1    3    3  502    0 -0.65638474256E+03  0.25411919822E+03 -0.11007365058E+04  0.13065367820E+04  0.10100000352E+00 0. -1.
       -3    1    3    3    0  502  0.65638474256E+03 -0.25411919822E+03  0.68077902675E+03  0.97922295247E+03  0.10100000352E+00 0.  1.
</event>
<event>
 5   0  0.4713971E-05  0.2355630E+04  0.7818609E-02  0.8456304E-01
        2   -1    0    0  501    0  0.00000000000E+00  0.00000000000E+00  0.19927871416E+04  0.19927871416E+04  0.25500000920E-02 0. -1.
       -2   -1    0    0    0  501  0.00000000000E+00  0.00000000000E+00 -0.69613457313E+03  0.69613457314E+03  0.25500000920E-02 0.  1.
    10030    2    1    2    0    0  0.00000000000E+00  0.00000000000E+00  0.12966525684E+04  0.26889217147E+04  0.23556298743E+04 0.  0.
        5    1    3    3  502    0 -0.38313501157E+03  0.17423128147E+03  0.19040023052E+04  0.19499732934E+04  0.46999998093E+01 0. -1.
       -5    1    3    3    0  502  0.38313501157E+03 -0.17423128147E+03 -0.60734973683E+03  0.73894842131E+03  0.46999998093E+01 0.  1.
</event>
<event>
 5   0  0.2139556E-05  0.2466917E+04  0.7818609E-02  0.8414867E-01
       -1   -1    0    0    0  501  0.00000000000E+00  0.00000000000E+00  0.11556240317E+04  0.11556240318E+04  0.50400001928E-02 0. -1.
        1   -1    0    0  501    0  0.00000000000E+00  0.00000000000E+00 -0.13165353584E+04  0.13165353584E+04  0.50400001928E-02 0.  1.
    10030    2    1    2    0    0  0.00000000000E+00  0.00000000000E+00 -0.16091132669E+03  0.24721593902E+04  0.24669170224E+04 0.  0.
        2    1    3    3  502    0  0.67318819970E+03 -0.91864805214E+03 -0.55508996547E+03  0.12669733485E+04  0.25500000920E-02 0.  1.
       -2    1    3    3    0  502 -0.67318819970E+03  0.91864805214E+03  0.39417863879E+03  0.12051860417E+04  0.25500000920E-02 0. -1.
</event>
<event>
 5   0  0.4756705E-05  0.1924967E+04  0.7818609E-02  0.8642527E-01
       -2   -1    0    0    0  501  0.00000000000E+00  0.00000000000E+00  0.86635072788E+03  0.86635072789E+03  0.25500000920E-02 0.  1.
        2   -1    0    0  501    0  0.00000000000E+00  0.00000000000E+00 -0.10692836405E+04  0.10692836405E+04  0.25500000920E-02 0. -1.
    10030    2    1    2    0    0  0.00000000000E+00  0.00000000000E+00 -0.20293291261E+03  0.19356343684E+04  0.19249671792E+04 0.  0.
        3    1    3    3  502    0 -0.59839623463E+03 -0.12460928306E+03  0.64613800346E+03  0.88943794430E+03  0.10100000352E+00 0.  1.
       -3    1    3    3    0  502  0.59839623463E+03  0.12460928306E+03 -0.84907091607E+03  0.10461964241E+04  0.10100000352E+00 0. -1.
</event>
<event>
 5   0  0.4856882E-05  0.2139345E+04  0.7818609E-02  0.8544107E-01
        2   -1    0    0  501    0  0.00000000000E+00  0.00000000000E+00  0.17198681344E+04  0.17198681344E+04  0.25500000920E-02 0.  1.
       -2   -1    0    0    0  501  0.00000000000E+00  0.00000000000E+00 -0.66528300147E+03  0.66528300147E+03  0.25500000920E-02 0. -1.
    10030    2    1    2    0    0  0.00000000000E+00  0.00000000000E+00  0.10545851330E+04  0.23851511359E+04  0.21393447919E+04 0.  0.
        1    1    3    3  502    0  0.71456602843E+03  0.53213475874E+03 -0.13269220479E+03  0.90076591393E+03  0.50400001928E-02 0. -1.
       -1    1    3    3    0  502 -0.71456602843E+03 -0.53213475874E+03  0.11872773377E+04  0.14843852220E+04  0.50400001928E-02 0.  1.
</event>
<event>
 5   0  0.2149920E-05  0.2598711E+04  0.7818609E-02  0.8368639E-01
        1   -1    0    0  501    0  0.00000000000E+00  0.00000000000E+00  0.17999087185E+04  0.17999087185E+04  0.50400001928E-02 0.  1.
       -1   -1    0    0    0  501  0.00000000000E+00  0.00000000000E+00 -0.93800546209E+03  0.93800546210E+03  0.50400001928E-02 0. -1.
    10030    2    1    2    0    0  0.00000000000E+00  0.00000000000E+00  0.86190325641E+03  0.27379141806E+04  0.25987106105E+04 0.  0.
        5    1    3    3  502    0 -0.20612050450E+03  0.31023178239E+03 -0.88054714736E+03  0.95609350479E+03  0.46999998093E+01 0. -1.
       -5    1    3    3    0  502  0.20612050450E+03 -0.31023178239E+03  0.17424504038E+04  0.17818206758E+04  0.46999998093E+01 0.  1.
</event>
<event>
 5   0  0.4756705E-05  0.2417779E+04  0.7818609E-02  0.8432877E-01
        2   -1    0    0  501    0  0.00000000000E+00  0.00000000000E+00  0.20222882706E+04  0.20222882706E+04  0.25500000920E-02 0.  1.
       -2   -1    0    0    0  501  0.00000000000E+00  0.00000000000E+00 -0.72265337896E+03  0.72265337897E+03  0.25500000920E-02 0. -1.
    10030    2    1    2    0    0  0.00000000000E+00  0.00000000000E+00  0.12996348916E+04  0.27449416495E+04  0.24177786929E+04 0.  0.
        3    1    3    3  502    0 -0.18380076465E+03  0.10545863014E+04  0.12139462540E+02  0.10705523644E+04  0.10100000352E+00 0. -1.
       -3    1    3    3    0  502  0.18380076465E+03 -0.10545863014E+04  0.12874954291E+04  0.16743892852E+04  0.10100000352E+00 0.  1.
</event>
<event>
 5   0  0.2057599E-05  0.2390206E+04  0.7818609E-02  0.8443179E-01
        1   -1    0    0  501    0  0.00000000000E+00  0.00000000000E+00  0.11283557449E+04  0.11283557450E+04  0.50400001928E-02 0.  1.
       -1   -1    0    0    0  501  0.00000000000E+00  0.00000000000E+00 -0.12657987287E+04  0.12657987287E+04  0.50400001928E-02 0. -1.
    10030    2    1    2    0    0  0.00000000000E+00  0.00000000000E+00 -0.13744298372E+03  0.23941544736E+04  0.23902060727E+04 0.  0.
        4    1    3    3  502    0  0.64781293603E+03  0.32882829522E+03  0.88178231378E+03  0.11425109670E+04  0.12699999809E+01 0.  1.
       -4    1    3    3    0  502 -0.64781293603E+03 -0.32882829522E+03 -0.10192252975E+04  0.12516435067E+04  0.12699999809E+01 0. -1.
</event>
<event>
 5   0  0.2090039E-05  0.2420563E+04  0.7818609E-02  0.8431845E-01
        1   -1    0    0  501    0  0.00000000000E+00  0.00000000000E+00  0.14495633593E+04  0.14495633593E+04  0.50400001928E-02 0. -1.
       -1   -1    0    0    0  501  0.00000000000E+00  0.00000000000E+00 -0.10104981123E+04  0.10104981123E+04  0.50400001928E-02 0.  1.
    10030    2    1    2    0    0  0.00000000000E+00  0.00000000000E+00  0.43906524699E+03  0.24600614715E+04  0.24205627760E+04 0.  0.
        1    1    3    3  502    0 -0.10596029143E+04 -0.45359357475E+03  0.59471170379E+03  0.12969917030E+04  0.50400001928E-02 0. -1.
       -1    1    3    3    0  502  0.10596029143E+04  0.45359357475E+03 -0.15564645679E+03  0.11630697686E+04  0.50400001928E-02 0.  1.
</event>
<event>
 5   0  0.2065692E-05  0.2357721E+04  0.7818609E-02  0.8455504E-01
       -1   -1    0    0    0  501  0.00000000000E+00  0.00000000000E+00  0.16741339681E+04  0.16741339681E+04  0.50400001928E-02 0.  1.
        1   -1    0    0  501    0  0.00000000000E+00  0.00000000000E+00 -0.83010827038E+03  0.83010827039E+03  0.50400001928E-02 0. -1.
    10030    2    1    2    0    0  0.00000000000E+00  0.00000000000E+00  0.84402569775E+03  0.25042422385E+04  0.23577213175E+04 0.  0.
        3    1    3    3  502    0  0.16279744641E+03 -0.11672567307E+04  0.39348958185E+03  0.12425076841E+04  0.10100000352E+00 0.  1.
       -3    1    3    3    0  502 -0.16279744641E+03  0.11672567307E+04  0.45053611591E+03  0.12617345544E+04  0.10100000352E+00 0. -1.
</event>
<event>
 5   0  0.4664127E-05  0.2438686E+04  0.7818609E-02  0.8425161E-01
       -2   -1    0    0    0  501  0.00000000000E+00  0.00000000000E+00  0.13719031539E+04  0.13719031539E+04  0.25500000920E-02 0.  1.
        2   -1    0    0  501    0  0.00000000000E+00  0.00000000000E+00 -0.10837480101E+04  0.10837480101E+04  0.25500000920E-02 0. -1.
    10030    2    1    2    0    0  0.00000000000E+00  0.00000000000E+00  0.28815514372E+03  0.24556511640E+04  0.24386859684E+04 0.  0.
        4    1    3    3  502    0  0.56989558929E+03  0.10057580594E+04  0.53467481940E+03  0.12736597003E+04  0.12699999809E+01 0.  1.
       -4    1    3    3    0  502 -0.56989558929E+03 -0.10057580594E+04 -0.24651967568E+03  0.11819914637E+04  0.12699999809E+01 0. -1.
</event>
<event>
 5   0  0.4664127E-05  0.2382926E+04  0.7818609E-02  0.8445924E-01
       -2   -1    0    0    0  501  0.00000000000E+00  0.00000000000E+00  0.93427901253E+03  0.93427901253E+03  0.25500000920E-02 0. -1.
        2   -1    0    0  501    0  0.00000000000E+00  0.00000000000E+00 -0.15194428158E+04  0.15194428158E+04  0.25500000920E-02 0.  1.
    10030    2    1    2    0    0  0.00000000000E+00  0.00000000000E+00 -0.58516380326E+03  0.24537218283E+04  0.23829255410E+04 0.  0.
        4    1    3    3  502    0  0.11736892946E+04 -0.97217952184E+02 -0.47845530582E+03  0.12711880204E+04  0.12699999809E+01 0. -1.
       -4    1    3    3    0  502 -0.11736892946E+04  0.97217952184E+02 -0.10670849744E+03  0.11825338079E+04  0.12699999809E+01 0.  1.
</event>
<event>
 5   0  0.1672125E-05  0.2402635E+04  0.7818609E-02  0.8438518E-01
       -4   -1    0    0    0  501  0.00000000000E+00  0.00000000000E+00  0.21975363793E+04  0.21975367463E+04  0.12699999809E+01 0. -1.
        4   -1    0    0  501    0  0.00000000000E+00  0.00000000000E+00 -0.65671762278E+03  0.65671885078E+03  0.12699999809E+01 0.  1.
    10030    2    1    2    0    0  0.00000000000E+00  0.00000000000E+00  0.15408187566E+04  0.28542555971E+04  0.24026345067E+04 0.  0.
        5    1    3    3  502    0  0.94258318907E+03 -0.36973140775E+03  0.15384446629E+04  0.18417378893E+04  0.46999998093E+01 0. -1.
       -5    1    3    3    0  502 -0.94258318907E+03  0.36973140775E+03  0.23740936421E+01  0.10125177078E+04  0.46999998093E+01 0.  1.
</event>
<event>
 5   0  0.2065692E-05  0.2895733E+04  0.7818609E-02  0.8274148E-01
       -1   -1    0    0    0  501  0.00000000000E+00  0.00000000000E+00  0.15958705195E+04  0.15958705195E+04  0.50400001928E-02 0. -1.
        1   -1    0    0  501    0  0.00000000000E+00  0.00000000000E+00 -0.13135882367E+04  0.13135882367E+04  0.50400001928E-02 0.  1.
    10030    2    1    2    0    0  0.00000000000E+00  0.00000000000E+00  0.28228228278E+03  0.29094587561E+04  0.28957325440E+04 0.  0.
        3    1    3    3  502    0  0.15864151582E+03 -0.67879013088E+03 -0.11338870008E+04  0.13310232579E+04  0.10100000352E+00 0.  1.
       -3    1    3    3    0  502 -0.15864151582E+03  0.67879013088E+03  0.14161692835E+04  0.15784354983E+04  0.10100000352E+00 0. -1.
</event>
<event>
 5   0  0.2149920E-05  0.2416035E+04  0.7818609E-02  0.8433525E-01
       -1   -1    0    0    0  501  0.00000000000E+00  0.00000000000E+00  0.12333818942E+04  0.12333818942E+04  0.50400001928E-02 0. -1.
        1   -1    0    0  501    0  0.00000000000E+00  0.00000000000E+00 -0.11831743335E+04  0.11831743336E+04  0.50400001928E-02 0.  1.
    10030    2    1    2    0    0  0.00000000000E+00  0.00000000000E+00  0.50207560693E+02  0.24165562278E+04  0.24160346030E+04 0.  0.
        5    1    3    3  502    0 -0.37280472137E+03  0.11372045305E+04  0.18965740291E+03  0.12116969609E+04  0.46999998093E+01 0. -1.
       -5    1    3    3    0  502  0.37280472137E+03 -0.11372045305E+04 -0.13944984222E+03  0.12048592669E+04  0.46999998093E+01 0.  1.
</event>
<event>
 5   0  0.4914005E-05  0.2258464E+04  0.7818609E-02  0.8494481E-01
       -2   -1    0    0    0  501  0.00000000000E+00  0.00000000000E+00  0.12890148339E+04  0.12890148340E+04  0.25500000920E-02 0. -1.
        2   -1    0    0  501    0  0.00000000000E+00  0.00000000000E+00 -0.98925530732E+03  0.98925530732E+03  0.25500000920E-02 0.  1.
    10030    2    1    2    0    0  0.00000000000E+00  0.00000000000E+00  0.29975952663E+03  0.22782701413E+04  0.22584638724E+04 0.  0.
        2    1    3    3  502    0 -0.20061524037E+03  0.73289311150E+03 -0.69278180971E+03  0.10282633045E+04  0.25500000920E-02 0.  1.
       -2    1    3    3    0  502  0.20061524037E+03 -0.73289311150E+03  0.99254133635E+03  0.12500068367E+04  0.25500000920E-02 0. -1.
</event>
<event>
 5   0  0.4756705E-05  0.2407067E+04  0.7818609E-02  0.8436863E-01
       -2   -1    0    0    0  501  0.00000000000E+00  0.00000000000E+00  0.77504227909E+03  0.77504227909E+03  0.25500000920E-02 0.  1.
        2   -1    0    0  501    0  0.00000000000E+00  0.00000000000E+00 -0.18689209991E+04  0.18689209991E+04  0.25500000920E-02 0. -1.
    10030    2    1    2    0    0  0.00000000000E+00  0.00000000000E+00 -0.10938787200E+04  0.26439632782E+04  0.24070669210E+04 0.  0.
        3    1    3    3  502    0  0.47664579842E+03 -0.89241171811E+03 -0.12629378330E+04  0.16182094648E+04  0.10100000352E+00 0. -1.
       -3    1    3    3    0  502 -0.47664579842E+03  0.89241171811E+03  0.16905911300E+03  0.10257538134E+04  0.10100000352E+00 0.  1.
</event>
<event>
 5   0  0.4856882E-05  0.2494809E+04  0.7818609E-02  0.8404837E-01
        2   -1    0    0  501    0  0.00000000000E+00  0.00000000000E+00  0.10974026324E+04  0.10974026324E+04  0.25500000920E-02 0. -1.
       -2   -1    0    0    0  501  0.00000000000E+00  0.00000000000E+00 -0.14179094436E+04  0.14179094436E+04  0.25500000920E-02 0.  1.
    10030    2    1    2    0    0  0.00000000000E+00  0.00000000000E+00 -0.32050681126E+03  0.25153120760E+04  0.24948086547E+04 0.  0.
        1    1    3    3  502    0  0.10132772990E+04  0.22066184403E+02  0.57290911629E+03  0.11642347945E+04  0.50400001928E-02 0. -1.
       -1    1    3    3    0  502 -0.10132772990E+04 -0.22066184403E+02 -0.89341592755E+03  0.13510772815E+04  0.50400001928E-02 0.  1.
</event>
<event>
 5   0  0.4914005E-05  0.2350192E+04  0.7818609E-02  0.8458390E-01
       -2   -1    0    0    0  501  0.00000000000E+00  0.00000000000E+00  0.18525262016E+04  0.18525262016E+04  0.25500000920E-02 0. -1.
        2   -1    0    0  501    0  0.00000000000E+00  0.00000000000E+00 -0.74538784474E+03  0.74538784474E+03  0.25500000920E-02 0.  1.
    10030    2    1    2    0    0  0.00000000000E+00  0.00000000000E+00  0.11071383569E+04  0.25979140464E+04  0.23501919179E+04 0.  0.
        2    1    3    3  502    0 -0.57146171611E+03  0.70910021321E+02  0.16858697399E+04  0.17815031585E+04  0.25500000920E-02 0. -1.
       -2    1    3    3    0  502  0.57146171611E+03 -0.70910021321E+02 -0.57873138298E+03  0.81641088782E+03  0.25500000920E-02 0.  1.
</event>
<event>
 5   0  0.4756705E-05  0.2416516E+04  0.7818609E-02  0.8433346E-01
        2   -1    0    0  501    0  0.00000000000E+00  0.00000000000E+00  0.11728190574E+04  0.11728190574E+04  0.25500000920E-02 0. -1.
       -2   -1    0    0    0  501  0.00000000000E+00  0.00000000000E+00 -0.12447674763E+04  0.12447674763E+04  0.25500000920E-02 0.  1.
    10030    2    1    2    0    0  0.00000000000E+00  0.00000000000E+00 -0.71948418924E+02  0.24175865336E+04  0.24165156885E+04 0.  0.
        3    1    3    3  502    0  0.49464190212E+03  0.79407010804E+03 -0.80094960175E+03  0.12315592647E+04  0.10100000352E+00 0.  1.
       -3    1    3    3    0  502 -0.49464190212E+03 -0.79407010804E+03  0.72900118282E+03  0.11860272689E+04  0.10100000352E+00 0. -1.
</event>
<event>
 5   0  0.2065692E-05  0.2390313E+04  0.7818609E-02  0.8443139E-01
       -1   -1    0    0    0  501  0.00000000000E+00  0.00000000000E+00  0.12314672154E+04  0.12314672154E+04  0.50400001928E-02 0. -1.
        1   -1    0    0  501    0  0.00000000000E+00  0.00000000000E+00 -0.11599163958E+04  0.11599163958E+04  0.50400001928E-02 0.  1.
    10030    2    1    2    0    0  0.00000000000E+00  0.00000000000E+00  0.71550819556E+02  0.23913836112E+04  0.23903129620E+04 0.  0.
        3    1    3    3  502    0 -0.86624824660E+03  0.50199703100E+03 -0.61721285731E+03  0.11761542268E+04  0.10100000352E+00 0.  1.
       -3    1    3    3    0  502  0.86624824660E+03 -0.50199703100E+03  0.68876367687E+03  0.12152293844E+04  0.10100000352E+00 0. -1.
</event>
<event>
 5   0  0.4713971E-05  0.2317495E+04  0.7818609E-02  0.8471055E-01
        2   -1    0    0  501    0  0.00000000000E+00  0.00000000000E+00  0.11704682074E+04  0.11704682074E+04  0.25500000920E-02 0. -1.
       -2   -1    0    0    0  501  0.00000000000E+00  0.00000000000E+00 -0.11471440711E+04  0.11471440711E+04  0.25500000920E-02 0.  1.
    10030    2    1    2    0    0  0.00000000000E+00  0.00000000000E+00  0.23324136278E+02  0.23176122785E+04  0.23174949100E+04 0.  0.
        5    1    3    3  502    0 -0.60347063193E+01  0.10942998146E+02  0.11703912830E+04  0.11704674332E+04  0.46999998093E+01 0. -1.
       -5    1    3    3    0  502  0.60347063193E+01 -0.10942998146E+02 -0.11470671467E+04  0.11471448453E+04  0.46999998093E+01 0.  1.
</event>
<event>
 5   0  0.2149920E-05  0.2410483E+04  0.7818609E-02  0.8435589E-01
       -1   -1    0    0    0  501  0.00000000000E+00  0.00000000000E+00  0.12124581188E+04  0.12124581188E+04  0.50400001928E-02 0. -1.
        1   -1    0    0  501    0  0.00000000000E+00  0.00000000000E+00 -0.11980676949E+04  0.11980676949E+04  0.50400001928E-02 0.  1.
    10030    2    1    2    0    0  0.00000000000E+00  0.00000000000E+00  0.14390423939E+02  0.24105258137E+04  0.24104828592E+04 0.  0.
        5    1    3    3  502    0  0.69766885338E+03 -0.26870187187E+03  0.95253860892E+03  0.12109064441E+04  0.46999998093E+01 0. -1.
       -5    1    3    3    0  502 -0.69766885338E+03  0.26870187187E+03 -0.93814818499E+03  0.11996193696E+04  0.46999998093E+01 0.  1.
</event>
<event>
 5   0  0.2065692E-05  0.2569429E+04  0.7818609E-02  0.8378660E-01
       -1   -1    0    0    0  501  0.00000000000E+00  0.00000000000E+00  0.10882038386E+04  0.10882038386E+04  0.50400001928E-02 0.  1.
        1   -1    0    0  501    0  0.00000000000E+00  0.00000000000E+00 -0.15167111171E+04  0.15167111171E+04  0.50400001928E-02 0. -1.
    10030    2    1    2    0    0  0.00000000000E+00  0.00000000000E+00 -0.42850727854E+03  0.26049149557E+04  0.25694286210E+04 0.  0.
        3    1    3    3  502    0 -0.11546774070E+04  0.53260405815E+03 -0.28574351669E+02  0.12719133228E+04  0.10100000352E+00 0. -1.
       -3    1    3    3    0  502  0.11546774070E+04 -0.53260405815E+03 -0.39993292687E+03  0.13330016329E+04  0.10100000352E+00 0.  1.
</event>
<event>
 5   0  0.4756705E-05  0.2512564E+04  0.7818609E-02  0.8398523E-01
       -2   -1    0    0    0  501  0.00000000000E+00  0.00000000000E+00  0.10972457906E+04  0.10972457906E+04  0.25500000920E-02 0. -1.
        2   -1    0    0  501    0  0.00000000000E+00  0.00000000000E+00 -0.14383694341E+04  0.14383694341E+04  0.25500000920E-02 0.  1.
    10030    2    1    2    0    0  0.00000000000E+00  0.00000000000E+00 -0.34112364351E+03  0.25356152248E+04  0.25125642734E+04 0.  0.
        3    1    3    3  502    0  0.99499255155E+03 -0.31397413682E+03 -0.87673497937E+03  0.13628111280E+04  0.10100000352E+00 0.  1.
       -3    1    3    3    0  502 -0.99499255155E+03  0.31397413682E+03  0.53561133586E+03  0.11728040968E+04  0.10100000352E+00 0. -1.
</event>
<event>
 5   0  0.2090039E-05  0.2420027E+04  0.7818609E-02  0.8432043E-01
        1   -1    0    0  501    0  0.00000000000E+00  0.00000000000E+00  0.16594109572E+04  0.16594109572E+04  0.50400001928E-02 0. -1.
       -1   -1    0    0    0  501  0.00000000000E+00  0.00000000000E+00 -0.88232099563E+03  0.88232099565E+03  0.50400001928E-02 0.  1.
    10030    2    1    2    0    0  0.00000000000E+00  0.00000000000E+00  0.77708996159E+03  0.25417319529E+04  0.24200273783E+04 0.  0.
        1    1    3    3  502    0 -0.75241403168E+03  0.22500139191E+03  0.13553719016E+04  0.15664563490E+04  0.50400001928E-02 0. -1.
       -1    1    3    3    0  502  0.75241403168E+03 -0.22500139191E+03 -0.57828194004E+03  0.97527560393E+03  0.50400001928E-02 0.  1.
</event>
<event>
 5   0  0.2065692E-05  0.2383863E+04  0.7818609E-02  0.8445570E-01
        1   -1    0    0  501    0  0.00000000000E+00  0.00000000000E+00  0.15195919097E+04  0.15195919098E+04  0.50400001928E-02 0.  1.
       -1   -1    0    0    0  501  0.00000000000E+00  0.00000000000E+00 -0.93492230566E+03  0.93492230568E+03  0.50400001928E-02 0. -1.
    10030    2    1    2    0    0  0.00000000000E+00  0.00000000000E+00  0.58466960408E+03  0.24545142154E+04  0.23838627242E+04 0.  0.
        3    1    3    3  502    0 -0.10744806380E+04 -0.47079414796E+03  0.75023760094E+02  0.11754932352E+04  0.10100000352E+00 0. -1.
       -3    1    3    3    0  502  0.10744806380E+04  0.47079414796E+03  0.50964584398E+03  0.12790209802E+04  0.10100000352E+00 0.  1.
</event>
<event>
 5   0  0.2139556E-05  0.2460828E+04  0.7818609E-02  0.8417075E-01
       -1   -1    0    0    0  501  0.00000000000E+00  0.00000000000E+00  0.14435301531E+04  0.14435301531E+04  0.50400001928E-02 0. -1.
        1   -1    0    0  501    0  0.00000000000E+00  0.00000000000E+00 -0.10487615772E+04  0.10487615772E+04  0.50400001928E-02 0.  1.
    10030    2    1    2    0    0  0.00000000000E+00  0.00000000000E+00  0.39476857596E+03  0.24922917303E+04  0.24608282834E+04 0.  0.
        2    1    3    3  502    0 -0.92224119438E+03 -0.48427413120E+03 -0.46586950939E+03  0.11410892404E+04  0.25500000920E-02 0.  1.
       -2    1    3    3    0  502  0.92224119438E+03  0.48427413120E+03  0.86063808535E+03  0.13512024899E+04  0.25500000920E-02 0. -1.
</event>
<event>
 5   0  0.2149920E-05  0.2402955E+04  0.7818609E-02  0.8438398E-01
        1   -1    0    0  501    0  0.00000000000E+00  0.00000000000E+00  0.18038281364E+04  0.18038281364E+04  0.50400001928E-02 0. -1.
       -1   -1    0    0    0  501  0.00000000000E+00  0.00000000000E+00 -0.80026917596E+03  0.80026917597E+03  0.50400001928E-02 0.  1.
    10030    2    1    2    0    0  0.00000000000E+00  0.00000000000E+00  0.10035589604E+04  0.26040973123E+04  0.24029548945E+04 0.  0.
        5    1    3    3  502    0  0.55660485641E+03 -0.86172693244E+03  0.11795454463E+04  0.15632440059E+04  0.46999998093E+01 0. -1.
       -5    1    3    3    0  502 -0.55660485641E+03  0.86172693244E+03 -0.17598648586E+03  0.10408533064E+04  0.46999998093E+01 0.  1.
</event>
<event>
 5   0  0.4664127E-05  0.2400479E+04  0.7818609E-02  0.8439324E-01
       -2   -1    0    0    0  501  0.00000000000E+00  0.00000000000E+00  0.63991132601E+03  0.63991132601E+03  0.25500000920E-02 0. -1.
        2   -1    0    0  501    0  0.00000000000E+00  0.00000000000E+00 -0.22512107899E+04  0.22512107899E+04  0.25500000920E-02 0.  1.
    10030    2    1    2    0    0  0.00000000000E+00  0.00000000000E+00 -0.16112994639E+04  0.28911221159E+04  0.24004793535E+04 0.  0.
        4    1    3    3  502    0 -0.13717996302E+03  0.11183436295E+04 -0.13037838820E+04  0.17231845054E+04  0.12699999809E+01 0.  1.
       -4    1    3    3    0  502  0.13717996302E+03 -0.11183436295E+04 -0.30751558190E+03  0.11679376105E+04  0.12699999809E+01 0. -1.
</event>
<event>
 5   0  0.4856882E-05  0.2436784E+04  0.7818609E-02  0.8425859E-01
        2   -1    0    0  501    0  0.00000000000E+00  0.00000000000E+00  0.26145110659E+04  0.26145110659E+04  0.25500000920E-02 0.  1.
       -2   -1    0    0    0  501  0.00000000000E+00  0.00000000000E+00 -0.56778453802E+03  0.56778453803E+03  0.25500000920E-02 0. -1.
    10030    2    1    2    0    0  0.00000000000E+00  0.00000000000E+00  0.20467265278E+04  0.31822956039E+04  0.24367839114E+04 0.  0.
        1    1    3    3  502    0 -0.10260178233E+04  0.64811559731E+03  0.11646981421E+04  0.16820487994E+04  0.50400001928E-02 0.  1.
       -1    1    3    3    0  502  0.10260178233E+04 -0.64811559731E+03  0.88202838575E+03  0.15002468045E+04  0.50400001928E-02 0. -1.
</event>
<event>
 5   0  0.2057599E-05  0.2426712E+04  0.7818609E-02  0.8429570E-01
        1   -1    0    0  501    0  0.00000000000E+00  0.00000000000E+00  0.23603330846E+04  0.23603330846E+04  0.50400001928E-02 0.  1.
       -1   -1    0    0    0  501  0.00000000000E+00  0.00000000000E+00 -0.62373918776E+03  0.62373918778E+03  0.50400001928E-02 0. -1.
    10030    2    1    2    0    0  0.00000000000E+00  0.00000000000E+00  0.17365938968E+04  0.29840722724E+04  0.24267115536E+04 0.  0.
        4    1    3    3  502    0  0.94537604435E+03 -0.63561008322E+02 -0.63709883944E+02  0.94965068800E+03  0.12699999809E+01 0. -1.
       -4    1    3    3    0  502 -0.94537604435E+03  0.63561008322E+02  0.18003037808E+04  0.20344215844E+04  0.12699999809E+01 0.  1.
</event>
<event>
 5   0  0.4914005E-05  0.2437545E+04  0.7818609E-02  0.8425580E-01
        2   -1    0    0  501    0  0.00000000000E+00  0.00000000000E+00  0.19951270997E+04  0.19951270997E+04  0.25500000920E-02 0.  1.
       -2   -1    0    0    0  501  0.00000000000E+00  0.00000000000E+00 -0.74451688942E+03  0.74451688942E+03  0.25500000920E-02 0. -1.
    10030    2    1    2    0    0  0.00000000000E+00  0.00000000000E+00  0.12506102103E+04  0.27396439891E+04  0.24375445204E+04 0.  0.
        2    1    3    3  502    0  0.83600244880E+03 -0.75067086484E+03  0.11560587840E+04  0.16121038285E+04  0.25500000920E-02 0.  1.
       -2    1    3    3    0  502 -0.83600244880E+03  0.75067086484E+03  0.94551426309E+02  0.11275401607E+04  0.25500000920E-02 0. -1.
</event>
<event>
 5   0  0.2149920E-05  0.2392196E+04  0.7818609E-02  0.8442431E-01
       -1   -1    0    0    0  501  0.00000000000E+00  0.00000000000E+00  0.65361020732E+03  0.65361020734E+03  0.50400001928E-02 0.  1.
        1   -1    0    0  501    0  0.00000000000E+00  0.00000000000E+00 -0.21888441002E+04  0.21888441002E+04  0.50400001928E-02 0. -1.
    10030    2    1    2    0    0  0.00000000000E+00  0.00000000000E+00 -0.15352338929E+04  0.28424543075E+04  0.23921963516E+04 0.  0.
        5    1    3    3  502    0  0.30972030288E+03 -0.11438215885E+04 -0.96058563348E+03  0.15254511928E+04  0.46999998093E+01 0. -1.
       -5    1    3    3    0  502 -0.30972030288E+03  0.11438215885E+04 -0.57464825938E+03  0.13170031148E+04  0.46999998093E+01 0.  1.
</event>
<event>
 5   0  0.4914005E-05  0.2447348E+04  0.7818609E-02  0.8421987E-01
       -2   -1    0    0    0  501  0.00000000000E+00  0.00000000000E+00  0.17758798199E+04  0.17758798199E+04  0.25500000920E-02 0. -1.
        2   -1    0    0  501    0  0.00000000000E+00  0.00000000000E+00 -0.84317555648E+03  0.84317555649E+03  0.25500000920E-02 0.  1.
    10030    2    1    2    0    0  0.00000000000E+00  0.00000000000E+00  0.93270426338E+03  0.26190553764E+04  0.24473483245E+04 0.  0.
        2    1    3    3  502    0 -0.85951605593E+03 -0.74242693256E+03  0.95373103894E+03  0.14830942301E+04  0.25500000920E-02 0. -1.
       -2    1    3    3    0  502  0.85951605593E+03  0.74242693256E+03 -0.21026775553E+02  0.11359611463E+04  0.25500000920E-02 0.  1.
</event>
<event>
 5   0  0.2057599E-05  0.2374873E+04  0.7818609E-02  0.8448971E-01
       -1   -1    0    0    0  501  0.00000000000E+00  0.00000000000E+00  0.95846642223E+03  0.95846642225E+03  0.50400001928E-02 0. -1.
        1   -1    0    0  501    0  0.00000000000E+00  0.00000000000E+00 -0.14711061408E+04  0.14711061408E+04  0.50400001928E-02 0.  1.
    10030    2    1    2    0    0  0.00000000000E+00  0.00000000000E+00 -0.51263971855E+03  0.24295725630E+04  0.23748733352E+04 0.  0.
        4    1    3    3  502    0  0.24064541986E+03 -0.10277747004E+04 -0.81269640517E+03  0.13321817116E+04  0.12699999809E+01 0.  1.
       -4    1    3    3    0  502 -0.24064541986E+03  0.10277747004E+04  0.30005668661E+03  0.10973908515E+04  0.12699999809E+01 0. -1.
</event>
<event>
 5   0  0.2057599E-05  0.2424884E+04  0.7818609E-02  0.8430246E-01
        1   -1    0    0  501    0  0.00000000000E+00  0.00000000000E+00  0.11537920735E+04  0.11537920735E+04  0.50400001928E-02 0. -1.
       -1   -1    0    0    0  501  0.00000000000E+00  0.00000000000E+00 -0.12740733636E+04  0.12740733636E+04  0.50400001928E-02 0.  1.
    10030    2    1    2    0    0  0.00000000000E+00  0.00000000000E+00 -0.12028129012E+03  0.24278654371E+04  0.24248841192E+04 0.  0.
        4    1    3    3  502    0  0.91763375085E+03  0.74924381610E+03  0.19823891046E+03  0.12011320807E+04  0.12699999809E+01 0. -1.
       -4    1    3    3    0  502 -0.91763375085E+03 -0.74924381610E+03 -0.31852020058E+03  0.12267333564E+04  0.12699999809E+01 0.  1.
</event>
<event>
 5   0  0.2139556E-05  0.2310411E+04  0.7818609E-02  0.8473827E-01
        1   -1    0    0  501    0  0.00000000000E+00  0.00000000000E+00  0.92565163272E+03  0.92565163273E+03  0.50400001928E-02 0. -1.
       -1   -1    0    0    0  501  0.00000000000E+00  0.00000000000E+00 -0.14416874100E+04  0.14416874100E+04  0.50400001928E-02 0.  1.
    10030    2    1    2    0    0  0.00000000000E+00  0.00000000000E+00 -0.51603577730E+03  0.23673390428E+04  0.23104114828E+04 0.  0.
        2    1    3    3  502    0  0.24008938030E+03 -0.10828474194E+04  0.72892886102E+02  0.11115371416E+04  0.25500000920E-02 0. -1.
       -2    1    3    3    0  502 -0.24008938030E+03  0.10828474194E+04 -0.58892866340E+03  0.12558019011E+04  0.25500000920E-02 0.  1.
</event>
<event>
 5   0  0.4664127E-05  0.2375785E+04  0.7818609E-02  0.8448625E-01
       -2   -1    0    0    0  501  0.00000000000E+00  0.00000000000E+00  0.64312590102E+03  0.64312590102E+03  0.25500000920E-02 0.  1.
        2   -1    0    0  501    0  0.00000000000E+00  0.00000000000E+00 -0.21941085194E+04  0.21941085194E+04  0.25500000920E-02 0. -1.
    10030    2    1    2    0    0  0.00000000000E+00  0.00000000000E+00 -0.15509826184E+04  0.28372344205E+04  0.23757845176E+04 0.  0.
        4    1    3    3  502    0 -0.85740122600E+03 -0.30377142456E+03 -0.16878650451E+04  0.19173690214E+04  0.12699999809E+01 0. -1.
       -4    1    3    3    0  502  0.85740122600E+03  0.30377142456E+03  0.13688242672E+03  0.91986539905E+03  0.12699999809E+01 0.  1.
</event>
<event>
 5   0  0.1672125E-05  0.2376676E+04  0.7818609E-02  0.8448288E-01
       -3   -1    0    0    0  501  0.00000000000E+00  0.00000000000E+00  0.10623913362E+04  0.10623913410E+04  0.10100000352E+00 0. -1.
        3   -1    0    0  501    0  0.00000000000E+00  0.00000000000E+00 -0.13292157275E+04  0.13292157313E+04  0.10100000352E+00 0.  1.
    10030    2    1    2    0    0  0.00000000000E+00  0.00000000000E+00 -0.26682439127E+03  0.23916070723E+04  0.23766760680E+04 0.  0.
        2    1    3    3  502    0 -0.27508064051E+03 -0.95712116913E+03 -0.78586580182E+03  0.12685958181E+04  0.25500000920E-02 0.  1.
       -2    1    3    3    0  502  0.27508064051E+03  0.95712116913E+03  0.51904141055E+03  0.11230112542E+04  0.25500000920E-02 0. -1.
</event>
<event>
 5   0  0.4713971E-05  0.2369097E+04  0.7818609E-02  0.8451165E-01
       -2   -1    0    0    0  501  0.00000000000E+00  0.00000000000E+00  0.12325706600E+04  0.12325706600E+04  0.25500000920E-02 0.  1.
        2   -1    0    0  501    0  0.00000000000E+00  0.00000000000E+00 -0.11383973478E+04  0.11383973478E+04  0.25500000920E-02 0. -1.
    10030    2    1    2    0    0  0.00000000000E+00  0.00000000000E+00  0.94173312178E+02  0.23709680078E+04  0.23690970181E+04 0.  0.
        5    1    3    3  502    0 -0.46622448560E+02 -0.46293428104E+03  0.11372822028E+04  0.12287858642E+04  0.46999998093E+01 0.  1.
       -5    1    3    3    0  502  0.46622448560E+02  0.46293428104E+03 -0.10431088906E+04  0.11421821435E+04  0.46999998093E+01 0. -1.
</event>
<event>
 5   0  0.4713971E-05  0.2289309E+04  0.7818609E-02  0.8482148E-01
       -2   -1    0    0    0  501  0.00000000000E+00  0.00000000000E+00  0.69448213465E+03  0.69448213466E+03  0.25500000920E-02 0. -1.
        2   -1    0    0  501    0  0.00000000000E+00  0.00000000000E+00 -0.18866349141E+04  0.18866349141E+04  0.25500000920E-02 0.  1.
    10030    2    1    2    0    0  0.00000000000E+00  0.00000000000E+00 -0.11921527795E+04  0.25811170488E+04  0.22893092779E+04 0.  0.
        5    1    3    3  502    0 -0.12161407300E+02 -0.83392489892E+02  0.69096869613E+03  0.69610490318E+03  0.46999998093E+01 0. -1.
       -5    1    3    3    0  502  0.12161407300E+02  0.83392489892E+02 -0.18831214756E+04  0.18850121456E+04  0.46999998093E+01 0.  1.
</event>
<event>
 5   0  0.4664127E-05  0.2416316E+04  0.7818609E-02  0.8433420E-01
        2   -1    0    0  501    0  0.00000000000E+00  0.00000000000E+00  0.97244601023E+03  0.97244601023E+03  0.25500000920E-02 0.  1.
       -2   -1    0    0    0  501  0.00000000000E+00  0.00000000000E+00 -0.15010045054E+04  0.15010045054E+04  0.25500000920E-02 0. -1.
    10030    2    1    2    0    0  0.00000000000E+00  0.00000000000E+00 -0.52855849516E+03  0.24734505156E+04  0.24163160742E+04 0.  0.
        4    1    3    3  502    0  0.21536588456E+03  0.83364774611E+03  0.60328243225E+03  0.10513335982E+04  0.12699999809E+01 0.  1.
       -4    1    3    3    0  502 -0.21536588456E+03 -0.83364774611E+03 -0.11318409274E+04  0.14221169174E+04  0.12699999809E+01 0. -1.
</event>
<event>
 5   0  0.2057599E-05  0.2418208E+04  0.7818609E-02  0.8432718E-01
       -1   -1    0    0    0  501  0.00000000000E+00  0.00000000000E+00  0.13599378530E+04  0.13599378530E+04  0.50400001928E-02 0.  1.
        1   -1    0    0  501    0  0.00000000000E+00  0.00000000000E+00 -0.10749999094E+04  0.10749999094E+04  0.50400001928E-02 0. -1.
    10030    2    1    2    0    0  0.00000000000E+00  0.00000000000E+00  0.28493794366E+03  0.24349377624E+04  0.24182084846E+04 0.  0.
        4    1    3    3  502    0 -0.90525557726E+03 -0.77003756614E+03 -0.81524338089E+02  0.11912570436E+04  0.12699999809E+01 0.  1.
       -4    1    3    3    0  502  0.90525557726E+03  0.77003756614E+03  0.36646228175E+03  0.12436807188E+04  0.12699999809E+01 0. -1.
</event>
<event>
 5   0  0.2139556E-05  0.2508739E+04  0.7818609E-02  0.8399879E-01
        1   -1    0    0  501    0  0.00000000000E+00  0.00000000000E+00  0.85834746008E+03  0.85834746010E+03  0.50400001928E-02 0.  1.
       -1   -1    0    0    0  501  0.00000000000E+00  0.00000000000E+00 -0.18331069747E+04  0.18331069747E+04  0.50400001928E-02 0. -1.
    10030    2    1    2    0    0  0.00000000000E+00  0.00000000000E+00 -0.97475951461E+03  0.26914544348E+04  0.25087388990E+04 0.  0.
        2    1    3    3  502    0 -0.20879270424E+03  0.97102100864E+03  0.33455668137E+03  0.10480478833E+04  0.25500000920E-02 0.  1.
       -2    1    3    3    0  502  0.20879270424E+03 -0.97102100864E+03 -0.13093161960E+04  0.16434065515E+04  0.25500000920E-02 0. -1.
</event>
<event>
 5   0  0.4914005E-05  0.2332314E+04  0.7818609E-02  0.8465288E-01
       -2   -1    0    0    0  501  0.00000000000E+00  0.00000000000E+00  0.74184528857E+03  0.74184528858E+03  0.25500000920E-02 0.  1.
        2   -1    0    0  501    0  0.00000000000E+00  0.00000000000E+00 -0.18331611442E+04  0.18331611442E+04  0.25500000920E-02 0. -1.
    10030    2    1    2    0    0  0.00000000000E+00  0.00000000000E+00 -0.10913158556E+04  0.25750064328E+04  0.23323138365E+04 0.  0.
        2    1    3    3  502    0 -0.69276464927E+03  0.82473898948E+03 -0.10391659052E+04  0.14966572883E+04  0.25500000920E-02 0. -1.
       -2    1    3    3    0  502  0.69276464927E+03 -0.82473898948E+03 -0.52149950408E+02  0.10783491445E+04  0.25500000920E-02 0.  1.
</event>
<event>
 5   0  0.2139556E-05  0.2333469E+04  0.7818609E-02  0.8464840E-01
        1   -1    0    0  501    0  0.00000000000E+00  0.00000000000E+00  0.16561848827E+04  0.16561848827E+04  0.50400001928E-02 0.  1.
       -1   -1    0    0    0  501  0.00000000000E+00  0.00000000000E+00 -0.82193084164E+03  0.82193084166E+03  0.50400001928E-02 0. -1.
    10030    2    1    2    0    0  0.00000000000E+00  0.00000000000E+00  0.83425404106E+03  0.24781157244E+04  0.23334690352E+04 0.  0.
        2    1    3    3  502    0 -0.40590244885E+03 -0.74694322591E+03 -0.43152582579E+03  0.95336012034E+03  0.25500000920E-02 0.  1.
       -2    1    3    3    0  502  0.40590244885E+03  0.74694322591E+03  0.12657798668E+04  0.15247556040E+04  0.25500000920E-02 0. -1.
</event>
<event>
 5   0  0.4756705E-05  0.2431716E+04  0.7818609E-02  0.8427724E-01
        2   -1    0    0  501    0  0.00000000000E+00  0.00000000000E+00  0.15511856368E+04  0.15511856368E+04  0.25500000920E-02 0.  1.
       -2   -1    0    0    0  501  0.00000000000E+00  0.00000000000E+00 -0.95302005724E+03  0.95302005724E+03  0.25500000920E-02 0. -1.
    10030    2    1    2    0    0  0.00000000000E+00  0.00000000000E+00  0.59816557952E+03  0.25042056940E+04  0.24317162864E+04 0.  0.
        3    1    3    3  502    0 -0.59883829019E+03 -0.76737234766E+03 -0.45122646755E+03  0.10728806797E+04  0.10100000352E+00 0. -1.
       -3    1    3    3    0  502  0.59883829019E+03  0.76737234766E+03  0.10493920471E+04  0.14313250142E+04  0.10100000352E+00 0.  1.
</event>
<event>
 5   0  0.4713971E-05  0.2427794E+04  0.7818609E-02  0.8429171E-01
        2   -1    0    0  501    0  0.00000000000E+00  0.00000000000E+00  0.14833977415E+04  0.14833977415E+04  0.25500000920E-02 0. -1.
       -2   -1    0    0    0  501  0.00000000000E+00  0.00000000000E+00 -0.99335879781E+03  0.99335879781E+03  0.25500000920E-02 0.  1.
    10030    2    1    2    0    0  0.00000000000E+00  0.00000000000E+00  0.49003894372E+03  0.24767565393E+04  0.24277942229E+04 0.  0.
        5    1    3    3  502    0  0.42611692582E+03 -0.11356251477E+04  0.19605147258E+03  0.12286897007E+04  0.46999998093E+01 0. -1.
       -5    1    3    3    0  502 -0.42611692582E+03  0.11356251477E+04  0.29398747114E+03  0.12480668387E+04  0.46999998093E+01 0.  1.
</event>
<event>
 5   0  0.2149920E-05  0.2387544E+04  0.7818609E-02  0.8444181E-01
       -1   -1    0    0    0  501  0.00000000000E+00  0.00000000000E+00  0.68922087268E+03  0.68922087270E+03  0.50400001928E-02 0.  1.
        1   -1    0    0  501    0  0.00000000000E+00  0.00000000000E+00 -0.20676857544E+04  0.20676857544E+04  0.50400001928E-02 0. -1.
    10030    2    1    2    0    0  0.00000000000E+00  0.00000000000E+00 -0.13784648817E+04  0.27569066271E+04  0.23875444960E+04 0.  0.
        5    1    3    3  502    0  0.84956325642E+02 -0.51276034938E+03  0.55170043327E+03  0.75798166945E+03  0.46999998093E+01 0.  1.
       -5    1    3    3    0  502 -0.84956325642E+02  0.51276034938E+03 -0.19301653150E+04  0.19989249577E+04  0.46999998093E+01 0. -1.
</event>
<event>
 5   0  0.2065692E-05  0.2417900E+04  0.7818609E-02  0.8432832E-01
       -1   -1    0    0    0  501  0.00000000000E+00  0.00000000000E+00  0.12531806735E+04  0.12531806735E+04  0.50400001928E-02 0. -1.
        1   -1    0    0  501    0  0.00000000000E+00  0.00000000000E+00 -0.11662806772E+04  0.11662806772E+04  0.50400001928E-02 0.  1.
    10030    2    1    2    0    0  0.00000000000E+00  0.00000000000E+00  0.86899996269E+02  0.24194613507E+04  0.24179002498E+04 0.  0.
        3    1    3    3  502    0 -0.60690180547E+03 -0.78335071304E+03  0.73642311746E+03  0.12346202490E+04  0.10100000352E+00 0. -1.
       -3    1    3    3    0  502  0.60690180547E+03  0.78335071304E+03 -0.64952312119E+03  0.11848411017E+04  0.10100000352E+00 0.  1.
</event>
<event>
 5   0  0.4756705E-05  0.2362493E+04  0.7818609E-02  0.8453681E-01
       -2   -1    0    0    0  501  0.00000000000E+00  0.00000000000E+00  0.15092921921E+04  0.15092921921E+04  0.25500000920E-02 0.  1.
        2   -1    0    0  501    0  0.00000000000E+00  0.00000000000E+00 -0.92450161419E+03  0.92450161419E+03  0.25500000920E-02 0. -1.
    10030    2    1    2    0    0  0.00000000000E+00  0.00000000000E+00  0.58479057794E+03  0.24337938063E+04  0.23624928088E+04 0.  0.
        3    1    3    3  502    0  0.51189347169E+03 -0.72006487860E+03 -0.51537041202E+03  0.10228074245E+04  0.10100000352E+00 0. -1.
       -3    1    3    3    0  502 -0.51189347169E+03  0.72006487860E+03  0.11001609900E+04  0.14109863819E+04  0.10100000352E+00 0.  1.
</event>
<event>
 5   0  0.4856882E-05  0.2006923E+04  0.7818609E-02  0.8603391E-01
       -2   -1    0    0    0  501  0.00000000000E+00  0.00000000000E+00  0.12433864410E+04  0.12433864410E+04  0.25500000920E-02 0.  1.
        2   -1    0    0  501    0  0.00000000000E+00  0.00000000000E+00 -0.80983268578E+03  0.80983268579E+03  0.25500000920E-02 0. -1.
    10030    2    1    2    0    0  0.00000000000E+00  0.00000000000E+00  0.43355375526E+03  0.20532191268E+04  0.20069229990E+04 0.  0.
        1    1    3    3  502    0 -0.83390028933E+02 -0.53373174756E+02  0.12383771566E+04  0.12423286903E+04  0.50400001928E-02 0.  1.
       -1    1    3    3    0  502  0.83390028933E+02  0.53373174756E+02 -0.80482340134E+03  0.81089043654E+03  0.50400001928E-02 0. -1.
</event>
<event>
 5   0  0.4856882E-05  0.2258779E+04  0.7818609E-02  0.8494354E-01
       -2   -1    0    0    0  501  0.00000000000E+00  0.00000000000E+00  0.14290485323E+04  0.14290485323E+04  0.25500000920E-02 0. -1.
        2   -1    0    0  501    0  0.00000000000E+00  0.00000000000E+00 -0.89256622675E+03  0.89256622675E+03  0.25500000920E-02 0.  1.
    10030    2    1    2    0    0  0.00000000000E+00  0.00000000000E+00  0.53648230555E+03  0.23216147590E+04  0.22587788350E+04 0.  0.
        1    1    3    3  502    0  0.81082435193E+03  0.56453572336E+03  0.83062204145E+03  0.12907632193E+04  0.50400001928E-02 0. -1.
       -1    1    3    3    0  502 -0.81082435193E+03 -0.56453572336E+03 -0.29413973591E+03  0.10308515397E+04  0.50400001928E-02 0.  1.
</event>
<event>
 5   0  0.4914005E-05  0.2392839E+04  0.7818609E-02  0.8442189E-01
       -2   -1    0    0    0  501  0.00000000000E+00  0.00000000000E+00  0.18367536580E+04  0.18367536580E+04  0.25500000920E-02 0.  1.
        2   -1    0    0  501    0  0.00000000000E+00  0.00000000000E+00 -0.77932040265E+03  0.77932040265E+03  0.25500000920E-02 0. -1.
    10030    2    1    2    0    0  0.00000000000E+00  0.00000000000E+00  0.10574332554E+04  0.26160740607E+04  0.23928389836E+04 0.  0.
        2    1    3    3  502    0 -0.38807841391E+03  0.38946372788E+03 -0.63302368867E+03  0.83845443591E+03  0.25500000920E-02 0. -1.
       -2    1    3    3    0  502  0.38807841391E+03 -0.38946372788E+03  0.16904569441E+04  0.17776196248E+04  0.25500000920E-02 0.  1.
</event>
<event>
 5   0  0.2090039E-05  0.2426698E+04  0.7818609E-02  0.8429575E-01
       -1   -1    0    0    0  501  0.00000000000E+00  0.00000000000E+00  0.74389673041E+03  0.74389673043E+03  0.50400001928E-02 0.  1.
        1   -1    0    0  501    0  0.00000000000E+00  0.00000000000E+00 -0.19790587511E+04  0.19790587511E+04  0.50400001928E-02 0. -1.
    10030    2    1    2    0    0  0.00000000000E+00  0.00000000000E+00 -0.12351620207E+04  0.27229554816E+04  0.24266976196E+04 0.  0.
        1    1    3    3  502    0  0.92571068865E+03 -0.72917038166E+03 -0.29317369859E+03  0.12143230798E+04  0.50400001928E-02 0.  1.
       -1    1    3    3    0  502 -0.92571068865E+03  0.72917038166E+03 -0.94198832213E+03  0.15086324018E+04  0.50400001928E-02 0. -1.
</event>
<event>
 5   0  0.4856882E-05  0.2396459E+04  0.7818609E-02  0.8440830E-01
        2   -1    0    0  501    0  0.00000000000E+00  0.00000000000E+00  0.19481580403E+04  0.19481580403E+04  0.25500000920E-02 0. -1.
       -2   -1    0    0    0  501  0.00000000000E+00  0.00000000000E+00 -0.73698036372E+03  0.73698036372E+03  0.25500000920E-02 0.  1.
    10030    2    1    2    0    0  0.00000000000E+00  0.00000000000E+00  0.12111776766E+04  0.26851384041E+04  0.23964592391E+04 0.  0.
        1    1    3    3  502    0  0.57546354103E+03 -0.70757984628E+02  0.17805185072E+04  0.18725413570E+04  0.50400001928E-02 0. -1.
       -1    1    3    3    0  502 -0.57546354103E+03  0.70757984628E+02 -0.56934083055E+03  0.81259704701E+03  0.50400001928E-02 0.  1.
</event>
<event>
 5   0  0.4664127E-05  0.2414465E+04  0.7818609E-02  0.8434108E-01
       -2   -1    0    0    0  501  0.00000000000E+00  0.00000000000E+00  0.53674587578E+03  0.53674587579E+03  0.25500000920E-02 0. -1.
        2   -1    0    0  501    0  0.00000000000E+00  0.00000000000E+00 -0.27152716468E+04  0.27152716468E+04  0.25500000920E-02 0.  1.
    10030    2    1    2    0    0  0.00000000000E+00  0.00000000000E+00 -0.21785257710E+04  0.32520175226E+04  0.24144654548E+04 0.  0.
        4    1    3    3  502    0  0.71213057215E+02  0.66160986937E+03  0.26742991388E+03  0.71716057512E+03  0.12699999809E+01 0. -1.
       -4    1    3    3    0  502 -0.71213057215E+02 -0.66160986937E+03 -0.24459556849E+04  0.25348569475E+04  0.12699999809E+01 0.  1.
</event>
<event>
 5   0  0.4756705E-05  0.2398723E+04  0.7818609E-02  0.8439982E-01
       -2   -1    0    0    0  501  0.00000000000E+00  0.00000000000E+00  0.93476753507E+03  0.93476753507E+03  0.25500000920E-02 0.  1.
        2   -1    0    0  501    0  0.00000000000E+00  0.00000000000E+00 -0.15388506133E+04  0.15388506133E+04  0.25500000920E-02 0. -1.
    10030    2    1    2    0    0  0.00000000000E+00  0.00000000000E+00 -0.60408307828E+03  0.24736181484E+04  0.23987226556E+04 0.  0.
        3    1    3    3  502    0  0.67549225655E+03  0.23445232828E+03  0.69094109176E+03  0.99431246868E+03  0.10100000352E+00 0.  1.
       -3    1    3    3    0  502 -0.67549225655E+03 -0.23445232828E+03 -0.12950241700E+04  0.14793056797E+04  0.10100000352E+00 0. -1.
</event>
<event>
 5   0  0.2149920E-05  0.2420377E+04  0.7818609E-02  0.8431914E-01
       -1   -1    0    0    0  501  0.00000000000E+00  0.00000000000E+00  0.11926037575E+04  0.11926037575E+04  0.50400001928E-02 0.  1.
        1   -1    0    0  501    0  0.00000000000E+00  0.00000000000E+00 -0.12280321770E+04  0.12280321770E+04  0.50400001928E-02 0. -1.
    10030    2    1    2    0    0  0.00000000000E+00  0.00000000000E+00 -0.35428419434E+02  0.24206359345E+04  0.24203766555E+04 0.  0.
        5    1    3    3  502    0  0.34493420037E+03  0.70241467755E+03  0.90551398572E+03  0.11968056025E+04  0.46999998093E+01 0.  1.
       -5    1    3    3    0  502 -0.34493420037E+03 -0.70241467755E+03 -0.94094240515E+03  0.12238303320E+04  0.46999998093E+01 0. -1.
</event>
<event>
 5   0  0.2139556E-05  0.2398751E+04  0.7818609E-02  0.8439971E-01
       -1   -1    0    0    0  501  0.00000000000E+00  0.00000000000E+00  0.15039643356E+04  0.15039643356E+04  0.50400001928E-02 0. -1.
        1   -1    0    0  501    0  0.00000000000E+00  0.00000000000E+00 -0.95647299429E+03  0.95647299430E+03  0.50400001928E-02 0.  1.
    10030    2    1    2    0    0  0.00000000000E+00  0.00000000000E+00  0.54749134129E+03  0.24604373299E+04  0.23987507343E+04 0.  0.
        2    1    3    3  502    0 -0.11517264594E+03 -0.35392268493E+03  0.14432308744E+04  0.14904500535E+04  0.25500000920E-02 0. -1.
       -2    1    3    3    0  502  0.11517264594E+03  0.35392268493E+03 -0.89573953306E+03  0.96998727640E+03  0.25500000920E-02 0.  1.
</event>
<event>
 5   0  0.4856882E-05  0.2384402E+04  0.7818609E-02  0.8445366E-01
        2   -1    0    0  501    0  0.00000000000E+00  0.00000000000E+00  0.94662850304E+03  0.94662850304E+03  0.25500000920E-02 0. -1.
       -2   -1    0    0    0  501  0.00000000000E+00  0.00000000000E+00 -0.15014790317E+04  0.15014790317E+04  0.25500000920E-02 0.  1.
    10030    2    1    2    0    0  0.00000000000E+00  0.00000000000E+00 -0.55485052870E+03  0.24481075348E+04  0.23844016844E+04 0.  0.
        1    1    3    3  502    0  0.75870410648E+03  0.78870735322E+03  0.20812826158E+03  0.11140056479E+04  0.50400001928E-02 0.  1.
       -1    1    3    3    0  502 -0.75870410648E+03 -0.78870735322E+03 -0.76297879028E+03  0.13341018869E+04  0.50400001928E-02 0. -1.
</event>
<event>
 5   0  0.4664127E-05  0.2438005E+04  0.7818609E-02  0.8425411E-01
       -2   -1    0    0    0  501  0.00000000000E+00  0.00000000000E+00  0.70975674859E+03  0.70975674859E+03  0.25500000920E-02 0.  1.
        2   -1    0    0  501    0  0.00000000000E+00  0.00000000000E+00 -0.20936286022E+04  0.20936286022E+04  0.25500000920E-02 0. -1.
    10030    2    1    2    0    0  0.00000000000E+00  0.00000000000E+00 -0.13838718537E+04  0.28033853508E+04  0.24380049463E+04 0.  0.
        4    1    3    3  502    0  0.86568761617E+03  0.84693434798E+03 -0.53238744972E+03  0.13229326695E+04  0.12699999809E+01 0.  1.
       -4    1    3    3    0  502 -0.86568761617E+03 -0.84693434798E+03 -0.85148440394E+03  0.14804526813E+04  0.12699999809E+01 0. -1.
</event>
<event>
 5   0  0.4756705E-05  0.2404018E+04  0.7818609E-02  0.8438001E-01
        2   -1    0    0  501    0  0.00000000000E+00  0.00000000000E+00  0.11387759926E+04  0.11387759926E+04  0.25500000920E-02 0. -1.
       -2   -1    0    0    0  501  0.00000000000E+00  0.00000000000E+00 -0.12687534565E+04  0.12687534565E+04  0.25500000920E-02 0.  1.
    10030    2    1    2    0    0  0.00000000000E+00  0.00000000000E+00 -0.12997746387E+03  0.24075294491E+04  0.24040182834E+04 0.  0.
        3    1    3    3  502    0 -0.64533725729E+03 -0.16050833480E+03  0.93777429487E+03  0.11496276525E+04  0.10100000352E+00 0. -1.
       -3    1    3    3    0  502  0.64533725729E+03  0.16050833480E+03 -0.10677517587E+04  0.12579017965E+04  0.10100000352E+00 0.  1.
</event>
<event>
 5   0  0.2090039E-05  0.2400086E+04  0.7818609E-02  0.8439471E-01
       -1   -1    0    0    0  501  0.00000000000E+00  0.00000000000E+00  0.12822999218E+04  0.12822999218E+04  0.50400001928E-02 0. -1.
        1   -1    0    0  501    0  0.00000000000E+00  0.00000000000E+00 -0.11230628154E+04  0.11230628154E+04  0.50400001928E-02 0.  1.
    10030    2    1    2    0    0  0.00000000000E+00  0.00000000000E+00  0.15923710635E+03  0.24053627372E+04  0.24000861321E+04 0.  0.
        1    1    3    3  502    0  0.97969202668E+03  0.65501451510E+03 -0.14729228740E+03  0.11876596735E+04  0.50400001928E-02 0. -1.
       -1    1    3    3    0  502 -0.97969202668E+03 -0.65501451510E+03  0.30652939376E+03  0.12177030637E+04  0.50400001928E-02 0.  1.
</event>
<event>
 5   0  0.4914005E-05  0.2263896E+04  0.7818609E-02  0.8492294E-01
       -2   -1    0    0    0  501  0.00000000000E+00  0.00000000000E+00  0.15378377314E+04  0.15378377314E+04  0.25500000920E-02 0. -1.
        2   -1    0    0  501    0  0.00000000000E+00  0.00000000000E+00 -0.83318727029E+03  0.83318727030E+03  0.25500000920E-02 0.  1.
    10030    2    1    2    0    0  0.00000000000E+00  0.00000000000E+00  0.70465046113E+03  0.23710250017E+04  0.22638964832E+04 0.  0.
        2    1    3    3  502    0 -0.39837913097E+03  0.10432094511E+04  0.15831656323E+03  0.11278546116E+04  0.25500000920E-02 0.  1.
       -2    1    3    3    0  502  0.39837913097E+03 -0.10432094511E+04  0.54633389791E+03  0.12431703901E+04  0.25500000920E-02 0. -1.
</event>
<event>
 5   0  0.2090039E-05  0.2420109E+04  0.7818609E-02  0.8432013E-01
       -1   -1    0    0    0  501  0.00000000000E+00  0.00000000000E+00  0.81564712648E+03  0.81564712650E+03  0.50400001928E-02 0. -1.
        1   -1    0    0  501    0  0.00000000000E+00  0.00000000000E+00 -0.17951784033E+04  0.17951784033E+04  0.50400001928E-02 0.  1.
    10030    2    1    2    0    0  0.00000000000E+00  0.00000000000E+00 -0.97953127683E+03  0.26108255298E+04  0.24201091762E+04 0.  0.
        1    1    3    3  502    0  0.71976511467E+03 -0.68075814951E+01 -0.15391072832E+04  0.16991054684E+04  0.50400001928E-02 0.  1.
       -1    1    3    3    0  502 -0.71976511467E+03  0.68075814951E+01  0.55957600638E+03  0.91172006143E+03  0.50400001928E-02 0. -1.
</event>
<event>
 5   0  0.2139556E-05  0.2380288E+04  0.7818609E-02  0.8446921E-01
        1   -1    0    0  501    0  0.00000000000E+00  0.00000000000E+00  0.65388635906E+03  0.65388635908E+03  0.50400001928E-02 0.  1.
       -1   -1    0    0    0  501  0.00000000000E+00  0.00000000000E+00 -0.21661909096E+04  0.21661909096E+04  0.50400001928E-02 0. -1.
    10030    2    1    2    0    0  0.00000000000E+00  0.00000000000E+00 -0.15123045505E+04  0.28200772686E+04  0.23802879548E+04 0.  0.
        2    1    3    3  502    0 -0.72319195583E+03 -0.94519799015E+03 -0.76334343908E+03  0.14138949931E+04  0.25500000920E-02 0. -1.
       -2    1    3    3    0  502  0.72319195583E+03  0.94519799015E+03 -0.74896111142E+03  0.14061822755E+04  0.25500000920E-02 0.  1.
</event>
<event>
 5   0  0.4713971E-05  0.2384773E+04  0.7818609E-02  0.8445227E-01
       -2   -1    0    0    0  501  0.00000000000E+00  0.00000000000E+00  0.10562623831E+04  0.10562623831E+04  0.25500000920E-02 0. -1.
        2   -1    0    0  501    0  0.00000000000E+00  0.00000000000E+00 -0.13460529164E+04  0.13460529164E+04  0.25500000920E-02 0.  1.
    10030    2    1    2    0    0  0.00000000000E+00  0.00000000000E+00 -0.28979053326E+03  0.24023152995E+04  0.23847725772E+04 0.  0.
        5    1    3    3  502    0 -0.70559023702E+03 -0.82014101618E+03  0.36006464730E+03  0.11402444954E+04  0.46999998093E+01 0. -1.
       -5    1    3    3    0  502  0.70559023702E+03  0.82014101618E+03 -0.64985518056E+03  0.12620708042E+04  0.46999998093E+01 0.  1.
</event>
<event>
 5   0  0.2090039E-05  0.2406697E+04  0.7818609E-02  0.8437000E-01
       -1   -1    0    0    0  501  0.00000000000E+00  0.00000000000E+00  0.18563992140E+04  0.18563992140E+04  0.50400001928E-02 0. -1.
        1   -1    0    0  501    0  0.00000000000E+00  0.00000000000E+00 -0.78003052097E+03  0.78003052099E+03  0.50400001928E-02 0.  1.
    10030    2    1    2    0    0  0.00000000000E+00  0.00000000000E+00  0.10763686931E+04  0.26364297350E+04  0.24066973604E+04 0.  0.
        1    1    3    3  502    0 -0.57380522990E+03  0.92365972946E+03 -0.26425238867E+02  0.10877030987E+04  0.50400001928E-02 0. -1.
       -1    1    3    3    0  502  0.57380522990E+03 -0.92365972946E+03  0.11027939319E+04  0.15487266363E+04  0.50400001928E-02 0.  1.
</event>
<event>
 5   0  0.4664127E-05  0.2380721E+04  0.7818609E-02  0.8446757E-01
        2   -1    0    0  501    0  0.00000000000E+00  0.00000000000E+00  0.72550081440E+03  0.72550081440E+03  0.25500000920E-02 0.  1.
       -2   -1    0    0    0  501  0.00000000000E+00  0.00000000000E+00 -0.19530751593E+04  0.19530751593E+04  0.25500000920E-02 0. -1.
    10030    2    1    2    0    0  0.00000000000E+00  0.00000000000E+00 -0.12275743449E+04  0.26785759737E+04  0.23807205789E+04 0.  0.
        4    1    3    3  502    0  0.63523902539E+03  0.63100293008E+03 -0.14963097657E+04  0.17437424824E+04  0.12699999809E+01 0. -1.
       -4    1    3    3    0  502 -0.63523902539E+03 -0.63100293008E+03  0.26873542079E+03  0.93483349129E+03  0.12699999809E+01 0.  1.
</event>
<event>
 5   0  0.1672125E-05  0.2394649E+04  0.7818609E-02  0.8441510E-01
        3   -1    0    0  501    0  0.00000000000E+00  0.00000000000E+00  0.10837535265E+04  0.10837535312E+04  0.10100000352E+00 0.  1.
       -3   -1    0    0    0  501  0.00000000000E+00  0.00000000000E+00 -0.13227969647E+04  0.13227969686E+04  0.10100000352E+00 0. -1.
    10030    2    1    2    0    0  0.00000000000E+00  0.00000000000E+00 -0.23904343823E+03  0.24065504997E+04  0.23946489393E+04 0.  0.
        2    1    3    3  502    0 -0.66020775147E+03  0.41537063145E+03 -0.10324300480E+04  0.12939547290E+04  0.25500000920E-02 0. -1.
       -2    1    3    3    0  502  0.66020775147E+03 -0.41537063145E+03  0.79338660976E+03  0.11125957708E+04  0.25500000920E-02 0.  1.
</event>
<event>
 5   0  0.4756705E-05  0.1854142E+04  0.7818609E-02  0.8678025E-01
        2   -1    0    0  501    0  0.00000000000E+00  0.00000000000E+00  0.55261053141E+03  0.55261053142E+03  0.25500000920E-02 0.  1.
       -2   -1    0    0    0  501  0.00000000000E+00  0.00000000000E+00 -0.15552743197E+04  0.15552743197E+04  0.25500000920E-02 0. -1.
    10030    2    1    2    0    0  0.00000000000E+00  0.00000000000E+00 -0.10026637883E+04  0.21078848511E+04  0.18541423552E+04 0.  0.
        3    1    3    3  502    0 -0.83532369532E+03 -0.35276912900E+02 -0.95671276202E+03  0.12705547827E+04  0.10100000352E+00 0. -1.
       -3    1    3    3    0  502  0.83532369532E+03  0.35276912900E+02 -0.45951026276E+02  0.83733006847E+03  0.10100000352E+00 0.  1.
</event>
<event>
 5   0  0.4756705E-05  0.2367036E+04  0.7818609E-02  0.8451949E-01
       -2   -1    0    0    0  501  0.00000000000E+00  0.00000000000E+00  0.79654053598E+03  0.79654053598E+03  0.25500000920E-02 0. -1.
        2   -1    0    0  501    0  0.00000000000E+00  0.00000000000E+00 -0.17584979722E+04  0.17584979722E+04  0.25500000920E-02 0.  1.
    10030    2    1    2    0    0  0.00000000000E+00  0.00000000000E+00 -0.96195743624E+03  0.25550385082E+04  0.23670360515E+04 0.  0.
        3    1    3    3  502    0  0.84361152734E+03 -0.79790216271E+03 -0.72803894523E+03  0.13705360215E+04  0.10100000352E+00 0. -1.
       -3    1    3    3    0  502 -0.84361152734E+03  0.79790216271E+03 -0.23391849101E+03  0.11845024867E+04  0.10100000352E+00 0.  1.
</event>
<event>
 5   0  0.2065692E-05  0.2424405E+04  0.7818609E-02  0.8430423E-01
        1   -1    0    0  501    0  0.00000000000E+00  0.00000000000E+00  0.15148116221E+04  0.15148116221E+04  0.50400001928E-02 0.  1.
       -1   -1    0    0    0  501  0.00000000000E+00  0.00000000000E+00 -0.97004460716E+03  0.97004460717E+03  0.50400001928E-02 0. -1.
    10030    2    1    2    0    0  0.00000000000E+00  0.00000000000E+00  0.54476701489E+03  0.24848562292E+04  0.24244049537E+04 0.  0.
        3    1    3    3  502    0  0.13321191771E+03  0.20955501170E+03  0.14884656183E+04  0.15090356606E+04  0.10100000352E+00 0.  1.
       -3    1    3    3    0  502 -0.13321191771E+03 -0.20955501170E+03 -0.94369860339E+03  0.97582056864E+03  0.10100000352E+00 0. -1.
</event>
<event>
 5   0  0.4914005E-05  0.2613900E+04  0.7818609E-02  0.8363495E-01
       -2   -1    0    0    0  501  0.00000000000E+00  0.00000000000E+00  0.10084663159E+04  0.10084663159E+04  0.25500000920E-02 0.  1.
        2   -1    0    0  501    0  0.00000000000E+00  0.00000000000E+00 -0.16937783723E+04  0.16937783723E+04  0.25500000920E-02 0. -1.
    10030    2    1    2    0    0  0.00000000000E+00  0.00000000000E+00 -0.68531205640E+03  0.27022446882E+04  0.26139001014E+04 0.  0.
        2    1    3    3  502    0  0.42624840109E+03 -0.76521097847E+03 -0.13454309694E+04  0.16054345313E+04  0.25500000920E-02 0. -1.
       -2    1    3    3    0  502 -0.42624840109E+03  0.76521097847E+03  0.66011891297E+03  0.10968101569E+04  0.25500000920E-02 0.  1.
</event>
<event>
 5   0  0.4664127E-05  0.2432214E+04  0.7818609E-02  0.8427541E-01
       -2   -1    0    0    0  501  0.00000000000E+00  0.00000000000E+00  0.10355695632E+04  0.10355695632E+04  0.25500000920E-02 0. -1.
        2   -1    0    0  501    0  0.00000000000E+00  0.00000000000E+00 -0.14281188918E+04  0.14281188918E+04  0.25500000920E-02 0.  1.
    10030    2    1    2    0    0  0.00000000000E+00  0.00000000000E+00 -0.39254932860E+03  0.24636884551E+04  0.24322141822E+04 0.  0.
        4    1    3    3  502    0  0.76703344673E+03 -0.20784411720E+03  0.73616746460E+03  0.10832744963E+04  0.12699999809E+01 0. -1.
       -4    1    3    3    0  502 -0.76703344673E+03  0.20784411720E+03 -0.11287167932E+04  0.13804139588E+04  0.12699999809E+01 0.  1.
</event>
<event>
 5   0  0.4664127E-05  0.2396117E+04  0.7818609E-02  0.8440959E-01
       -2   -1    0    0    0  501  0.00000000000E+00  0.00000000000E+00  0.76209868499E+03  0.76209868500E+03  0.25500000920E-02 0.  1.
        2   -1    0    0  501    0  0.00000000000E+00  0.00000000000E+00 -0.18834092774E+04  0.18834092774E+04  0.25500000920E-02 0. -1.
    10030    2    1    2    0    0  0.00000000000E+00  0.00000000000E+00 -0.11213105924E+04  0.26455079624E+04  0.23961166362E+04 0.  0.
        4    1    3    3  502    0  0.37823396642E+03 -0.89807128895E+03 -0.13301526700E+04  0.16489089459E+04  0.12699999809E+01 0. -1.
       -4    1    3    3    0  502 -0.37823396642E+03  0.89807128895E+03  0.20884207762E+03  0.99659901649E+03  0.12699999809E+01 0.  1.
</event>
<event>
 5   0  0.2057599E-05  0.2412900E+04  0.7818609E-02  0.8434690E-01
       -1   -1    0    0    0  501  0.00000000000E+00  0.00000000000E+00  0.65476225729E+03  0.65476225731E+03  0.50400001928E-02 0.  1.
        1   -1    0    0  501    0  0.00000000000E+00  0.00000000000E+00 -0.22229777141E+04  0.22229777142E+04  0.50400001928E-02 0. -1.
    10030    2    1    2    0    0  0.00000000000E+00  0.00000000000E+00 -0.15682154569E+04  0.28777399715E+04  0.24129002516E+04 0.  0.
        4    1    3    3  502    0  0.36926970419E+03  0.11155182025E+04 -0.45796858068E+03  0.12611414704E+04  0.12699999809E+01 0. -1.
       -4    1    3    3    0  502 -0.36926970419E+03 -0.11155182025E+04 -0.11102468762E+04  0.16165985010E+04  0.12699999809E+01 0.  1.
</event>
<event>
 5   0  0.2065692E-05  0.2403995E+04  0.7818609E-02  0.8438010E-01
       -1   -1    0    0    0  501  0.00000000000E+00  0.00000000000E+00  0.72261877800E+03  0.72261877802E+03  0.50400001928E-02 0.  1.
        1   -1    0    0  501    0  0.00000000000E+00  0.00000000000E+00 -0.19993911617E+04  0.19993911617E+04  0.50400001928E-02 0. -1.
    10030    2    1    2    0    0  0.00000000000E+00  0.00000000000E+00 -0.12767723837E+04  0.27220099398E+04  0.24039946739E+04 0.  0.
        3    1    3    3  502    0 -0.33080924520E+03 -0.18048600443E+03 -0.19307744966E+04  0.19672061716E+04  0.10100000352E+00 0. -1.
       -3    1    3    3    0  502  0.33080924520E+03  0.18048600443E+03  0.65400211292E+03  0.75480376815E+03  0.10100000352E+00 0.  1.
</event>
<event>
 5   0  0.2090039E-05  0.2410061E+04  0.7818609E-02  0.8435746E-01
       -1   -1    0    0    0  501  0.00000000000E+00  0.00000000000E+00  0.12482548697E+04  0.12482548697E+04  0.50400001928E-02 0. -1.
        1   -1    0    0  501    0  0.00000000000E+00  0.00000000000E+00 -0.11633028272E+04  0.11633028272E+04  0.50400001928E-02 0.  1.
    10030    2    1    2    0    0  0.00000000000E+00  0.00000000000E+00  0.84952042505E+02  0.24115576968E+04  0.24100609278E+04 0.  0.
        1    1    3    3  502    0 -0.83475916918E+03  0.86102184650E+03  0.16051931759E+03  0.12099371645E+04  0.50400001928E-02 0. -1.
       -1    1    3    3    0  502  0.83475916918E+03 -0.86102184650E+03 -0.75567275087E+02  0.12016205323E+04  0.50400001928E-02 0.  1.
</event>
<event>
 5   0  0.2057599E-05  0.2272336E+04  0.7818609E-02  0.8488909E-01
       -1   -1    0    0    0  501  0.00000000000E+00  0.00000000000E+00  0.10827366803E+04  0.10827366803E+04  0.50400001928E-02 0.  1.
        1   -1    0    0  501    0  0.00000000000E+00  0.00000000000E+00 -0.11922357777E+04  0.11922357777E+04  0.50400001928E-02 0. -1.
    10030    2    1    2    0    0  0.00000000000E+00  0.00000000000E+00 -0.10949909742E+03  0.22749724581E+04  0.22723357218E+04 0.  0.
        4    1    3    3  502    0 -0.76251767805E+03  0.13209305133E+03 -0.88757658545E+03  0.11775719050E+04  0.12699999809E+01 0. -1.
       -4    1    3    3    0  502  0.76251767805E+03 -0.13209305133E+03  0.77807748803E+03  0.10974005531E+04  0.12699999809E+01 0.  1.
</event>
<event>
 5   0  0.2090039E-05  0.2513567E+04  0.7818609E-02  0.8398168E-01
        1   -1    0    0  501    0  0.00000000000E+00  0.00000000000E+00  0.17625046075E+04  0.17625046075E+04  0.50400001928E-02 0. -1.
       -1   -1    0    0    0  501  0.00000000000E+00  0.00000000000E+00 -0.89617082941E+03  0.89617082942E+03  0.50400001928E-02 0.  1.
    10030    2    1    2    0    0  0.00000000000E+00  0.00000000000E+00  0.86633377812E+03  0.26586754370E+04  0.25135673581E+04 0.  0.
        1    1    3    3  502    0 -0.27889800975E+03  0.11324247461E+04 -0.62202392953E+02  0.11679208205E+04  0.50400001928E-02 0.  1.
       -1    1    3    3    0  502  0.27889800975E+03 -0.11324247461E+04  0.92853617107E+03  0.14907546164E+04  0.50400001928E-02 0. -1.
</event>
<event>
 5   0  0.4914005E-05  0.2379185E+04  0.7818609E-02  0.8447338E-01
       -2   -1    0    0    0  501  0.00000000000E+00  0.00000000000E+00  0.62093022752E+03  0.62093022753E+03  0.25500000920E-02 0.  1.
        2   -1    0    0  501    0  0.00000000000E+00  0.00000000000E+00 -0.22790489911E+04  0.22790489911E+04  0.25500000920E-02 0. -1.
    10030    2    1    2    0    0  0.00000000000E+00  0.00000000000E+00 -0.16581187636E+04  0.28999792186E+04  0.23791850778E+04 0.  0.
        2    1    3    3  502    0 -0.72070521724E+03 -0.16107662002E+03  0.30770001024E+03  0.80002561458E+03  0.25500000920E-02 0.  1.
       -2    1    3    3    0  502  0.72070521724E+03  0.16107662002E+03 -0.19658187738E+04  0.20999536040E+04  0.25500000920E-02 0. -1.
</event>
<event>
 5   0  0.2057599E-05  0.2434569E+04  0.7818609E-02  0.8426674E-01
       -1   -1    0    0    0  501  0.00000000000E+00  0.00000000000E+00  0.75825715699E+03  0.75825715700E+03  0.50400001928E-02 0. -1.
        1   -1    0    0  501    0  0.00000000000E+00  0.00000000000E+00 -0.19541944387E+04  0.19541944387E+04  0.50400001928E-02 0.  1.
    10030    2    1    2    0    0  0.00000000000E+00  0.00000000000E+00 -0.11959372817E+04  0.27124515957E+04  0.24345693001E+04 0.  0.
        4    1    3    3  502    0  0.93143403682E+02  0.11079338619E+04 -0.11501003546E+04  0.15996642068E+04  0.12699999809E+01 0.  1.
       -4    1    3    3    0  502 -0.93143403682E+02 -0.11079338619E+04 -0.45836927073E+02  0.11127873889E+04  0.12699999809E+01 0. -1.
</event>
<event>
 5   0  0.4664127E-05  0.2395369E+04  0.7818609E-02  0.8441239E-01
       -2   -1    0    0    0  501  0.00000000000E+00  0.00000000000E+00  0.87904208941E+03  0.87904208941E+03  0.25500000920E-02 0.  1.
        2   -1    0    0  501    0  0.00000000000E+00  0.00000000000E+00 -0.16318312680E+04  0.16318312680E+04  0.25500000920E-02 0. -1.
    10030    2    1    2    0    0  0.00000000000E+00  0.00000000000E+00 -0.75278917863E+03  0.25108733575E+04  0.23953691719E+04 0.  0.
        4    1    3    3  502    0  0.79501471363E+03  0.49847094662E+03 -0.11565441443E+04  0.14893346334E+04  0.12699999809E+01 0. -1.
       -4    1    3    3    0  502 -0.79501471363E+03 -0.49847094662E+03  0.40375496571E+03  0.10215387241E+04  0.12699999809E+01 0.  1.
</event>
<event>
 5   0  0.2090039E-05  0.2398593E+04  0.7818609E-02  0.8440031E-01
        1   -1    0    0  501    0  0.00000000000E+00  0.00000000000E+00  0.13498583723E+04  0.13498583723E+04  0.50400001928E-02 0.  1.
       -1   -1    0    0    0  501  0.00000000000E+00  0.00000000000E+00 -0.10655280526E+04  0.10655280526E+04  0.50400001928E-02 0. -1.
    10030    2    1    2    0    0  0.00000000000E+00  0.00000000000E+00  0.28433031977E+03  0.24153864249E+04  0.23985928898E+04 0.  0.
        1    1    3    3  502    0 -0.76256271920E+01  0.11927949862E+04  0.16819032337E+02  0.11929379318E+04  0.50400001928E-02 0. -1.
       -1    1    3    3    0  502  0.76256271920E+01 -0.11927949862E+04  0.26751128744E+03  0.12224484931E+04  0.50400001928E-02 0.  1.
</event>
<event>
 5   0  0.2065692E-05  0.2339445E+04  0.7818609E-02  0.8462529E-01
        1   -1    0    0  501    0  0.00000000000E+00  0.00000000000E+00  0.15844875137E+04  0.15844875137E+04  0.50400001928E-02 0.  1.
       -1   -1    0    0    0  501  0.00000000000E+00  0.00000000000E+00 -0.86352861714E+03  0.86352861715E+03  0.50400001928E-02 0. -1.
    10030    2    1    2    0    0  0.00000000000E+00  0.00000000000E+00  0.72095889655E+03  0.24480161308E+04  0.23394446449E+04 0.  0.
        3    1    3    3  502    0  0.83329104821E+03  0.46924235934E+03  0.10653025307E+04  0.14315836877E+04  0.10100000352E+00 0.  1.
       -3    1    3    3    0  502 -0.83329104821E+03 -0.46924235934E+03 -0.34434363416E+03  0.10164324431E+04  0.10100000352E+00 0. -1.
</event>
<event>
 5   0  0.4914005E-05  0.2347314E+04  0.7818609E-02  0.8459496E-01
        2   -1    0    0  501    0  0.00000000000E+00  0.00000000000E+00  0.12503437009E+04  0.12503437009E+04  0.25500000920E-02 0.  1.
       -2   -1    0    0    0  501  0.00000000000E+00  0.00000000000E+00 -0.11016739718E+04  0.11016739718E+04  0.25500000920E-02 0. -1.
    10030    2    1    2    0    0  0.00000000000E+00  0.00000000000E+00  0.14866972914E+03  0.23520176727E+04  0.23473143045E+04 0.  0.
        2    1    3    3  502    0  0.43207158369E+03  0.19692206375E+03 -0.10011316341E+04  0.11080291970E+04  0.25500000920E-02 0. -1.
       -2    1    3    3    0  502 -0.43207158369E+03 -0.19692206375E+03  0.11498013632E+04  0.12439884756E+04  0.25500000920E-02 0.  1.
</event>
<event>
 5   0  0.4856882E-05  0.2392267E+04  0.7818609E-02  0.8442405E-01
        2   -1    0    0  501    0  0.00000000000E+00  0.00000000000E+00  0.24874061160E+04  0.24874061160E+04  0.25500000920E-02 0. -1.
       -2   -1    0    0    0  501  0.00000000000E+00  0.00000000000E+00 -0.57519149569E+03  0.57519149570E+03  0.25500000920E-02 0.  1.
    10030    2    1    2    0    0  0.00000000000E+00  0.00000000000E+00  0.19122146203E+04  0.30625976117E+04  0.23922665773E+04 0.  0.
        1    1    3    3  502    0 -0.69267280455E+03  0.27427489791E+03  0.21541192429E+04  0.22793095547E+04  0.50400001928E-02 0. -1.
       -1    1    3    3    0  502  0.69267280455E+03 -0.27427489791E+03 -0.24190462254E+03  0.78328805698E+03  0.50400001928E-02 0.  1.
</event>
<event>
 5   0  0.4713971E-05  0.2380335E+04  0.7818609E-02  0.8446903E-01
        2   -1    0    0  501    0  0.00000000000E+00  0.00000000000E+00  0.12611667092E+04  0.12611667092E+04  0.25500000920E-02 0.  1.
       -2   -1    0    0    0  501  0.00000000000E+00  0.00000000000E+00 -0.11231654984E+04  0.11231654984E+04  0.25500000920E-02 0. -1.
    10030    2    1    2    0    0  0.00000000000E+00  0.00000000000E+00  0.13800121078E+03  0.23843322076E+04  0.23803352163E+04 0.  0.
        5    1    3    3  502    0 -0.69557422573E+03 -0.27848381610E+01 -0.89835680545E+03  0.11361770543E+04  0.46999998093E+01 0. -1.
       -5    1    3    3    0  502  0.69557422573E+03  0.27848381610E+01  0.10363580162E+04  0.12481551533E+04  0.46999998093E+01 0.  1.
</event>
<event>
 5   0  0.2057599E-05  0.2012637E+04  0.7818609E-02  0.8600735E-01
        1   -1    0    0  501    0  0.00000000000E+00  0.00000000000E+00  0.68761196212E+03  0.68761196214E+03  0.50400001928E-02 0. -1.
       -1   -1    0    0    0  501  0.00000000000E+00  0.00000000000E+00 -0.14727444526E+04  0.14727444526E+04  0.50400001928E-02 0.  1.
    10030    2    1    2    0    0  0.00000000000E+00  0.00000000000E+00 -0.78513249044E+03  0.21603564147E+04  0.20126367807E+04 0.  0.
        4    1    3    3  502    0 -0.66399398680E+03 -0.70906120811E+03 -0.67456371341E+03  0.11826637847E+04  0.12699999809E+01 0.  1.
       -4    1    3    3    0  502  0.66399398680E+03  0.70906120811E+03 -0.11056877702E+03  0.97769262998E+03  0.12699999809E+01 0. -1.
</event>
<event>
 5   0  0.2090039E-05  0.2595652E+04  0.7818609E-02  0.8369680E-01
        1   -1    0    0  501    0  0.00000000000E+00  0.00000000000E+00  0.17136011323E+04  0.17136011323E+04  0.50400001928E-02 0.  1.
       -1   -1    0    0    0  501  0.00000000000E+00  0.00000000000E+00 -0.98293116152E+03  0.98293116154E+03  0.50400001928E-02 0. -1.
    10030    2    1    2    0    0  0.00000000000E+00  0.00000000000E+00  0.73066997077E+03  0.26965322938E+04  0.25956517111E+04 0.  0.
        1    1    3    3  502    0 -0.94151520031E+03 -0.11992859399E+03 -0.55423281526E+03  0.10990940604E+04  0.50400001928E-02 0. -1.
       -1    1    3    3    0  502  0.94151520031E+03  0.11992859399E+03  0.12849027860E+04  0.15974382334E+04  0.50400001928E-02 0.  1.
</event>
<event>
 5   0  0.2065692E-05  0.2401213E+04  0.7818609E-02  0.8439049E-01
       -1   -1    0    0    0  501  0.00000000000E+00  0.00000000000E+00  0.86435948217E+03  0.86435948219E+03  0.50400001928E-02 0. -1.
        1   -1    0    0  501    0  0.00000000000E+00  0.00000000000E+00 -0.16676585424E+04  0.16676585424E+04  0.50400001928E-02 0.  1.
    10030    2    1    2    0    0  0.00000000000E+00  0.00000000000E+00 -0.80329906027E+03  0.25320180246E+04  0.24012134218E+04 0.  0.
        3    1    3    3  502    0 -0.15022545318E+03 -0.52009188060E+03 -0.15316570649E+04  0.16245111959E+04  0.10100000352E+00 0.  1.
       -3    1    3    3    0  502  0.15022545318E+03  0.52009188060E+03  0.72835800462E+03  0.90750682871E+03  0.10100000352E+00 0. -1.
</event>
<event>
 5   0  0.4756705E-05  0.2377509E+04  0.7818609E-02  0.8447972E-01
       -2   -1    0    0    0  501  0.00000000000E+00  0.00000000000E+00  0.10861039455E+04  0.10861039455E+04  0.25500000920E-02 0.  1.
        2   -1    0    0  501    0  0.00000000000E+00  0.00000000000E+00 -0.13011073602E+04  0.13011073602E+04  0.25500000920E-02 0. -1.
    10030    2    1    2    0    0  0.00000000000E+00  0.00000000000E+00 -0.21500341464E+03  0.23872113057E+04  0.23775094847E+04 0.  0.
        3    1    3    3  502    0 -0.10802696635E+04 -0.80718520293E+02 -0.59902950097E+03  0.12378749447E+04  0.10100000352E+00 0. -1.
       -3    1    3    3    0  502  0.10802696635E+04  0.80718520293E+02  0.38402608633E+03  0.11493363610E+04  0.10100000352E+00 0.  1.
</event>
<event>
 5   0  0.4914005E-05  0.2369982E+04  0.7818609E-02  0.8450828E-01
        2   -1    0    0  501    0  0.00000000000E+00  0.00000000000E+00  0.83177364495E+03  0.83177364496E+03  0.25500000920E-02 0. -1.
       -2   -1    0    0    0  501  0.00000000000E+00  0.00000000000E+00 -0.16882036475E+04  0.16882036475E+04  0.25500000920E-02 0.  1.
    10030    2    1    2    0    0  0.00000000000E+00  0.00000000000E+00 -0.85643000255E+03  0.25199772925E+04  0.23699816888E+04 0.  0.
        2    1    3    3  502    0  0.10444884882E+04 -0.11118666707E+03 -0.10114608205E+04  0.14582083762E+04  0.25500000920E-02 0.  1.
       -2    1    3    3    0  502 -0.10444884882E+04  0.11118666707E+03  0.15503081795E+03  0.10617689163E+04  0.25500000920E-02 0. -1.
</event>
<event>
 5   0  0.2139556E-05  0.2411262E+04  0.7818609E-02  0.8435299E-01
       -1   -1    0    0    0  501  0.00000000000E+00  0.00000000000E+00  0.16348381920E+04  0.16348381920E+04  0.50400001928E-02 0.  1.
        1   -1    0    0  501    0  0.00000000000E+00  0.00000000000E+00 -0.88910727287E+03  0.88910727289E+03  0.50400001928E-02 0. -1.
    10030    2    1    2    0    0  0.00000000000E+00  0.00000000000E+00  0.74573091913E+03  0.25239454649E+04  0.24112623470E+04 0.  0.
        2    1    3    3  502    0  0.27696396053E+02  0.30259883799E+03 -0.84836775326E+03  0.90114426807E+03  0.25500000920E-02 0. -1.
       -2    1    3    3    0  502 -0.27696396053E+02 -0.30259883799E+03  0.15940986724E+04  0.16228011968E+04  0.25500000920E-02 0.  1.
</event>
<event>
 5   0  0.2139556E-05  0.1914288E+04  0.7818609E-02  0.8647777E-01
        1   -1    0    0  501    0  0.00000000000E+00  0.00000000000E+00  0.46106830672E+03  0.46106830674E+03  0.50400001928E-02 0.  1.
       -1   -1    0    0    0  501  0.00000000000E+00  0.00000000000E+00 -0.19869602643E+04  0.19869602643E+04  0.50400001928E-02 0. -1.
    10030    2    1    2    0    0  0.00000000000E+00  0.00000000000E+00 -0.15258919576E+04  0.24480285710E+04  0.19142877575E+04 0.  0.
        2    1    3    3  502    0 -0.41188569819E+03 -0.76337518156E+03 -0.12804065320E+04  0.15465550049E+04  0.25500000920E-02 0. -1.
       -2    1    3    3    0  502  0.41188569819E+03  0.76337518156E+03 -0.24548542560E+03  0.90147356610E+03  0.25500000920E-02 0.  1.
</event>
<event>
 5   0  0.4664127E-05  0.2396782E+04  0.7818609E-02  0.8440709E-01
       -2   -1    0    0    0  501  0.00000000000E+00  0.00000000000E+00  0.86311491121E+03  0.86311491121E+03  0.25500000920E-02 0. -1.
        2   -1    0    0  501    0  0.00000000000E+00  0.00000000000E+00 -0.16639045210E+04  0.16639045210E+04  0.25500000920E-02 0.  1.
    10030    2    1    2    0    0  0.00000000000E+00  0.00000000000E+00 -0.80078960980E+03  0.25270194322E+04  0.23967818448E+04 0.  0.
        4    1    3    3  502    0  0.45788248702E+03 -0.10214396502E+04 -0.85160224864E+03  0.14064932754E+04  0.12699999809E+01 0.  1.
       -4    1    3    3    0  502 -0.45788248702E+03  0.10214396502E+04  0.50812638841E+02  0.11205261568E+04  0.12699999809E+01 0. -1.
</event>
<event>
 5   0  0.2065692E-05  0.2186148E+04  0.7818609E-02  0.8524216E-01
       -1   -1    0    0    0  501  0.00000000000E+00  0.00000000000E+00  0.12586203015E+04  0.12586203016E+04  0.50400001928E-02 0. -1.
        1   -1    0    0  501    0  0.00000000000E+00  0.00000000000E+00 -0.94930215509E+03  0.94930215511E+03  0.50400001928E-02 0.  1.
    10030    2    1    2    0    0  0.00000000000E+00  0.00000000000E+00  0.30931814645E+03  0.22079224567E+04  0.21861481786E+04 0.  0.
        3    1    3    3  502    0 -0.68409784983E+03 -0.46069807223E+03 -0.56982690729E+03  0.10024646110E+04  0.10100000352E+00 0.  1.
       -3    1    3    3    0  502  0.68409784983E+03  0.46069807223E+03  0.87914505374E+03  0.12054578456E+04  0.10100000352E+00 0. -1.
</event>
<event>
 5   0  0.4856882E-05  0.2545966E+04  0.7818609E-02  0.8386790E-01
       -2   -1    0    0    0  501  0.00000000000E+00  0.00000000000E+00  0.65611928022E+03  0.65611928022E+03  0.25500000920E-02 0. -1.
        2   -1    0    0  501    0  0.00000000000E+00  0.00000000000E+00 -0.24698044012E+04  0.24698044012E+04  0.25500000920E-02 0.  1.
    10030    2    1    2    0    0  0.00000000000E+00  0.00000000000E+00 -0.18136851210E+04  0.31259236814E+04  0.25459664460E+04 0.  0.
        1    1    3    3  502    0  0.19266774578E+03  0.95839868599E+03 -0.19079562754E+04  0.21438157687E+04  0.50400001928E-02 0.  1.
       -1    1    3    3    0  502 -0.19266774578E+03 -0.95839868599E+03  0.94271154383E+02  0.98210791268E+03  0.50400001928E-02 0. -1.
</event>
<event>
 5   0  0.2139556E-05  0.2417360E+04  0.7818609E-02  0.8433033E-01
       -1   -1    0    0    0  501  0.00000000000E+00  0.00000000000E+00  0.73639680037E+03  0.73639680039E+03  0.50400001928E-02 0.  1.
        1   -1    0    0  501    0  0.00000000000E+00  0.00000000000E+00 -0.19838594907E+04  0.19838594907E+04  0.50400001928E-02 0. -1.
    10030    2    1    2    0    0  0.00000000000E+00  0.00000000000E+00 -0.12474626903E+04  0.27202562911E+04  0.24173603632E+04 0.  0.
        2    1    3    3  502    0  0.57515941748E+03  0.87174979992E+03  0.60902410109E+02  0.10461668953E+04  0.25500000920E-02 0.  1.
       -2    1    3    3    0  502 -0.57515941748E+03 -0.87174979992E+03 -0.13083651004E+04  0.16740893958E+04  0.25500000920E-02 0. -1.
</event>
<event>
 5   0  0.2057599E-05  0.2384246E+04  0.7818609E-02  0.8445425E-01
       -1   -1    0    0    0  501  0.00000000000E+00  0.00000000000E+00  0.89141046023E+03  0.89141046024E+03  0.50400001928E-02 0. -1.
        1   -1    0    0  501    0  0.00000000000E+00  0.00000000000E+00 -0.15942795539E+04  0.15942795539E+04  0.50400001928E-02 0.  1.
    10030    2    1    2    0    0  0.00000000000E+00  0.00000000000E+00 -0.70286909366E+03  0.24856900141E+04  0.23842461877E+04 0.  0.
        4    1    3    3  502    0  0.66078970665E+03  0.45191976534E+03  0.56948455934E+03  0.98244022055E+03  0.12699999809E+01 0. -1.
       -4    1    3    3    0  502 -0.66078970665E+03 -0.45191976534E+03 -0.12723536530E+04  0.15032497936E+04  0.12699999809E+01 0.  1.
</event>
<event>
 5   0  0.4664127E-05  0.2512118E+04  0.7818609E-02  0.8398681E-01
        2   -1    0    0  501    0  0.00000000000E+00  0.00000000000E+00  0.12876524554E+04  0.12876524554E+04  0.25500000920E-02 0. -1.
       -2   -1    0    0    0  501  0.00000000000E+00  0.00000000000E+00 -0.12252411678E+04  0.12252411678E+04  0.25500000920E-02 0.  1.
    10030    2    1    2    0    0  0.00000000000E+00  0.00000000000E+00  0.62411287615E+02  0.25128936232E+04  0.25121184671E+04 0.  0.
        4    1    3    3  502    0 -0.78017371852E+03  0.53229185697E+03  0.85951763392E+03  0.12770191181E+04  0.12699999809E+01 0. -1.
       -4    1    3    3    0  502  0.78017371852E+03 -0.53229185697E+03 -0.79710634630E+03  0.12358745051E+04  0.12699999809E+01 0.  1.
</event>
<event>
 5   0  0.4914005E-05  0.2416107E+04  0.7818609E-02  0.8433498E-01
       -2   -1    0    0    0  501  0.00000000000E+00  0.00000000000E+00  0.77620940661E+03  0.77620940661E+03  0.25500000920E-02 0. -1.
        2   -1    0    0  501    0  0.00000000000E+00  0.00000000000E+00 -0.18801536160E+04  0.18801536160E+04  0.25500000920E-02 0.  1.
    10030    2    1    2    0    0  0.00000000000E+00  0.00000000000E+00 -0.11039442094E+04  0.26563630226E+04  0.24161067217E+04 0.  0.
        2    1    3    3  502    0  0.33244682622E+03 -0.53160036317E+03  0.58331455795E+03  0.85637358198E+03  0.25500000920E-02 0. -1.
       -2    1    3    3    0  502 -0.33244682622E+03  0.53160036317E+03 -0.16872587673E+04  0.17999894406E+04  0.25500000920E-02 0.  1.
</event>
<event>
 5   0  0.2149920E-05  0.2363993E+04  0.7818609E-02  0.8453108E-01
       -1   -1    0    0    0  501  0.00000000000E+00  0.00000000000E+00  0.55317275994E+03  0.55317275996E+03  0.50400001928E-02 0.  1.
        1   -1    0    0  501    0  0.00000000000E+00  0.00000000000E+00 -0.25256401596E+04  0.25256401596E+04  0.50400001928E-02 0. -1.
    10030    2    1    2    0    0  0.00000000000E+00  0.00000000000E+00 -0.19724673996E+04  0.30788129195E+04  0.23639926715E+04 0.  0.
        5    1    3    3  502    0 -0.19072629270E+03 -0.69116942650E+03  0.23758731980E+03  0.75535522728E+03  0.46999998093E+01 0.  1.
       -5    1    3    3    0  502  0.19072629270E+03  0.69116942650E+03 -0.22100547194E+04  0.23234576923E+04  0.46999998093E+01 0. -1.
</event>
<event>
 5   0  0.4713971E-05  0.2408215E+04  0.7818609E-02  0.8436434E-01
        2   -1    0    0  501    0  0.00000000000E+00  0.00000000000E+00  0.11633956228E+04  0.11633956228E+04  0.25500000920E-02 0.  1.
       -2   -1    0    0    0  501  0.00000000000E+00  0.00000000000E+00 -0.12462442646E+04  0.12462442646E+04  0.25500000920E-02 0. -1.
    10030    2    1    2    0    0  0.00000000000E+00  0.00000000000E+00 -0.82848641836E+02  0.24096398874E+04  0.24082152083E+04 0.  0.
        5    1    3    3  502    0  0.43653275132E+03  0.10618767442E+04  0.32170906016E+03  0.11923346310E+04  0.46999998093E+01 0.  1.
       -5    1    3    3    0  502 -0.43653275132E+03 -0.10618767442E+04 -0.40455770200E+03  0.12173052564E+04  0.46999998093E+01 0. -1.
</event>
<event>
 5   0  0.4914005E-05  0.1968750E+04  0.7818609E-02  0.8621372E-01
       -2   -1    0    0    0  501  0.00000000000E+00  0.00000000000E+00  0.38752866890E+03  0.38752866891E+03  0.25500000920E-02 0. -1.
        2   -1    0    0  501    0  0.00000000000E+00  0.00000000000E+00 -0.25004452056E+04  0.25004452056E+04  0.25500000920E-02 0.  1.
    10030    2    1    2    0    0  0.00000000000E+00  0.00000000000E+00 -0.21129165367E+04  0.28879738745E+04  0.19687500626E+04 0.  0.
        2    1    3    3  502    0 -0.92114718450E+03 -0.34551685438E+03 -0.11051138400E+04  0.14795846145E+04  0.25500000920E-02 0.  1.
       -2    1    3    3    0  502  0.92114718450E+03  0.34551685438E+03 -0.10078026967E+04  0.14083892600E+04  0.25500000920E-02 0. -1.
</event>
<event>
 5   0  0.4713971E-05  0.2385968E+04  0.7818609E-02  0.8444776E-01
       -2   -1    0    0    0  501  0.00000000000E+00  0.00000000000E+00  0.11975054692E+04  0.11975054692E+04  0.25500000920E-02 0. -1.
        2   -1    0    0  501    0  0.00000000000E+00  0.00000000000E+00 -0.11884793704E+04  0.11884793704E+04  0.25500000920E-02 0.  1.
    10030    2    1    2    0    0  0.00000000000E+00  0.00000000000E+00  0.90260987691E+01  0.23859848396E+04  0.23859677668E+04 0.  0.
        5    1    3    3  502    0  0.78767811319E+03  0.84670941899E+03  0.29749092269E+03  0.11941007450E+04  0.46999998093E+01 0. -1.
       -5    1    3    3    0  502 -0.78767811319E+03 -0.84670941899E+03 -0.28846482392E+03  0.11918840945E+04  0.46999998093E+01 0.  1.
</event>
<event>
 5   0  0.2065692E-05  0.2348873E+04  0.7818609E-02  0.8458896E-01
       -1   -1    0    0    0  501  0.00000000000E+00  0.00000000000E+00  0.10571154278E+04  0.10571154278E+04  0.50400001928E-02 0. -1.
        1   -1    0    0  501    0  0.00000000000E+00  0.00000000000E+00 -0.13047785974E+04  0.13047785974E+04  0.50400001928E-02 0.  1.
    10030    2    1    2    0    0  0.00000000000E+00  0.00000000000E+00 -0.24766316956E+03  0.23618940252E+04  0.23488734195E+04 0.  0.
        3    1    3    3  502    0  0.10844620786E+04 -0.45077837108E+03 -0.13038193133E+03  0.11816338680E+04  0.10100000352E+00 0. -1.
       -3    1    3    3    0  502 -0.10844620786E+04  0.45077837108E+03 -0.11728123823E+03  0.11802601572E+04  0.10100000352E+00 0.  1.
</event>
<event>
 5   0  0.4856882E-05  0.2165324E+04  0.7818609E-02  0.8533001E-01
       -2   -1    0    0    0  501  0.00000000000E+00  0.00000000000E+00  0.14857127978E+04  0.14857127978E+04  0.25500000920E-02 0.  1.
        2   -1    0    0  501    0  0.00000000000E+00  0.00000000000E+00 -0.78895281303E+03  0.78895281304E+03  0.25500000920E-02 0. -1.
    10030    2    1    2    0    0  0.00000000000E+00  0.00000000000E+00  0.69675998479E+03  0.22746656109E+04  0.21653242632E+04 0.  0.
        1    1    3    3  502    0  0.47281857270E+03 -0.70070376288E+03  0.10590112891E+04  0.13550085153E+04  0.50400001928E-02 0.  1.
       -1    1    3    3    0  502 -0.47281857270E+03  0.70070376288E+03 -0.36225130429E+03  0.91965709560E+03  0.50400001928E-02 0. -1.
</event>
<event>
 5   0  0.2065692E-05  0.2359407E+04  0.7818609E-02  0.8454859E-01
        1   -1    0    0  501    0  0.00000000000E+00  0.00000000000E+00  0.15638407392E+04  0.15638407392E+04  0.50400001928E-02 0.  1.
       -1   -1    0    0    0  501  0.00000000000E+00  0.00000000000E+00 -0.88992480101E+03  0.88992480103E+03  0.50400001928E-02 0. -1.
    10030    2    1    2    0    0  0.00000000000E+00  0.00000000000E+00  0.67391593819E+03  0.24537655402E+04  0.23594072634E+04 0.  0.
        3    1    3    3  502    0 -0.10939841386E+04 -0.19874504331E+03  0.74693103320E+03  0.13394800732E+04  0.10100000352E+00 0.  1.
       -3    1    3    3    0  502  0.10939841386E+04  0.19874504331E+03 -0.73015095007E+02  0.11142854671E+04  0.10100000352E+00 0. -1.
</event>
<event>
 5   0  0.4914005E-05  0.2405775E+04  0.7818609E-02  0.8437344E-01
        2   -1    0    0  501    0  0.00000000000E+00  0.00000000000E+00  0.96713146238E+03  0.96713146238E+03  0.25500000920E-02 0.  1.
       -2   -1    0    0    0  501  0.00000000000E+00  0.00000000000E+00 -0.14961139755E+04  0.14961139756E+04  0.25500000920E-02 0. -1.
    10030    2    1    2    0    0  0.00000000000E+00  0.00000000000E+00 -0.52898251317E+03  0.24632454379E+04  0.24057754651E+04 0.  0.
        2    1    3    3  502    0  0.18409608450E+03 -0.91900851001E+03  0.50748991797E+03  0.10658395877E+04  0.25500000920E-02 0.  1.
       -2    1    3    3    0  502 -0.18409608450E+03  0.91900851001E+03 -0.10364724311E+04  0.13974058503E+04  0.25500000920E-02 0. -1.
</event>
<event>
 5   0  0.4756705E-05  0.2408506E+04  0.7818609E-02  0.8436326E-01
       -2   -1    0    0    0  501  0.00000000000E+00  0.00000000000E+00  0.12582384357E+04  0.12582384357E+04  0.25500000920E-02 0.  1.
        2   -1    0    0  501    0  0.00000000000E+00  0.00000000000E+00 -0.11525838768E+04  0.11525838768E+04  0.25500000920E-02 0. -1.
    10030    2    1    2    0    0  0.00000000000E+00  0.00000000000E+00  0.10565455886E+03  0.24108223125E+04  0.24085060383E+04 0.  0.
        3    1    3    3  502    0  0.11466703873E+04  0.26299706730E+03  0.31037783752E+03  0.12166983384E+04  0.10100000352E+00 0.  1.
       -3    1    3    3    0  502 -0.11466703873E+04 -0.26299706730E+03 -0.20472327866E+03  0.11941239741E+04  0.10100000352E+00 0. -1.
</event>
<event>
 5   0  0.4856882E-05  0.2501895E+04  0.7818609E-02  0.8402311E-01
       -2   -1    0    0    0  501  0.00000000000E+00  0.00000000000E+00  0.82424929114E+03  0.82424929115E+03  0.25500000920E-02 0. -1.
        2   -1    0    0  501    0  0.00000000000E+00  0.00000000000E+00 -0.18985388646E+04  0.18985388647E+04  0.25500000920E-02 0.  1.
    10030    2    1    2    0    0  0.00000000000E+00  0.00000000000E+00 -0.10742895735E+04  0.27227881558E+04  0.25018947327E+04 0.  0.
        1    1    3    3  502    0 -0.50383790562E+03  0.22769161851E+03 -0.17583469267E+04  0.18432254401E+04  0.50400001928E-02 0.  1.
       -1    1    3    3    0  502  0.50383790562E+03 -0.22769161851E+03  0.68405735324E+03  0.87956271568E+03  0.50400001928E-02 0. -1.
</event>
<event>
 5   0  0.4713971E-05  0.2402088E+04  0.7818609E-02  0.8438722E-01
       -2   -1    0    0    0  501  0.00000000000E+00  0.00000000000E+00  0.10998940470E+04  0.10998940470E+04  0.25500000920E-02 0.  1.
        2   -1    0    0  501    0  0.00000000000E+00  0.00000000000E+00 -0.13114961413E+04  0.13114961413E+04  0.25500000920E-02 0. -1.
    10030    2    1    2    0    0  0.00000000000E+00  0.00000000000E+00 -0.21160209428E+03  0.24113901882E+04  0.24020880903E+04 0.  0.
        5    1    3    3  502    0 -0.19982952406E+03  0.11560698499E+04 -0.36380872536E+03  0.12283355466E+04  0.46999998093E+01 0. -1.
       -5    1    3    3    0  502  0.19982952406E+03 -0.11560698499E+04  0.15220663108E+03  0.11830546416E+04  0.46999998093E+01 0.  1.
</event>
<event>
 5   0  0.2057599E-05  0.2440231E+04  0.7818609E-02  0.8424594E-01
       -1   -1    0    0    0  501  0.00000000000E+00  0.00000000000E+00  0.71599240138E+03  0.71599240140E+03  0.50400001928E-02 0.  1.
        1   -1    0    0  501    0  0.00000000000E+00  0.00000000000E+00 -0.20791858217E+04  0.20791858217E+04  0.50400001928E-02 0. -1.
    10030    2    1    2    0    0  0.00000000000E+00  0.00000000000E+00 -0.13631934203E+04  0.27951782231E+04  0.24402305214E+04 0.  0.
        4    1    3    3  502    0 -0.74511477165E+03 -0.88098480548E+03 -0.11359683073E+04  0.16191837013E+04  0.12699999809E+01 0. -1.
       -4    1    3    3    0  502  0.74511477165E+03  0.88098480548E+03 -0.22722511300E+03  0.11759945218E+04  0.12699999809E+01 0.  1.
</event>
<event>
 5   0  0.2149920E-05  0.2433654E+04  0.7818609E-02  0.8427011E-01
       -1   -1    0    0    0  501  0.00000000000E+00  0.00000000000E+00  0.81933725821E+03  0.81933725822E+03  0.50400001928E-02 0.  1.
        1   -1    0    0  501    0  0.00000000000E+00  0.00000000000E+00 -0.18071525946E+04  0.18071525946E+04  0.50400001928E-02 0. -1.
    10030    2    1    2    0    0  0.00000000000E+00  0.00000000000E+00 -0.98781533638E+03  0.26264898528E+04  0.24336535925E+04 0.  0.
        5    1    3    3  502    0 -0.55491461509E+03 -0.78454446061E+03  0.31170171586E+03  0.10102575367E+04  0.46999998093E+01 0.  1.
       -5    1    3    3    0  502  0.55491461509E+03  0.78454446061E+03 -0.12995170522E+04  0.16162323162E+04  0.46999998093E+01 0. -1.
</event>
<event>
 5   0  0.4664127E-05  0.2451497E+04  0.7818609E-02  0.8420471E-01
       -2   -1    0    0    0  501  0.00000000000E+00  0.00000000000E+00  0.13107482513E+04  0.13107482513E+04  0.25500000920E-02 0. -1.
        2   -1    0    0  501    0  0.00000000000E+00  0.00000000000E+00 -0.11462612751E+04  0.11462612751E+04  0.25500000920E-02 0.  1.
    10030    2    1    2    0    0  0.00000000000E+00  0.00000000000E+00  0.16448697624E+03  0.24570095264E+04  0.24514974704E+04 0.  0.
        4    1    3    3  502    0 -0.35800596145E+03 -0.10973403608E+04  0.49564419916E+03  0.12561802900E+04  0.12699999809E+01 0. -1.
       -4    1    3    3    0  502  0.35800596145E+03  0.10973403608E+04 -0.33115722292E+03  0.12008292364E+04  0.12699999809E+01 0.  1.
</event>
<event>
 5   0  0.2057599E-05  0.2371046E+04  0.7818609E-02  0.8450424E-01
       -1   -1    0    0    0  501  0.00000000000E+00  0.00000000000E+00  0.79193132794E+03  0.79193132796E+03  0.50400001928E-02 0. -1.
        1   -1    0    0  501    0  0.00000000000E+00  0.00000000000E+00 -0.17747300426E+04  0.17747300426E+04  0.50400001928E-02 0.  1.
    10030    2    1    2    0    0  0.00000000000E+00  0.00000000000E+00 -0.98279871462E+03  0.25666613705E+04  0.23710456085E+04 0.  0.
        4    1    3    3  502    0  0.43413396632E+02 -0.78794956167E+03 -0.14491006436E+04  0.16500434912E+04  0.12699999809E+01 0.  1.
       -4    1    3    3    0  502 -0.43413396632E+02  0.78794956167E+03  0.46630192900E+03  0.91661787929E+03  0.12699999809E+01 0. -1.
</event>
<event>
 5   0  0.2090039E-05  0.2427925E+04  0.7818609E-02  0.8429122E-01
        1   -1    0    0  501    0  0.00000000000E+00  0.00000000000E+00  0.14899624255E+04  0.14899624256E+04  0.50400001928E-02 0.  1.
       -1   -1    0    0    0  501  0.00000000000E+00  0.00000000000E+00 -0.98908830292E+03  0.98908830294E+03  0.50400001928E-02 0. -1.
    10030    2    1    2    0    0  0.00000000000E+00  0.00000000000E+00  0.50087412262E+03  0.24790507285E+04  0.24279245515E+04 0.  0.
        1    1    3    3  502    0 -0.22154753172E+03  0.79707865629E+03  0.11575630786E+04  0.14228035613E+04  0.50400001928E-02 0.  1.
       -1    1    3    3    0  502  0.22154753172E+03 -0.79707865629E+03 -0.65668895601E+03  0.10562471671E+04  0.50400001928E-02 0. -1.
</event>
<event>
 5   0  0.4856882E-05  0.2432220E+04  0.7818609E-02  0.8427539E-01
       -2   -1    0    0    0  501  0.00000000000E+00  0.00000000000E+00  0.76102252379E+03  0.76102252380E+03  0.25500000920E-02 0. -1.
        2   -1    0    0  501    0  0.00000000000E+00  0.00000000000E+00 -0.19433368864E+04  0.19433368864E+04  0.25500000920E-02 0.  1.
    10030    2    1    2    0    0  0.00000000000E+00  0.00000000000E+00 -0.11823143626E+04  0.27043594102E+04  0.24322196791E+04 0.  0.
        1    1    3    3  502    0  0.90118763233E+03 -0.61004982581E+03 -0.11946819307E+04  0.16160336798E+04  0.50400001928E-02 0.  1.
       -1    1    3    3    0  502 -0.90118763233E+03  0.61004982581E+03  0.12367568133E+02  0.10883257304E+04  0.50400001928E-02 0. -1.
</event>
<event>
 5   0  0.2149920E-05  0.2380861E+04  0.7818609E-02  0.8446704E-01
       -1   -1    0    0    0  501  0.00000000000E+00  0.00000000000E+00  0.10239821875E+04  0.10239821876E+04  0.50400001928E-02 0.  1.
        1   -1    0    0  501    0  0.00000000000E+00  0.00000000000E+00 -0.13839354445E+04  0.13839354445E+04  0.50400001928E-02 0. -1.
    10030    2    1    2    0    0  0.00000000000E+00  0.00000000000E+00 -0.35995325697E+03  0.24079176321E+04  0.23808613936E+04 0.  0.
        5    1    3    3  502    0  0.44863870291E+03  0.93798643529E+03  0.40627257834E+03  0.11163219681E+04  0.46999998093E+01 0.  1.
       -5    1    3    3    0  502 -0.44863870291E+03 -0.93798643529E+03 -0.76622583530E+03  0.12915956640E+04  0.46999998093E+01 0. -1.
</event>
<event>
 5   0  0.4664127E-05  0.2172445E+04  0.7818609E-02  0.8529986E-01
       -2   -1    0    0    0  501  0.00000000000E+00  0.00000000000E+00  0.10985980366E+04  0.10985980366E+04  0.25500000920E-02 0. -1.
        2   -1    0    0  501    0  0.00000000000E+00  0.00000000000E+00 -0.10739861080E+04  0.10739861080E+04  0.25500000920E-02 0.  1.
    10030    2    1    2    0    0  0.00000000000E+00  0.00000000000E+00  0.24611928692E+02  0.21725841446E+04  0.21724447331E+04 0.  0.
        4    1    3    3  502    0  0.65646246059E+03 -0.86514262108E+03  0.33817800402E+02  0.10865357672E+04  0.12699999809E+01 0.  1.
       -4    1    3    3    0  502 -0.65646246059E+03  0.86514262108E+03 -0.92058717107E+01  0.10860483774E+04  0.12699999809E+01 0. -1.
</event>
<event>
 5   0  0.4856882E-05  0.2367019E+04  0.7818609E-02  0.8451955E-01
        2   -1    0    0  501    0  0.00000000000E+00  0.00000000000E+00  0.17038080083E+04  0.17038080083E+04  0.25500000920E-02 0.  1.
       -2   -1    0    0    0  501  0.00000000000E+00  0.00000000000E+00 -0.82209672999E+03  0.82209672999E+03  0.25500000920E-02 0. -1.
    10030    2    1    2    0    0  0.00000000000E+00  0.00000000000E+00  0.88171127835E+03  0.25259047383E+04  0.23670192160E+04 0.  0.
        1    1    3    3  502    0 -0.60971073759E+03 -0.55838404040E+03 -0.46283903143E+03  0.94750192039E+03  0.50400001928E-02 0. -1.
       -1    1    3    3    0  502  0.60971073759E+03  0.55838404040E+03  0.13445503098E+04  0.15784028179E+04  0.50400001928E-02 0.  1.
</event>
<event>
 5   0  0.4756705E-05  0.1765620E+04  0.7818609E-02  0.8724799E-01
        2   -1    0    0  501    0  0.00000000000E+00  0.00000000000E+00  0.10825179816E+04  0.10825179816E+04  0.25500000920E-02 0. -1.
       -2   -1    0    0    0  501  0.00000000000E+00  0.00000000000E+00 -0.71994526425E+03  0.71994526425E+03  0.25500000920E-02 0.  1.
    10030    2    1    2    0    0  0.00000000000E+00  0.00000000000E+00  0.36257271732E+03  0.18024632458E+04  0.17656202245E+04 0.  0.
        3    1    3    3  502    0 -0.74043299609E+03  0.18988624093E+03 -0.26958084324E+03  0.81053787538E+03  0.10100000352E+00 0.  1.
       -3    1    3    3    0  502  0.74043299609E+03 -0.18988624093E+03  0.63215356056E+03  0.99192537044E+03  0.10100000352E+00 0. -1.
</event>
<event>
 5   0  0.4914005E-05  0.2401941E+04  0.7818609E-02  0.8438777E-01
        2   -1    0    0  501    0  0.00000000000E+00  0.00000000000E+00  0.19949207610E+04  0.19949207610E+04  0.25500000920E-02 0.  1.
       -2   -1    0    0    0  501  0.00000000000E+00  0.00000000000E+00 -0.72300108177E+03  0.72300108178E+03  0.25500000920E-02 0. -1.
    10030    2    1    2    0    0  0.00000000000E+00  0.00000000000E+00  0.12719196793E+04  0.27179218428E+04  0.24019407722E+04 0.  0.
        2    1    3    3  502    0  0.77019542120E+03 -0.87171997482E+03  0.29794339997E+03  0.12007776526E+04  0.25500000920E-02 0. -1.
       -2    1    3    3    0  502 -0.77019542120E+03  0.87171997482E+03  0.97397627929E+03  0.15171441902E+04  0.25500000920E-02 0.  1.
</event>
<event>
 5   0  0.4856882E-05  0.2389351E+04  0.7818609E-02  0.8443501E-01
       -2   -1    0    0    0  501  0.00000000000E+00  0.00000000000E+00  0.97923896410E+03  0.97923896410E+03  0.25500000920E-02 0. -1.
        2   -1    0    0  501    0  0.00000000000E+00  0.00000000000E+00 -0.14575091409E+04  0.14575091409E+04  0.25500000920E-02 0.  1.
    10030    2    1    2    0    0  0.00000000000E+00  0.00000000000E+00 -0.47827017676E+03  0.24367481050E+04  0.23893511599E+04 0.  0.
        1    1    3    3  502    0  0.43213756322E+03  0.10712158855E+04 -0.55014917106E+03  0.12794180151E+04  0.50400001928E-02 0. -1.
       -1    1    3    3    0  502 -0.43213756322E+03 -0.10712158855E+04  0.71878994303E+02  0.11573300898E+04  0.50400001928E-02 0.  1.
</event>
<event>
 5   0  0.4713971E-05  0.2310290E+04  0.7818609E-02  0.8473875E-01
       -2   -1    0    0    0  501  0.00000000000E+00  0.00000000000E+00  0.91787908569E+03  0.91787908569E+03  0.25500000920E-02 0. -1.
        2   -1    0    0  501    0  0.00000000000E+00  0.00000000000E+00 -0.14537431881E+04  0.14537431881E+04  0.25500000920E-02 0.  1.
    10030    2    1    2    0    0  0.00000000000E+00  0.00000000000E+00 -0.53586410242E+03  0.23716222738E+04  0.23102904305E+04 0.  0.
        5    1    3    3  502    0  0.11273919765E+04  0.23497732624E+03 -0.36038610048E+03  0.12067009753E+04  0.46999998093E+01 0. -1.
       -5    1    3    3    0  502 -0.11273919765E+04 -0.23497732624E+03 -0.17547800194E+03  0.11649212985E+04  0.46999998093E+01 0.  1.
</event>
<event>
 5   0  0.4914005E-05  0.2297092E+04  0.7818609E-02  0.8479069E-01
       -2   -1    0    0    0  501  0.00000000000E+00  0.00000000000E+00  0.13670188406E+04  0.13670188406E+04  0.25500000920E-02 0. -1.
        2   -1    0    0  501    0  0.00000000000E+00  0.00000000000E+00 -0.96498879444E+03  0.96498879444E+03  0.25500000920E-02 0.  1.
    10030    2    1    2    0    0  0.00000000000E+00  0.00000000000E+00  0.40203004616E+03  0.23320076350E+04  0.22970919555E+04 0.  0.
        2    1    3    3  502    0  0.43536990651E+03 -0.99806565878E+01 -0.87792393795E+03  0.97999847440E+03  0.25500000920E-02 0.  1.
       -2    1    3    3    0  502 -0.43536990651E+03  0.99806565878E+01  0.12799539841E+04  0.13520091606E+04  0.25500000920E-02 0. -1.
</event>
<event>
 5   0  0.2065692E-05  0.2404998E+04  0.7818609E-02  0.8437635E-01
       -1   -1    0    0    0  501  0.00000000000E+00  0.00000000000E+00  0.11930008357E+04  0.11930008357E+04  0.50400001928E-02 0.  1.
        1   -1    0    0  501    0  0.00000000000E+00  0.00000000000E+00 -0.12120730669E+04  0.12120730670E+04  0.50400001928E-02 0. -1.
    10030    2    1    2    0    0  0.00000000000E+00  0.00000000000E+00 -0.19072231206E+02  0.24050739027E+04  0.24049982801E+04 0.  0.
        3    1    3    3  502    0 -0.52447090945E+03  0.10820768229E+04 -0.28886363816E+01  0.12024842369E+04  0.10100000352E+00 0.  1.
       -3    1    3    3    0  502  0.52447090945E+03 -0.10820768229E+04 -0.16183594824E+02  0.12025896658E+04  0.10100000352E+00 0. -1.
</event>
<event>
 5   0  0.2090039E-05  0.2381991E+04  0.7818609E-02  0.8446277E-01
       -1   -1    0    0    0  501  0.00000000000E+00  0.00000000000E+00  0.42882080728E+03  0.42882080731E+03  0.50400001928E-02 0. -1.
        1   -1    0    0  501    0  0.00000000000E+00  0.00000000000E+00 -0.33078387036E+04  0.33078387036E+04  0.50400001928E-02 0.  1.
    10030    2    1    2    0    0  0.00000000000E+00  0.00000000000E+00 -0.28790178963E+04  0.37366595109E+04  0.23819908172E+04 0.  0.
        1    1    3    3  502    0  0.28240954626E+03 -0.41749886248E+03  0.25325473903E+03  0.56409078601E+03  0.50400001928E-02 0. -1.
       -1    1    3    3    0  502 -0.28240954626E+03  0.41749886248E+03 -0.31322726353E+04  0.31725687249E+04  0.50400001928E-02 0.  1.
</event>
<event>
 5   0  0.4664127E-05  0.2394973E+04  0.7818609E-02  0.8441388E-01
       -2   -1    0    0    0  501  0.00000000000E+00  0.00000000000E+00  0.75910327488E+03  0.75910327489E+03  0.25500000920E-02 0.  1.
        2   -1    0    0  501    0  0.00000000000E+00  0.00000000000E+00 -0.18890365402E+04  0.18890365402E+04  0.25500000920E-02 0. -1.
    10030    2    1    2    0    0  0.00000000000E+00  0.00000000000E+00 -0.11299332654E+04  0.26481398151E+04  0.23949729218E+04 0.  0.
        4    1    3    3  502    0  0.11177595823E+04  0.26226019365E+03 -0.94124093188E+03  0.14846221734E+04  0.12699999809E+01 0. -1.
       -4    1    3    3    0  502 -0.11177595823E+04 -0.26226019365E+03 -0.18869233349E+03  0.11635176417E+04  0.12699999809E+01 0.  1.
</event>
<event>
 5   0  0.4713971E-05  0.2346905E+04  0.7818609E-02  0.8459653E-01
       -2   -1    0    0    0  501  0.00000000000E+00  0.00000000000E+00  0.11987724435E+04  0.11987724435E+04  0.25500000920E-02 0.  1.
        2   -1    0    0  501    0  0.00000000000E+00  0.00000000000E+00 -0.11486675091E+04  0.11486675091E+04  0.25500000920E-02 0. -1.
    10030    2    1    2    0    0  0.00000000000E+00  0.00000000000E+00  0.50104934384E+02  0.23474399526E+04  0.23469051592E+04 0.  0.
        5    1    3    3  502    0  0.34718553197E+03 -0.79991077181E+03 -0.76034861610E+03  0.11569559821E+04  0.46999998093E+01 0.  1.
       -5    1    3    3    0  502 -0.34718553197E+03  0.79991077181E+03  0.81045355048E+03  0.11904839705E+04  0.46999998093E+01 0. -1.
</event>
<event>
 5   0  0.4713971E-05  0.2364588E+04  0.7818609E-02  0.8452881E-01
       -2   -1    0    0    0  501  0.00000000000E+00  0.00000000000E+00  0.81432132958E+03  0.81432132958E+03  0.25500000920E-02 0. -1.
        2   -1    0    0  501    0  0.00000000000E+00  0.00000000000E+00 -0.17165453596E+04  0.17165453596E+04  0.25500000920E-02 0.  1.
    10030    2    1    2    0    0  0.00000000000E+00  0.00000000000E+00 -0.90222403002E+03  0.25308666892E+04  0.23645883359E+04 0.  0.
        5    1    3    3  502    0  0.51948420665E+03  0.15807939164E+03 -0.15751747530E+04  0.16661484110E+04  0.46999998093E+01 0.  1.
       -5    1    3    3    0  502 -0.51948420665E+03 -0.15807939164E+03  0.67295072299E+03  0.86471827816E+03  0.46999998093E+01 0. -1.
</event>
<event>
 5   0  0.2057599E-05  0.2305857E+04  0.7818609E-02  0.8475615E-01
        1   -1    0    0  501    0  0.00000000000E+00  0.00000000000E+00  0.18970535859E+04  0.18970535859E+04  0.50400001928E-02 0.  1.
       -1   -1    0    0    0  501  0.00000000000E+00  0.00000000000E+00 -0.70068887612E+03  0.70068887614E+03  0.50400001928E-02 0. -1.
    10030    2    1    2    0    0  0.00000000000E+00  0.00000000000E+00  0.11963647098E+04  0.25977424620E+04  0.23058571899E+04 0.  0.
        4    1    3    3  502    0 -0.47507847023E+03 -0.38867264772E+03 -0.50130662066E+03  0.79251241049E+03  0.12699999809E+01 0. -1.
       -4    1    3    3    0  502  0.47507847023E+03  0.38867264772E+03  0.16976713304E+04  0.18052300515E+04  0.12699999809E+01 0.  1.
</event>
<event>
 5   0  0.2149920E-05  0.2230440E+04  0.7818609E-02  0.8505864E-01
        1   -1    0    0  501    0  0.00000000000E+00  0.00000000000E+00  0.11653725497E+04  0.11653725497E+04  0.50400001928E-02 0.  1.
       -1   -1    0    0    0  501  0.00000000000E+00  0.00000000000E+00 -0.10672259098E+04  0.10672259098E+04  0.50400001928E-02 0. -1.
    10030    2    1    2    0    0  0.00000000000E+00  0.00000000000E+00  0.98146639887E+02  0.22325984594E+04  0.22304401176E+04 0.  0.
        5    1    3    3  502    0  0.64048300745E+03 -0.84637659493E+03  0.39163520896E+03  0.11313584976E+04  0.46999998093E+01 0.  1.
       -5    1    3    3    0  502 -0.64048300745E+03  0.84637659493E+03 -0.29348856908E+03  0.11012399618E+04  0.46999998093E+01 0. -1.
</event>
<event>
 5   0  0.4856882E-05  0.2357952E+04  0.7818609E-02  0.8455415E-01
        2   -1    0    0  501    0  0.00000000000E+00  0.00000000000E+00  0.16515246147E+04  0.16515246147E+04  0.25500000920E-02 0. -1.
       -2   -1    0    0    0  501  0.00000000000E+00  0.00000000000E+00 -0.84163731571E+03  0.84163731571E+03  0.25500000920E-02 0.  1.
    10030    2    1    2    0    0  0.00000000000E+00  0.00000000000E+00  0.80988729895E+03  0.24931619304E+04  0.23579522841E+04 0.  0.
        1    1    3    3  502    0 -0.17276698213E+03  0.66097758525E+03 -0.61101011443E+03  0.91655504923E+03  0.50400001928E-02 0.  1.
       -1    1    3    3    0  502  0.17276698213E+03 -0.66097758525E+03  0.14208974134E+04  0.15766068811E+04  0.50400001928E-02 0. -1.
</event>
<event>
 5   0  0.4664127E-05  0.2454570E+04  0.7818609E-02  0.8419351E-01
        2   -1    0    0  501    0  0.00000000000E+00  0.00000000000E+00  0.18495691205E+04  0.18495691205E+04  0.25500000920E-02 0. -1.
       -2   -1    0    0    0  501  0.00000000000E+00  0.00000000000E+00 -0.81436721039E+03  0.81436721039E+03  0.25500000920E-02 0.  1.
    10030    2    1    2    0    0  0.00000000000E+00  0.00000000000E+00  0.10352019102E+04  0.26639363309E+04  0.24545699787E+04 0.  0.
        4    1    3    3  502    0  0.75103051127E+03 -0.58774381280E+03 -0.32077725803E+03  0.10061755714E+04  0.12699999809E+01 0.  1.
       -4    1    3    3    0  502 -0.75103051127E+03  0.58774381280E+03  0.13559791682E+04  0.16577607595E+04  0.12699999809E+01 0. -1.
</event>
<event>
 5   0  0.4914005E-05  0.2402684E+04  0.7818609E-02  0.8438499E-01
        2   -1    0    0  501    0  0.00000000000E+00  0.00000000000E+00  0.14415356479E+04  0.14415356479E+04  0.25500000920E-02 0. -1.
       -2   -1    0    0    0  501  0.00000000000E+00  0.00000000000E+00 -0.10011701413E+04  0.10011701413E+04  0.25500000920E-02 0.  1.
    10030    2    1    2    0    0  0.00000000000E+00  0.00000000000E+00  0.44036550661E+03  0.24427057891E+04  0.24026838729E+04 0.  0.
        2    1    3    3  502    0  0.94153070530E+03 -0.12999509246E+03 -0.52679648140E+03  0.10866891579E+04  0.25500000920E-02 0.  1.
       -2    1    3    3    0  502 -0.94153070530E+03  0.12999509246E+03  0.96716198801E+03  0.13560166312E+04  0.25500000920E-02 0. -1.
</event>
<event>
 5   0  0.4914005E-05  0.2427269E+04  0.7818609E-02  0.8429364E-01
        2   -1    0    0  501    0  0.00000000000E+00  0.00000000000E+00  0.22630511081E+04  0.22630511081E+04  0.25500000920E-02 0. -1.
       -2   -1    0    0    0  501  0.00000000000E+00  0.00000000000E+00 -0.65085091747E+03  0.65085091747E+03  0.25500000920E-02 0.  1.
    10030    2    1    2    0    0  0.00000000000E+00  0.00000000000E+00  0.16122001907E+04  0.29139020256E+04  0.24272691569E+04 0.  0.
        2    1    3    3  502    0  0.73984662362E+03  0.29830859341E+03 -0.29190005805E+03  0.84945081510E+03  0.25500000920E-02 0.  1.
       -2    1    3    3    0  502 -0.73984662362E+03 -0.29830859341E+03  0.19041002487E+04  0.20644512105E+04  0.25500000920E-02 0. -1.
</event>
<event>
 5   0  0.1672125E-05  0.2303749E+04  0.7818609E-02  0.8476444E-01
       -4   -1    0    0    0  501  0.00000000000E+00  0.00000000000E+00  0.13542410472E+04  0.13542416427E+04  0.12699999809E+01 0. -1.
        4   -1    0    0  501    0  0.00000000000E+00  0.00000000000E+00 -0.97974710478E+03  0.97974792790E+03  0.12699999809E+01 0.  1.
    10030    2    1    2    0    0  0.00000000000E+00  0.00000000000E+00  0.37449394241E+03  0.23339895706E+04  0.23037494661E+04 0.  0.
        5    1    3    3  502    0 -0.64508303079E+03 -0.52283298948E+03 -0.62154710151E+03  0.10372219343E+04  0.46999998093E+01 0.  1.
       -5    1    3    3    0  502  0.64508303079E+03  0.52283298948E+03  0.99604104392E+03  0.12967676363E+04  0.46999998093E+01 0. -1.
</event>
<event>
 5   0  0.2065692E-05  0.2400559E+04  0.7818609E-02  0.8439294E-01
        1   -1    0    0  501    0  0.00000000000E+00  0.00000000000E+00  0.15403607880E+04  0.15403607880E+04  0.50400001928E-02 0.  1.
       -1   -1    0    0    0  501  0.00000000000E+00  0.00000000000E+00 -0.93528121709E+03  0.93528121711E+03  0.50400001928E-02 0. -1.
    10030    2    1    2    0    0  0.00000000000E+00  0.00000000000E+00  0.60507957087E+03  0.24756420051E+04  0.24005586954E+04 0.  0.
        3    1    3    3  502    0 -0.19754676231E+03 -0.95142036327E+03  0.10291660895E+04  0.14154180587E+04  0.10100000352E+00 0.  1.
       -3    1    3    3    0  502  0.19754676231E+03  0.95142036327E+03 -0.42408651864E+03  0.10602239464E+04  0.10100000352E+00 0. -1.
</event>
<event>
 5   0  0.4713971E-05  0.2390299E+04  0.7818609E-02  0.8443145E-01
        2   -1    0    0  501    0  0.00000000000E+00  0.00000000000E+00  0.19169123235E+04  0.19169123235E+04  0.25500000920E-02 0.  1.
       -2   -1    0    0    0  501  0.00000000000E+00  0.00000000000E+00 -0.74514724790E+03  0.74514724791E+03  0.25500000920E-02 0. -1.
    10030    2    1    2    0    0  0.00000000000E+00  0.00000000000E+00  0.11717650755E+04  0.26620595714E+04  0.23902986778E+04 0.  0.
        5    1    3    3  502    0  0.10078521819E+04 -0.31030508015E+03 -0.40469284100E+02  0.10553270186E+04  0.46999998093E+01 0. -1.
       -5    1    3    3    0  502 -0.10078521819E+04  0.31030508015E+03  0.12122343596E+04  0.16067325527E+04  0.46999998093E+01 0.  1.
</event>
<event>
 5   0  0.4856882E-05  0.2407180E+04  0.7818609E-02  0.8436820E-01
        2   -1    0    0  501    0  0.00000000000E+00  0.00000000000E+00  0.11529861770E+04  0.11529861770E+04  0.25500000920E-02 0.  1.
       -2   -1    0    0    0  501  0.00000000000E+00  0.00000000000E+00 -0.12564151993E+04  0.12564151993E+04  0.25500000920E-02 0. -1.
    10030    2    1    2    0    0  0.00000000000E+00  0.00000000000E+00 -0.10342902230E+03  0.24094013764E+04  0.24071803900E+04 0.  0.
        1    1    3    3  502    0 -0.10609346438E+04  0.56813595769E+03 -0.35311208501E+02  0.12039965392E+04  0.50400001928E-02 0. -1.
       -1    1    3    3    0  502  0.10609346438E+04 -0.56813595769E+03 -0.68117813802E+02  0.12054048372E+04  0.50400001928E-02 0.  1.
</event>
<event>
 5   0  0.2057599E-05  0.2504677E+04  0.7818609E-02  0.8401321E-01
       -1   -1    0    0    0  501  0.00000000000E+00  0.00000000000E+00  0.16298384264E+04  0.16298384264E+04  0.50400001928E-02 0.  1.
        1   -1    0    0  501    0  0.00000000000E+00  0.00000000000E+00 -0.96227458647E+03  0.96227458648E+03  0.50400001928E-02 0. -1.
    10030    2    1    2    0    0  0.00000000000E+00  0.00000000000E+00  0.66756383997E+03  0.25921130129E+04  0.25046773028E+04 0.  0.
        4    1    3    3  502    0 -0.92072825072E+03 -0.13308081240E+03  0.12014402891E+04  0.15195102486E+04  0.12699999809E+01 0.  1.
       -4    1    3    3    0  502  0.92072825072E+03  0.13308081240E+03 -0.53387644912E+03  0.10726027644E+04  0.12699999809E+01 0. -1.
</event>
<event>
 5   0  0.2065692E-05  0.2368137E+04  0.7818609E-02  0.8451530E-01
       -1   -1    0    0    0  501  0.00000000000E+00  0.00000000000E+00  0.99708591013E+03  0.99708591015E+03  0.50400001928E-02 0. -1.
        1   -1    0    0  501    0  0.00000000000E+00  0.00000000000E+00 -0.14061154477E+04  0.14061154477E+04  0.50400001928E-02 0.  1.
    10030    2    1    2    0    0  0.00000000000E+00  0.00000000000E+00 -0.40902953752E+03  0.24032013578E+04  0.23681367367E+04 0.  0.
        3    1    3    3  502    0  0.88120200946E+03  0.41599129047E+03 -0.88712016379E+03  0.13177814426E+04  0.10100000352E+00 0.  1.
       -3    1    3    3    0  502 -0.88120200946E+03 -0.41599129047E+03  0.47809062627E+03  0.10854199152E+04  0.10100000352E+00 0. -1.
</event>
<event>
 5   0  0.4713971E-05  0.2401663E+04  0.7818609E-02  0.8438881E-01
       -2   -1    0    0    0  501  0.00000000000E+00  0.00000000000E+00  0.55503561530E+03  0.55503561530E+03  0.25500000920E-02 0.  1.
        2   -1    0    0  501    0  0.00000000000E+00  0.00000000000E+00 -0.25980255831E+04  0.25980255831E+04  0.25500000920E-02 0. -1.
    10030    2    1    2    0    0  0.00000000000E+00  0.00000000000E+00 -0.20429899678E+04  0.31530611984E+04  0.24016633637E+04 0.  0.
        5    1    3    3  502    0  0.27736098659E+03 -0.52507812455E+03  0.34876094651E+03  0.68868892947E+03  0.46999998093E+01 0.  1.
       -5    1    3    3    0  502 -0.27736098659E+03  0.52507812455E+03 -0.23917509143E+04  0.24643722689E+04  0.46999998093E+01 0. -1.
</event>
<event>
 5   0  0.4713971E-05  0.2551097E+04  0.7818609E-02  0.8385005E-01
        2   -1    0    0  501    0  0.00000000000E+00  0.00000000000E+00  0.93559222330E+03  0.93559222331E+03  0.25500000920E-02 0. -1.
       -2   -1    0    0    0  501  0.00000000000E+00  0.00000000000E+00 -0.17390308172E+04  0.17390308172E+04  0.25500000920E-02 0.  1.
    10030    2    1    2    0    0  0.00000000000E+00  0.00000000000E+00 -0.80343859387E+03  0.26746230405E+04  0.25510967905E+04 0.  0.
        5    1    3    3  502    0  0.10660247523E+04 -0.43631567534E+03  0.17273637809E+03  0.11647489375E+04  0.46999998093E+01 0.  1.
       -5    1    3    3    0  502 -0.10660247523E+04  0.43631567534E+03 -0.97617497196E+03  0.15098741030E+04  0.46999998093E+01 0. -1.
</event>
<event>
 5   0  0.4914005E-05  0.2360135E+04  0.7818609E-02  0.8454581E-01
       -2   -1    0    0    0  501  0.00000000000E+00  0.00000000000E+00  0.80333533216E+03  0.80333533217E+03  0.25500000920E-02 0. -1.
        2   -1    0    0  501    0  0.00000000000E+00  0.00000000000E+00 -0.17334717313E+04  0.17334717313E+04  0.25500000920E-02 0.  1.
    10030    2    1    2    0    0  0.00000000000E+00  0.00000000000E+00 -0.93013639914E+03  0.25368070635E+04  0.23601348174E+04 0.  0.
        2    1    3    3  502    0 -0.52102012604E+03  0.10829098405E+03  0.66704243611E+03  0.85330798692E+03  0.25500000920E-02 0. -1.
       -2    1    3    3    0  502  0.52102012604E+03 -0.10829098405E+03 -0.15971788352E+04  0.16834990765E+04  0.25500000920E-02 0.  1.
</event>
<event>
 5   0  0.4664127E-05  0.2434599E+04  0.7818609E-02  0.8426663E-01
       -2   -1    0    0    0  501  0.00000000000E+00  0.00000000000E+00  0.18196842580E+04  0.18196842580E+04  0.25500000920E-02 0. -1.
        2   -1    0    0  501    0  0.00000000000E+00  0.00000000000E+00 -0.81432690945E+03  0.81432690945E+03  0.25500000920E-02 0.  1.
    10030    2    1    2    0    0  0.00000000000E+00  0.00000000000E+00  0.10053573485E+04  0.26340111675E+04  0.24345988236E+04 0.  0.
        4    1    3    3  502    0 -0.54583596031E+03 -0.97976551938E+03  0.10146609797E+04  0.15124205385E+04  0.12699999809E+01 0. -1.
       -4    1    3    3    0  502  0.54583596031E+03  0.97976551938E+03 -0.93036311779E+01  0.11215906290E+04  0.12699999809E+01 0.  1.
</event>
<event>
 5   0  0.2090039E-05  0.2426587E+04  0.7818609E-02  0.8429617E-01
       -1   -1    0    0    0  501  0.00000000000E+00  0.00000000000E+00  0.92309963045E+03  0.92309963047E+03  0.50400001928E-02 0.  1.
        1   -1    0    0  501    0  0.00000000000E+00  0.00000000000E+00 -0.15947147749E+04  0.15947147749E+04  0.50400001928E-02 0. -1.
    10030    2    1    2    0    0  0.00000000000E+00  0.00000000000E+00 -0.67161514448E+03  0.25178144054E+04  0.24265865898E+04 0.  0.
        1    1    3    3  502    0 -0.22869081379E+02  0.51158578109E+03  0.80547047071E+03  0.95447665530E+03  0.50400001928E-02 0.  1.
       -1    1    3    3    0  502  0.22869081379E+02 -0.51158578109E+03 -0.14770856152E+04  0.15633377501E+04  0.50400001928E-02 0. -1.
</event>
<event>
 5   0  0.2090039E-05  0.2414998E+04  0.7818609E-02  0.8433910E-01
       -1   -1    0    0    0  501  0.00000000000E+00  0.00000000000E+00  0.64540244543E+03  0.64540244545E+03  0.50400001928E-02 0.  1.
        1   -1    0    0  501    0  0.00000000000E+00  0.00000000000E+00 -0.22591397182E+04  0.22591397182E+04  0.50400001928E-02 0. -1.
    10030    2    1    2    0    0  0.00000000000E+00  0.00000000000E+00 -0.16137372728E+04  0.29045421636E+04  0.24149983840E+04 0.  0.
        1    1    3    3  502    0 -0.11285329704E+04  0.93613229007E+02 -0.13110095083E+04  0.17323671761E+04  0.50400001928E-02 0.  1.
       -1    1    3    3    0  502  0.11285329704E+04 -0.93613229007E+02 -0.30272776447E+03  0.11721749875E+04  0.50400001928E-02 0. -1.
</event>
<event>
 5   0  0.2065692E-05  0.2418135E+04  0.7818609E-02  0.8432745E-01
        1   -1    0    0  501    0  0.00000000000E+00  0.00000000000E+00  0.19031622110E+04  0.19031622110E+04  0.50400001928E-02 0. -1.
       -1   -1    0    0    0  501  0.00000000000E+00  0.00000000000E+00 -0.76811334429E+03  0.76811334431E+03  0.50400001928E-02 0.  1.
    10030    2    1    2    0    0  0.00000000000E+00  0.00000000000E+00  0.11350488667E+04  0.26712755553E+04  0.24181350588E+04 0.  0.
        3    1    3    3  502    0 -0.94115852484E+03  0.53752009911E+03 -0.24422475370E+02  0.10841142437E+04  0.10100000352E+00 0.  1.
       -3    1    3    3    0  502  0.94115852484E+03 -0.53752009911E+03  0.11594713420E+04  0.15871613116E+04  0.10100000352E+00 0. -1.
</event>
<event>
 5   0  0.4856882E-05  0.2393884E+04  0.7818609E-02  0.8441797E-01
       -2   -1    0    0    0  501  0.00000000000E+00  0.00000000000E+00  0.68783468216E+03  0.68783468217E+03  0.25500000920E-02 0. -1.
        2   -1    0    0  501    0  0.00000000000E+00  0.00000000000E+00 -0.20828699611E+04  0.20828699611E+04  0.25500000920E-02 0.  1.
    10030    2    1    2    0    0  0.00000000000E+00  0.00000000000E+00 -0.13950352789E+04  0.27707046432E+04  0.23938840387E+04 0.  0.
        1    1    3    3  502    0 -0.42914717335E+03 -0.11094426482E+04 -0.54379588737E+03  0.13079542244E+04  0.50400001928E-02 0.  1.
       -1    1    3    3    0  502  0.42914717335E+03  0.11094426482E+04 -0.85123939153E+03  0.14627504188E+04  0.50400001928E-02 0. -1.
</event>
<event>
 5   0  0.4664127E-05  0.2407489E+04  0.7818609E-02  0.8436705E-01
       -2   -1    0    0    0  501  0.00000000000E+00  0.00000000000E+00  0.19508110824E+04  0.19508110824E+04  0.25500000920E-02 0.  1.
        2   -1    0    0  501    0  0.00000000000E+00  0.00000000000E+00 -0.74276818609E+03  0.74276818609E+03  0.25500000920E-02 0. -1.
    10030    2    1    2    0    0  0.00000000000E+00  0.00000000000E+00  0.12080428963E+04  0.26935792685E+04  0.24074886576E+04 0.  0.
        4    1    3    3  502    0  0.19073191713E+03 -0.68238947833E+03  0.16927820912E+04  0.18350877052E+04  0.12699999809E+01 0.  1.
       -4    1    3    3    0  502 -0.19073191713E+03  0.68238947833E+03 -0.48473919491E+03  0.85849156334E+03  0.12699999809E+01 0. -1.
</event>
<event>
 5   0  0.2057599E-05  0.2394646E+04  0.7818609E-02  0.8441511E-01
       -1   -1    0    0    0  501  0.00000000000E+00  0.00000000000E+00  0.11941722995E+04  0.11941722995E+04  0.50400001928E-02 0. -1.
        1   -1    0    0  501    0  0.00000000000E+00  0.00000000000E+00 -0.12004816960E+04  0.12004816960E+04  0.50400001928E-02 0.  1.
    10030    2    1    2    0    0  0.00000000000E+00  0.00000000000E+00 -0.63093965340E+01  0.23946539955E+04  0.23946456836E+04 0.  0.
        4    1    3    3  502    0 -0.12262926593E+03  0.10928671793E+04  0.47032742637E+03  0.11960794745E+04  0.12699999809E+01 0. -1.
       -4    1    3    3    0  502  0.12262926593E+03 -0.10928671793E+04 -0.47663682290E+03  0.11985745210E+04  0.12699999809E+01 0.  1.
</event>
<event>
 5   0  0.2149920E-05  0.2354721E+04  0.7818609E-02  0.8456653E-01
        1   -1    0    0  501    0  0.00000000000E+00  0.00000000000E+00  0.87624951856E+03  0.87624951858E+03  0.50400001928E-02 0.  1.
       -1   -1    0    0    0  501  0.00000000000E+00  0.00000000000E+00 -0.15819440817E+04  0.15819440817E+04  0.50400001928E-02 0. -1.
    10030    2    1    2    0    0  0.00000000000E+00  0.00000000000E+00 -0.70569456310E+03  0.24581936002E+04  0.23547209941E+04 0.  0.
        5    1    3    3  502    0 -0.51241213858E+03  0.30109713979E+03  0.70814461146E+03  0.92450882531E+03  0.46999998093E+01 0.  1.
       -5    1    3    3    0  502  0.51241213858E+03 -0.30109713979E+03 -0.14138391746E+04  0.15336847749E+04  0.46999998093E+01 0. -1.
</event>
<event>
 5   0  0.4856882E-05  0.2394488E+04  0.7818609E-02  0.8441570E-01
       -2   -1    0    0    0  501  0.00000000000E+00  0.00000000000E+00  0.13105389812E+04  0.13105389812E+04  0.25500000920E-02 0.  1.
        2   -1    0    0  501    0  0.00000000000E+00  0.00000000000E+00 -0.10937430118E+04  0.10937430118E+04  0.25500000920E-02 0. -1.
    10030    2    1    2    0    0  0.00000000000E+00  0.00000000000E+00  0.21679596946E+03  0.24042819930E+04  0.23944877134E+04 0.  0.
        1    1    3    3  502    0 -0.93298724193E+02  0.24473848682E+03 -0.10646233453E+04  0.10963687546E+04  0.50400001928E-02 0. -1.
       -1    1    3    3    0  502  0.93298724193E+02 -0.24473848682E+03  0.12814193147E+04  0.13079132383E+04  0.50400001928E-02 0.  1.
</event>
<event>
 5   0  0.2065692E-05  0.2178406E+04  0.7818609E-02  0.8527470E-01
        1   -1    0    0  501    0  0.00000000000E+00  0.00000000000E+00  0.11275880486E+04  0.11275880486E+04  0.50400001928E-02 0.  1.
       -1   -1    0    0    0  501  0.00000000000E+00  0.00000000000E+00 -0.10521247314E+04  0.10521247314E+04  0.50400001928E-02 0. -1.
    10030    2    1    2    0    0  0.00000000000E+00  0.00000000000E+00  0.75463317184E+02  0.21797127800E+04  0.21784060896E+04 0.  0.
        3    1    3    3  502    0 -0.76335543543E+02 -0.57205491767E+03  0.96202235745E+03  0.11218560382E+04  0.10100000352E+00 0.  1.
       -3    1    3    3    0  502  0.76335543543E+02  0.57205491767E+03 -0.88655904027E+03  0.10578567418E+04  0.10100000352E+00 0. -1.
</event>
<event>
 5   0  0.4914005E-05  0.1837331E+04  0.7818609E-02  0.8686695E-01
        2   -1    0    0  501    0  0.00000000000E+00  0.00000000000E+00  0.97008901650E+03  0.97008901650E+03  0.25500000920E-02 0.  1.
       -2   -1    0    0    0  501  0.00000000000E+00  0.00000000000E+00 -0.86996811736E+03  0.86996811736E+03  0.25500000920E-02 0. -1.
    10030    2    1    2    0    0  0.00000000000E+00  0.00000000000E+00  0.10012089914E+03  0.18400571339E+04  0.18373312335E+04 0.  0.
        2    1    3    3  502    0 -0.28823604746E+03 -0.58680473789E+03 -0.59628585618E+03  0.88485967348E+03  0.25500000920E-02 0. -1.
       -2    1    3    3    0  502  0.28823604746E+03  0.58680473789E+03  0.69640675532E+03  0.95519746038E+03  0.25500000920E-02 0.  1.
</event>
<event>
 5   0  0.4914005E-05  0.2400314E+04  0.7818609E-02  0.8439386E-01
        2   -1    0    0  501    0  0.00000000000E+00  0.00000000000E+00  0.83472914001E+03  0.83472914001E+03  0.25500000920E-02 0.  1.
       -2   -1    0    0    0  501  0.00000000000E+00  0.00000000000E+00 -0.17255622882E+04  0.17255622882E+04  0.25500000920E-02 0. -1.
    10030    2    1    2    0    0  0.00000000000E+00  0.00000000000E+00 -0.89083314817E+03  0.25602914282E+04  0.24003142501E+04 0.  0.
        2    1    3    3  502    0  0.60740896201E+03 -0.32757962773E+02  0.65811790854E+03  0.89617962084E+03  0.25500000920E-02 0.  1.
       -2    1    3    3    0  502 -0.60740896201E+03  0.32757962773E+02 -0.15489510567E+04  0.16641118074E+04  0.25500000920E-02 0. -1.
</event>
<event>
 5   0  0.4664127E-05  0.2380795E+04  0.7818609E-02  0.8446729E-01
       -2   -1    0    0    0  501  0.00000000000E+00  0.00000000000E+00  0.12759448856E+04  0.12759448856E+04  0.25500000920E-02 0. -1.
        2   -1    0    0  501    0  0.00000000000E+00  0.00000000000E+00 -0.11105855999E+04  0.11105855999E+04  0.25500000920E-02 0.  1.
    10030    2    1    2    0    0  0.00000000000E+00  0.00000000000E+00  0.16535928573E+03  0.23865304855E+04  0.23807948389E+04 0.  0.
        4    1    3    3  502    0  0.68541500046E+03  0.11784873211E+03  0.10511139248E+04  0.12603666698E+04  0.12699999809E+01 0.  1.
       -4    1    3    3    0  502 -0.68541500046E+03 -0.11784873211E+03 -0.88575463903E+03  0.11261638158E+04  0.12699999809E+01 0. -1.
</event>
<event>
 5   0  0.4756705E-05  0.2388806E+04  0.7818609E-02  0.8443706E-01
       -2   -1    0    0    0  501  0.00000000000E+00  0.00000000000E+00  0.91845386719E+03  0.91845386719E+03  0.25500000920E-02 0.  1.
        2   -1    0    0  501    0  0.00000000000E+00  0.00000000000E+00 -0.15532608951E+04  0.15532608951E+04  0.25500000920E-02 0. -1.
    10030    2    1    2    0    0  0.00000000000E+00  0.00000000000E+00 -0.63480702794E+03  0.24717147623E+04  0.23888059577E+04 0.  0.
        3    1    3    3  502    0  0.91028970223E+03  0.77257232177E+03 -0.35176968041E+03  0.12446835954E+04  0.10100000352E+00 0. -1.
       -3    1    3    3    0  502 -0.91028970223E+03 -0.77257232177E+03 -0.28303734753E+03  0.12270311669E+04  0.10100000352E+00 0.  1.
</event>
<event>
 5   0  0.4856882E-05  0.2339933E+04  0.7818609E-02  0.8462341E-01
       -2   -1    0    0    0  501  0.00000000000E+00  0.00000000000E+00  0.72929738906E+03  0.72929738907E+03  0.25500000920E-02 0. -1.
        2   -1    0    0  501    0  0.00000000000E+00  0.00000000000E+00 -0.18769039257E+04  0.18769039257E+04  0.25500000920E-02 0.  1.
    10030    2    1    2    0    0  0.00000000000E+00  0.00000000000E+00 -0.11476065366E+04  0.26062013148E+04  0.23399325910E+04 0.  0.
        1    1    3    3  502    0 -0.43094441563E+02  0.71281142197E+03  0.45840368914E+03  0.84858187373E+03  0.50400001928E-02 0. -1.
       -1    1    3    3    0  502  0.43094441563E+02 -0.71281142197E+03 -0.16060102258E+04  0.17576194411E+04  0.50400001928E-02 0.  1.
</event>
<event>
 5   0  0.4713971E-05  0.2396769E+04  0.7818609E-02  0.8440714E-01
        2   -1    0    0  501    0  0.00000000000E+00  0.00000000000E+00  0.14747639671E+04  0.14747639671E+04  0.25500000920E-02 0. -1.
       -2   -1    0    0    0  501  0.00000000000E+00  0.00000000000E+00 -0.97379978279E+03  0.97379978279E+03  0.25500000920E-02 0.  1.
    10030    2    1    2    0    0  0.00000000000E+00  0.00000000000E+00  0.50096418435E+03  0.24485637499E+04  0.23967685169E+04 0.  0.
        5    1    3    3  502    0 -0.10252252898E+04 -0.33275486173E+03  0.78552714095E+03  0.13337494788E+04  0.46999998093E+01 0.  1.
       -5    1    3    3    0  502  0.10252252898E+04  0.33275486173E+03 -0.28456295659E+03  0.11148142712E+04  0.46999998093E+01 0. -1.
</event>
<event>
 5   0  0.2057599E-05  0.2399750E+04  0.7818609E-02  0.8439597E-01
        1   -1    0    0  501    0  0.00000000000E+00  0.00000000000E+00  0.12139570079E+04  0.12139570079E+04  0.50400001928E-02 0.  1.
       -1   -1    0    0    0  501  0.00000000000E+00  0.00000000000E+00 -0.11859563831E+04  0.11859563831E+04  0.50400001928E-02 0. -1.
    10030    2    1    2    0    0  0.00000000000E+00  0.00000000000E+00  0.28000624750E+02  0.23999133910E+04  0.23997500390E+04 0.  0.
        4    1    3    3  502    0 -0.88463909565E+03 -0.80927685817E+03 -0.32726382145E+02  0.11994115189E+04  0.12699999809E+01 0. -1.
       -4    1    3    3    0  502  0.88463909565E+03  0.80927685817E+03  0.60727006895E+02  0.12005018721E+04  0.12699999809E+01 0.  1.
</event>
<event>
 5   0  0.2149920E-05  0.1935357E+04  0.7818609E-02  0.8637455E-01
       -1   -1    0    0    0  501  0.00000000000E+00  0.00000000000E+00  0.11161730221E+04  0.11161730221E+04  0.50400001928E-02 0. -1.
        1   -1    0    0  501    0  0.00000000000E+00  0.00000000000E+00 -0.83893916203E+03  0.83893916205E+03  0.50400001928E-02 0.  1.
    10030    2    1    2    0    0  0.00000000000E+00  0.00000000000E+00  0.27723386005E+03  0.19551121841E+04  0.19353565665E+04 0.  0.
        5    1    3    3  502    0  0.20687588719E+03  0.59148527441E+03  0.88352216214E+03  0.10831832548E+04  0.46999998093E+01 0. -1.
       -5    1    3    3    0  502 -0.20687588719E+03 -0.59148527441E+03 -0.60628830209E+03  0.87192892932E+03  0.46999998093E+01 0.  1.
</event>
<event>
 5   0  0.4664127E-05  0.2159108E+04  0.7818609E-02  0.8535644E-01
        2   -1    0    0  501    0  0.00000000000E+00  0.00000000000E+00  0.89047535276E+03  0.89047535277E+03  0.25500000920E-02 0. -1.
       -2   -1    0    0    0  501  0.00000000000E+00  0.00000000000E+00 -0.13087807265E+04  0.13087807265E+04  0.25500000920E-02 0.  1.
    10030    2    1    2    0    0  0.00000000000E+00  0.00000000000E+00 -0.41830537374E+03  0.21992560793E+04  0.21591081299E+04 0.  0.
        4    1    3    3  502    0 -0.82517533493E+03  0.30715620192E+03 -0.84540846650E+03  0.12206458757E+04  0.12699999809E+01 0.  1.
       -4    1    3    3    0  502  0.82517533493E+03 -0.30715620192E+03  0.42710309276E+03  0.97861020356E+03  0.12699999809E+01 0. -1.
</event>
<event>
 5   0  0.4914005E-05  0.2399971E+04  0.7818609E-02  0.8439514E-01
        2   -1    0    0  501    0  0.00000000000E+00  0.00000000000E+00  0.14172332617E+04  0.14172332617E+04  0.25500000920E-02 0.  1.
       -2   -1    0    0    0  501  0.00000000000E+00  0.00000000000E+00 -0.10160394933E+04  0.10160394933E+04  0.25500000920E-02 0. -1.
    10030    2    1    2    0    0  0.00000000000E+00  0.00000000000E+00  0.40119376849E+03  0.24332727550E+04  0.23999708041E+04 0.  0.
        2    1    3    3  502    0 -0.62089123096E+03  0.16793693380E+03  0.12276969058E+04  0.13859828379E+04  0.25500000920E-02 0.  1.
       -2    1    3    3    0  502  0.62089123096E+03 -0.16793693380E+03 -0.82650313733E+03  0.10472899171E+04  0.25500000920E-02 0. -1.
</event>
<event>
 5   0  0.2149920E-05  0.2349043E+04  0.7818609E-02  0.8458831E-01
        1   -1    0    0  501    0  0.00000000000E+00  0.00000000000E+00  0.14477739457E+04  0.14477739457E+04  0.50400001928E-02 0.  1.
       -1   -1    0    0    0  501  0.00000000000E+00  0.00000000000E+00 -0.95284258403E+03  0.95284258404E+03  0.50400001928E-02 0. -1.
    10030    2    1    2    0    0  0.00000000000E+00  0.00000000000E+00  0.49493136163E+03  0.24006165297E+04  0.23490429264E+04 0.  0.
        5    1    3    3  502    0  0.41984271123E+02 -0.16169705658E+03  0.14355605062E+04  0.14452559199E+04  0.46999998093E+01 0.  1.
       -5    1    3    3    0  502 -0.41984271123E+02  0.16169705658E+03 -0.94062914457E+03  0.95536060979E+03  0.46999998093E+01 0. -1.
</event>
<event>
 5   0  0.2139556E-05  0.2387471E+04  0.7818609E-02  0.8444209E-01
       -1   -1    0    0    0  501  0.00000000000E+00  0.00000000000E+00  0.11254230642E+04  0.11254230642E+04  0.50400001928E-02 0. -1.
        1   -1    0    0  501    0  0.00000000000E+00  0.00000000000E+00 -0.12661942608E+04  0.12661942608E+04  0.50400001928E-02 0.  1.
    10030    2    1    2    0    0  0.00000000000E+00  0.00000000000E+00 -0.14077119658E+03  0.23916173250E+04  0.23874708165E+04 0.  0.
        2    1    3    3  502    0  0.90221124739E+03  0.30706410216E+03  0.64970271552E+03  0.11534240835E+04  0.25500000920E-02 0. -1.
       -2    1    3    3    0  502 -0.90221124739E+03 -0.30706410216E+03 -0.79047391210E+03  0.12381932416E+04  0.25500000920E-02 0.  1.
</event>
<event>
 5   0  0.4713971E-05  0.2014031E+04  0.7818609E-02  0.8600089E-01
        2   -1    0    0  501    0  0.00000000000E+00  0.00000000000E+00  0.13344487658E+04  0.13344487658E+04  0.25500000920E-02 0. -1.
       -2   -1    0    0    0  501  0.00000000000E+00  0.00000000000E+00 -0.75992442350E+03  0.75992442351E+03  0.25500000920E-02 0.  1.
    10030    2    1    2    0    0  0.00000000000E+00  0.00000000000E+00  0.57452434227E+03  0.20943731893E+04  0.20140309918E+04 0.  0.
        5    1    3    3  502    0 -0.15568735120E+03 -0.68985400336E+02 -0.74483215598E+03  0.76406450471E+03  0.46999998093E+01 0.  1.
       -5    1    3    3    0  502  0.15568735120E+03  0.68985400336E+02  0.13193564982E+04  0.13303086846E+04  0.46999998093E+01 0. -1.
</event>
<event>
 5   0  0.2139556E-05  0.2409051E+04  0.7818609E-02  0.8436123E-01
       -1   -1    0    0    0  501  0.00000000000E+00  0.00000000000E+00  0.91043791306E+03  0.91043791307E+03  0.50400001928E-02 0.  1.
        1   -1    0    0  501    0  0.00000000000E+00  0.00000000000E+00 -0.15936087649E+04  0.15936087650E+04  0.50400001928E-02 0. -1.
    10030    2    1    2    0    0  0.00000000000E+00  0.00000000000E+00 -0.68317085189E+03  0.25040466780E+04  0.24090511312E+04 0.  0.
        2    1    3    3  502    0  0.93063984700E+03  0.43667245000E+03 -0.99412115326E+03  0.14300525238E+04  0.25500000920E-02 0. -1.
       -2    1    3    3    0  502 -0.93063984700E+03 -0.43667245000E+03  0.31095030137E+03  0.10739941542E+04  0.25500000920E-02 0.  1.
</event>
<event>
 5   0  0.2065692E-05  0.2393215E+04  0.7818609E-02  0.8442048E-01
       -1   -1    0    0    0  501  0.00000000000E+00  0.00000000000E+00  0.10818310071E+04  0.10818310071E+04  0.50400001928E-02 0.  1.
        1   -1    0    0  501    0  0.00000000000E+00  0.00000000000E+00 -0.13235612836E+04  0.13235612837E+04  0.50400001928E-02 0. -1.
    10030    2    1    2    0    0  0.00000000000E+00  0.00000000000E+00 -0.24173027656E+03  0.24053922908E+04  0.23932151065E+04 0.  0.
        3    1    3    3  502    0  0.33951234894E+03 -0.63822451030E+03  0.83754350482E+03  0.11063807181E+04  0.10100000352E+00 0.  1.
       -3    1    3    3    0  502 -0.33951234894E+03  0.63822451030E+03 -0.10792737814E+04  0.12990115727E+04  0.10100000352E+00 0. -1.
</event>
<event>
 5   0  0.2090039E-05  0.2447118E+04  0.7818609E-02  0.8422071E-01
        1   -1    0    0  501    0  0.00000000000E+00  0.00000000000E+00  0.16118749550E+04  0.16118749551E+04  0.50400001928E-02 0. -1.
       -1   -1    0    0    0  501  0.00000000000E+00  0.00000000000E+00 -0.92879234511E+03  0.92879234513E+03  0.50400001928E-02 0.  1.
    10030    2    1    2    0    0  0.00000000000E+00  0.00000000000E+00  0.68308260993E+03  0.25406673002E+04  0.24471184030E+04 0.  0.
        1    1    3    3  502    0  0.50800698062E+03  0.10585035115E+04 -0.16001846921E+02  0.11742047672E+04  0.50400001928E-02 0.  1.
       -1    1    3    3    0  502 -0.50800698062E+03 -0.10585035115E+04  0.69908445685E+03  0.13664625330E+04  0.50400001928E-02 0. -1.
</event>
<event>
 5   0  0.4856882E-05  0.2279963E+04  0.7818609E-02  0.8485864E-01
       -2   -1    0    0    0  501  0.00000000000E+00  0.00000000000E+00  0.55185873627E+03  0.55185873628E+03  0.25500000920E-02 0. -1.
        2   -1    0    0  501    0  0.00000000000E+00  0.00000000000E+00 -0.23548742457E+04  0.23548742457E+04  0.25500000920E-02 0.  1.
    10030    2    1    2    0    0  0.00000000000E+00  0.00000000000E+00 -0.18030155094E+04  0.29067329819E+04  0.22799630921E+04 0.  0.
        1    1    3    3  502    0  0.38863886612E+03  0.96308187742E+03 -0.15008358938E+04  0.18251233523E+04  0.50400001928E-02 0. -1.
       -1    1    3    3    0  502 -0.38863886612E+03 -0.96308187742E+03 -0.30217961559E+03  0.10816096297E+04  0.50400001928E-02 0.  1.
</event>
<event>
 5   0  0.4756705E-05  0.2428653E+04  0.7818609E-02  0.8428853E-01
       -2   -1    0    0    0  501  0.00000000000E+00  0.00000000000E+00  0.11311919915E+04  0.11311919915E+04  0.25500000920E-02 0. -1.
        2   -1    0    0  501    0  0.00000000000E+00  0.00000000000E+00 -0.13035711826E+04  0.13035711826E+04  0.25500000920E-02 0.  1.
    10030    2    1    2    0    0  0.00000000000E+00  0.00000000000E+00 -0.17237919111E+03  0.24347631740E+04  0.24286533569E+04 0.  0.
        3    1    3    3  502    0 -0.44990675758E+03  0.10218393415E+04 -0.56490270598E+03  0.12512740738E+04  0.10100000352E+00 0.  1.
       -3    1    3    3    0  502  0.44990675758E+03 -0.10218393415E+04  0.39252351487E+03  0.11834891002E+04  0.10100000352E+00 0. -1.
</event>
<event>
 5   0  0.4713971E-05  0.2737298E+04  0.7818609E-02  0.8323003E-01
        2   -1    0    0  501    0  0.00000000000E+00  0.00000000000E+00  0.14010200015E+04  0.14010200016E+04  0.25500000920E-02 0.  1.
       -2   -1    0    0    0  501  0.00000000000E+00  0.00000000000E+00 -0.13370262611E+04  0.13370262611E+04  0.25500000920E-02 0. -1.
    10030    2    1    2    0    0  0.00000000000E+00  0.00000000000E+00  0.63993740456E+02  0.27380462626E+04  0.27372983282E+04 0.  0.
        5    1    3    3  502    0 -0.84237803331E+02 -0.72892023651E+03 -0.11236359603E+04  0.13420136288E+04  0.46999998093E+01 0. -1.
       -5    1    3    3    0  502  0.84237803331E+02  0.72892023651E+03  0.11876297007E+04  0.13960326338E+04  0.46999998093E+01 0.  1.
</event>
<event>
 5   0  0.4664127E-05  0.2462879E+04  0.7818609E-02  0.8416331E-01
       -2   -1    0    0    0  501  0.00000000000E+00  0.00000000000E+00  0.14799234288E+04  0.14799234288E+04  0.25500000920E-02 0. -1.
        2   -1    0    0  501    0  0.00000000000E+00  0.00000000000E+00 -0.10246770253E+04  0.10246770253E+04  0.25500000920E-02 0.  1.
    10030    2    1    2    0    0  0.00000000000E+00  0.00000000000E+00  0.45524640353E+03  0.25046004541E+04  0.24628792392E+04 0.  0.
        4    1    3    3  502    0  0.97850727161E+03 -0.72354192067E+03  0.41910123917E+03  0.12871040568E+04  0.12699999809E+01 0. -1.
       -4    1    3    3    0  502 -0.97850727161E+03  0.72354192067E+03  0.36145164363E+02  0.12174963973E+04  0.12699999809E+01 0.  1.
</event>
<event>
 5   0  0.4856882E-05  0.2394543E+04  0.7818609E-02  0.8441549E-01
        2   -1    0    0  501    0  0.00000000000E+00  0.00000000000E+00  0.11658828289E+04  0.11658828290E+04  0.25500000920E-02 0.  1.
       -2   -1    0    0    0  501  0.00000000000E+00  0.00000000000E+00 -0.12295056879E+04  0.12295056879E+04  0.25500000920E-02 0. -1.
    10030    2    1    2    0    0  0.00000000000E+00  0.00000000000E+00 -0.63622858963E+02  0.23953885169E+04  0.23945434384E+04 0.  0.
        1    1    3    3  502    0  0.10404981876E+04  0.37229759680E+03  0.42902195483E+03  0.11854542660E+04  0.50400001928E-02 0.  1.
       -1    1    3    3    0  502 -0.10404981876E+04 -0.37229759680E+03 -0.49264481379E+03  0.12099342509E+04  0.50400001928E-02 0. -1.
</event>
<event>
 5   0  0.2139556E-05  0.2418402E+04  0.7818609E-02  0.8432646E-01
        1   -1    0    0  501    0  0.00000000000E+00  0.00000000000E+00  0.14957513555E+04  0.14957513555E+04  0.50400001928E-02 0.  1.
       -1   -1    0    0    0  501  0.00000000000E+00  0.00000000000E+00 -0.97754669334E+03  0.97754669336E+03  0.50400001928E-02 0. -1.
    10030    2    1    2    0    0  0.00000000000E+00  0.00000000000E+00  0.51820466214E+03  0.24732980488E+04  0.24184017794E+04 0.  0.
        2    1    3    3  502    0  0.32071270191E+03 -0.10647973469E+04  0.74476801392E+03  0.13384055520E+04  0.25500000920E-02 0.  1.
       -2    1    3    3    0  502 -0.32071270191E+03  0.10647973469E+04 -0.22656335178E+03  0.11348924969E+04  0.25500000920E-02 0. -1.
</event>
<event>
 5   0  0.2065692E-05  0.2420338E+04  0.7818609E-02  0.8431928E-01
        1   -1    0    0  501    0  0.00000000000E+00  0.00000000000E+00  0.11618400554E+04  0.11618400554E+04  0.50400001928E-02 0. -1.
       -1   -1    0    0    0  501  0.00000000000E+00  0.00000000000E+00 -0.12605082846E+04  0.12605082846E+04  0.50400001928E-02 0.  1.
    10030    2    1    2    0    0  0.00000000000E+00  0.00000000000E+00 -0.98668229181E+02  0.24223483400E+04  0.24203380055E+04 0.  0.
        3    1    3    3  502    0  0.14961562636E+02 -0.12039224325E+04 -0.17132027050E+03  0.12161429673E+04  0.10100000352E+00 0.  1.
       -3    1    3    3    0  502 -0.14961562636E+02  0.12039224325E+04  0.72652041321E+02  0.12062053727E+04  0.10100000352E+00 0. -1.
</event>
<event>
 5   0  0.4756705E-05  0.2305380E+04  0.7818609E-02  0.8475803E-01
       -2   -1    0    0    0  501  0.00000000000E+00  0.00000000000E+00  0.56869719500E+03  0.56869719500E+03  0.25500000920E-02 0. -1.
        2   -1    0    0  501    0  0.00000000000E+00  0.00000000000E+00 -0.23363827626E+04  0.23363827626E+04  0.25500000920E-02 0.  1.
    10030    2    1    2    0    0  0.00000000000E+00  0.00000000000E+00 -0.17676855676E+04  0.29050799576E+04  0.23053800759E+04 0.  0.
        3    1    3    3  502    0  0.10842787135E+04  0.25134104401E+03 -0.50609425304E+03  0.12226872258E+04  0.10100000352E+00 0. -1.
       -3    1    3    3    0  502 -0.10842787135E+04 -0.25134104401E+03 -0.12615913145E+04  0.16823927318E+04  0.10100000352E+00 0.  1.
</event>
<event>
 5   0  0.4756705E-05  0.2339129E+04  0.7818609E-02  0.8462651E-01
       -2   -1    0    0    0  501  0.00000000000E+00  0.00000000000E+00  0.63455434796E+03  0.63455434796E+03  0.25500000920E-02 0. -1.
        2   -1    0    0  501    0  0.00000000000E+00  0.00000000000E+00 -0.21556570320E+04  0.21556570320E+04  0.25500000920E-02 0.  1.
    10030    2    1    2    0    0  0.00000000000E+00  0.00000000000E+00 -0.15211026840E+04  0.27902113799E+04  0.23391293614E+04 0.  0.
        3    1    3    3  502    0 -0.60578025974E+03 -0.59912921373E+03  0.19517926532E+03  0.87408265836E+03  0.10100000352E+00 0. -1.
       -3    1    3    3    0  502  0.60578025974E+03  0.59912921373E+03 -0.17162819493E+04  0.19161287216E+04  0.10100000352E+00 0.  1.
</event>
<event>
 5   0  0.2139556E-05  0.2352095E+04  0.7818609E-02  0.8457660E-01
       -1   -1    0    0    0  501  0.00000000000E+00  0.00000000000E+00  0.89559716354E+03  0.89559716355E+03  0.50400001928E-02 0. -1.
        1   -1    0    0  501    0  0.00000000000E+00  0.00000000000E+00 -0.15443184816E+04  0.15443184816E+04  0.50400001928E-02 0.  1.
    10030    2    1    2    0    0  0.00000000000E+00  0.00000000000E+00 -0.64872131808E+03  0.24399156452E+04  0.23520945999E+04 0.  0.
        2    1    3    3  502    0  0.93342693310E+03 -0.47371384241E+03 -0.88047083986E+03  0.13678156103E+04  0.25500000920E-02 0. -1.
       -2    1    3    3    0  502 -0.93342693310E+03  0.47371384241E+03  0.23174952178E+03  0.10721000349E+04  0.25500000920E-02 0.  1.
</event>
<event>
 5   0  0.2090039E-05  0.2415039E+04  0.7818609E-02  0.8433895E-01
       -1   -1    0    0    0  501  0.00000000000E+00  0.00000000000E+00  0.11398486594E+04  0.11398486594E+04  0.50400001928E-02 0.  1.
        1   -1    0    0  501    0  0.00000000000E+00  0.00000000000E+00 -0.12792073884E+04  0.12792073884E+04  0.50400001928E-02 0. -1.
    10030    2    1    2    0    0  0.00000000000E+00  0.00000000000E+00 -0.13935872901E+03  0.24190560479E+04  0.24150385726E+04 0.  0.
        1    1    3    3  502    0 -0.34843992773E+03  0.47322165699E+03  0.98694685692E+03  0.11486571370E+04  0.50400001928E-02 0.  1.
       -1    1    3    3    0  502  0.34843992773E+03 -0.47322165699E+03 -0.11263055859E+04  0.12703989109E+04  0.50400001928E-02 0. -1.
</event>
<event>
 5   0  0.4713971E-05  0.2438050E+04  0.7818609E-02  0.8425394E-01
        2   -1    0    0  501    0  0.00000000000E+00  0.00000000000E+00  0.13080275765E+04  0.13080275765E+04  0.25500000920E-02 0.  1.
       -2   -1    0    0    0  501  0.00000000000E+00  0.00000000000E+00 -0.11360783010E+04  0.11360783010E+04  0.25500000920E-02 0. -1.
    10030    2    1    2    0    0  0.00000000000E+00  0.00000000000E+00  0.17194927553E+03  0.24441058775E+04  0.24380498328E+04 0.  0.
        5    1    3    3  502    0 -0.36157973206E+02 -0.60718707784E+03 -0.97306610707E+03  0.11475466375E+04  0.46999998093E+01 0. -1.
       -5    1    3    3    0  502  0.36157973206E+02  0.60718707784E+03  0.11450153826E+04  0.12965592400E+04  0.46999998093E+01 0.  1.
</event>
<event>
 5   0  0.2057599E-05  0.2400165E+04  0.7818609E-02  0.8439442E-01
        1   -1    0    0  501    0  0.00000000000E+00  0.00000000000E+00  0.96046353087E+03  0.96046353089E+03  0.50400001928E-02 0. -1.
       -1   -1    0    0    0  501  0.00000000000E+00  0.00000000000E+00 -0.14994819040E+04  0.14994819041E+04  0.50400001928E-02 0.  1.
    10030    2    1    2    0    0  0.00000000000E+00  0.00000000000E+00 -0.53901837317E+03  0.24599454349E+04  0.24001647311E+04 0.  0.
        4    1    3    3  502    0 -0.10082794136E+04 -0.59492327301E+03 -0.53996616838E+03  0.12892347158E+04  0.12699999809E+01 0.  1.
       -4    1    3    3    0  502  0.10082794136E+04  0.59492327301E+03  0.94779521264E+00  0.11707107191E+04  0.12699999809E+01 0. -1.
</event>
<event>
 5   0  0.2090039E-05  0.2410550E+04  0.7818609E-02  0.8435564E-01
        1   -1    0    0  501    0  0.00000000000E+00  0.00000000000E+00  0.21331716611E+04  0.21331716611E+04  0.50400001928E-02 0.  1.
       -1   -1    0    0    0  501  0.00000000000E+00  0.00000000000E+00 -0.68099925342E+03  0.68099925343E+03  0.50400001928E-02 0. -1.
    10030    2    1    2    0    0  0.00000000000E+00  0.00000000000E+00  0.14521724077E+04  0.28141709145E+04  0.24105504008E+04 0.  0.
        1    1    3    3  502    0  0.67878936251E+03  0.92910025329E+03  0.11449122673E+04  0.16232086678E+04  0.50400001928E-02 0.  1.
       -1    1    3    3    0  502 -0.67878936251E+03 -0.92910025329E+03  0.30726014038E+03  0.11909622468E+04  0.50400001928E-02 0. -1.
</event>
<event>
 5   0  0.4664127E-05  0.2394312E+04  0.7818609E-02  0.8441636E-01
        2   -1    0    0  501    0  0.00000000000E+00  0.00000000000E+00  0.23262277287E+04  0.23262277287E+04  0.25500000920E-02 0.  1.
       -2   -1    0    0    0  501  0.00000000000E+00  0.00000000000E+00 -0.61609742774E+03  0.61609742774E+03  0.25500000920E-02 0. -1.
    10030    2    1    2    0    0  0.00000000000E+00  0.00000000000E+00  0.17101303009E+04  0.29423251564E+04  0.23943123606E+04 0.  0.
        4    1    3    3  502    0 -0.17230438807E+03  0.26729972251E+03 -0.56323790632E+03  0.64682029638E+03  0.12699999809E+01 0. -1.
       -4    1    3    3    0  502  0.17230438807E+03 -0.26729972251E+03  0.22733682073E+04  0.22955048600E+04  0.12699999809E+01 0.  1.
</event>
<event>
 5   0  0.2090039E-05  0.2401267E+04  0.7818609E-02  0.8439030E-01
       -1   -1    0    0    0  501  0.00000000000E+00  0.00000000000E+00  0.15315864983E+04  0.15315864983E+04  0.50400001928E-02 0.  1.
        1   -1    0    0  501    0  0.00000000000E+00  0.00000000000E+00 -0.94119412774E+03  0.94119412775E+03  0.50400001928E-02 0. -1.
    10030    2    1    2    0    0  0.00000000000E+00  0.00000000000E+00  0.59039237059E+03  0.24727806261E+04  0.24012665145E+04 0.  0.
        1    1    3    3  502    0  0.66419081133E+03  0.25507501716E+03  0.12911115620E+04  0.14741715517E+04  0.50400001928E-02 0.  1.
       -1    1    3    3    0  502 -0.66419081133E+03 -0.25507501716E+03 -0.70071919141E+03  0.99860907440E+03  0.50400001928E-02 0. -1.
</event>
<event>
 5   0  0.2090039E-05  0.2343570E+04  0.7818609E-02  0.8460938E-01
        1   -1    0    0  501    0  0.00000000000E+00  0.00000000000E+00  0.14872025921E+04  0.14872025921E+04  0.50400001928E-02 0.  1.
       -1   -1    0    0    0  501  0.00000000000E+00  0.00000000000E+00 -0.92326355547E+03  0.92326355549E+03  0.50400001928E-02 0. -1.
    10030    2    1    2    0    0  0.00000000000E+00  0.00000000000E+00  0.56393903665E+03  0.24104661476E+04  0.23435698863E+04 0.  0.
        1    1    3    3  502    0 -0.43727052858E+03  0.99646484480E+03 -0.16510114966E+03  0.11006389470E+04  0.50400001928E-02 0. -1.
       -1    1    3    3    0  502  0.43727052858E+03 -0.99646484480E+03  0.72904018631E+03  0.13098272006E+04  0.50400001928E-02 0.  1.
</event>
<event>
 5   0  0.2090039E-05  0.2454853E+04  0.7818609E-02  0.8419248E-01
       -1   -1    0    0    0  501  0.00000000000E+00  0.00000000000E+00  0.81993729848E+03  0.81993729849E+03  0.50400001928E-02 0.  1.
        1   -1    0    0  501    0  0.00000000000E+00  0.00000000000E+00 -0.18374273472E+04  0.18374273472E+04  0.50400001928E-02 0. -1.
    10030    2    1    2    0    0  0.00000000000E+00  0.00000000000E+00 -0.10174900487E+04  0.26573646457E+04  0.24548525131E+04 0.  0.
        1    1    3    3  502    0  0.90570144027E+03  0.56253642589E+03 -0.11670520817E+04  0.15807444104E+04  0.50400001928E-02 0. -1.
       -1    1    3    3    0  502 -0.90570144027E+03 -0.56253642589E+03  0.14956203303E+03  0.10766202353E+04  0.50400001928E-02 0.  1.
</event>
<event>
 5   0  0.2149920E-05  0.2374747E+04  0.7818609E-02  0.8449019E-01
       -1   -1    0    0    0  501  0.00000000000E+00  0.00000000000E+00  0.12315594270E+04  0.12315594270E+04  0.50400001928E-02 0. -1.
        1   -1    0    0  501    0  0.00000000000E+00  0.00000000000E+00 -0.11447726924E+04  0.11447726924E+04  0.50400001928E-02 0.  1.
    10030    2    1    2    0    0  0.00000000000E+00  0.00000000000E+00  0.86786734607E+02  0.23763321195E+04  0.23747468085E+04 0.  0.
        5    1    3    3  502    0 -0.68265285014E+03 -0.76431187142E+03  0.64349860719E+03  0.12100826823E+04  0.46999998093E+01 0. -1.
       -5    1    3    3    0  502  0.68265285014E+03  0.76431187142E+03 -0.55671187258E+03  0.11662494372E+04  0.46999998093E+01 0.  1.
</event>
<event>
 5   0  0.2149920E-05  0.2416229E+04  0.7818609E-02  0.8433453E-01
       -1   -1    0    0    0  501  0.00000000000E+00  0.00000000000E+00  0.10311177070E+04  0.10311177071E+04  0.50400001928E-02 0.  1.
        1   -1    0    0  501    0  0.00000000000E+00  0.00000000000E+00 -0.14154934508E+04  0.14154934508E+04  0.50400001928E-02 0. -1.
    10030    2    1    2    0    0  0.00000000000E+00  0.00000000000E+00 -0.38437574373E+03  0.24466111578E+04  0.24162287651E+04 0.  0.
        5    1    3    3  502    0 -0.76408942211E+03  0.10220816112E+03 -0.11340665698E+04  0.13712797774E+04  0.46999998093E+01 0. -1.
       -5    1    3    3    0  502  0.76408942211E+03 -0.10220816112E+03  0.74969082604E+03  0.10753313805E+04  0.46999998093E+01 0.  1.
</event>
<event>
 5   0  0.2139556E-05  0.2361611E+04  0.7818609E-02  0.8454017E-01
       -1   -1    0    0    0  501  0.00000000000E+00  0.00000000000E+00  0.73902879241E+03  0.73902879243E+03  0.50400001928E-02 0.  1.
        1   -1    0    0  501    0  0.00000000000E+00  0.00000000000E+00 -0.18866678676E+04  0.18866678676E+04  0.50400001928E-02 0. -1.
    10030    2    1    2    0    0  0.00000000000E+00  0.00000000000E+00 -0.11476390752E+04  0.26256966600E+04  0.23616112093E+04 0.  0.
        2    1    3    3  502    0  0.67247713553E+03  0.87376721095E+03 -0.10394092372E+03  0.11074738608E+04  0.25500000920E-02 0.  1.
       -2    1    3    3    0  502 -0.67247713553E+03 -0.87376721095E+03 -0.10436981515E+04  0.15182227992E+04  0.25500000920E-02 0. -1.
</event>
<event>
 5   0  0.2139556E-05  0.2342514E+04  0.7818609E-02  0.8461345E-01
        1   -1    0    0  501    0  0.00000000000E+00  0.00000000000E+00  0.12041826688E+04  0.12041826688E+04  0.50400001928E-02 0.  1.
       -1   -1    0    0    0  501  0.00000000000E+00  0.00000000000E+00 -0.11392317266E+04  0.11392317266E+04  0.50400001928E-02 0. -1.
    10030    2    1    2    0    0  0.00000000000E+00  0.00000000000E+00  0.64950942194E+02  0.23434143954E+04  0.23425141202E+04 0.  0.
        2    1    3    3  502    0  0.69982837060E+03 -0.77067723427E+03  0.56946846139E+03  0.11865906945E+04  0.25500000920E-02 0.  1.
       -2    1    3    3    0  502 -0.69982837060E+03  0.77067723427E+03 -0.50451751919E+03  0.11568237009E+04  0.25500000920E-02 0. -1.
</event>
<event>
 5   0  0.2139556E-05  0.2387956E+04  0.7818609E-02  0.8444027E-01
       -1   -1    0    0    0  501  0.00000000000E+00  0.00000000000E+00  0.72867438047E+03  0.72867438049E+03  0.50400001928E-02 0.  1.
        1   -1    0    0  501    0  0.00000000000E+00  0.00000000000E+00 -0.19564064228E+04  0.19564064228E+04  0.50400001928E-02 0. -1.
    10030    2    1    2    0    0  0.00000000000E+00  0.00000000000E+00 -0.12277320423E+04  0.26850808033E+04  0.23879558104E+04 0.  0.
        2    1    3    3  502    0 -0.34492640497E+03  0.86049564013E+03 -0.14599222617E+04  0.17293929518E+04  0.25500000920E-02 0. -1.
       -2    1    3    3    0  502  0.34492640497E+03 -0.86049564013E+03  0.23219021936E+03  0.95568785150E+03  0.25500000920E-02 0.  1.
</event>
<event>
 5   0  0.4713971E-05  0.2384075E+04  0.7818609E-02  0.8445490E-01
       -2   -1    0    0    0  501  0.00000000000E+00  0.00000000000E+00  0.97584062890E+03  0.97584062890E+03  0.25500000920E-02 0. -1.
        2   -1    0    0  501    0  0.00000000000E+00  0.00000000000E+00 -0.14561323088E+04  0.14561323088E+04  0.25500000920E-02 0.  1.
    10030    2    1    2    0    0  0.00000000000E+00  0.00000000000E+00 -0.48029167987E+03  0.24319729377E+04  0.23840747203E+04 0.  0.
        5    1    3    3  502    0 -0.42988613778E+03 -0.11111604042E+04 -0.20128261623E+03  0.12083113493E+04  0.46999998093E+01 0. -1.
       -5    1    3    3    0  502  0.42988613778E+03  0.11111604042E+04 -0.27900906363E+03  0.12236615884E+04  0.46999998093E+01 0.  1.
</event>
<event>
 5   0  0.2090039E-05  0.2698267E+04  0.7818609E-02  0.8335567E-01
       -1   -1    0    0    0  501  0.00000000000E+00  0.00000000000E+00  0.98793366525E+03  0.98793366527E+03  0.50400001928E-02 0. -1.
        1   -1    0    0  501    0  0.00000000000E+00  0.00000000000E+00 -0.18423924543E+04  0.18423924543E+04  0.50400001928E-02 0.  1.
    10030    2    1    2    0    0  0.00000000000E+00  0.00000000000E+00 -0.85445878904E+03  0.28303261196E+04  0.26982672442E+04 0.  0.
        1    1    3    3  502    0 -0.17160291977E+03  0.78284157629E+02  0.97403538146E+03  0.99212947530E+03  0.50400001928E-02 0. -1.
       -1    1    3    3    0  502  0.17160291977E+03 -0.78284157629E+02 -0.18284941705E+04  0.18381966443E+04  0.50400001928E-02 0.  1.
</event>
<event>
 5   0  0.1672125E-05  0.2417223E+04  0.7818609E-02  0.8433083E-01
       -3   -1    0    0    0  501  0.00000000000E+00  0.00000000000E+00  0.10997706579E+04  0.10997706625E+04  0.10100000352E+00 0. -1.
        3   -1    0    0  501    0  0.00000000000E+00  0.00000000000E+00 -0.13282241828E+04  0.13282241866E+04  0.10100000352E+00 0.  1.
    10030    2    1    2    0    0  0.00000000000E+00  0.00000000000E+00 -0.22845352491E+03  0.24279948491E+04  0.24172231950E+04 0.  0.
        1    1    3    3  502    0  0.95109295809E+03  0.34607234760E+03 -0.77777490540E+03  0.12764316230E+04  0.50400001928E-02 0.  1.
       -1    1    3    3    0  502 -0.95109295809E+03 -0.34607234760E+03  0.54932138049E+03  0.11515632261E+04  0.50400001928E-02 0. -1.
</event>
<event>
 5   0  0.4756705E-05  0.2433019E+04  0.7818609E-02  0.8427244E-01
       -2   -1    0    0    0  501  0.00000000000E+00  0.00000000000E+00  0.65219095362E+03  0.65219095363E+03  0.25500000920E-02 0.  1.
        2   -1    0    0  501    0  0.00000000000E+00  0.00000000000E+00 -0.22691143678E+04  0.22691143678E+04  0.25500000920E-02 0. -1.
    10030    2    1    2    0    0  0.00000000000E+00  0.00000000000E+00 -0.16169234142E+04  0.29213053215E+04  0.24330194109E+04 0.  0.
        3    1    3    3  502    0  0.76320661191E+03  0.88007504788E+03 -0.12293539984E+04  0.16936137948E+04  0.10100000352E+00 0. -1.
       -3    1    3    3    0  502 -0.76320661191E+03 -0.88007504788E+03 -0.38756941582E+03  0.12276915267E+04  0.10100000352E+00 0.  1.
</event>
<event>
 5   0  0.2057599E-05  0.2353335E+04  0.7818609E-02  0.8457184E-01
        1   -1    0    0  501    0  0.00000000000E+00  0.00000000000E+00  0.10579550538E+04  0.10579550538E+04  0.50400001928E-02 0. -1.
       -1   -1    0    0    0  501  0.00000000000E+00  0.00000000000E+00 -0.13087002209E+04  0.13087002210E+04  0.50400001928E-02 0.  1.
    10030    2    1    2    0    0  0.00000000000E+00  0.00000000000E+00 -0.25074516714E+03  0.23666552748E+04  0.23533346661E+04 0.  0.
        4    1    3    3  502    0 -0.18319339818E+03 -0.73209616076E+03  0.78252192314E+03  0.10871369660E+04  0.12699999809E+01 0. -1.
       -4    1    3    3    0  502  0.18319339818E+03  0.73209616076E+03 -0.10332670903E+04  0.12795183088E+04  0.12699999809E+01 0.  1.
</event>
<event>
 5   0  0.4664127E-05  0.2378506E+04  0.7818609E-02  0.8447595E-01
        2   -1    0    0  501    0  0.00000000000E+00  0.00000000000E+00  0.12867674488E+04  0.12867674488E+04  0.25500000920E-02 0.  1.
       -2   -1    0    0    0  501  0.00000000000E+00  0.00000000000E+00 -0.10991286767E+04  0.10991286768E+04  0.25500000920E-02 0. -1.
    10030    2    1    2    0    0  0.00000000000E+00  0.00000000000E+00  0.18763877206E+03  0.23858961256E+04  0.23785062567E+04 0.  0.
        4    1    3    3  502    0 -0.68441313200E+03  0.47267278578E+03  0.94644877180E+03  0.12600030906E+04  0.12699999809E+01 0.  1.
       -4    1    3    3    0  502  0.68441313200E+03 -0.47267278578E+03 -0.75880999974E+03  0.11258930350E+04  0.12699999809E+01 0. -1.
</event>
<event>
 5   0  0.4856882E-05  0.2390571E+04  0.7818609E-02  0.8443042E-01
       -2   -1    0    0    0  501  0.00000000000E+00  0.00000000000E+00  0.10183028894E+04  0.10183028894E+04  0.25500000920E-02 0. -1.
        2   -1    0    0  501    0  0.00000000000E+00  0.00000000000E+00 -0.14030278950E+04  0.14030278950E+04  0.25500000920E-02 0.  1.
    10030    2    1    2    0    0  0.00000000000E+00  0.00000000000E+00 -0.38472500560E+03  0.24213307844E+04  0.23905709438E+04 0.  0.
        1    1    3    3  502    0  0.52069115670E+03  0.81831933623E+03 -0.89987869650E+03  0.13230825693E+04  0.50400001928E-02 0.  1.
       -1    1    3    3    0  502 -0.52069115670E+03 -0.81831933623E+03  0.51515369090E+03  0.10982482151E+04  0.50400001928E-02 0. -1.
</event>
<event>
 5   0  0.2065692E-05  0.2373454E+04  0.7818609E-02  0.8449509E-01
       -1   -1    0    0    0  501  0.00000000000E+00  0.00000000000E+00  0.13272725955E+04  0.13272725955E+04  0.50400001928E-02 0. -1.
        1   -1    0    0  501    0  0.00000000000E+00  0.00000000000E+00 -0.10610640083E+04  0.10610640083E+04  0.50400001928E-02 0.  1.
    10030    2    1    2    0    0  0.00000000000E+00  0.00000000000E+00  0.26620858727E+03  0.23883366038E+04  0.23734541751E+04 0.  0.
        3    1    3    3  502    0  0.11514249217E+04  0.28729879445E+03  0.13199165710E+03  0.11940442853E+04  0.10100000352E+00 0.  1.
       -3    1    3    3    0  502 -0.11514249217E+04 -0.28729879445E+03  0.13421693017E+03  0.11942923185E+04  0.10100000352E+00 0. -1.
</event>
<event>
 5   0  0.4756705E-05  0.2366723E+04  0.7818609E-02  0.8452068E-01
        2   -1    0    0  501    0  0.00000000000E+00  0.00000000000E+00  0.16520824114E+04  0.16520824114E+04  0.25500000920E-02 0. -1.
       -2   -1    0    0    0  501  0.00000000000E+00  0.00000000000E+00 -0.84762407117E+03  0.84762407117E+03  0.25500000920E-02 0.  1.
    10030    2    1    2    0    0  0.00000000000E+00  0.00000000000E+00  0.80445834022E+03  0.24997064826E+04  0.23667233209E+04 0.  0.
        3    1    3    3  502    0 -0.53021157908E+03  0.16910112403E+03  0.15052388161E+04  0.16048250411E+04  0.10100000352E+00 0. -1.
       -3    1    3    3    0  502  0.53021157908E+03 -0.16910112403E+03 -0.70078047589E+03  0.89488144149E+03  0.10100000352E+00 0.  1.
</event>
<event>
 5   0  0.2057599E-05  0.2334841E+04  0.7818609E-02  0.8464309E-01
       -1   -1    0    0    0  501  0.00000000000E+00  0.00000000000E+00  0.11125430181E+04  0.11125430181E+04  0.50400001928E-02 0. -1.
        1   -1    0    0  501    0  0.00000000000E+00  0.00000000000E+00 -0.12250046235E+04  0.12250046236E+04  0.50400001928E-02 0.  1.
    10030    2    1    2    0    0  0.00000000000E+00  0.00000000000E+00 -0.11246160549E+03  0.23375476416E+04  0.23348407578E+04 0.  0.
        4    1    3    3  502    0 -0.22998502842E+03 -0.63412594759E+03  0.89769066241E+03  0.11228797660E+04  0.12699999809E+01 0. -1.
       -4    1    3    3    0  502  0.22998502842E+03  0.63412594759E+03 -0.10101522679E+04  0.12146678756E+04  0.12699999809E+01 0.  1.
</event>
<event>
 5   0  0.4914005E-05  0.2423817E+04  0.7818609E-02  0.8430640E-01
        2   -1    0    0  501    0  0.00000000000E+00  0.00000000000E+00  0.89803244861E+03  0.89803244862E+03  0.25500000920E-02 0.  1.
       -2   -1    0    0    0  501  0.00000000000E+00  0.00000000000E+00 -0.16354891036E+04  0.16354891036E+04  0.25500000920E-02 0. -1.
    10030    2    1    2    0    0  0.00000000000E+00  0.00000000000E+00 -0.73745665503E+03  0.25335215523E+04  0.24238170595E+04 0.  0.
        2    1    3    3  502    0 -0.55439648453E+03 -0.86781432853E+03 -0.10366044248E+04  0.14611659401E+04  0.25500000920E-02 0. -1.
       -2    1    3    3    0  502  0.55439648453E+03  0.86781432853E+03  0.29914776977E+03  0.10723556122E+04  0.25500000920E-02 0.  1.
</event>
<event>
 5   0  0.2057599E-05  0.2393595E+04  0.7818609E-02  0.8441905E-01
       -1   -1    0    0    0  501  0.00000000000E+00  0.00000000000E+00  0.11592980121E+04  0.11592980121E+04  0.50400001928E-02 0.  1.
        1   -1    0    0  501    0  0.00000000000E+00  0.00000000000E+00 -0.12355100576E+04  0.12355100577E+04  0.50400001928E-02 0. -1.
    10030    2    1    2    0    0  0.00000000000E+00  0.00000000000E+00 -0.76212045591E+02  0.23948080697E+04  0.23935950817E+04 0.  0.
        4    1    3    3  502    0 -0.29133468106E+03  0.44682031786E+03  0.10337904595E+04  0.11632921473E+04  0.12699999809E+01 0.  1.
       -4    1    3    3    0  502  0.29133468106E+03 -0.44682031786E+03 -0.11100025051E+04  0.12315159224E+04  0.12699999809E+01 0. -1.
</event>
<event>
 5   0  0.2057599E-05  0.2342747E+04  0.7818609E-02  0.8461255E-01
        1   -1    0    0  501    0  0.00000000000E+00  0.00000000000E+00  0.12885966285E+04  0.12885966285E+04  0.50400001928E-02 0.  1.
       -1   -1    0    0    0  501  0.00000000000E+00  0.00000000000E+00 -0.10648142202E+04  0.10648142202E+04  0.50400001928E-02 0. -1.
    10030    2    1    2    0    0  0.00000000000E+00  0.00000000000E+00  0.22378240827E+03  0.23534108487E+04  0.23427471175E+04 0.  0.
        4    1    3    3  502    0 -0.55525736958E+03 -0.70969168939E+03  0.86372381601E+03  0.12481960919E+04  0.12699999809E+01 0.  1.
       -4    1    3    3    0  502  0.55525736958E+03  0.70969168939E+03 -0.63994140774E+03  0.11052147568E+04  0.12699999809E+01 0. -1.
</event>
<event>
 5   0  0.2139556E-05  0.2381383E+04  0.7818609E-02  0.8446506E-01
        1   -1    0    0  501    0  0.00000000000E+00  0.00000000000E+00  0.12361236745E+04  0.12361236745E+04  0.50400001928E-02 0.  1.
       -1   -1    0    0    0  501  0.00000000000E+00  0.00000000000E+00 -0.11469291834E+04  0.11469291834E+04  0.50400001928E-02 0. -1.
    10030    2    1    2    0    0  0.00000000000E+00  0.00000000000E+00  0.89194491162E+02  0.23830528579E+04  0.23813830575E+04 0.  0.
        2    1    3    3  502    0  0.42843509061E+02 -0.89339277490E+03 -0.74193103581E+03  0.11620877241E+04  0.25500000920E-02 0. -1.
       -2    1    3    3    0  502 -0.42843509061E+02  0.89339277490E+03  0.83112552697E+03  0.12209651339E+04  0.25500000920E-02 0.  1.
</event>
<event>
 5   0  0.4914005E-05  0.2425888E+04  0.7818609E-02  0.8429875E-01
        2   -1    0    0  501    0  0.00000000000E+00  0.00000000000E+00  0.16550475183E+04  0.16550475183E+04  0.25500000920E-02 0.  1.
       -2   -1    0    0    0  501  0.00000000000E+00  0.00000000000E+00 -0.88893729630E+03  0.88893729631E+03  0.25500000920E-02 0. -1.
    10030    2    1    2    0    0  0.00000000000E+00  0.00000000000E+00  0.76611022198E+03  0.25439848146E+04  0.24258882630E+04 0.  0.
        2    1    3    3  502    0  0.81393788203E+03 -0.89893249512E+03  0.40997499038E+03  0.12800992146E+04  0.25500000920E-02 0.  1.
       -2    1    3    3    0  502 -0.81393788203E+03  0.89893249512E+03  0.35613523160E+03  0.12638856000E+04  0.25500000920E-02 0. -1.
</event>
<event>
 5   0  0.4856882E-05  0.2310721E+04  0.7818609E-02  0.8473706E-01
        2   -1    0    0  501    0  0.00000000000E+00  0.00000000000E+00  0.20938246082E+04  0.20938246082E+04  0.25500000920E-02 0.  1.
       -2   -1    0    0    0  501  0.00000000000E+00  0.00000000000E+00 -0.63752137938E+03  0.63752137939E+03  0.25500000920E-02 0. -1.
    10030    2    1    2    0    0  0.00000000000E+00  0.00000000000E+00  0.14563032288E+04  0.27313459876E+04  0.23107210584E+04 0.  0.
        1    1    3    3  502    0  0.71961897773E+03 -0.70506694849E+03  0.13966918388E+04  0.17221262925E+04  0.50400001928E-02 0.  1.
       -1    1    3    3    0  502 -0.71961897773E+03  0.70506694849E+03  0.59611390014E+02  0.10092196950E+04  0.50400001928E-02 0. -1.
</event>
<event>
 5   0  0.4713971E-05  0.2394270E+04  0.7818609E-02  0.8441652E-01
       -2   -1    0    0    0  501  0.00000000000E+00  0.00000000000E+00  0.70251333489E+03  0.70251333490E+03  0.25500000920E-02 0. -1.
        2   -1    0    0  501    0  0.00000000000E+00  0.00000000000E+00 -0.20400064854E+04  0.20400064854E+04  0.25500000920E-02 0.  1.
    10030    2    1    2    0    0  0.00000000000E+00  0.00000000000E+00 -0.13374931505E+04  0.27425198203E+04  0.23942696250E+04 0.  0.
        5    1    3    3  502    0  0.10713185169E+04  0.15494860662E+03 -0.83133725165E+02  0.10856637332E+04  0.46999998093E+01 0. -1.
       -5    1    3    3    0  502 -0.10713185169E+04 -0.15494860662E+03 -0.12543594253E+04  0.16568560871E+04  0.46999998093E+01 0.  1.
</event>
<event>
 5   0  0.4856882E-05  0.2378387E+04  0.7818609E-02  0.8447640E-01
        2   -1    0    0  501    0  0.00000000000E+00  0.00000000000E+00  0.12249946437E+04  0.12249946437E+04  0.25500000920E-02 0. -1.
       -2   -1    0    0    0  501  0.00000000000E+00  0.00000000000E+00 -0.11544389402E+04  0.11544389402E+04  0.25500000920E-02 0.  1.
    10030    2    1    2    0    0  0.00000000000E+00  0.00000000000E+00  0.70555703549E+02  0.23794335839E+04  0.23783872840E+04 0.  0.
        1    1    3    3  502    0  0.85387511396E+03  0.34027284998E+03  0.79012498363E+03  0.12120997535E+04  0.50400001928E-02 0. -1.
       -1    1    3    3    0  502 -0.85387511396E+03 -0.34027284998E+03 -0.71956928008E+03  0.11673338304E+04  0.50400001928E-02 0.  1.
</event>
<event>
 5   0  0.2090039E-05  0.2317402E+04  0.7818609E-02  0.8471091E-01
       -1   -1    0    0    0  501  0.00000000000E+00  0.00000000000E+00  0.69704828024E+03  0.69704828026E+03  0.50400001928E-02 0. -1.
        1   -1    0    0  501    0  0.00000000000E+00  0.00000000000E+00 -0.19261041787E+04  0.19261041787E+04  0.50400001928E-02 0.  1.
    10030    2    1    2    0    0  0.00000000000E+00  0.00000000000E+00 -0.12290558985E+04  0.26231524590E+04  0.23174016530E+04 0.  0.
        1    1    3    3  502    0 -0.10734963416E+04  0.26033387358E+03 -0.10105756468E+04  0.14971410285E+04  0.50400001928E-02 0.  1.
       -1    1    3    3    0  502  0.10734963416E+04 -0.26033387358E+03 -0.21848025168E+03  0.11260114305E+04  0.50400001928E-02 0. -1.
</event>
<event>
 5   0  0.4713971E-05  0.2344793E+04  0.7818609E-02  0.8460466E-01
       -2   -1    0    0    0  501  0.00000000000E+00  0.00000000000E+00  0.16661249122E+04  0.16661249123E+04  0.25500000920E-02 0. -1.
        2   -1    0    0  501    0  0.00000000000E+00  0.00000000000E+00 -0.82497626319E+03  0.82497626319E+03  0.25500000920E-02 0.  1.
    10030    2    1    2    0    0  0.00000000000E+00  0.00000000000E+00  0.84114864906E+03  0.24911011754E+04  0.23447929581E+04 0.  0.
        5    1    3    3  502    0  0.10082566026E+03  0.10885851888E+04 -0.29295187706E+02  0.10936470295E+04  0.46999998093E+01 0. -1.
       -5    1    3    3    0  502 -0.10082566026E+03 -0.10885851888E+04  0.87044383677E+03  0.13974541460E+04  0.46999998093E+01 0.  1.
</event>
<event>
 5   0  0.1672125E-05  0.2179202E+04  0.7818609E-02  0.8527135E-01
        3   -1    0    0  501    0  0.00000000000E+00  0.00000000000E+00  0.71099463526E+03  0.71099464243E+03  0.10100000352E+00 0. -1.
       -3   -1    0    0    0  501  0.00000000000E+00  0.00000000000E+00 -0.16698155085E+04  0.16698155116E+04  0.10100000352E+00 0.  1.
    10030    2    1    2    0    0  0.00000000000E+00  0.00000000000E+00 -0.95882087329E+03  0.23808101540E+04  0.21792015791E+04 0.  0.
        5    1    3    3  502    0  0.59876617354E+03  0.90767631956E+03 -0.55518529476E+03  0.12209217965E+04  0.46999998093E+01 0. -1.
       -5    1    3    3    0  502 -0.59876617354E+03 -0.90767631956E+03 -0.40363557853E+03  0.11598883575E+04  0.46999998093E+01 0.  1.
</event>
<event>
 5   0  0.4664127E-05  0.2397379E+04  0.7818609E-02  0.8440486E-01
       -2   -1    0    0    0  501  0.00000000000E+00  0.00000000000E+00  0.69082665094E+03  0.69082665095E+03  0.25500000920E-02 0.  1.
        2   -1    0    0  501    0  0.00000000000E+00  0.00000000000E+00 -0.20799084999E+04  0.20799084999E+04  0.25500000920E-02 0. -1.
    10030    2    1    2    0    0  0.00000000000E+00  0.00000000000E+00 -0.13890818489E+04  0.27707351508E+04  0.23973787546E+04 0.  0.
        4    1    3    3  502    0  0.90217389739E+02 -0.23105986797E+03 -0.20499216655E+04  0.20648748842E+04  0.12699999809E+01 0. -1.
       -4    1    3    3    0  502 -0.90217389739E+02  0.23105986797E+03  0.66083981652E+03  0.70586026662E+03  0.12699999809E+01 0.  1.
</event>
<event>
 5   0  0.4664127E-05  0.2436738E+04  0.7818609E-02  0.8425876E-01
       -2   -1    0    0    0  501  0.00000000000E+00  0.00000000000E+00  0.11215713050E+04  0.11215713050E+04  0.25500000920E-02 0.  1.
        2   -1    0    0  501    0  0.00000000000E+00  0.00000000000E+00 -0.13235209687E+04  0.13235209687E+04  0.25500000920E-02 0. -1.
    10030    2    1    2    0    0  0.00000000000E+00  0.00000000000E+00 -0.20194966371E+03  0.24450922738E+04  0.24367380985E+04 0.  0.
        4    1    3    3  502    0 -0.18580326328E+03 -0.11875189873E+04  0.98950140443E+02  0.12060335572E+04  0.12699999809E+01 0.  1.
       -4    1    3    3    0  502  0.18580326328E+03  0.11875189873E+04 -0.30089980416E+03  0.12390587165E+04  0.12699999809E+01 0. -1.
</event>
<event>
 5   0  0.2139556E-05  0.2351172E+04  0.7818609E-02  0.8458014E-01
        1   -1    0    0  501    0  0.00000000000E+00  0.00000000000E+00  0.10249835038E+04  0.10249835038E+04  0.50400001928E-02 0.  1.
       -1   -1    0    0    0  501  0.00000000000E+00  0.00000000000E+00 -0.13483165532E+04  0.13483165532E+04  0.50400001928E-02 0. -1.
    10030    2    1    2    0    0  0.00000000000E+00  0.00000000000E+00 -0.32333304937E+03  0.23733000570E+04  0.23511718142E+04 0.  0.
        2    1    3    3  502    0  0.10576730094E+04  0.37950366509E+02 -0.67823461444E+03  0.12570261005E+04  0.25500000920E-02 0. -1.
       -2    1    3    3    0  502 -0.10576730094E+04 -0.37950366509E+02  0.35490156507E+03  0.11162739565E+04  0.25500000920E-02 0.  1.
</event>
<event>
 5   0  0.2065692E-05  0.2340338E+04  0.7818609E-02  0.8462184E-01
       -1   -1    0    0    0  501  0.00000000000E+00  0.00000000000E+00  0.12690276627E+04  0.12690276627E+04  0.50400001928E-02 0.  1.
        1   -1    0    0  501    0  0.00000000000E+00  0.00000000000E+00 -0.10790112315E+04  0.10790112315E+04  0.50400001928E-02 0. -1.
    10030    2    1    2    0    0  0.00000000000E+00  0.00000000000E+00  0.19001643116E+03  0.23480388942E+04  0.23403376690E+04 0.  0.
        3    1    3    3  502    0 -0.18722023099E+03 -0.11130268077E+04  0.40491786167E+03  0.11990990679E+04  0.10100000352E+00 0. -1.
       -3    1    3    3    0  502  0.18722023099E+03  0.11130268077E+04 -0.21490143050E+03  0.11489398264E+04  0.10100000352E+00 0.  1.
</event>
<event>
 5   0  0.2149920E-05  0.2416274E+04  0.7818609E-02  0.8433436E-01
       -1   -1    0    0    0  501  0.00000000000E+00  0.00000000000E+00  0.88334834007E+03  0.88334834009E+03  0.50400001928E-02 0. -1.
        1   -1    0    0  501    0  0.00000000000E+00  0.00000000000E+00 -0.16523435039E+04  0.16523435039E+04  0.50400001928E-02 0.  1.
    10030    2    1    2    0    0  0.00000000000E+00  0.00000000000E+00 -0.76899516380E+03  0.25356918440E+04  0.24162739012E+04 0.  0.
        5    1    3    3  502    0  0.10790038636E+04  0.31593776496E+03 -0.84851174432E+03  0.14085667464E+04  0.46999998093E+01 0.  1.
       -5    1    3    3    0  502 -0.10790038636E+04 -0.31593776496E+03  0.79516580519E+02  0.11271250975E+04  0.46999998093E+01 0. -1.
</event>
<event>
 5   0  0.4664127E-05  0.2392872E+04  0.7818609E-02  0.8442177E-01
       -2   -1    0    0    0  501  0.00000000000E+00  0.00000000000E+00  0.96723752789E+03  0.96723752789E+03  0.25500000920E-02 0.  1.
        2   -1    0    0  501    0  0.00000000000E+00  0.00000000000E+00 -0.14799453016E+04  0.14799453016E+04  0.25500000920E-02 0. -1.
    10030    2    1    2    0    0  0.00000000000E+00  0.00000000000E+00 -0.51270777373E+03  0.24471828295E+04  0.23928716096E+04 0.  0.
        4    1    3    3  502    0 -0.60757747600E+03 -0.10258084334E+04 -0.35874466610E+03  0.12450432441E+04  0.12699999809E+01 0.  1.
       -4    1    3    3    0  502  0.60757747600E+03  0.10258084334E+04 -0.15396310763E+03  0.12021395854E+04  0.12699999809E+01 0. -1.
</event>
<event>
 5   0  0.4713971E-05  0.2387322E+04  0.7818609E-02  0.8444265E-01
       -2   -1    0    0    0  501  0.00000000000E+00  0.00000000000E+00  0.81144113107E+03  0.81144113107E+03  0.25500000920E-02 0.  1.
        2   -1    0    0  501    0  0.00000000000E+00  0.00000000000E+00 -0.17559214716E+04  0.17559214716E+04  0.25500000920E-02 0. -1.
    10030    2    1    2    0    0  0.00000000000E+00  0.00000000000E+00 -0.94448034053E+03  0.25673626027E+04  0.23873222698E+04 0.  0.
        5    1    3    3  502    0 -0.15322734927E+03 -0.28769912532E+03  0.76264152639E+03  0.82939351037E+03  0.46999998093E+01 0.  1.
       -5    1    3    3    0  502  0.15322734927E+03  0.28769912532E+03 -0.17071218669E+04  0.17379690923E+04  0.46999998093E+01 0. -1.
</event>
<event>
 5   0  0.4856882E-05  0.2412262E+04  0.7818609E-02  0.8434927E-01
       -2   -1    0    0    0  501  0.00000000000E+00  0.00000000000E+00  0.63921750307E+03  0.63921750308E+03  0.25500000920E-02 0.  1.
        2   -1    0    0  501    0  0.00000000000E+00  0.00000000000E+00 -0.22758318810E+04  0.22758318810E+04  0.25500000920E-02 0. -1.
    10030    2    1    2    0    0  0.00000000000E+00  0.00000000000E+00 -0.16366143779E+04  0.29150493841E+04  0.24122616545E+04 0.  0.
        1    1    3    3  502    0  0.97167182611E+03 -0.20525341275E+03  0.88068553668E+01  0.99315288945E+03  0.50400001928E-02 0.  1.
       -1    1    3    3    0  502 -0.97167182611E+03  0.20525341275E+03 -0.16454212333E+04  0.19218964947E+04  0.50400001928E-02 0. -1.
</event>
<event>
 5   0  0.4856882E-05  0.2404528E+04  0.7818609E-02  0.8437810E-01
        2   -1    0    0  501    0  0.00000000000E+00  0.00000000000E+00  0.95113904563E+03  0.95113904563E+03  0.25500000920E-02 0. -1.
       -2   -1    0    0    0  501  0.00000000000E+00  0.00000000000E+00 -0.15196926980E+04  0.15196926980E+04  0.25500000920E-02 0.  1.
    10030    2    1    2    0    0  0.00000000000E+00  0.00000000000E+00 -0.56855365238E+03  0.24708317436E+04  0.24045282801E+04 0.  0.
        1    1    3    3  502    0 -0.32540476393E+03 -0.11561836404E+04 -0.22999801758E+03  0.12229259825E+04  0.50400001928E-02 0. -1.
       -1    1    3    3    0  502  0.32540476393E+03  0.11561836404E+04 -0.33855563480E+03  0.12479057611E+04  0.50400001928E-02 0.  1.
</event>
<event>
 5   0  0.2149920E-05  0.2412394E+04  0.7818609E-02  0.8434878E-01
        1   -1    0    0  501    0  0.00000000000E+00  0.00000000000E+00  0.94788951333E+03  0.94788951334E+03  0.50400001928E-02 0.  1.
       -1   -1    0    0    0  501  0.00000000000E+00  0.00000000000E+00 -0.15348959719E+04  0.15348959719E+04  0.50400001928E-02 0. -1.
    10030    2    1    2    0    0  0.00000000000E+00  0.00000000000E+00 -0.58700645860E+03  0.24827854853E+04  0.24123944917E+04 0.  0.
        5    1    3    3  502    0  0.62122650961E+03  0.10119967816E+04 -0.51141188537E+03  0.12929130166E+04  0.46999998093E+01 0. -1.
       -5    1    3    3    0  502 -0.62122650961E+03 -0.10119967816E+04 -0.75594573236E+02  0.11898724686E+04  0.46999998093E+01 0.  1.
</event>
<event>
 5   0  0.1672125E-05  0.2241002E+04  0.7818609E-02  0.8501554E-01
       -3   -1    0    0    0  501  0.00000000000E+00  0.00000000000E+00  0.19780830507E+04  0.19780830532E+04  0.10100000352E+00 0. -1.
        3   -1    0    0  501    0  0.00000000000E+00  0.00000000000E+00 -0.63471658651E+03  0.63471659454E+03  0.10100000352E+00 0.  1.
    10030    2    1    2    0    0  0.00000000000E+00  0.00000000000E+00  0.13433664642E+04  0.26127996478E+04  0.22410016828E+04 0.  0.
        2    1    3    3  502    0  0.63794845858E+03  0.54230448470E+03 -0.19646726948E+03  0.86004173033E+03  0.25500000920E-02 0.  1.
       -2    1    3    3    0  502 -0.63794845858E+03 -0.54230448470E+03  0.15398337336E+04  0.17527579175E+04  0.25500000920E-02 0. -1.
</event>
<event>
 5   0  0.4664127E-05  0.2437100E+04  0.7818609E-02  0.8425743E-01
       -2   -1    0    0    0  501  0.00000000000E+00  0.00000000000E+00  0.54359261766E+03  0.54359261767E+03  0.25500000920E-02 0. -1.
        2   -1    0    0  501    0  0.00000000000E+00  0.00000000000E+00 -0.27315745547E+04  0.27315745547E+04  0.25500000920E-02 0.  1.
    10030    2    1    2    0    0  0.00000000000E+00  0.00000000000E+00 -0.21879819371E+04  0.32751671724E+04  0.24370997210E+04 0.  0.
        4    1    3    3  502    0  0.44075043765E+03 -0.16991542370E+03  0.41554469691E+03  0.62913528555E+03  0.12699999809E+01 0. -1.
       -4    1    3    3    0  502 -0.44075043765E+03  0.16991542370E+03 -0.26035266340E+04  0.26460318868E+04  0.12699999809E+01 0.  1.
</event>
<event>
 5   0  0.2057599E-05  0.2416790E+04  0.7818609E-02  0.8433244E-01
        1   -1    0    0  501    0  0.00000000000E+00  0.00000000000E+00  0.11106052541E+04  0.11106052541E+04  0.50400001928E-02 0.  1.
       -1   -1    0    0    0  501  0.00000000000E+00  0.00000000000E+00 -0.13147957364E+04  0.13147957364E+04  0.50400001928E-02 0. -1.
    10030    2    1    2    0    0  0.00000000000E+00  0.00000000000E+00 -0.20419048230E+03  0.24254009905E+04  0.24167904774E+04 0.  0.
        4    1    3    3  502    0  0.11306875358E+04  0.38382827128E+03  0.84143394154E+02  0.11970213738E+04  0.12699999809E+01 0.  1.
       -4    1    3    3    0  502 -0.11306875358E+04 -0.38382827128E+03 -0.28833387645E+03  0.12283796167E+04  0.12699999809E+01 0. -1.
</event>
<event>
 5   0  0.4664127E-05  0.2469837E+04  0.7818609E-02  0.8413811E-01
       -2   -1    0    0    0  501  0.00000000000E+00  0.00000000000E+00  0.10017400337E+04  0.10017400337E+04  0.25500000920E-02 0.  1.
        2   -1    0    0  501    0  0.00000000000E+00  0.00000000000E+00 -0.15223745153E+04  0.15223745153E+04  0.25500000920E-02 0. -1.
    10030    2    1    2    0    0  0.00000000000E+00  0.00000000000E+00 -0.52063448157E+03  0.25241145490E+04  0.24698368353E+04 0.  0.
        4    1    3    3  502    0  0.51538535043E+03  0.25053354568E+03  0.85762982995E+03  0.10314648104E+04  0.12699999809E+01 0.  1.
       -4    1    3    3    0  502 -0.51538535043E+03 -0.25053354568E+03 -0.13782643115E+04  0.14926497386E+04  0.12699999809E+01 0. -1.
</event>
<event>
 5   0  0.2065692E-05  0.2424469E+04  0.7818609E-02  0.8430399E-01
       -1   -1    0    0    0  501  0.00000000000E+00  0.00000000000E+00  0.67397087085E+03  0.67397087087E+03  0.50400001928E-02 0. -1.
        1   -1    0    0  501    0  0.00000000000E+00  0.00000000000E+00 -0.21803800779E+04  0.21803800779E+04  0.50400001928E-02 0.  1.
    10030    2    1    2    0    0  0.00000000000E+00  0.00000000000E+00 -0.15064092070E+04  0.28543509487E+04  0.24244691459E+04 0.  0.
        3    1    3    3  502    0  0.56230201143E+03 -0.14922833117E+03 -0.20052887895E+04  0.20879740866E+04  0.10100000352E+00 0.  1.
       -3    1    3    3    0  502 -0.56230201143E+03  0.14922833117E+03  0.49887958244E+03  0.76637686217E+03  0.10100000352E+00 0. -1.
</event>
<event>
 5   0  0.2057599E-05  0.2358212E+04  0.7818609E-02  0.8455316E-01
        1   -1    0    0  501    0  0.00000000000E+00  0.00000000000E+00  0.13977670378E+04  0.13977670378E+04  0.50400001928E-02 0. -1.
       -1   -1    0    0    0  501  0.00000000000E+00  0.00000000000E+00 -0.99465107246E+03  0.99465107248E+03  0.50400001928E-02 0.  1.
    10030    2    1    2    0    0  0.00000000000E+00  0.00000000000E+00  0.40311596534E+03  0.23924181103E+04  0.23582115963E+04 0.  0.
        4    1    3    3  502    0 -0.46235971710E+02 -0.76371182120E+03  0.11117311383E+04  0.13495707642E+04  0.12699999809E+01 0. -1.
       -4    1    3    3    0  502  0.46235971710E+02  0.76371182120E+03 -0.70861517296E+03  0.10428473461E+04  0.12699999809E+01 0.  1.
</event>
<event>
 5   0  0.2139556E-05  0.2545372E+04  0.7818609E-02  0.8386998E-01
        1   -1    0    0  501    0  0.00000000000E+00  0.00000000000E+00  0.16229259617E+04  0.16229259617E+04  0.50400001928E-02 0.  1.
       -1   -1    0    0    0  501  0.00000000000E+00  0.00000000000E+00 -0.99803031018E+03  0.99803031019E+03  0.50400001928E-02 0. -1.
    10030    2    1    2    0    0  0.00000000000E+00  0.00000000000E+00  0.62489565149E+03  0.26209562719E+04  0.25453717221E+04 0.  0.
        2    1    3    3  502    0  0.58264303381E+03  0.11110038996E+04  0.53311682643E+03  0.13630906501E+04  0.25500000920E-02 0.  1.
       -2    1    3    3    0  502 -0.58264303381E+03 -0.11110038996E+04  0.91778825067E+02  0.12578656218E+04  0.25500000920E-02 0. -1.
</event>
<event>
 5   0  0.4856882E-05  0.2433356E+04  0.7818609E-02  0.8427120E-01
       -2   -1    0    0    0  501  0.00000000000E+00  0.00000000000E+00  0.73634282485E+03  0.73634282486E+03  0.25500000920E-02 0.  1.
        2   -1    0    0  501    0  0.00000000000E+00  0.00000000000E+00 -0.20103477498E+04  0.20103477498E+04  0.25500000920E-02 0. -1.
    10030    2    1    2    0    0  0.00000000000E+00  0.00000000000E+00 -0.12740049250E+04  0.27466905747E+04  0.24333558236E+04 0.  0.
        1    1    3    3  502    0 -0.53860465375E+03  0.81056407154E+03 -0.14612308748E+04  0.17556493831E+04  0.50400001928E-02 0. -1.
       -1    1    3    3    0  502  0.53860465375E+03 -0.81056407154E+03  0.18722594977E+03  0.99104119158E+03  0.50400001928E-02 0.  1.
</event>
<event>
 5   0  0.2090039E-05  0.2528626E+04  0.7818609E-02  0.8392858E-01
       -1   -1    0    0    0  501  0.00000000000E+00  0.00000000000E+00  0.66308071792E+03  0.66308071794E+03  0.50400001928E-02 0. -1.
        1   -1    0    0  501    0  0.00000000000E+00  0.00000000000E+00 -0.24106983467E+04  0.24106983467E+04  0.50400001928E-02 0.  1.
    10030    2    1    2    0    0  0.00000000000E+00  0.00000000000E+00 -0.17476176287E+04  0.30737790646E+04  0.25286261807E+04 0.  0.
        1    1    3    3  502    0  0.74050981416E+02 -0.12375043746E+04 -0.11754790211E+04  0.17084061443E+04  0.50400001928E-02 0.  1.
       -1    1    3    3    0  502 -0.74050981416E+02  0.12375043746E+04 -0.57213860765E+03  0.13653729203E+04  0.50400001928E-02 0. -1.
</event>
<event>
 5   0  0.4856882E-05  0.2371210E+04  0.7818609E-02  0.8450361E-01
       -2   -1    0    0    0  501  0.00000000000E+00  0.00000000000E+00  0.14356091691E+04  0.14356091691E+04  0.25500000920E-02 0.  1.
        2   -1    0    0  501    0  0.00000000000E+00  0.00000000000E+00 -0.97913791753E+03  0.97913791753E+03  0.25500000920E-02 0. -1.
    10030    2    1    2    0    0  0.00000000000E+00  0.00000000000E+00  0.45647125157E+03  0.24147470866E+04  0.23712101317E+04 0.  0.
        1    1    3    3  502    0 -0.58971203219E+03  0.99811948242E+03  0.48110216229E+03  0.12551741205E+04  0.50400001928E-02 0.  1.
       -1    1    3    3    0  502  0.58971203219E+03 -0.99811948242E+03 -0.24630910722E+02  0.11595729662E+04  0.50400001928E-02 0. -1.
</event>
<event>
 5   0  0.4914005E-05  0.2206235E+04  0.7818609E-02  0.8515837E-01
        2   -1    0    0  501    0  0.00000000000E+00  0.00000000000E+00  0.74285510795E+03  0.74285510795E+03  0.25500000920E-02 0. -1.
       -2   -1    0    0    0  501  0.00000000000E+00  0.00000000000E+00 -0.16380970492E+04  0.16380970492E+04  0.25500000920E-02 0.  1.
    10030    2    1    2    0    0  0.00000000000E+00  0.00000000000E+00 -0.89524194129E+03  0.23809521572E+04  0.22062354909E+04 0.  0.
        2    1    3    3  502    0 -0.58117876129E+03  0.35406346937E+03  0.48931371102E+03  0.83818709171E+03  0.25500000920E-02 0. -1.
       -2    1    3    3    0  502  0.58117876129E+03 -0.35406346937E+03 -0.13845556523E+04  0.15427650655E+04  0.25500000920E-02 0.  1.
</event>
<event>
 5   0  0.4664127E-05  0.2394251E+04  0.7818609E-02  0.8441659E-01
       -2   -1    0    0    0  501  0.00000000000E+00  0.00000000000E+00  0.87590840115E+03  0.87590840115E+03  0.25500000920E-02 0.  1.
        2   -1    0    0  501    0  0.00000000000E+00  0.00000000000E+00 -0.16361411401E+04  0.16361411401E+04  0.25500000920E-02 0. -1.
    10030    2    1    2    0    0  0.00000000000E+00  0.00000000000E+00 -0.76023273897E+03  0.25120495413E+04  0.23942512567E+04 0.  0.
        4    1    3    3  502    0 -0.61765441327E+03 -0.97564385024E+03 -0.48777830716E+02  0.11557503132E+04  0.12699999809E+01 0.  1.
       -4    1    3    3    0  502  0.61765441327E+03  0.97564385024E+03 -0.71145490825E+03  0.13562992281E+04  0.12699999809E+01 0. -1.
</event>
<event>
 5   0  0.2057599E-05  0.2227830E+04  0.7818609E-02  0.8506933E-01
       -1   -1    0    0    0  501  0.00000000000E+00  0.00000000000E+00  0.75936551293E+03  0.75936551294E+03  0.50400001928E-02 0. -1.
        1   -1    0    0  501    0  0.00000000000E+00  0.00000000000E+00 -0.16340046984E+04  0.16340046984E+04  0.50400001928E-02 0.  1.
    10030    2    1    2    0    0  0.00000000000E+00  0.00000000000E+00 -0.87463918545E+03  0.23933702113E+04  0.22278301694E+04 0.  0.
        4    1    3    3  502    0 -0.90785971802E+03  0.83687634261E+02  0.25022947956E+03  0.94542545611E+03  0.12699999809E+01 0.  1.
       -4    1    3    3    0  502  0.90785971802E+03 -0.83687634261E+02 -0.11248686650E+04  0.14479447552E+04  0.12699999809E+01 0. -1.
</event>
<event>
 5   0  0.2090039E-05  0.2353265E+04  0.7818609E-02  0.8457211E-01
        1   -1    0    0  501    0  0.00000000000E+00  0.00000000000E+00  0.85648281029E+03  0.85648281030E+03  0.50400001928E-02 0.  1.
       -1   -1    0    0    0  501  0.00000000000E+00  0.00000000000E+00 -0.16164525077E+04  0.16164525077E+04  0.50400001928E-02 0. -1.
    10030    2    1    2    0    0  0.00000000000E+00  0.00000000000E+00 -0.75996969740E+03  0.24729353180E+04  0.23532647845E+04 0.  0.
        1    1    3    3  502    0  0.49275066355E+03 -0.75547729718E+03 -0.11739977242E+04  0.14804795910E+04  0.50400001928E-02 0. -1.
       -1    1    3    3    0  502 -0.49275066355E+03  0.75547729718E+03  0.41402802681E+03  0.99245572697E+03  0.50400001928E-02 0.  1.
</event>
<event>
 5   0  0.4664127E-05  0.2403933E+04  0.7818609E-02  0.8438033E-01
        2   -1    0    0  501    0  0.00000000000E+00  0.00000000000E+00  0.68449365474E+03  0.68449365474E+03  0.25500000920E-02 0. -1.
       -2   -1    0    0    0  501  0.00000000000E+00  0.00000000000E+00 -0.21106452263E+04  0.21106452263E+04  0.25500000920E-02 0.  1.
    10030    2    1    2    0    0  0.00000000000E+00  0.00000000000E+00 -0.14261515715E+04  0.27951388810E+04  0.24039328317E+04 0.  0.
        4    1    3    3  502    0  0.70627265714E+03  0.35120380699E+02  0.41703356388E+03  0.82095865528E+03  0.12699999809E+01 0. -1.
       -4    1    3    3    0  502 -0.70627265714E+03 -0.35120380699E+02 -0.18431851354E+04  0.19741802257E+04  0.12699999809E+01 0.  1.
</event>
<event>
 5   0  0.4756705E-05  0.2418225E+04  0.7818609E-02  0.8432712E-01
       -2   -1    0    0    0  501  0.00000000000E+00  0.00000000000E+00  0.82181020757E+03  0.82181020758E+03  0.25500000920E-02 0.  1.
        2   -1    0    0  501    0  0.00000000000E+00  0.00000000000E+00 -0.17789419144E+04  0.17789419144E+04  0.25500000920E-02 0. -1.
    10030    2    1    2    0    0  0.00000000000E+00  0.00000000000E+00 -0.95713170679E+03  0.26007521219E+04  0.24182246578E+04 0.  0.
        3    1    3    3  502    0 -0.89239170562E+02 -0.12036834897E+04 -0.55563388435E+03  0.13287387240E+04  0.10100000352E+00 0. -1.
       -3    1    3    3    0  502  0.89239170562E+02  0.12036834897E+04 -0.40149782244E+03  0.12720133980E+04  0.10100000352E+00 0.  1.
</event>
<event>
 5   0  0.2139556E-05  0.2383824E+04  0.7818609E-02  0.8445584E-01
        1   -1    0    0  501    0  0.00000000000E+00  0.00000000000E+00  0.24666340904E+04  0.24666340904E+04  0.50400001928E-02 0. -1.
       -1   -1    0    0    0  501  0.00000000000E+00  0.00000000000E+00 -0.57594868765E+03  0.57594868767E+03  0.50400001928E-02 0.  1.
    10030    2    1    2    0    0  0.00000000000E+00  0.00000000000E+00  0.18906854027E+04  0.30425827780E+04  0.23838243788E+04 0.  0.
        2    1    3    3  502    0  0.35031250903E+02  0.93863725771E+03  0.18818596922E+04  0.21032505773E+04  0.25500000920E-02 0. -1.
       -2    1    3    3    0  502 -0.35031250903E+02 -0.93863725771E+03  0.88257105617E+01  0.93933220070E+03  0.25500000920E-02 0.  1.
</event>
<event>
 5   0  0.2065692E-05  0.2353281E+04  0.7818609E-02  0.8457205E-01
        1   -1    0    0  501    0  0.00000000000E+00  0.00000000000E+00  0.13293848006E+04  0.13293848006E+04  0.50400001928E-02 0. -1.
       -1   -1    0    0    0  501  0.00000000000E+00  0.00000000000E+00 -0.10414459204E+04  0.10414459204E+04  0.50400001928E-02 0.  1.
    10030    2    1    2    0    0  0.00000000000E+00  0.00000000000E+00  0.28793888022E+03  0.23708307210E+04  0.23532805844E+04 0.  0.
        3    1    3    3  502    0  0.47033249163E+03  0.14373480302E+03 -0.93293172968E+03  0.10546250370E+04  0.10100000352E+00 0.  1.
       -3    1    3    3    0  502 -0.47033249163E+03 -0.14373480302E+03  0.12208706099E+04  0.13162056840E+04  0.10100000352E+00 0. -1.
</event>
<event>
 5   0  0.4914005E-05  0.2372534E+04  0.7818609E-02  0.8449859E-01
       -2   -1    0    0    0  501  0.00000000000E+00  0.00000000000E+00  0.11881987841E+04  0.11881987841E+04  0.25500000920E-02 0. -1.
        2   -1    0    0  501    0  0.00000000000E+00  0.00000000000E+00 -0.11843380494E+04  0.11843380494E+04  0.25500000920E-02 0.  1.
    10030    2    1    2    0    0  0.00000000000E+00  0.00000000000E+00  0.38607346254E+01  0.23725368335E+04  0.23725336923E+04 0.  0.
        2    1    3    3  502    0 -0.62018221139E+03 -0.16077453886E+02  0.10130422689E+04  0.11879137589E+04  0.25500000920E-02 0. -1.
       -2    1    3    3    0  502  0.62018221139E+03  0.16077453886E+02 -0.10091815343E+04  0.11846230747E+04  0.25500000920E-02 0.  1.
</event>
<event>
 5   0  0.4664127E-05  0.2157872E+04  0.7818609E-02  0.8536170E-01
       -2   -1    0    0    0  501  0.00000000000E+00  0.00000000000E+00  0.86277556385E+03  0.86277556385E+03  0.25500000920E-02 0.  1.
        2   -1    0    0  501    0  0.00000000000E+00  0.00000000000E+00 -0.13492534580E+04  0.13492534580E+04  0.25500000920E-02 0. -1.
    10030    2    1    2    0    0  0.00000000000E+00  0.00000000000E+00 -0.48647789412E+03  0.22120290218E+04  0.21578720194E+04 0.  0.
        4    1    3    3  502    0  0.23156692196E+03  0.52122549092E+03 -0.11820860665E+04  0.13124893650E+04  0.12699999809E+01 0. -1.
       -4    1    3    3    0  502 -0.23156692196E+03 -0.52122549092E+03  0.69560817240E+03  0.89953965679E+03  0.12699999809E+01 0.  1.
</event>
<event>
 5   0  0.2090039E-05  0.2267414E+04  0.7818609E-02  0.8490881E-01
        1   -1    0    0  501    0  0.00000000000E+00  0.00000000000E+00  0.13326170057E+04  0.13326170057E+04  0.50400001928E-02 0. -1.
       -1   -1    0    0    0  501  0.00000000000E+00  0.00000000000E+00 -0.96448699518E+03  0.96448699519E+03  0.50400001928E-02 0.  1.
    10030    2    1    2    0    0  0.00000000000E+00  0.00000000000E+00  0.36813001052E+03  0.22971040009E+04  0.22674141850E+04 0.  0.
        1    1    3    3  502    0  0.40548121404E+03 -0.38139294418E+03 -0.81649877194E+03  0.98820333810E+03  0.50400001928E-02 0.  1.
       -1    1    3    3    0  502 -0.40548121404E+03  0.38139294418E+03  0.11846287825E+04  0.13089006628E+04  0.50400001928E-02 0. -1.
</event>
<event>
 5   0  0.2090039E-05  0.2270374E+04  0.7818609E-02  0.8489695E-01
       -1   -1    0    0    0  501  0.00000000000E+00  0.00000000000E+00  0.12646201063E+04  0.12646201063E+04  0.50400001928E-02 0.  1.
        1   -1    0    0  501    0  0.00000000000E+00  0.00000000000E+00 -0.10190012176E+04  0.10190012176E+04  0.50400001928E-02 0. -1.
    10030    2    1    2    0    0  0.00000000000E+00  0.00000000000E+00  0.24561888871E+03  0.22836213239E+04  0.22703739147E+04 0.  0.
        1    1    3    3  502    0  0.77762291192E+03 -0.51527778957E+03  0.77345389667E+03  0.12117918649E+04  0.50400001928E-02 0.  1.
       -1    1    3    3    0  502 -0.77762291192E+03  0.51527778957E+03 -0.52783500795E+03  0.10718294590E+04  0.50400001928E-02 0. -1.
</event>
<event>
 5   0  0.4756705E-05  0.2426083E+04  0.7818609E-02  0.8429802E-01
        2   -1    0    0  501    0  0.00000000000E+00  0.00000000000E+00  0.84899770302E+03  0.84899770303E+03  0.25500000920E-02 0.  1.
       -2   -1    0    0    0  501  0.00000000000E+00  0.00000000000E+00 -0.17331848503E+04  0.17331848503E+04  0.25500000920E-02 0. -1.
    10030    2    1    2    0    0  0.00000000000E+00  0.00000000000E+00 -0.88418714728E+03  0.25821825533E+04  0.24260832276E+04 0.  0.
        3    1    3    3  502    0 -0.32648755947E+03  0.11642491146E+04 -0.54528437866E+03  0.13264257202E+04  0.10100000352E+00 0. -1.
       -3    1    3    3    0  502  0.32648755947E+03 -0.11642491146E+04 -0.33890276862E+03  0.12557568332E+04  0.10100000352E+00 0.  1.
</event>
<event>
 5   0  0.2057599E-05  0.2450727E+04  0.7818609E-02  0.8420753E-01
        1   -1    0    0  501    0  0.00000000000E+00  0.00000000000E+00  0.10236420637E+04  0.10236420637E+04  0.50400001928E-02 0.  1.
       -1   -1    0    0    0  501  0.00000000000E+00  0.00000000000E+00 -0.14668361443E+04  0.14668361443E+04  0.50400001928E-02 0. -1.
    10030    2    1    2    0    0  0.00000000000E+00  0.00000000000E+00 -0.44319408060E+03  0.24904782080E+04  0.24507265681E+04 0.  0.
        4    1    3    3  502    0 -0.10489675483E+04 -0.53349651690E+03  0.12535272231E+03  0.11834975153E+04  0.12699999809E+01 0.  1.
       -4    1    3    3    0  502  0.10489675483E+04  0.53349651690E+03 -0.56854680290E+03  0.13069806926E+04  0.12699999809E+01 0. -1.
</event>
<event>
 5   0  0.2090039E-05  0.2375208E+04  0.7818609E-02  0.8448844E-01
       -1   -1    0    0    0  501  0.00000000000E+00  0.00000000000E+00  0.79838552596E+03  0.79838552598E+03  0.50400001928E-02 0.  1.
        1   -1    0    0  501    0  0.00000000000E+00  0.00000000000E+00 -0.17665695661E+04  0.17665695661E+04  0.50400001928E-02 0. -1.
    10030    2    1    2    0    0  0.00000000000E+00  0.00000000000E+00 -0.96818404011E+03  0.25649550921E+04  0.23752082622E+04 0.  0.
        1    1    3    3  502    0  0.11649604423E+04 -0.21147994842E+03 -0.58392733628E+03  0.13201620108E+04  0.50400001928E-02 0. -1.
       -1    1    3    3    0  502 -0.11649604423E+04  0.21147994842E+03 -0.38425670383E+03  0.12447930813E+04  0.50400001928E-02 0.  1.
</event>
<event>
 5   0  0.2090039E-05  0.2335116E+04  0.7818609E-02  0.8464203E-01
        1   -1    0    0  501    0  0.00000000000E+00  0.00000000000E+00  0.70726959650E+03  0.70726959652E+03  0.50400001928E-02 0.  1.
       -1   -1    0    0    0  501  0.00000000000E+00  0.00000000000E+00 -0.19273996281E+04  0.19273996281E+04  0.50400001928E-02 0. -1.
    10030    2    1    2    0    0  0.00000000000E+00  0.00000000000E+00 -0.12201300316E+04  0.26346692246E+04  0.23351155494E+04 0.  0.
        1    1    3    3  502    0 -0.35675576979E+03 -0.85784891646E+01  0.64422901064E+03  0.73646404388E+03  0.50400001928E-02 0.  1.
       -1    1    3    3    0  502  0.35675576979E+03  0.85784891646E+01 -0.18643590422E+04  0.18982051807E+04  0.50400001928E-02 0. -1.
</event>
<event>
 5   0  0.2065692E-05  0.2347899E+04  0.7818609E-02  0.8459271E-01
        1   -1    0    0  501    0  0.00000000000E+00  0.00000000000E+00  0.10881781237E+04  0.10881781237E+04  0.50400001928E-02 0. -1.
       -1   -1    0    0    0  501  0.00000000000E+00  0.00000000000E+00 -0.12664809893E+04  0.12664809893E+04  0.50400001928E-02 0.  1.
    10030    2    1    2    0    0  0.00000000000E+00  0.00000000000E+00 -0.17830286557E+03  0.23546591130E+04  0.23478985554E+04 0.  0.
        3    1    3    3  502    0 -0.48487115888E+03  0.10384598415E+04  0.16586014124E+03  0.11580192053E+04  0.10100000352E+00 0. -1.
       -3    1    3    3    0  502  0.48487115888E+03 -0.10384598415E+04 -0.34416300681E+03  0.11966399077E+04  0.10100000352E+00 0.  1.
</event>
<event>
 5   0  0.4713971E-05  0.2453343E+04  0.7818609E-02  0.8419798E-01
       -2   -1    0    0    0  501  0.00000000000E+00  0.00000000000E+00  0.14204671740E+04  0.14204671740E+04  0.25500000920E-02 0.  1.
        2   -1    0    0  501    0  0.00000000000E+00  0.00000000000E+00 -0.10593154263E+04  0.10593154263E+04  0.25500000920E-02 0. -1.
    10030    2    1    2    0    0  0.00000000000E+00  0.00000000000E+00  0.36115174765E+03  0.24797826003E+04  0.24533428541E+04 0.  0.
        5    1    3    3  502    0 -0.35550351007E+03 -0.14995614571E+03  0.13575262730E+04  0.14113005573E+04  0.46999998093E+01 0.  1.
       -5    1    3    3    0  502  0.35550351007E+03  0.14995614571E+03 -0.99637452534E+03  0.10684820429E+04  0.46999998093E+01 0. -1.
</event>
<event>
 5   0  0.2057599E-05  0.2419777E+04  0.7818609E-02  0.8432136E-01
        1   -1    0    0  501    0  0.00000000000E+00  0.00000000000E+00  0.11160297403E+04  0.11160297403E+04  0.50400001928E-02 0. -1.
       -1   -1    0    0    0  501  0.00000000000E+00  0.00000000000E+00 -0.13116407079E+04  0.13116407079E+04  0.50400001928E-02 0.  1.
    10030    2    1    2    0    0  0.00000000000E+00  0.00000000000E+00 -0.19561096761E+03  0.24276704482E+04  0.24197768811E+04 0.  0.
        4    1    3    3  502    0 -0.88536194557E+03  0.69125821108E+03  0.35324395015E+03  0.11774916519E+04  0.12699999809E+01 0. -1.
       -4    1    3    3    0  502  0.88536194557E+03 -0.69125821108E+03 -0.54885491776E+03  0.12501787963E+04  0.12699999809E+01 0.  1.
</event>
<event>
 5   0  0.2090039E-05  0.2374328E+04  0.7818609E-02  0.8449178E-01
       -1   -1    0    0    0  501  0.00000000000E+00  0.00000000000E+00  0.15360818007E+04  0.15360818007E+04  0.50400001928E-02 0. -1.
        1   -1    0    0  501    0  0.00000000000E+00  0.00000000000E+00 -0.91750245055E+03  0.91750245056E+03  0.50400001928E-02 0.  1.
    10030    2    1    2    0    0  0.00000000000E+00  0.00000000000E+00  0.61857935019E+03  0.24535842513E+04  0.23743283820E+04 0.  0.
        1    1    3    3  502    0 -0.39819057704E+03  0.90916900490E+02  0.14611899741E+04  0.15172006323E+04  0.50400001928E-02 0. -1.
       -1    1    3    3    0  502  0.39819057704E+03 -0.90916900490E+02 -0.84261062386E+03  0.93638361898E+03  0.50400001928E-02 0.  1.
</event>
<event>
 5   0  0.2090039E-05  0.2403210E+04  0.7818609E-02  0.8438303E-01
        1   -1    0    0  501    0  0.00000000000E+00  0.00000000000E+00  0.23614107268E+04  0.23614107268E+04  0.50400001928E-02 0. -1.
       -1   -1    0    0    0  501  0.00000000000E+00  0.00000000000E+00 -0.61143740850E+03  0.61143740853E+03  0.50400001928E-02 0.  1.
    10030    2    1    2    0    0  0.00000000000E+00  0.00000000000E+00  0.17499733183E+04  0.29728481353E+04  0.24032102324E+04 0.  0.
        1    1    3    3  502    0  0.76695483414E+03  0.92421420715E+03  0.82766736251E+03  0.14585694640E+04  0.50400001928E-02 0. -1.
       -1    1    3    3    0  502 -0.76695483414E+03 -0.92421420715E+03  0.92230595576E+03  0.15142786713E+04  0.50400001928E-02 0.  1.
</event>
<event>
 5   0  0.4713971E-05  0.2244509E+04  0.7818609E-02  0.8500128E-01
        2   -1    0    0  501    0  0.00000000000E+00  0.00000000000E+00  0.98004966035E+03  0.98004966035E+03  0.25500000920E-02 0. -1.
       -2   -1    0    0    0  501  0.00000000000E+00  0.00000000000E+00 -0.12850932108E+04  0.12850932108E+04  0.25500000920E-02 0.  1.
    10030    2    1    2    0    0  0.00000000000E+00  0.00000000000E+00 -0.30504355042E+03  0.22651428711E+04  0.22445090018E+04 0.  0.
        5    1    3    3  502    0  0.62471749147E+03 -0.66382210718E+03  0.50809613042E+03  0.10436069671E+04  0.46999998093E+01 0. -1.
       -5    1    3    3    0  502 -0.62471749147E+03  0.66382210718E+03 -0.81313968084E+03  0.12215359040E+04  0.46999998093E+01 0.  1.
</event>
<event>
 5   0  0.4664127E-05  0.2333557E+04  0.7818609E-02  0.8464806E-01
       -2   -1    0    0    0  501  0.00000000000E+00  0.00000000000E+00  0.77600621861E+03  0.77600621861E+03  0.25500000920E-02 0. -1.
        2   -1    0    0  501    0  0.00000000000E+00  0.00000000000E+00 -0.17543316364E+04  0.17543316364E+04  0.25500000920E-02 0.  1.
    10030    2    1    2    0    0  0.00000000000E+00  0.00000000000E+00 -0.97832541775E+03  0.25303378550E+04  0.23335571639E+04 0.  0.
        4    1    3    3  502    0  0.91523641541E+03  0.26941890043E+03  0.23913541844E+03  0.98358100900E+03  0.12699999809E+01 0. -1.
       -4    1    3    3    0  502 -0.91523641541E+03 -0.26941890043E+03 -0.12174608362E+04  0.15467568460E+04  0.12699999809E+01 0.  1.
</event>
<event>
 5   0  0.2149920E-05  0.2390368E+04  0.7818609E-02  0.8443119E-01
       -1   -1    0    0    0  501  0.00000000000E+00  0.00000000000E+00  0.96438496818E+03  0.96438496819E+03  0.50400001928E-02 0. -1.
        1   -1    0    0  501    0  0.00000000000E+00  0.00000000000E+00 -0.14812181004E+04  0.14812181004E+04  0.50400001928E-02 0.  1.
    10030    2    1    2    0    0  0.00000000000E+00  0.00000000000E+00 -0.51683313222E+03  0.24456030686E+04  0.23903677296E+04 0.  0.
        5    1    3    3  502    0  0.77180229962E+03  0.55001754867E+03 -0.10034216778E+04  0.13802446330E+04  0.46999998093E+01 0.  1.
       -5    1    3    3    0  502 -0.77180229962E+03 -0.55001754867E+03  0.48658854558E+03  0.10653584356E+04  0.46999998093E+01 0. -1.
</event>
<event>
 5   0  0.4664127E-05  0.2427040E+04  0.7818609E-02  0.8429449E-01
       -2   -1    0    0    0  501  0.00000000000E+00  0.00000000000E+00  0.78554541543E+03  0.78554541544E+03  0.25500000920E-02 0.  1.
        2   -1    0    0  501    0  0.00000000000E+00  0.00000000000E+00 -0.18746601655E+04  0.18746601655E+04  0.25500000920E-02 0. -1.
    10030    2    1    2    0    0  0.00000000000E+00  0.00000000000E+00 -0.10891147500E+04  0.26602055809E+04  0.24270399243E+04 0.  0.
        4    1    3    3  502    0  0.19980116013E+03  0.70245531126E+03  0.51770641266E+03  0.89520137987E+03  0.12699999809E+01 0.  1.
       -4    1    3    3    0  502 -0.19980116013E+03 -0.70245531126E+03 -0.16068211627E+04  0.17650042010E+04  0.12699999809E+01 0. -1.
</event>
<event>
 5   0  0.2065692E-05  0.2378683E+04  0.7818609E-02  0.8447528E-01
        1   -1    0    0  501    0  0.00000000000E+00  0.00000000000E+00  0.30334260957E+04  0.30334260957E+04  0.50400001928E-02 0.  1.
       -1   -1    0    0    0  501  0.00000000000E+00  0.00000000000E+00 -0.46631548921E+03  0.46631548924E+03  0.50400001928E-02 0. -1.
    10030    2    1    2    0    0  0.00000000000E+00  0.00000000000E+00  0.25671106065E+04  0.34997415849E+04  0.23786833113E+04 0.  0.
        3    1    3    3  502    0 -0.31924341083E+03  0.10616714651E+04  0.64992308468E+03  0.12850924797E+04  0.10100000352E+00 0. -1.
       -3    1    3    3    0  502  0.31924341083E+03 -0.10616714651E+04  0.19171875218E+04  0.22146491052E+04  0.10100000352E+00 0.  1.
</event>
<event>
 5   0  0.4914005E-05  0.2427140E+04  0.7818609E-02  0.8429412E-01
       -2   -1    0    0    0  501  0.00000000000E+00  0.00000000000E+00  0.14069752229E+04  0.14069752229E+04  0.25500000920E-02 0.  1.
        2   -1    0    0  501    0  0.00000000000E+00  0.00000000000E+00 -0.10467504092E+04  0.10467504092E+04  0.25500000920E-02 0. -1.
    10030    2    1    2    0    0  0.00000000000E+00  0.00000000000E+00  0.36022481377E+03  0.24537256321E+04  0.24271397902E+04 0.  0.
        2    1    3    3  502    0  0.48053805496E+02  0.83738603846E+03 -0.70655055382E+03  0.10966942285E+04  0.25500000920E-02 0. -1.
       -2    1    3    3    0  502 -0.48053805496E+02 -0.83738603846E+03  0.10667753676E+04  0.13570314037E+04  0.25500000920E-02 0.  1.
</event>
<event>
 5   0  0.4856882E-05  0.2293888E+04  0.7818609E-02  0.8480335E-01
        2   -1    0    0  501    0  0.00000000000E+00  0.00000000000E+00  0.72598587560E+03  0.72598587561E+03  0.25500000920E-02 0.  1.
       -2   -1    0    0    0  501  0.00000000000E+00  0.00000000000E+00 -0.18119923908E+04  0.18119923908E+04  0.25500000920E-02 0. -1.
    10030    2    1    2    0    0  0.00000000000E+00  0.00000000000E+00 -0.10860065152E+04  0.25379782664E+04  0.22938882993E+04 0.  0.
        1    1    3    3  502    0 -0.67275230329E+03  0.53884307143E+03 -0.13801778379E+04  0.16272179883E+04  0.50400001928E-02 0. -1.
       -1    1    3    3    0  502  0.67275230329E+03 -0.53884307143E+03  0.29417132262E+03  0.91076027817E+03  0.50400001928E-02 0.  1.
</event>
<event>
 5   0  0.2057599E-05  0.2411618E+04  0.7818609E-02  0.8435167E-01
        1   -1    0    0  501    0  0.00000000000E+00  0.00000000000E+00  0.10863791267E+04  0.10863791267E+04  0.50400001928E-02 0.  1.
       -1   -1    0    0    0  501  0.00000000000E+00  0.00000000000E+00 -0.13383685092E+04  0.13383685093E+04  0.50400001928E-02 0. -1.
    10030    2    1    2    0    0  0.00000000000E+00  0.00000000000E+00 -0.25198938253E+03  0.24247476360E+04  0.24116182221E+04 0.  0.
        4    1    3    3  502    0 -0.11863169240E+04 -0.15301482801E+03  0.27191651064E+02  0.11964540863E+04  0.12699999809E+01 0.  1.
       -4    1    3    3    0  502  0.11863169240E+04  0.15301482801E+03 -0.27918103359E+03  0.12282935497E+04  0.12699999809E+01 0. -1.
</event>
<event>
 5   0  0.4856882E-05  0.2422023E+04  0.7818609E-02  0.8431304E-01
       -2   -1    0    0    0  501  0.00000000000E+00  0.00000000000E+00  0.77640973704E+03  0.77640973704E+03  0.25500000920E-02 0.  1.
        2   -1    0    0  501    0  0.00000000000E+00  0.00000000000E+00 -0.18888854412E+04  0.18888854413E+04  0.25500000920E-02 0. -1.
    10030    2    1    2    0    0  0.00000000000E+00  0.00000000000E+00 -0.11124757042E+04  0.26652951783E+04  0.24220231615E+04 0.  0.
        1    1    3    3  502    0  0.10245616581E+03 -0.12044224736E+04 -0.47523542000E+03  0.12988377363E+04  0.50400001928E-02 0. -1.
       -1    1    3    3    0  502 -0.10245616581E+03  0.12044224736E+04 -0.63724028421E+03  0.13664574420E+04  0.50400001928E-02 0.  1.
</event>
<event>
 5   0  0.2139556E-05  0.2273016E+04  0.7818609E-02  0.8488637E-01
        1   -1    0    0  501    0  0.00000000000E+00  0.00000000000E+00  0.14774195224E+04  0.14774195224E+04  0.50400001928E-02 0. -1.
       -1   -1    0    0    0  501  0.00000000000E+00  0.00000000000E+00 -0.87426139002E+03  0.87426139004E+03  0.50400001928E-02 0.  1.
    10030    2    1    2    0    0  0.00000000000E+00  0.00000000000E+00  0.60315813236E+03  0.23516809124E+04  0.22730163619E+04 0.  0.
        2    1    3    3  502    0  0.16540807867E+03  0.55423958987E+03  0.13137564833E+04  0.14354432949E+04  0.25500000920E-02 0. -1.
       -2    1    3    3    0  502 -0.16540807867E+03 -0.55423958987E+03 -0.71059835092E+03  0.91623761754E+03  0.25500000920E-02 0.  1.
</event>
<event>
 5   0  0.4664127E-05  0.2472734E+04  0.7818609E-02  0.8412764E-01
       -2   -1    0    0    0  501  0.00000000000E+00  0.00000000000E+00  0.17377065090E+04  0.17377065090E+04  0.25500000920E-02 0.  1.
        2   -1    0    0  501    0  0.00000000000E+00  0.00000000000E+00 -0.87966748350E+03  0.87966748350E+03  0.25500000920E-02 0. -1.
    10030    2    1    2    0    0  0.00000000000E+00  0.00000000000E+00  0.85803902546E+03  0.26173739925E+04  0.24727344474E+04 0.  0.
        4    1    3    3  502    0 -0.30789051817E+03 -0.98904919999E+03  0.11434733278E+04  0.15429023804E+04  0.12699999809E+01 0.  1.
       -4    1    3    3    0  502  0.30789051817E+03  0.98904919999E+03 -0.28543430236E+03  0.10744716120E+04  0.12699999809E+01 0. -1.
</event>
<event>
 5   0  0.4756705E-05  0.2388862E+04  0.7818609E-02  0.8443685E-01
        2   -1    0    0  501    0  0.00000000000E+00  0.00000000000E+00  0.22500457806E+04  0.22500457806E+04  0.25500000920E-02 0. -1.
       -2   -1    0    0    0  501  0.00000000000E+00  0.00000000000E+00 -0.63406057811E+03  0.63406057811E+03  0.25500000920E-02 0.  1.
    10030    2    1    2    0    0  0.00000000000E+00  0.00000000000E+00  0.16159852025E+04  0.28841063587E+04  0.23888619285E+04 0.  0.
        3    1    3    3  502    0  0.36185956285E+02  0.10427159516E+04  0.15100011226E+04  0.18353935217E+04  0.10100000352E+00 0. -1.
       -3    1    3    3    0  502 -0.36185956285E+02 -0.10427159516E+04  0.10598407991E+03  0.10487128370E+04  0.10100000352E+00 0.  1.
</event>
<event>
 5   0  0.2139556E-05  0.2414325E+04  0.7818609E-02  0.8434160E-01
       -1   -1    0    0    0  501  0.00000000000E+00  0.00000000000E+00  0.84672876041E+03  0.84672876043E+03  0.50400001928E-02 0.  1.
        1   -1    0    0  501    0  0.00000000000E+00  0.00000000000E+00 -0.17210248570E+04  0.17210248570E+04  0.50400001928E-02 0. -1.
    10030    2    1    2    0    0  0.00000000000E+00  0.00000000000E+00 -0.87429609661E+03  0.25677536175E+04  0.24143249523E+04 0.  0.
        2    1    3    3  502    0 -0.78321068078E+03 -0.66009659439E+03 -0.11165677491E+04  0.15152128638E+04  0.25500000920E-02 0. -1.
       -2    1    3    3    0  502  0.78321068078E+03  0.66009659439E+03  0.24227165248E+03  0.10525407536E+04  0.25500000920E-02 0.  1.
</event>
<event>
 5   0  0.2057599E-05  0.2366456E+04  0.7818609E-02  0.8452170E-01
        1   -1    0    0  501    0  0.00000000000E+00  0.00000000000E+00  0.16005361657E+04  0.16005361657E+04  0.50400001928E-02 0.  1.
       -1   -1    0    0    0  501  0.00000000000E+00  0.00000000000E+00 -0.87472467500E+03  0.87472467502E+03  0.50400001928E-02 0. -1.
    10030    2    1    2    0    0  0.00000000000E+00  0.00000000000E+00  0.72581149072E+03  0.24752608407E+04  0.23664559809E+04 0.  0.
        4    1    3    3  502    0  0.80548667437E+03 -0.34094078968E+03  0.11963982436E+04  0.14820323124E+04  0.12699999809E+01 0.  1.
       -4    1    3    3    0  502 -0.80548667437E+03  0.34094078968E+03 -0.47058675291E+03  0.99322852837E+03  0.12699999809E+01 0. -1.
</event>
<event>
 5   0  0.2065692E-05  0.2310637E+04  0.7818609E-02  0.8473739E-01
       -1   -1    0    0    0  501  0.00000000000E+00  0.00000000000E+00  0.70465499880E+03  0.70465499881E+03  0.50400001928E-02 0. -1.
        1   -1    0    0  501    0  0.00000000000E+00  0.00000000000E+00 -0.18942050898E+04  0.18942050898E+04  0.50400001928E-02 0.  1.
    10030    2    1    2    0    0  0.00000000000E+00  0.00000000000E+00 -0.11895500910E+04  0.25988600886E+04  0.23106372154E+04 0.  0.
        3    1    3    3  502    0 -0.36981273131E+03 -0.10460183717E+04 -0.95722188559E+03  0.14653291912E+04  0.10100000352E+00 0.  1.
       -3    1    3    3    0  502  0.36981273131E+03  0.10460183717E+04 -0.23232820543E+03  0.11335308974E+04  0.10100000352E+00 0. -1.
</event>
<event>
 5   0  0.2065692E-05  0.2410391E+04  0.7818609E-02  0.8435624E-01
        1   -1    0    0  501    0  0.00000000000E+00  0.00000000000E+00  0.12719508711E+04  0.12719508711E+04  0.50400001928E-02 0. -1.
       -1   -1    0    0    0  501  0.00000000000E+00  0.00000000000E+00 -0.11419435852E+04  0.11419435852E+04  0.50400001928E-02 0.  1.
    10030    2    1    2    0    0  0.00000000000E+00  0.00000000000E+00  0.13000728592E+03  0.24138944563E+04  0.24103909541E+04 0.  0.
        3    1    3    3  502    0 -0.63918802072E+03  0.66171573442E+03 -0.71463101867E+03  0.11649577426E+04  0.10100000352E+00 0.  1.
       -3    1    3    3    0  502  0.63918802072E+03 -0.66171573442E+03  0.84463830459E+03  0.12489367137E+04  0.10100000352E+00 0. -1.
</event>
<event>
 5   0  0.4856882E-05  0.2414367E+04  0.7818609E-02  0.8434144E-01
        2   -1    0    0  501    0  0.00000000000E+00  0.00000000000E+00  0.19757878837E+04  0.19757878837E+04  0.25500000920E-02 0.  1.
       -2   -1    0    0    0  501  0.00000000000E+00  0.00000000000E+00 -0.73757528704E+03  0.73757528704E+03  0.25500000920E-02 0. -1.
    10030    2    1    2    0    0  0.00000000000E+00  0.00000000000E+00  0.12382125967E+04  0.27133631708E+04  0.24143672591E+04 0.  0.
        1    1    3    3  502    0 -0.11763511080E+04 -0.21857660862E+03  0.43888964455E+03  0.12744417535E+04  0.50400001928E-02 0.  1.
       -1    1    3    3    0  502  0.11763511080E+04  0.21857660862E+03  0.79932295212E+03  0.14389214172E+04  0.50400001928E-02 0. -1.
</event>
<event>
 5   0  0.4713971E-05  0.2407881E+04  0.7818609E-02  0.8436559E-01
        2   -1    0    0  501    0  0.00000000000E+00  0.00000000000E+00  0.11065271140E+04  0.11065271140E+04  0.25500000920E-02 0.  1.
       -2   -1    0    0    0  501  0.00000000000E+00  0.00000000000E+00 -0.13099295445E+04  0.13099295445E+04  0.25500000920E-02 0. -1.
    10030    2    1    2    0    0  0.00000000000E+00  0.00000000000E+00 -0.20340243051E+03  0.24164566585E+04  0.24078808596E+04 0.  0.
        5    1    3    3  502    0 -0.13913887032E+03  0.11391266652E+04  0.26357490355E+03  0.11774816365E+04  0.46999998093E+01 0.  1.
       -5    1    3    3    0  502  0.13913887032E+03 -0.11391266652E+04 -0.46697733406E+03  0.12389750220E+04  0.46999998093E+01 0. -1.
</event>
<event>
 5   0  0.4914005E-05  0.2378841E+04  0.7818609E-02  0.8447468E-01
       -2   -1    0    0    0  501  0.00000000000E+00  0.00000000000E+00  0.17105533992E+04  0.17105533992E+04  0.25500000920E-02 0.  1.
        2   -1    0    0  501    0  0.00000000000E+00  0.00000000000E+00 -0.82705479437E+03  0.82705479438E+03  0.25500000920E-02 0. -1.
    10030    2    1    2    0    0  0.00000000000E+00  0.00000000000E+00  0.88349860485E+03  0.25376081936E+04  0.23788412220E+04 0.  0.
        2    1    3    3  502    0 -0.89121601613E+02 -0.93958909832E+03 -0.33040566987E+03  0.99996911965E+03  0.25500000920E-02 0. -1.
       -2    1    3    3    0  502  0.89121601613E+02  0.93958909832E+03  0.12139042747E+04  0.15376390740E+04  0.25500000920E-02 0.  1.
</event>
<event>
 5   0  0.2090039E-05  0.2305243E+04  0.7818609E-02  0.8475857E-01
       -1   -1    0    0    0  501  0.00000000000E+00  0.00000000000E+00  0.14859635086E+04  0.14859635086E+04  0.50400001928E-02 0.  1.
        1   -1    0    0  501    0  0.00000000000E+00  0.00000000000E+00 -0.89405697882E+03  0.89405697884E+03  0.50400001928E-02 0. -1.
    10030    2    1    2    0    0  0.00000000000E+00  0.00000000000E+00  0.59190652979E+03  0.23800204875E+04  0.23052427596E+04 0.  0.
        1    1    3    3  502    0  0.44284981159E+02 -0.11508807431E+04  0.24922587751E+03  0.11783892321E+04  0.50400001928E-02 0.  1.
       -1    1    3    3    0  502 -0.44284981159E+02  0.11508807431E+04  0.34268065228E+03  0.12016312553E+04  0.50400001928E-02 0. -1.
</event>
<event>
 5   0  0.4914005E-05  0.2291729E+04  0.7818609E-02  0.8481189E-01
       -2   -1    0    0    0  501  0.00000000000E+00  0.00000000000E+00  0.21975351835E+04  0.21975351835E+04  0.25500000920E-02 0. -1.
        2   -1    0    0  501    0  0.00000000000E+00  0.00000000000E+00 -0.59749026159E+03  0.59749026160E+03  0.25500000920E-02 0.  1.
    10030    2    1    2    0    0  0.00000000000E+00  0.00000000000E+00  0.16000449219E+04  0.27950254451E+04  0.22917293659E+04 0.  0.
        2    1    3    3  502    0 -0.79729682706E+03 -0.66107260015E+03  0.13978905014E+04  0.17397692568E+04  0.25500000920E-02 0. -1.
       -2    1    3    3    0  502  0.79729682706E+03  0.66107260015E+03  0.20215442049E+03  0.10552561883E+04  0.25500000920E-02 0.  1.
</event>
<event>
 5   0  0.2090039E-05  0.2405206E+04  0.7818609E-02  0.8437557E-01
        1   -1    0    0  501    0  0.00000000000E+00  0.00000000000E+00  0.18625123204E+04  0.18625123204E+04  0.50400001928E-02 0. -1.
       -1   -1    0    0    0  501  0.00000000000E+00  0.00000000000E+00 -0.77650681530E+03  0.77650681532E+03  0.50400001928E-02 0.  1.
    10030    2    1    2    0    0  0.00000000000E+00  0.00000000000E+00  0.10860055051E+04  0.26390191358E+04  0.24052056132E+04 0.  0.
        1    1    3    3  502    0 -0.64158929736E+03  0.67315570382E+03 -0.29367265776E+03  0.97520206010E+03  0.50400001928E-02 0.  1.
       -1    1    3    3    0  502  0.64158929736E+03 -0.67315570382E+03  0.13796781629E+04  0.16638170757E+04  0.50400001928E-02 0. -1.
</event>
<event>
 5   0  0.2149920E-05  0.2382862E+04  0.7818609E-02  0.8445948E-01
       -1   -1    0    0    0  501  0.00000000000E+00  0.00000000000E+00  0.20349263606E+04  0.20349263606E+04  0.50400001928E-02 0. -1.
        1   -1    0    0  501    0  0.00000000000E+00  0.00000000000E+00 -0.69757209686E+03  0.69757209687E+03  0.50400001928E-02 0.  1.
    10030    2    1    2    0    0  0.00000000000E+00  0.00000000000E+00  0.13373542637E+04  0.27324984574E+04  0.23828620172E+04 0.  0.
        5    1    3    3  502    0  0.10237553876E+04  0.35372853517E+03  0.99586301059E+02  0.10877216977E+04  0.46999998093E+01 0.  1.
       -5    1    3    3    0  502 -0.10237553876E+04 -0.35372853517E+03  0.12377679626E+04  0.16447767598E+04  0.46999998093E+01 0. -1.
</event>
<event>
 5   0  0.4664127E-05  0.2426462E+04  0.7818609E-02  0.8429662E-01
       -2   -1    0    0    0  501  0.00000000000E+00  0.00000000000E+00  0.70113175607E+03  0.70113175607E+03  0.25500000920E-02 0. -1.
        2   -1    0    0  501    0  0.00000000000E+00  0.00000000000E+00 -0.20993624864E+04  0.20993624864E+04  0.25500000920E-02 0.  1.
    10030    2    1    2    0    0  0.00000000000E+00  0.00000000000E+00 -0.13982307304E+04  0.28004942425E+04  0.24264622039E+04 0.  0.
        4    1    3    3  502    0 -0.10942090275E+04  0.35664417806E+03 -0.11422832357E+04  0.16215119701E+04  0.12699999809E+01 0.  1.
       -4    1    3    3    0  502  0.10942090275E+04 -0.35664417806E+03 -0.25594749465E+03  0.11789822724E+04  0.12699999809E+01 0. -1.
</event>
<event>
 5   0  0.2065692E-05  0.2388857E+04  0.7818609E-02  0.8443687E-01
        1   -1    0    0  501    0  0.00000000000E+00  0.00000000000E+00  0.13139805470E+04  0.13139805470E+04  0.50400001928E-02 0.  1.
       -1   -1    0    0    0  501  0.00000000000E+00  0.00000000000E+00 -0.10857534777E+04  0.10857534777E+04  0.50400001928E-02 0. -1.
    10030    2    1    2    0    0  0.00000000000E+00  0.00000000000E+00  0.22822706933E+03  0.23997340247E+04  0.23888565872E+04 0.  0.
        3    1    3    3  502    0  0.54221557306E+03 -0.19357302792E+03 -0.93716525793E+03  0.10998849829E+04  0.10100000352E+00 0. -1.
       -3    1    3    3    0  502 -0.54221557306E+03  0.19357302792E+03  0.11653923273E+04  0.12998490418E+04  0.10100000352E+00 0.  1.
</event>
<event>
 5   0  0.1672125E-05  0.2221565E+04  0.7818609E-02  0.8509505E-01
        3   -1    0    0  501    0  0.00000000000E+00  0.00000000000E+00  0.15826728194E+04  0.15826728227E+04  0.10100000352E+00 0. -1.
       -3   -1    0    0    0  501  0.00000000000E+00  0.00000000000E+00 -0.77959140690E+03  0.77959141344E+03  0.10100000352E+00 0.  1.
    10030    2    1    2    0    0  0.00000000000E+00  0.00000000000E+00  0.80308141254E+03  0.23622642361E+04  0.22215653414E+04 0.  0.
        1    1    3    3  502    0 -0.68783696480E+03 -0.85590816577E+03  0.57991358872E+03  0.12417722210E+04  0.50400001928E-02 0. -1.
       -1    1    3    3    0  502  0.68783696480E+03  0.85590816577E+03  0.22316782382E+03  0.11204920151E+04  0.50400001928E-02 0.  1.
</event>
<event>
 5   0  0.2090039E-05  0.2006316E+04  0.7818609E-02  0.8603673E-01
        1   -1    0    0  501    0  0.00000000000E+00  0.00000000000E+00  0.20145766634E+04  0.20145766634E+04  0.50400001928E-02 0.  1.
       -1   -1    0    0    0  501  0.00000000000E+00  0.00000000000E+00 -0.49952247136E+03  0.49952247139E+03  0.50400001928E-02 0. -1.
    10030    2    1    2    0    0  0.00000000000E+00  0.00000000000E+00  0.15150541921E+04  0.25140991348E+04  0.20063163397E+04 0.  0.
        1    1    3    3  502    0 -0.79899347383E+03  0.25187815236E+03  0.66059641292E+02  0.84035531241E+03  0.50400001928E-02 0. -1.
       -1    1    3    3    0  502  0.79899347383E+03 -0.25187815236E+03  0.14489945508E+04  0.16737438224E+04  0.50400001928E-02 0.  1.
</event>
<event>
 5   0  0.2139556E-05  0.2497823E+04  0.7818609E-02  0.8403762E-01
        1   -1    0    0  501    0  0.00000000000E+00  0.00000000000E+00  0.61842069017E+03  0.61842069019E+03  0.50400001928E-02 0. -1.
       -1   -1    0    0    0  501  0.00000000000E+00  0.00000000000E+00 -0.25221981963E+04  0.25221981963E+04  0.50400001928E-02 0.  1.
    10030    2    1    2    0    0  0.00000000000E+00  0.00000000000E+00 -0.19037775062E+04  0.31406188865E+04  0.24978226914E+04 0.  0.
        2    1    3    3  502    0 -0.52873311117E+03  0.90777307576E+02 -0.23699462121E+04  0.24299062267E+04  0.25500000920E-02 0.  1.
       -2    1    3    3    0  502  0.52873311117E+03 -0.90777307576E+02  0.46616870593E+03  0.71071265981E+03  0.25500000920E-02 0. -1.
</event>
<event>
 5   0  0.2057599E-05  0.2416883E+04  0.7818609E-02  0.8433210E-01
        1   -1    0    0  501    0  0.00000000000E+00  0.00000000000E+00  0.15187521979E+04  0.15187521979E+04  0.50400001928E-02 0. -1.
       -1   -1    0    0    0  501  0.00000000000E+00  0.00000000000E+00 -0.96153321111E+03  0.96153321112E+03  0.50400001928E-02 0.  1.
    10030    2    1    2    0    0  0.00000000000E+00  0.00000000000E+00  0.55721898682E+03  0.24802854091E+04  0.24168828501E+04 0.  0.
        4    1    3    3  502    0  0.46429212164E+03 -0.87328666937E+03  0.99118216913E+03  0.14002287265E+04  0.12699999809E+01 0.  1.
       -4    1    3    3    0  502 -0.46429212164E+03  0.87328666937E+03 -0.43396318231E+03  0.10800566826E+04  0.12699999809E+01 0. -1.
</event>
<event>
 5   0  0.2149920E-05  0.2372999E+04  0.7818609E-02  0.8449682E-01
       -1   -1    0    0    0  501  0.00000000000E+00  0.00000000000E+00  0.73711785961E+03  0.73711785963E+03  0.50400001928E-02 0. -1.
        1   -1    0    0  501    0  0.00000000000E+00  0.00000000000E+00 -0.19098458000E+04  0.19098458000E+04  0.50400001928E-02 0.  1.
    10030    2    1    2    0    0  0.00000000000E+00  0.00000000000E+00 -0.11727279404E+04  0.26469636597E+04  0.23729993243E+04 0.  0.
        5    1    3    3  502    0  0.27494430976E+03 -0.10956621421E+04 -0.99115032557E+03  0.15028210010E+04  0.46999998093E+01 0.  1.
       -5    1    3    3    0  502 -0.27494430976E+03  0.10956621421E+04 -0.18157761483E+03  0.11441426587E+04  0.46999998093E+01 0. -1.
</event>
<event>
 5   0  0.4856882E-05  0.2415790E+04  0.7818609E-02  0.8433616E-01
       -2   -1    0    0    0  501  0.00000000000E+00  0.00000000000E+00  0.63543411878E+03  0.63543411879E+03  0.25500000920E-02 0. -1.
        2   -1    0    0  501    0  0.00000000000E+00  0.00000000000E+00 -0.22960844565E+04  0.22960844565E+04  0.25500000920E-02 0.  1.
    10030    2    1    2    0    0  0.00000000000E+00  0.00000000000E+00 -0.16606503378E+04  0.29315185753E+04  0.24157900598E+04 0.  0.
        1    1    3    3  502    0 -0.83121726733E+02  0.88044457039E+03 -0.18287184854E+04  0.20313303921E+04  0.50400001928E-02 0.  1.
       -1    1    3    3    0  502  0.83121726733E+02 -0.88044457039E+03  0.16806814764E+03  0.90018818324E+03  0.50400001928E-02 0. -1.
</event>
<event>
 5   0  0.2139556E-05  0.2406706E+04  0.7818609E-02  0.8436997E-01
       -1   -1    0    0    0  501  0.00000000000E+00  0.00000000000E+00  0.68146471291E+03  0.68146471292E+03  0.50400001928E-02 0. -1.
        1   -1    0    0  501    0  0.00000000000E+00  0.00000000000E+00 -0.21249210979E+04  0.21249210979E+04  0.50400001928E-02 0.  1.
    10030    2    1    2    0    0  0.00000000000E+00  0.00000000000E+00 -0.14434563850E+04  0.28063858109E+04  0.24067062521E+04 0.  0.
        2    1    3    3  502    0  0.68553167514E+02  0.37227443830E+03 -0.20536889490E+04  0.20882830492E+04  0.25500000920E-02 0.  1.
       -2    1    3    3    0  502 -0.68553167514E+02 -0.37227443830E+03  0.61023256398E+03  0.71810276169E+03  0.25500000920E-02 0. -1.
</event>
<event>
 5   0  0.4756705E-05  0.2389863E+04  0.7818609E-02  0.8443308E-01
       -2   -1    0    0    0  501  0.00000000000E+00  0.00000000000E+00  0.11088492961E+04  0.11088492961E+04  0.25500000920E-02 0. -1.
        2   -1    0    0  501    0  0.00000000000E+00  0.00000000000E+00 -0.12876965670E+04  0.12876965670E+04  0.25500000920E-02 0.  1.
    10030    2    1    2    0    0  0.00000000000E+00  0.00000000000E+00 -0.17884727082E+03  0.23965458631E+04  0.23898631190E+04 0.  0.
        3    1    3    3  502    0 -0.11386449725E+03  0.35733200469E+03  0.10483017358E+04  0.11133677850E+04  0.10100000352E+00 0. -1.
       -3    1    3    3    0  502  0.11386449725E+03 -0.35733200469E+03 -0.12271490066E+04  0.12831780780E+04  0.10100000352E+00 0.  1.
</event>
<event>
 5   0  0.2057599E-05  0.2399524E+04  0.7818609E-02  0.8439682E-01
       -1   -1    0    0    0  501  0.00000000000E+00  0.00000000000E+00  0.79063926224E+03  0.79063926226E+03  0.50400001928E-02 0. -1.
        1   -1    0    0  501    0  0.00000000000E+00  0.00000000000E+00 -0.18205886926E+04  0.18205886926E+04  0.50400001928E-02 0.  1.
    10030    2    1    2    0    0  0.00000000000E+00  0.00000000000E+00 -0.10299494304E+04  0.26112279549E+04  0.23995240368E+04 0.  0.
        4    1    3    3  502    0  0.17987158365E+03  0.36323915370E+02  0.77527673901E+03  0.79669871870E+03  0.12699999809E+01 0. -1.
       -4    1    3    3    0  502 -0.17987158365E+03 -0.36323915370E+02 -0.18052261694E+04  0.18145292362E+04  0.12699999809E+01 0.  1.
</event>
<event>
 5   0  0.4856882E-05  0.2415769E+04  0.7818609E-02  0.8433623E-01
        2   -1    0    0  501    0  0.00000000000E+00  0.00000000000E+00  0.13083902181E+04  0.13083902181E+04  0.25500000920E-02 0.  1.
       -2   -1    0    0    0  501  0.00000000000E+00  0.00000000000E+00 -0.11150990800E+04  0.11150990800E+04  0.25500000920E-02 0. -1.
    10030    2    1    2    0    0  0.00000000000E+00  0.00000000000E+00  0.19329113818E+03  0.24234892981E+04  0.24157688039E+04 0.  0.
        1    1    3    3  502    0 -0.16903506999E+03 -0.72955997122E+03  0.10473842668E+04  0.12875730693E+04  0.50400001928E-02 0.  1.
       -1    1    3    3    0  502  0.16903506999E+03  0.72955997122E+03 -0.85409312860E+03  0.11359162288E+04  0.50400001928E-02 0. -1.
</event>
<event>
 5   0  0.2065692E-05  0.2421160E+04  0.7818609E-02  0.8431624E-01
       -1   -1    0    0    0  501  0.00000000000E+00  0.00000000000E+00  0.70968006499E+03  0.70968006501E+03  0.50400001928E-02 0. -1.
        1   -1    0    0  501    0  0.00000000000E+00  0.00000000000E+00 -0.20650207497E+04  0.20650207497E+04  0.50400001928E-02 0.  1.
    10030    2    1    2    0    0  0.00000000000E+00  0.00000000000E+00 -0.13553406847E+04  0.27747008147E+04  0.24211601020E+04 0.  0.
        3    1    3    3  502    0 -0.79899245279E+03 -0.23457342519E+03 -0.16846639983E+04  0.18792302756E+04  0.10100000352E+00 0.  1.
       -3    1    3    3    0  502  0.79899245279E+03  0.23457342519E+03  0.32932331355E+03  0.89547053914E+03  0.10100000352E+00 0. -1.
</event>
<event>
 5   0  0.4664127E-05  0.2508384E+04  0.7818609E-02  0.8400005E-01
       -2   -1    0    0    0  501  0.00000000000E+00  0.00000000000E+00  0.84507968512E+03  0.84507968513E+03  0.25500000920E-02 0. -1.
        2   -1    0    0  501    0  0.00000000000E+00  0.00000000000E+00 -0.18613604104E+04  0.18613604104E+04  0.25500000920E-02 0.  1.
    10030    2    1    2    0    0  0.00000000000E+00  0.00000000000E+00 -0.10162807253E+04  0.27064400955E+04  0.25083842365E+04 0.  0.
        4    1    3    3  502    0 -0.33881786422E+02 -0.43524918735E+03 -0.17767331210E+04  0.18295824733E+04  0.12699999809E+01 0.  1.
       -4    1    3    3    0  502  0.33881786422E+02  0.43524918735E+03  0.76045239573E+03  0.87685762220E+03  0.12699999809E+01 0. -1.
</event>
<event>
 5   0  0.4664127E-05  0.2402722E+04  0.7818609E-02  0.8438485E-01
        2   -1    0    0  501    0  0.00000000000E+00  0.00000000000E+00  0.96357254676E+03  0.96357254676E+03  0.25500000920E-02 0.  1.
       -2   -1    0    0    0  501  0.00000000000E+00  0.00000000000E+00 -0.14978300552E+04  0.14978300552E+04  0.25500000920E-02 0. -1.
    10030    2    1    2    0    0  0.00000000000E+00  0.00000000000E+00 -0.53425750843E+03  0.24614026020E+04  0.24027217241E+04 0.  0.
        4    1    3    3  502    0  0.99306421365E+03 -0.58624466105E+03 -0.61211283852E+03  0.13055815084E+04  0.12699999809E+01 0. -1.
       -4    1    3    3    0  502 -0.99306421365E+03  0.58624466105E+03  0.77855330086E+02  0.11558210936E+04  0.12699999809E+01 0.  1.
</event>
<event>
 5   0  0.4713971E-05  0.2611302E+04  0.7818609E-02  0.8364372E-01
       -2   -1    0    0    0  501  0.00000000000E+00  0.00000000000E+00  0.73054409728E+03  0.73054409729E+03  0.25500000920E-02 0.  1.
        2   -1    0    0  501    0  0.00000000000E+00  0.00000000000E+00 -0.23334990663E+04  0.23334990663E+04  0.25500000920E-02 0. -1.
    10030    2    1    2    0    0  0.00000000000E+00  0.00000000000E+00 -0.16029549690E+04  0.30640431636E+04  0.26113015673E+04 0.  0.
        5    1    3    3  502    0 -0.38000986771E+03  0.10235221007E+04  0.38694489504E+02  0.10924853975E+04  0.46999998093E+01 0.  1.
       -5    1    3    3    0  502  0.38000986771E+03 -0.10235221007E+04 -0.16416494585E+04  0.19715577661E+04  0.46999998093E+01 0. -1.
</event>
<event>
 5   0  0.4914005E-05  0.1923403E+04  0.7818609E-02  0.8643294E-01
        2   -1    0    0  501    0  0.00000000000E+00  0.00000000000E+00  0.17135802575E+04  0.17135802575E+04  0.25500000920E-02 0. -1.
       -2   -1    0    0    0  501  0.00000000000E+00  0.00000000000E+00 -0.53972966997E+03  0.53972966998E+03  0.25500000920E-02 0.  1.
    10030    2    1    2    0    0  0.00000000000E+00  0.00000000000E+00  0.11738505875E+04  0.22533099274E+04  0.19234033449E+04 0.  0.
        2    1    3    3  502    0 -0.17282122582E+03 -0.44366607216E+03 -0.39195387303E+03  0.61671273562E+03  0.25500000920E-02 0.  1.
       -2    1    3    3    0  502  0.17282122582E+03  0.44366607216E+03  0.15658044605E+04  0.16365971918E+04  0.25500000920E-02 0. -1.
</event>
<event>
 5   0  0.4756705E-05  0.2374275E+04  0.7818609E-02  0.8449198E-01
        2   -1    0    0  501    0  0.00000000000E+00  0.00000000000E+00  0.89789165575E+03  0.89789165575E+03  0.25500000920E-02 0.  1.
       -2   -1    0    0    0  501  0.00000000000E+00  0.00000000000E+00 -0.15695611612E+04  0.15695611612E+04  0.25500000920E-02 0. -1.
    10030    2    1    2    0    0  0.00000000000E+00  0.00000000000E+00 -0.67166950544E+03  0.24674528169E+04  0.23742753588E+04 0.  0.
        3    1    3    3  502    0  0.16765002052E+03 -0.10601109088E+03  0.88054808807E+03  0.90261277765E+03  0.10100000352E+00 0.  1.
       -3    1    3    3    0  502 -0.16765002052E+03  0.10601109088E+03 -0.15522175935E+04  0.15648400393E+04  0.10100000352E+00 0. -1.
</event>
<event>
 5   0  0.4756705E-05  0.2298342E+04  0.7818609E-02  0.8478575E-01
       -2   -1    0    0    0  501  0.00000000000E+00  0.00000000000E+00  0.90603536862E+03  0.90603536863E+03  0.25500000920E-02 0.  1.
        2   -1    0    0  501    0  0.00000000000E+00  0.00000000000E+00 -0.14575519271E+04  0.14575519271E+04  0.25500000920E-02 0. -1.
    10030    2    1    2    0    0  0.00000000000E+00  0.00000000000E+00 -0.55151655847E+03  0.23635872957E+04  0.22983416609E+04 0.  0.
        3    1    3    3  502    0  0.42801105634E+03 -0.60273439731E+03  0.62905461420E+03  0.97066571790E+03  0.10100000352E+00 0.  1.
       -3    1    3    3    0  502 -0.42801105634E+03  0.60273439731E+03 -0.11805711727E+04  0.13929215778E+04  0.10100000352E+00 0. -1.
</event>
<event>
 5   0  0.4914005E-05  0.2416560E+04  0.7818609E-02  0.8433330E-01
        2   -1    0    0  501    0  0.00000000000E+00  0.00000000000E+00  0.11650081349E+04  0.11650081349E+04  0.25500000920E-02 0. -1.
       -2   -1    0    0    0  501  0.00000000000E+00  0.00000000000E+00 -0.12531594369E+04  0.12531594369E+04  0.25500000920E-02 0.  1.
    10030    2    1    2    0    0  0.00000000000E+00  0.00000000000E+00 -0.88151302050E+02  0.24181675718E+04  0.24165603144E+04 0.  0.
        2    1    3    3  502    0  0.85427027046E+03 -0.67116268978E+03  0.48514648917E+03  0.11897916486E+04  0.25500000920E-02 0. -1.
       -2    1    3    3    0  502 -0.85427027046E+03  0.67116268978E+03 -0.57329779122E+03  0.12283759232E+04  0.25500000920E-02 0.  1.
</event>
<event>
 5   0  0.1672125E-05  0.2388864E+04  0.7818609E-02  0.8443684E-01
       -3   -1    0    0    0  501  0.00000000000E+00  0.00000000000E+00  0.20591773698E+04  0.20591773723E+04  0.10100000352E+00 0. -1.
        3   -1    0    0  501    0  0.00000000000E+00  0.00000000000E+00 -0.69283386766E+03  0.69283387503E+03  0.10100000352E+00 0.  1.
    10030    2    1    2    0    0  0.00000000000E+00  0.00000000000E+00  0.13663435022E+04  0.27520112473E+04  0.23888640270E+04 0.  0.
        5    1    3    3  502    0 -0.82925502355E+03 -0.52393888336E+03  0.14682944978E+04  0.17658104853E+04  0.46999998093E+01 0. -1.
       -5    1    3    3    0  502  0.82925502355E+03  0.52393888336E+03 -0.10195099564E+03  0.98620076207E+03  0.46999998093E+01 0.  1.
</event>
<event>
 5   0  0.4713971E-05  0.2314627E+04  0.7818609E-02  0.8472176E-01
        2   -1    0    0  501    0  0.00000000000E+00  0.00000000000E+00  0.22942604963E+04  0.22942604963E+04  0.25500000920E-02 0. -1.
       -2   -1    0    0    0  501  0.00000000000E+00  0.00000000000E+00 -0.58379341501E+03  0.58379341502E+03  0.25500000920E-02 0.  1.
    10030    2    1    2    0    0  0.00000000000E+00  0.00000000000E+00  0.17104670813E+04  0.28780539113E+04  0.23146266827E+04 0.  0.
        5    1    3    3  502    0  0.94941959905E+03 -0.41512669474E+02  0.16764853381E+04  0.19271082106E+04  0.46999998093E+01 0. -1.
       -5    1    3    3    0  502 -0.94941959905E+03  0.41512669474E+02  0.33981743228E+02  0.95094570068E+03  0.46999998093E+01 0.  1.
</event>
<event>
 5   0  0.4756705E-05  0.2411933E+04  0.7818609E-02  0.8435050E-01
       -2   -1    0    0    0  501  0.00000000000E+00  0.00000000000E+00  0.66849031860E+03  0.66849031860E+03  0.25500000920E-02 0.  1.
        2   -1    0    0  501    0  0.00000000000E+00  0.00000000000E+00 -0.21755810645E+04  0.21755810645E+04  0.25500000920E-02 0. -1.
    10030    2    1    2    0    0  0.00000000000E+00  0.00000000000E+00 -0.15070907459E+04  0.28440713831E+04  0.24119327345E+04 0.  0.
        3    1    3    3  502    0  0.48960839271E+03 -0.10530069978E+04 -0.36997203457E+03  0.12187778436E+04  0.10100000352E+00 0.  1.
       -3    1    3    3    0  502 -0.48960839271E+03  0.10530069978E+04 -0.11371187113E+04  0.16252935395E+04  0.10100000352E+00 0. -1.
</event>
<event>
 5   0  0.2057599E-05  0.2506952E+04  0.7818609E-02  0.8400513E-01
       -1   -1    0    0    0  501  0.00000000000E+00  0.00000000000E+00  0.12246240101E+04  0.12246240101E+04  0.50400001928E-02 0.  1.
        1   -1    0    0  501    0  0.00000000000E+00  0.00000000000E+00 -0.12830077271E+04  0.12830077271E+04  0.50400001928E-02 0. -1.
    10030    2    1    2    0    0  0.00000000000E+00  0.00000000000E+00 -0.58383717003E+02  0.25076317373E+04  0.25069519883E+04 0.  0.
        4    1    3    3  502    0  0.11637487569E+04 -0.39801396631E+03  0.21268803477E+03  0.12481843211E+04  0.12699999809E+01 0.  1.
       -4    1    3    3    0  502 -0.11637487569E+04  0.39801396631E+03 -0.27107175177E+03  0.12594474161E+04  0.12699999809E+01 0. -1.
</event>
<event>
 5   0  0.4856882E-05  0.2415896E+04  0.7818609E-02  0.8433576E-01
        2   -1    0    0  501    0  0.00000000000E+00  0.00000000000E+00  0.15953548611E+04  0.15953548611E+04  0.25500000920E-02 0. -1.
       -2   -1    0    0    0  501  0.00000000000E+00  0.00000000000E+00 -0.91461676471E+03  0.91461676472E+03  0.25500000920E-02 0.  1.
    10030    2    1    2    0    0  0.00000000000E+00  0.00000000000E+00  0.68073809641E+03  0.25099716258E+04  0.24158959428E+04 0.  0.
        1    1    3    3  502    0 -0.90173831873E+03  0.25557487637E+03  0.11320713985E+04  0.14697061489E+04  0.50400001928E-02 0. -1.
       -1    1    3    3    0  502  0.90173831873E+03 -0.25557487637E+03 -0.45133330207E+03  0.10402654769E+04  0.50400001928E-02 0.  1.
</event>
<event>
 5   0  0.4914005E-05  0.2309090E+04  0.7818609E-02  0.8474346E-01
        2   -1    0    0  501    0  0.00000000000E+00  0.00000000000E+00  0.12020212261E+04  0.12020212261E+04  0.25500000920E-02 0.  1.
       -2   -1    0    0    0  501  0.00000000000E+00  0.00000000000E+00 -0.11089439381E+04  0.11089439381E+04  0.25500000920E-02 0. -1.
    10030    2    1    2    0    0  0.00000000000E+00  0.00000000000E+00  0.93077288048E+02  0.23109651642E+04  0.23090899958E+04 0.  0.
        2    1    3    3  502    0  0.10514107778E+04 -0.45134991539E+03  0.20091299839E+03  0.11617002207E+04  0.25500000920E-02 0.  1.
       -2    1    3    3    0  502 -0.10514107778E+04  0.45134991539E+03 -0.10783571034E+03  0.11492649435E+04  0.25500000920E-02 0. -1.
</event>
<event>
 5   0  0.2139556E-05  0.2307161E+04  0.7818609E-02  0.8475103E-01
        1   -1    0    0  501    0  0.00000000000E+00  0.00000000000E+00  0.28154086012E+04  0.28154086012E+04  0.50400001928E-02 0. -1.
       -1   -1    0    0    0  501  0.00000000000E+00  0.00000000000E+00 -0.47266599680E+03  0.47266599683E+03  0.50400001928E-02 0.  1.
    10030    2    1    2    0    0  0.00000000000E+00  0.00000000000E+00  0.23427426044E+04  0.32880745980E+04  0.23071609505E+04 0.  0.
        2    1    3    3  502    0  0.71974749438E+03  0.88999376667E+03  0.13760322490E+04  0.17898575671E+04  0.25500000920E-02 0. -1.
       -2    1    3    3    0  502 -0.71974749438E+03 -0.88999376667E+03  0.96671035540E+03  0.14982170309E+04  0.25500000920E-02 0.  1.
</event>
<event>
 5   0  0.4713971E-05  0.2401265E+04  0.7818609E-02  0.8439030E-01
        2   -1    0    0  501    0  0.00000000000E+00  0.00000000000E+00  0.11412585943E+04  0.11412585944E+04  0.25500000920E-02 0.  1.
       -2   -1    0    0    0  501  0.00000000000E+00  0.00000000000E+00 -0.12630952173E+04  0.12630952173E+04  0.25500000920E-02 0. -1.
    10030    2    1    2    0    0  0.00000000000E+00  0.00000000000E+00 -0.12183662294E+03  0.24043538116E+04  0.24012648935E+04 0.  0.
        5    1    3    3  502    0  0.95666657132E+03 -0.62664375757E+03  0.30506912200E+03  0.11836311025E+04  0.46999998093E+01 0.  1.
       -5    1    3    3    0  502 -0.95666657132E+03  0.62664375757E+03 -0.42690574493E+03  0.12207227092E+04  0.46999998093E+01 0. -1.
</event>
<event>
 5   0  0.2065692E-05  0.2372980E+04  0.7818609E-02  0.8449689E-01
        1   -1    0    0  501    0  0.00000000000E+00  0.00000000000E+00  0.12521495328E+04  0.12521495328E+04  0.50400001928E-02 0.  1.
       -1   -1    0    0    0  501  0.00000000000E+00  0.00000000000E+00 -0.11242732379E+04  0.11242732380E+04  0.50400001928E-02 0. -1.
    10030    2    1    2    0    0  0.00000000000E+00  0.00000000000E+00  0.12787629486E+03  0.23764227708E+04  0.23729797384E+04 0.  0.
        3    1    3    3  502    0 -0.51702834835E+03  0.34843137676E+03  0.10748756875E+04  0.12426103537E+04  0.10100000352E+00 0.  1.
       -3    1    3    3    0  502  0.51702834835E+03 -0.34843137676E+03 -0.94699939263E+03  0.11338124171E+04  0.10100000352E+00 0. -1.
</event>
<event>
 5   0  0.2065692E-05  0.2410688E+04  0.7818609E-02  0.8435513E-01
       -1   -1    0    0    0  501  0.00000000000E+00  0.00000000000E+00  0.11350576827E+04  0.11350576827E+04  0.50400001928E-02 0.  1.
        1   -1    0    0  501    0  0.00000000000E+00  0.00000000000E+00 -0.12799827961E+04  0.12799827961E+04  0.50400001928E-02 0. -1.
    10030    2    1    2    0    0  0.00000000000E+00  0.00000000000E+00 -0.14492511339E+03  0.24150404788E+04  0.24106881229E+04 0.  0.
        3    1    3    3  502    0  0.23932385745E+03 -0.91849707951E+03  0.67180641183E+03  0.11628571103E+04  0.10100000352E+00 0.  1.
       -3    1    3    3    0  502 -0.23932385745E+03  0.91849707951E+03 -0.81673152522E+03  0.12521833685E+04  0.10100000352E+00 0. -1.
</event>
<event>
 5   0  0.2057599E-05  0.2612893E+04  0.7818609E-02  0.8363835E-01
       -1   -1    0    0    0  501  0.00000000000E+00  0.00000000000E+00  0.10789059566E+04  0.10789059566E+04  0.50400001928E-02 0.  1.
        1   -1    0    0  501    0  0.00000000000E+00  0.00000000000E+00 -0.15819750828E+04  0.15819750828E+04  0.50400001928E-02 0. -1.
    10030    2    1    2    0    0  0.00000000000E+00  0.00000000000E+00 -0.50306912614E+03  0.26608810394E+04  0.26128929102E+04 0.  0.
        4    1    3    3  502    0 -0.10236850532E+04 -0.75328634254E+03 -0.55946073672E+03  0.13886573843E+04  0.12699999809E+01 0.  1.
       -4    1    3    3    0  502  0.10236850532E+04  0.75328634254E+03  0.56391610582E+02  0.12722236551E+04  0.12699999809E+01 0. -1.
</event>
<event>
 5   0  0.4664127E-05  0.2350001E+04  0.7818609E-02  0.8458463E-01
       -2   -1    0    0    0  501  0.00000000000E+00  0.00000000000E+00  0.86646592487E+03  0.86646592488E+03  0.25500000920E-02 0.  1.
        2   -1    0    0  501    0  0.00000000000E+00  0.00000000000E+00 -0.15933993026E+04  0.15933993026E+04  0.25500000920E-02 0. -1.
    10030    2    1    2    0    0  0.00000000000E+00  0.00000000000E+00 -0.72693337775E+03  0.24598652275E+04  0.23500010217E+04 0.  0.
        4    1    3    3  502    0 -0.10439748576E+04  0.25697672259E+03  0.13272411458E+03  0.10832995166E+04  0.12699999809E+01 0.  1.
       -4    1    3    3    0  502  0.10439748576E+04 -0.25697672259E+03 -0.85965749233E+03  0.13765657109E+04  0.12699999809E+01 0. -1.
</event>
<event>
 5   0  0.4914005E-05  0.2317361E+04  0.7818609E-02  0.8471107E-01
        2   -1    0    0  501    0  0.00000000000E+00  0.00000000000E+00  0.27225980095E+04  0.27225980095E+04  0.25500000920E-02 0. -1.
       -2   -1    0    0    0  501  0.00000000000E+00  0.00000000000E+00 -0.49311010140E+03  0.49311010141E+03  0.25500000920E-02 0.  1.
    10030    2    1    2    0    0  0.00000000000E+00  0.00000000000E+00  0.22294879081E+04  0.32157081109E+04  0.23173610686E+04 0.  0.
        2    1    3    3  502    0 -0.52090134909E+03 -0.60830507608E+03  0.22767108123E+04  0.24134592195E+04  0.25500000920E-02 0. -1.
       -2    1    3    3    0  502  0.52090134909E+03  0.60830507608E+03 -0.47222904267E+02  0.80224889141E+03  0.25500000920E-02 0.  1.
</event>
<event>
 5   0  0.4664127E-05  0.2434349E+04  0.7818609E-02  0.8426755E-01
       -2   -1    0    0    0  501  0.00000000000E+00  0.00000000000E+00  0.14383382191E+04  0.14383382191E+04  0.25500000920E-02 0. -1.
        2   -1    0    0  501    0  0.00000000000E+00  0.00000000000E+00 -0.10300177356E+04  0.10300177356E+04  0.25500000920E-02 0.  1.
    10030    2    1    2    0    0  0.00000000000E+00  0.00000000000E+00  0.40832048346E+03  0.24683559547E+04  0.24343490921E+04 0.  0.
        4    1    3    3  502    0 -0.42463770364E+03  0.85272813018E+03 -0.56408472434E+03  0.11070933260E+04  0.12699999809E+01 0.  1.
       -4    1    3    3    0  502  0.42463770364E+03 -0.85272813018E+03  0.97240520779E+03  0.13612626287E+04  0.12699999809E+01 0. -1.
</event>
<event>
 5   0  0.4856882E-05  0.2573915E+04  0.7818609E-02  0.8377116E-01
        2   -1    0    0  501    0  0.00000000000E+00  0.00000000000E+00  0.16204612978E+04  0.16204612978E+04  0.25500000920E-02 0.  1.
       -2   -1    0    0    0  501  0.00000000000E+00  0.00000000000E+00 -0.10220914882E+04  0.10220914882E+04  0.25500000920E-02 0. -1.
    10030    2    1    2    0    0  0.00000000000E+00  0.00000000000E+00  0.59836980959E+03  0.26425527861E+04  0.25739150721E+04 0.  0.
        1    1    3    3  502    0  0.31203502265E+02 -0.99893255557E+03 -0.53325107869E+03  0.11327826897E+04  0.50400001928E-02 0. -1.
       -1    1    3    3    0  502 -0.31203502265E+02  0.99893255557E+03  0.11316208883E+04  0.15097700964E+04  0.50400001928E-02 0.  1.
</event>
<event>
 5   0  0.4756705E-05  0.2156340E+04  0.7818609E-02  0.8536823E-01
        2   -1    0    0  501    0  0.00000000000E+00  0.00000000000E+00  0.82995533148E+03  0.82995533149E+03  0.25500000920E-02 0.  1.
       -2   -1    0    0    0  501  0.00000000000E+00  0.00000000000E+00 -0.14006179595E+04  0.14006179596E+04  0.25500000920E-02 0. -1.
    10030    2    1    2    0    0  0.00000000000E+00  0.00000000000E+00 -0.57066262807E+03  0.22305732910E+04  0.21563398089E+04 0.  0.
        3    1    3    3  502    0 -0.40003804843E+03  0.44670922584E+03 -0.12122083403E+04  0.13524158543E+04  0.10100000352E+00 0. -1.
       -3    1    3    3    0  502  0.40003804843E+03 -0.44670922584E+03  0.64154571218E+03  0.87815743672E+03  0.10100000352E+00 0.  1.
</event>
<event>
 5   0  0.2090039E-05  0.2472895E+04  0.7818609E-02  0.8412706E-01
       -1   -1    0    0    0  501  0.00000000000E+00  0.00000000000E+00  0.81592942230E+03  0.81592942232E+03  0.50400001928E-02 0.  1.
        1   -1    0    0  501    0  0.00000000000E+00  0.00000000000E+00 -0.18736939725E+04  0.18736939725E+04  0.50400001928E-02 0. -1.
    10030    2    1    2    0    0  0.00000000000E+00  0.00000000000E+00 -0.10577645502E+04  0.26896233948E+04  0.24728946929E+04 0.  0.
        1    1    3    3  502    0  0.39708513880E+02 -0.48078785990E+03 -0.17671079267E+04  0.18317762300E+04  0.50400001928E-02 0. -1.
       -1    1    3    3    0  502 -0.39708513880E+02  0.48078785990E+03  0.70934337651E+03  0.85784716478E+03  0.50400001928E-02 0.  1.
</event>
<event>
 5   0  0.4914005E-05  0.2385917E+04  0.7818609E-02  0.8444795E-01
       -2   -1    0    0    0  501  0.00000000000E+00  0.00000000000E+00  0.66053808343E+03  0.66053808344E+03  0.25500000920E-02 0.  1.
        2   -1    0    0  501    0  0.00000000000E+00  0.00000000000E+00 -0.21545308852E+04  0.21545308852E+04  0.25500000920E-02 0. -1.
    10030    2    1    2    0    0  0.00000000000E+00  0.00000000000E+00 -0.14939928018E+04  0.28150689686E+04  0.23859167643E+04 0.  0.
        2    1    3    3  502    0  0.92693434046E+02 -0.11505880045E+04 -0.11023404609E+04  0.15961200834E+04  0.25500000920E-02 0.  1.
       -2    1    3    3    0  502 -0.92693434046E+02  0.11505880045E+04 -0.39165234081E+03  0.12189488852E+04  0.25500000920E-02 0. -1.
</event>
<event>
 5   0  0.2139556E-05  0.2422107E+04  0.7818609E-02  0.8431273E-01
       -1   -1    0    0    0  501  0.00000000000E+00  0.00000000000E+00  0.96047844260E+03  0.96047844261E+03  0.50400001928E-02 0. -1.
        1   -1    0    0  501    0  0.00000000000E+00  0.00000000000E+00 -0.15269998010E+04  0.15269998010E+04  0.50400001928E-02 0.  1.
    10030    2    1    2    0    0  0.00000000000E+00  0.00000000000E+00 -0.56652135838E+03  0.24874782436E+04  0.24221068438E+04 0.  0.
        2    1    3    3  502    0  0.75744052007E+03  0.38270290195E+03 -0.11705657632E+04  0.14458222085E+04  0.25500000920E-02 0.  1.
       -2    1    3    3    0  502 -0.75744052007E+03 -0.38270290195E+03  0.60404440477E+03  0.10416560351E+04  0.25500000920E-02 0. -1.
</event>
<event>
 5   0  0.4664127E-05  0.2393507E+04  0.7818609E-02  0.8441938E-01
       -2   -1    0    0    0  501  0.00000000000E+00  0.00000000000E+00  0.11672698168E+04  0.11672698168E+04  0.25500000920E-02 0.  1.
        2   -1    0    0  501    0  0.00000000000E+00  0.00000000000E+00 -0.12269821644E+04  0.12269821644E+04  0.25500000920E-02 0. -1.
    10030    2    1    2    0    0  0.00000000000E+00  0.00000000000E+00 -0.59712347674E+02  0.23942519812E+04  0.23935072561E+04 0.  0.
        4    1    3    3  502    0 -0.37980895442E+03  0.19303427382E+03 -0.11485513858E+04  0.12250261105E+04  0.12699999809E+01 0. -1.
       -4    1    3    3    0  502  0.37980895442E+03 -0.19303427382E+03  0.10888390382E+04  0.11692258707E+04  0.12699999809E+01 0.  1.
</event>
<event>
 5   0  0.4664127E-05  0.2394528E+04  0.7818609E-02  0.8441555E-01
       -2   -1    0    0    0  501  0.00000000000E+00  0.00000000000E+00  0.82317405317E+03  0.82317405318E+03  0.25500000920E-02 0. -1.
        2   -1    0    0  501    0  0.00000000000E+00  0.00000000000E+00 -0.17413579285E+04  0.17413579285E+04  0.25500000920E-02 0.  1.
    10030    2    1    2    0    0  0.00000000000E+00  0.00000000000E+00 -0.91818387534E+03  0.25645319817E+04  0.23945276478E+04 0.  0.
        4    1    3    3  502    0 -0.62703710194E+03 -0.71480893427E+03  0.32009921937E+03  0.10032908167E+04  0.12699999809E+01 0. -1.
       -4    1    3    3    0  502  0.62703710194E+03  0.71480893427E+03 -0.12382830947E+04  0.15612411650E+04  0.12699999809E+01 0.  1.
</event>
<event>
 5   0  0.2090039E-05  0.2417037E+04  0.7818609E-02  0.8433153E-01
        1   -1    0    0  501    0  0.00000000000E+00  0.00000000000E+00  0.25060956500E+04  0.25060956500E+04  0.50400001928E-02 0. -1.
       -1   -1    0    0    0  501  0.00000000000E+00  0.00000000000E+00 -0.58278566597E+03  0.58278566600E+03  0.50400001928E-02 0.  1.
    10030    2    1    2    0    0  0.00000000000E+00  0.00000000000E+00  0.19233099840E+04  0.30888813160E+04  0.24170367166E+04 0.  0.
        1    1    3    3  502    0 -0.14955409188E+03 -0.26506640096E+03 -0.53300896261E+03  0.61377942094E+03  0.50400001928E-02 0.  1.
       -1    1    3    3    0  502  0.14955409188E+03  0.26506640096E+03  0.24563189466E+04  0.24751018950E+04  0.50400001928E-02 0. -1.
</event>
<event>
 5   0  0.2065692E-05  0.2410653E+04  0.7818609E-02  0.8435526E-01
       -1   -1    0    0    0  501  0.00000000000E+00  0.00000000000E+00  0.12738158995E+04  0.12738158995E+04  0.50400001928E-02 0.  1.
        1   -1    0    0  501    0  0.00000000000E+00  0.00000000000E+00 -0.11405192013E+04  0.11405192013E+04  0.50400001928E-02 0. -1.
    10030    2    1    2    0    0  0.00000000000E+00  0.00000000000E+00  0.13329669812E+03  0.24143351008E+04  0.24106526024E+04 0.  0.
        3    1    3    3  502    0 -0.91954622057E+03 -0.68708092802E+03 -0.30156259831E+03  0.11868384323E+04  0.10100000352E+00 0. -1.
       -3    1    3    3    0  502  0.91954622057E+03  0.68708092802E+03  0.43485929643E+03  0.12274966686E+04  0.10100000352E+00 0.  1.
</event>
<event>
 5   0  0.4756705E-05  0.2352132E+04  0.7818609E-02  0.8457645E-01
       -2   -1    0    0    0  501  0.00000000000E+00  0.00000000000E+00  0.86459761388E+03  0.86459761388E+03  0.25500000920E-02 0. -1.
        2   -1    0    0  501    0  0.00000000000E+00  0.00000000000E+00 -0.15997403929E+04  0.15997403929E+04  0.25500000920E-02 0.  1.
    10030    2    1    2    0    0  0.00000000000E+00  0.00000000000E+00 -0.73514277899E+03  0.24643380068E+04  0.23521324168E+04 0.  0.
        3    1    3    3  502    0  0.11230166574E+04 -0.30910461096E+03 -0.19727635697E+03  0.11813678701E+04  0.10100000352E+00 0. -1.
       -3    1    3    3    0  502 -0.11230166574E+04  0.30910461096E+03 -0.53786642202E+03  0.12829701366E+04  0.10100000352E+00 0.  1.
</event>
<event>
 5   0  0.2149920E-05  0.2392949E+04  0.7818609E-02  0.8442148E-01
        1   -1    0    0  501    0  0.00000000000E+00  0.00000000000E+00  0.16544823377E+04  0.16544823377E+04  0.50400001928E-02 0.  1.
       -1   -1    0    0    0  501  0.00000000000E+00  0.00000000000E+00 -0.86525655308E+03  0.86525655309E+03  0.50400001928E-02 0. -1.
    10030    2    1    2    0    0  0.00000000000E+00  0.00000000000E+00  0.78922578464E+03  0.25197388908E+04  0.23929493807E+04 0.  0.
        5    1    3    3  502    0 -0.14641301846E+02  0.73422634111E+03 -0.60001282747E+03  0.94833547378E+03  0.46999998093E+01 0. -1.
       -5    1    3    3    0  502  0.14641301846E+02 -0.73422634111E+03  0.13892386121E+04  0.15714034170E+04  0.46999998093E+01 0.  1.
</event>
<event>
 5   0  0.2057599E-05  0.2365880E+04  0.7818609E-02  0.8452389E-01
        1   -1    0    0  501    0  0.00000000000E+00  0.00000000000E+00  0.19561978502E+04  0.19561978502E+04  0.50400001928E-02 0. -1.
       -1   -1    0    0    0  501  0.00000000000E+00  0.00000000000E+00 -0.71534052493E+03  0.71534052495E+03  0.50400001928E-02 0.  1.
    10030    2    1    2    0    0  0.00000000000E+00  0.00000000000E+00  0.12408573253E+04  0.26715383752E+04  0.23658804679E+04 0.  0.
        4    1    3    3  502    0  0.23119762339E+03  0.61710442108E+03 -0.48887213584E+03  0.82052896699E+03  0.12699999809E+01 0.  1.
       -4    1    3    3    0  502 -0.23119762339E+03 -0.61710442108E+03  0.17297294611E+04  0.18510094082E+04  0.12699999809E+01 0. -1.
</event>
<event>
 5   0  0.4664127E-05  0.2448536E+04  0.7818609E-02  0.8421553E-01
        2   -1    0    0  501    0  0.00000000000E+00  0.00000000000E+00  0.11252906807E+04  0.11252906807E+04  0.25500000920E-02 0.  1.
       -2   -1    0    0    0  501  0.00000000000E+00  0.00000000000E+00 -0.13319516160E+04  0.13319516160E+04  0.25500000920E-02 0. -1.
    10030    2    1    2    0    0  0.00000000000E+00  0.00000000000E+00 -0.20666093532E+03  0.24572422968E+04  0.24485364941E+04 0.  0.
        4    1    3    3  502    0 -0.12118227191E+03  0.79004695148E+03  0.82731336974E+03  0.11503514042E+04  0.12699999809E+01 0.  1.
       -4    1    3    3    0  502  0.12118227191E+03 -0.79004695148E+03 -0.10339743051E+04  0.13068908925E+04  0.12699999809E+01 0. -1.
</event>
<event>
 5   0  0.4856882E-05  0.2434675E+04  0.7818609E-02  0.8426635E-01
       -2   -1    0    0    0  501  0.00000000000E+00  0.00000000000E+00  0.11111559580E+04  0.11111559580E+04  0.25500000920E-02 0.  1.
        2   -1    0    0  501    0  0.00000000000E+00  0.00000000000E+00 -0.13336654848E+04  0.13336654848E+04  0.25500000920E-02 0. -1.
    10030    2    1    2    0    0  0.00000000000E+00  0.00000000000E+00 -0.22250952681E+03  0.24448214428E+04  0.24346748033E+04 0.  0.
        1    1    3    3  502    0  0.81598188580E+03 -0.41271243190E+03 -0.91819093926E+03  0.12958520712E+04  0.50400001928E-02 0. -1.
       -1    1    3    3    0  502 -0.81598188580E+03  0.41271243190E+03  0.69568141245E+03  0.11489693717E+04  0.50400001928E-02 0.  1.
</event>
<event>
 5   0  0.2139556E-05  0.2405913E+04  0.7818609E-02  0.8437293E-01
       -1   -1    0    0    0  501  0.00000000000E+00  0.00000000000E+00  0.11430799264E+04  0.11430799264E+04  0.50400001928E-02 0. -1.
        1   -1    0    0  501    0  0.00000000000E+00  0.00000000000E+00 -0.12659699217E+04  0.12659699217E+04  0.50400001928E-02 0.  1.
    10030    2    1    2    0    0  0.00000000000E+00  0.00000000000E+00 -0.12288999528E+03  0.24090498481E+04  0.24059133858E+04 0.  0.
        2    1    3    3  502    0 -0.14125101524E+03  0.18513874155E+03  0.11202955021E+04  0.11442422012E+04  0.25500000920E-02 0. -1.
       -2    1    3    3    0  502  0.14125101524E+03 -0.18513874155E+03 -0.12431854974E+04  0.12648076470E+04  0.25500000920E-02 0.  1.
</event>
<event>
 5   0  0.4914005E-05  0.2376198E+04  0.7818609E-02  0.8448469E-01
       -2   -1    0    0    0  501  0.00000000000E+00  0.00000000000E+00  0.67469487745E+03  0.67469487745E+03  0.25500000920E-02 0. -1.
        2   -1    0    0  501    0  0.00000000000E+00  0.00000000000E+00 -0.20921736308E+04  0.20921736308E+04  0.25500000920E-02 0.  1.
    10030    2    1    2    0    0  0.00000000000E+00  0.00000000000E+00 -0.14174787534E+04  0.27668685083E+04  0.23761976614E+04 0.  0.
        2    1    3    3  502    0  0.31496729279E+03 -0.12042716753E+03 -0.20352839374E+04  0.20630287938E+04  0.25500000920E-02 0.  1.
       -2    1    3    3    0  502 -0.31496729279E+03  0.12042716753E+03  0.61780518404E+03  0.70383971446E+03  0.25500000920E-02 0. -1.
</event>
<event>
 5   0  0.4856882E-05  0.2420497E+04  0.7818609E-02  0.8431869E-01
       -2   -1    0    0    0  501  0.00000000000E+00  0.00000000000E+00  0.13278687610E+04  0.13278687610E+04  0.25500000920E-02 0.  1.
        2   -1    0    0  501    0  0.00000000000E+00  0.00000000000E+00 -0.11030469369E+04  0.11030469369E+04  0.25500000920E-02 0. -1.
    10030    2    1    2    0    0  0.00000000000E+00  0.00000000000E+00  0.22482182414E+03  0.24309156980E+04  0.24204971138E+04 0.  0.
        1    1    3    3  502    0 -0.30276828917E+03 -0.54405829786E+03  0.11546801864E+04  0.13118515165E+04  0.50400001928E-02 0.  1.
       -1    1    3    3    0  502  0.30276828917E+03  0.54405829786E+03 -0.92985836225E+03  0.11190641815E+04  0.50400001928E-02 0. -1.
</event>
<event>
 5   0  0.4756705E-05  0.2346238E+04  0.7818609E-02  0.8459910E-01
       -2   -1    0    0    0  501  0.00000000000E+00  0.00000000000E+00  0.84022022290E+03  0.84022022291E+03  0.25500000920E-02 0. -1.
        2   -1    0    0  501    0  0.00000000000E+00  0.00000000000E+00 -0.16379140536E+04  0.16379140537E+04  0.25500000920E-02 0.  1.
    10030    2    1    2    0    0  0.00000000000E+00  0.00000000000E+00 -0.79769383075E+03  0.24781342766E+04  0.23462382754E+04 0.  0.
        3    1    3    3  502    0  0.74882494084E+02  0.11673929225E+04 -0.30559508320E+03  0.12090500355E+04  0.10100000352E+00 0. -1.
       -3    1    3    3    0  502 -0.74882494084E+02 -0.11673929225E+04 -0.49209874755E+03  0.12690842410E+04  0.10100000352E+00 0.  1.
</event>
<event>
 5   0  0.4914005E-05  0.2348465E+04  0.7818609E-02  0.8459053E-01
        2   -1    0    0  501    0  0.00000000000E+00  0.00000000000E+00  0.93698113097E+03  0.93698113097E+03  0.25500000920E-02 0. -1.
       -2   -1    0    0    0  501  0.00000000000E+00  0.00000000000E+00 -0.14715578231E+04  0.14715578231E+04  0.25500000920E-02 0.  1.
    10030    2    1    2    0    0  0.00000000000E+00  0.00000000000E+00 -0.53457669214E+03  0.24085389541E+04  0.23484649568E+04 0.  0.
        2    1    3    3  502    0  0.89758632528E+03  0.66275796695E+03 -0.64258982695E+03  0.12875678700E+04  0.25500000920E-02 0.  1.
       -2    1    3    3    0  502 -0.89758632528E+03 -0.66275796695E+03  0.10801313481E+03  0.11209710841E+04  0.25500000920E-02 0. -1.
</event>
<event>
 5   0  0.2149920E-05  0.2132782E+04  0.7818609E-02  0.8546939E-01
        1   -1    0    0  501    0  0.00000000000E+00  0.00000000000E+00  0.59845210127E+03  0.59845210129E+03  0.50400001928E-02 0.  1.
       -1   -1    0    0    0  501  0.00000000000E+00  0.00000000000E+00 -0.19002182726E+04  0.19002182726E+04  0.50400001928E-02 0. -1.
    10030    2    1    2    0    0  0.00000000000E+00  0.00000000000E+00 -0.13017661713E+04  0.24986703739E+04  0.21327818624E+04 0.  0.
        5    1    3    3  502    0 -0.26030129063E+03  0.96316803630E+03 -0.10919202523E+04  0.14791082974E+04  0.46999998093E+01 0.  1.
       -5    1    3    3    0  502  0.26030129063E+03 -0.96316803630E+03 -0.20984591900E+03  0.10195620765E+04  0.46999998093E+01 0. -1.
</event>
<event>
 5   0  0.4664127E-05  0.2399268E+04  0.7818609E-02  0.8439778E-01
        2   -1    0    0  501    0  0.00000000000E+00  0.00000000000E+00  0.24577466253E+04  0.24577466253E+04  0.25500000920E-02 0. -1.
       -2   -1    0    0    0  501  0.00000000000E+00  0.00000000000E+00 -0.58554536993E+03  0.58554536993E+03  0.25500000920E-02 0.  1.
    10030    2    1    2    0    0  0.00000000000E+00  0.00000000000E+00  0.18722012553E+04  0.30432919952E+04  0.23992683526E+04 0.  0.
        4    1    3    3  502    0 -0.63617987906E+03 -0.91185940396E+03  0.36473445401E+03  0.11701475317E+04  0.12699999809E+01 0.  1.
       -4    1    3    3    0  502  0.63617987906E+03  0.91185940396E+03  0.15074668013E+04  0.18731444635E+04  0.12699999809E+01 0. -1.
</event>
<event>
 5   0  0.2065692E-05  0.2422391E+04  0.7818609E-02  0.8431168E-01
       -1   -1    0    0    0  501  0.00000000000E+00  0.00000000000E+00  0.20701526123E+04  0.20701526123E+04  0.50400001928E-02 0. -1.
        1   -1    0    0  501    0  0.00000000000E+00  0.00000000000E+00 -0.70864100342E+03  0.70864100344E+03  0.50400001928E-02 0.  1.
    10030    2    1    2    0    0  0.00000000000E+00  0.00000000000E+00  0.13615116089E+04  0.27787936157E+04  0.24223914006E+04 0.  0.
        3    1    3    3  502    0 -0.33299377938E+01  0.58899772914E+03 -0.53328618039E+03  0.79455872899E+03  0.10100000352E+00 0.  1.
       -3    1    3    3    0  502  0.33299377938E+01 -0.58899772914E+03  0.18947977893E+04  0.19842348868E+04  0.10100000352E+00 0. -1.
</event>
<event>
 5   0  0.2090039E-05  0.2391288E+04  0.7818609E-02  0.8442772E-01
       -1   -1    0    0    0  501  0.00000000000E+00  0.00000000000E+00  0.62388787231E+03  0.62388787233E+03  0.50400001928E-02 0. -1.
        1   -1    0    0  501    0  0.00000000000E+00  0.00000000000E+00 -0.22913806472E+04  0.22913806472E+04  0.50400001928E-02 0.  1.
    10030    2    1    2    0    0  0.00000000000E+00  0.00000000000E+00 -0.16674927749E+04  0.29152685195E+04  0.23912880183E+04 0.  0.
        1    1    3    3  502    0 -0.89743328561E+02  0.11698319403E+04 -0.11144195227E+04  0.16181753633E+04  0.50400001928E-02 0. -1.
       -1    1    3    3    0  502  0.89743328561E+02 -0.11698319403E+04 -0.55307325214E+03  0.12970931562E+04  0.50400001928E-02 0.  1.
</event>
<event>
 5   0  0.4756705E-05  0.2429698E+04  0.7818609E-02  0.8428468E-01
        2   -1    0    0  501    0  0.00000000000E+00  0.00000000000E+00  0.16182194336E+04  0.16182194336E+04  0.25500000920E-02 0.  1.
       -2   -1    0    0    0  501  0.00000000000E+00  0.00000000000E+00 -0.91202574558E+03  0.91202574558E+03  0.25500000920E-02 0. -1.
    10030    2    1    2    0    0  0.00000000000E+00  0.00000000000E+00  0.70619368803E+03  0.25302451792E+04  0.24296977470E+04 0.  0.
        3    1    3    3  502    0  0.51496526799E+03 -0.30010146523E+03  0.14554916243E+04  0.15728019568E+04  0.10100000352E+00 0.  1.
       -3    1    3    3    0  502 -0.51496526799E+03  0.30010146523E+03 -0.74929793626E+03  0.95744322242E+03  0.10100000352E+00 0. -1.
</event>
<event>
 5   0  0.1672125E-05  0.2499937E+04  0.7818609E-02  0.8403008E-01
        3   -1    0    0  501    0  0.00000000000E+00  0.00000000000E+00  0.21592357007E+04  0.21592357030E+04  0.10100000352E+00 0. -1.
       -3   -1    0    0    0  501  0.00000000000E+00  0.00000000000E+00 -0.72359911541E+03  0.72359912246E+03  0.10100000352E+00 0.  1.
    10030    2    1    2    0    0  0.00000000000E+00  0.00000000000E+00  0.14356365853E+04  0.28828348255E+04  0.24999368444E+04 0.  0.
        1    1    3    3  502    0  0.93998282663E+03 -0.80000319952E+03  0.49053040049E+03  0.13282292375E+04  0.50400001928E-02 0.  1.
       -1    1    3    3    0  502 -0.93998282663E+03  0.80000319952E+03  0.94510618478E+03  0.15546055880E+04  0.50400001928E-02 0. -1.
</event>
<event>
 5   0  0.2065692E-05  0.2366919E+04  0.7818609E-02  0.8451994E-01
       -1   -1    0    0    0  501  0.00000000000E+00  0.00000000000E+00  0.67675684549E+03  0.67675684550E+03  0.50400001928E-02 0.  1.
        1   -1    0    0  501    0  0.00000000000E+00  0.00000000000E+00 -0.20695410735E+04  0.20695410735E+04  0.50400001928E-02 0. -1.
    10030    2    1    2    0    0  0.00000000000E+00  0.00000000000E+00 -0.13927842280E+04  0.27462979190E+04  0.23669187468E+04 0.  0.
        3    1    3    3  502    0 -0.39557284348E+03 -0.89574473446E+03 -0.14675573664E+04  0.17642452034E+04  0.10100000352E+00 0. -1.
       -3    1    3    3    0  502  0.39557284348E+03  0.89574473446E+03  0.74773138384E+02  0.98205271561E+03  0.10100000352E+00 0.  1.
</event>
<event>
 5   0  0.2057599E-05  0.2404004E+04  0.7818609E-02  0.8438006E-01
        1   -1    0    0  501    0  0.00000000000E+00  0.00000000000E+00  0.16145443139E+04  0.16145443139E+04  0.50400001928E-02 0. -1.
       -1   -1    0    0    0  501  0.00000000000E+00  0.00000000000E+00 -0.89487120006E+03  0.89487120008E+03  0.50400001928E-02 0.  1.
    10030    2    1    2    0    0  0.00000000000E+00  0.00000000000E+00  0.71967311385E+03  0.25094155140E+04  0.24040043326E+04 0.  0.
        4    1    3    3  502    0  0.80504568097E+03  0.89241236013E+03  0.37819244012E+03  0.12599720249E+04  0.12699999809E+01 0.  1.
       -4    1    3    3    0  502 -0.80504568097E+03 -0.89241236013E+03  0.34148067373E+03  0.12494434891E+04  0.12699999809E+01 0. -1.
</event>
<event>
 5   0  0.2149920E-05  0.2310182E+04  0.7818609E-02  0.8473917E-01
        1   -1    0    0  501    0  0.00000000000E+00  0.00000000000E+00  0.20689881328E+04  0.20689881329E+04  0.50400001928E-02 0.  1.
       -1   -1    0    0    0  501  0.00000000000E+00  0.00000000000E+00 -0.64487343332E+03  0.64487343334E+03  0.50400001928E-02 0. -1.
    10030    2    1    2    0    0  0.00000000000E+00  0.00000000000E+00  0.14241146995E+04  0.27138615662E+04  0.23101822272E+04 0.  0.
        5    1    3    3  502    0 -0.40871542291E+03  0.10582706826E+04  0.96735240762E+03  0.14908983550E+04  0.46999998093E+01 0.  1.
       -5    1    3    3    0  502  0.40871542291E+03 -0.10582706826E+04  0.45676229191E+03  0.12229632112E+04  0.46999998093E+01 0. -1.
</event>
<event>
 5   0  0.2057599E-05  0.2365307E+04  0.7818609E-02  0.8452607E-01
        1   -1    0    0  501    0  0.00000000000E+00  0.00000000000E+00  0.94714363889E+03  0.94714363890E+03  0.50400001928E-02 0.  1.
       -1   -1    0    0    0  501  0.00000000000E+00  0.00000000000E+00 -0.14767239824E+04  0.14767239824E+04  0.50400001928E-02 0. -1.
    10030    2    1    2    0    0  0.00000000000E+00  0.00000000000E+00 -0.52958034354E+03  0.24238676213E+04  0.23653073596E+04 0.  0.
        4    1    3    3  502    0 -0.36923363259E+03  0.88543397339E+03  0.44395524192E+03  0.10570830934E+04  0.12699999809E+01 0.  1.
       -4    1    3    3    0  502  0.36923363259E+03 -0.88543397339E+03 -0.97353558546E+03  0.13667845279E+04  0.12699999809E+01 0. -1.
</event>
<event>
 5   0  0.4756705E-05  0.2336653E+04  0.7818609E-02  0.8463608E-01
       -2   -1    0    0    0  501  0.00000000000E+00  0.00000000000E+00  0.13770902011E+04  0.13770902011E+04  0.25500000920E-02 0.  1.
        2   -1    0    0  501    0  0.00000000000E+00  0.00000000000E+00 -0.99121076383E+03  0.99121076383E+03  0.25500000920E-02 0. -1.
    10030    2    1    2    0    0  0.00000000000E+00  0.00000000000E+00  0.38587943725E+03  0.23683009649E+04  0.23366528455E+04 0.  0.
        3    1    3    3  502    0  0.23796508277E+03 -0.61609773748E+02  0.13505844645E+04  0.13727714853E+04  0.10100000352E+00 0.  1.
       -3    1    3    3    0  502 -0.23796508277E+03  0.61609773748E+02 -0.96470502730E+03  0.99552947959E+03  0.10100000352E+00 0. -1.
</event>
<event>
 5   0  0.2090039E-05  0.2454936E+04  0.7818609E-02  0.8419218E-01
       -1   -1    0    0    0  501  0.00000000000E+00  0.00000000000E+00  0.72541399367E+03  0.72541399369E+03  0.50400001928E-02 0.  1.
        1   -1    0    0  501    0  0.00000000000E+00  0.00000000000E+00 -0.20769897045E+04  0.20769897045E+04  0.50400001928E-02 0. -1.
    10030    2    1    2    0    0  0.00000000000E+00  0.00000000000E+00 -0.13515757109E+04  0.28024036982E+04  0.24549357600E+04 0.  0.
        1    1    3    3  502    0 -0.18838612767E+03  0.26796439334E+03 -0.20261768349E+04  0.20524830853E+04  0.50400001928E-02 0. -1.
       -1    1    3    3    0  502  0.18838612767E+03 -0.26796439334E+03  0.67460112400E+03  0.74992061295E+03  0.50400001928E-02 0.  1.
</event>
<event>
 5   0  0.4756705E-05  0.2406854E+04  0.7818609E-02  0.8436942E-01
       -2   -1    0    0    0  501  0.00000000000E+00  0.00000000000E+00  0.16436553773E+04  0.16436553773E+04  0.25500000920E-02 0.  1.
        2   -1    0    0  501    0  0.00000000000E+00  0.00000000000E+00 -0.88110698141E+03  0.88110698142E+03  0.25500000920E-02 0. -1.
    10030    2    1    2    0    0  0.00000000000E+00  0.00000000000E+00  0.76254839588E+03  0.25247623587E+04  0.24068537371E+04 0.  0.
        3    1    3    3  502    0 -0.14072192605E+03 -0.27034881672E+03  0.16024993726E+04  0.16312251202E+04  0.10100000352E+00 0.  1.
       -3    1    3    3    0  502  0.14072192605E+03  0.27034881672E+03 -0.83995097674E+03  0.89353723856E+03  0.10100000352E+00 0. -1.
</event>
<event>
 5   0  0.4664127E-05  0.2405970E+04  0.7818609E-02  0.8437272E-01
       -2   -1    0    0    0  501  0.00000000000E+00  0.00000000000E+00  0.11939731558E+04  0.11939731558E+04  0.25500000920E-02 0. -1.
        2   -1    0    0  501    0  0.00000000000E+00  0.00000000000E+00 -0.12120653664E+04  0.12120653664E+04  0.25500000920E-02 0.  1.
    10030    2    1    2    0    0  0.00000000000E+00  0.00000000000E+00 -0.18092210618E+02  0.24060385222E+04  0.24059704990E+04 0.  0.
        4    1    3    3  502    0  0.65140498609E+03  0.81845760906E+03  0.58508396718E+03  0.11985516990E+04  0.12699999809E+01 0. -1.
       -4    1    3    3    0  502 -0.65140498609E+03 -0.81845760906E+03 -0.60317617780E+03  0.12074868232E+04  0.12699999809E+01 0.  1.
</event>
<event>
 5   0  0.2057599E-05  0.2393416E+04  0.7818609E-02  0.8441973E-01
        1   -1    0    0  501    0  0.00000000000E+00  0.00000000000E+00  0.13067305684E+04  0.13067305685E+04  0.50400001928E-02 0.  1.
       -1   -1    0    0    0  501  0.00000000000E+00  0.00000000000E+00 -0.10959489743E+04  0.10959489743E+04  0.50400001928E-02 0. -1.
    10030    2    1    2    0    0  0.00000000000E+00  0.00000000000E+00  0.21078159417E+03  0.24026795427E+04  0.23934159907E+04 0.  0.
        4    1    3    3  502    0 -0.92054585498E+03  0.54926474237E+03  0.63943853032E+03  0.12481905605E+04  0.12699999809E+01 0.  1.
       -4    1    3    3    0  502  0.92054585498E+03 -0.54926474237E+03 -0.42865693614E+03  0.11544889823E+04  0.12699999809E+01 0. -1.
</event>
<event>
 5   0  0.2090039E-05  0.2406404E+04  0.7818609E-02  0.8437110E-01
        1   -1    0    0  501    0  0.00000000000E+00  0.00000000000E+00  0.12234908328E+04  0.12234908328E+04  0.50400001928E-02 0.  1.
       -1   -1    0    0    0  501  0.00000000000E+00  0.00000000000E+00 -0.11832494001E+04  0.11832494001E+04  0.50400001928E-02 0. -1.
    10030    2    1    2    0    0  0.00000000000E+00  0.00000000000E+00  0.40241432717E+02  0.24067402329E+04  0.24064037848E+04 0.  0.
        1    1    3    3  502    0  0.58092468511E+03 -0.37342103691E+03 -0.96529772689E+03  0.11868936187E+04  0.50400001928E-02 0. -1.
       -1    1    3    3    0  502 -0.58092468511E+03  0.37342103691E+03  0.10055391596E+04  0.12198466142E+04  0.50400001928E-02 0.  1.
</event>
<event>
 5   0  0.4914005E-05  0.2385828E+04  0.7818609E-02  0.8444828E-01
        2   -1    0    0  501    0  0.00000000000E+00  0.00000000000E+00  0.70925118720E+03  0.70925118720E+03  0.25500000920E-02 0. -1.
       -2   -1    0    0    0  501  0.00000000000E+00  0.00000000000E+00 -0.20064036629E+04  0.20064036629E+04  0.25500000920E-02 0.  1.
    10030    2    1    2    0    0  0.00000000000E+00  0.00000000000E+00 -0.12971524757E+04  0.27156548501E+04  0.23858283089E+04 0.  0.
        2    1    3    3  502    0  0.91538759766E+03 -0.62398827001E+03 -0.14497770528E+03  0.11172798889E+04  0.25500000920E-02 0. -1.
       -2    1    3    3    0  502 -0.91538759766E+03  0.62398827001E+03 -0.11521747704E+04  0.15983749612E+04  0.25500000920E-02 0.  1.
</event>
<event>
 5   0  0.4756705E-05  0.2466798E+04  0.7818609E-02  0.8414910E-01
        2   -1    0    0  501    0  0.00000000000E+00  0.00000000000E+00  0.15438020513E+04  0.15438020513E+04  0.25500000920E-02 0. -1.
       -2   -1    0    0    0  501  0.00000000000E+00  0.00000000000E+00 -0.98540664964E+03  0.98540664964E+03  0.25500000920E-02 0.  1.
    10030    2    1    2    0    0  0.00000000000E+00  0.00000000000E+00  0.55839540164E+03  0.25292087009E+04  0.24667977680E+04 0.  0.
        3    1    3    3  502    0 -0.94185970596E+03  0.40473777462E+03  0.98237769674E+03  0.14198515138E+04  0.10100000352E+00 0. -1.
       -3    1    3    3    0  502  0.94185970596E+03 -0.40473777462E+03 -0.42398229510E+03  0.11093571871E+04  0.10100000352E+00 0.  1.
</event>
<event>
 5   0  0.2057599E-05  0.2426272E+04  0.7818609E-02  0.8429733E-01
        1   -1    0    0  501    0  0.00000000000E+00  0.00000000000E+00  0.18377952465E+04  0.18377952465E+04  0.50400001928E-02 0.  1.
       -1   -1    0    0    0  501  0.00000000000E+00  0.00000000000E+00 -0.80079597573E+03  0.80079597575E+03  0.50400001928E-02 0. -1.
    10030    2    1    2    0    0  0.00000000000E+00  0.00000000000E+00  0.10369992707E+04  0.26385912222E+04  0.24262720685E+04 0.  0.
        4    1    3    3  502    0  0.21749607897E+03  0.88793493323E+03 -0.34875979167E+03  0.97845183592E+03  0.12699999809E+01 0. -1.
       -4    1    3    3    0  502 -0.21749607897E+03 -0.88793493323E+03  0.13857590624E+04  0.16601393863E+04  0.12699999809E+01 0.  1.
</event>
<event>
 5   0  0.2139556E-05  0.2362955E+04  0.7818609E-02  0.8453504E-01
       -1   -1    0    0    0  501  0.00000000000E+00  0.00000000000E+00  0.73768321512E+03  0.73768321514E+03  0.50400001928E-02 0. -1.
        1   -1    0    0  501    0  0.00000000000E+00  0.00000000000E+00 -0.18922613816E+04  0.18922613816E+04  0.50400001928E-02 0.  1.
    10030    2    1    2    0    0  0.00000000000E+00  0.00000000000E+00 -0.11545781665E+04  0.26299445967E+04  0.23629553190E+04 0.  0.
        2    1    3    3  502    0 -0.17377595375E+03  0.11208020494E+04 -0.20900195894E+03  0.11532897012E+04  0.25500000920E-02 0. -1.
       -2    1    3    3    0  502  0.17377595375E+03 -0.11208020494E+04 -0.94557620754E+03  0.14766548955E+04  0.25500000920E-02 0.  1.
</event>
<event>
 5   0  0.2090039E-05  0.2416009E+04  0.7818609E-02  0.8433534E-01
       -1   -1    0    0    0  501  0.00000000000E+00  0.00000000000E+00  0.76107249444E+03  0.76107249446E+03  0.50400001928E-02 0. -1.
        1   -1    0    0  501    0  0.00000000000E+00  0.00000000000E+00 -0.19173922591E+04  0.19173922591E+04  0.50400001928E-02 0.  1.
    10030    2    1    2    0    0  0.00000000000E+00  0.00000000000E+00 -0.11563197647E+04  0.26784647536E+04  0.24160086999E+04 0.  0.
        1    1    3    3  502    0  0.11161327023E+04  0.78248931665E+02 -0.10830434022E+04  0.15571955933E+04  0.50400001928E-02 0.  1.
       -1    1    3    3    0  502 -0.11161327023E+04 -0.78248931665E+02 -0.73276362453E+02  0.11212691603E+04  0.50400001928E-02 0. -1.
</event>
<event>
 5   0  0.4914005E-05  0.1904769E+04  0.7818609E-02  0.8652486E-01
        2   -1    0    0  501    0  0.00000000000E+00  0.00000000000E+00  0.99146235403E+03  0.99146235403E+03  0.25500000920E-02 0.  1.
       -2   -1    0    0    0  501  0.00000000000E+00  0.00000000000E+00 -0.91484726264E+03  0.91484726264E+03  0.25500000920E-02 0. -1.
    10030    2    1    2    0    0  0.00000000000E+00  0.00000000000E+00  0.76615091389E+02  0.19063096167E+04  0.19047694040E+04 0.  0.
        2    1    3    3  502    0  0.50333222740E+03  0.54677817627E+03  0.63437869725E+03  0.97711106673E+03  0.25500000920E-02 0.  1.
       -2    1    3    3    0  502 -0.50333222740E+03 -0.54677817627E+03 -0.55776360586E+03  0.92919854994E+03  0.25500000920E-02 0. -1.
</event>
<event>
 5   0  0.2149920E-05  0.2396904E+04  0.7818609E-02  0.8440664E-01
       -1   -1    0    0    0  501  0.00000000000E+00  0.00000000000E+00  0.10071768709E+04  0.10071768709E+04  0.50400001928E-02 0. -1.
        1   -1    0    0  501    0  0.00000000000E+00  0.00000000000E+00 -0.14260526616E+04  0.14260526616E+04  0.50400001928E-02 0.  1.
    10030    2    1    2    0    0  0.00000000000E+00  0.00000000000E+00 -0.41887579064E+03  0.24332295325E+04  0.23969040511E+04 0.  0.
        5    1    3    3  502    0  0.14395007684E+03  0.81088665998E+03  0.67439234410E+03  0.10644650881E+04  0.46999998093E+01 0. -1.
       -5    1    3    3    0  502 -0.14395007684E+03 -0.81088665998E+03 -0.10932681347E+04  0.13687644444E+04  0.46999998093E+01 0.  1.
</event>
<event>
 5   0  0.2065692E-05  0.2400909E+04  0.7818609E-02  0.8439163E-01
        1   -1    0    0  501    0  0.00000000000E+00  0.00000000000E+00  0.16315437201E+04  0.16315437201E+04  0.50400001928E-02 0.  1.
       -1   -1    0    0    0  501  0.00000000000E+00  0.00000000000E+00 -0.88326861276E+03  0.88326861277E+03  0.50400001928E-02 0. -1.
    10030    2    1    2    0    0  0.00000000000E+00  0.00000000000E+00  0.74827510735E+03  0.25148123329E+04  0.24009092930E+04 0.  0.
        3    1    3    3  502    0 -0.60440166921E+03 -0.59978158100E+03 -0.51220605558E+03  0.99367719920E+03  0.10100000352E+00 0. -1.
       -3    1    3    3    0  502  0.60440166921E+03  0.59978158100E+03  0.12604811629E+04  0.15211351337E+04  0.10100000352E+00 0.  1.
</event>
<event>
 5   0  0.4756705E-05  0.2503860E+04  0.7818609E-02  0.8401612E-01
       -2   -1    0    0    0  501  0.00000000000E+00  0.00000000000E+00  0.12137994853E+04  0.12137994853E+04  0.25500000920E-02 0.  1.
        2   -1    0    0  501    0  0.00000000000E+00  0.00000000000E+00 -0.12912588343E+04  0.12912588343E+04  0.25500000920E-02 0. -1.
    10030    2    1    2    0    0  0.00000000000E+00  0.00000000000E+00 -0.77459349022E+02  0.25050583196E+04  0.25038604661E+04 0.  0.
        3    1    3    3  502    0 -0.91597837416E+03 -0.80873654646E+03  0.23390411339E+03  0.12440990025E+04  0.10100000352E+00 0.  1.
       -3    1    3    3    0  502  0.91597837416E+03  0.80873654646E+03 -0.31136346241E+03  0.12609593171E+04  0.10100000352E+00 0. -1.
</event>
<event>
 5   0  0.4756705E-05  0.2322042E+04  0.7818609E-02  0.8469281E-01
       -2   -1    0    0    0  501  0.00000000000E+00  0.00000000000E+00  0.13613455458E+04  0.13613455458E+04  0.25500000920E-02 0. -1.
        2   -1    0    0  501    0  0.00000000000E+00  0.00000000000E+00 -0.99017452712E+03  0.99017452712E+03  0.25500000920E-02 0.  1.
    10030    2    1    2    0    0  0.00000000000E+00  0.00000000000E+00  0.37117101867E+03  0.23515200729E+04  0.23220419308E+04 0.  0.
        3    1    3    3  502    0  0.78946080085E+03 -0.38728398529E+03 -0.58214974596E+03  0.10545783889E+04  0.10100000352E+00 0.  1.
       -3    1    3    3    0  502 -0.78946080085E+03  0.38728398529E+03  0.95332076464E+03  0.12969416840E+04  0.10100000352E+00 0. -1.
</event>
<event>
 5   0  0.2090039E-05  0.2511647E+04  0.7818609E-02  0.8398848E-01
       -1   -1    0    0    0  501  0.00000000000E+00  0.00000000000E+00  0.70837969991E+03  0.70837969993E+03  0.50400001928E-02 0. -1.
        1   -1    0    0  501    0  0.00000000000E+00  0.00000000000E+00 -0.22263384616E+04  0.22263384616E+04  0.50400001928E-02 0.  1.
    10030    2    1    2    0    0  0.00000000000E+00  0.00000000000E+00 -0.15179587617E+04  0.29347181615E+04  0.25116472454E+04 0.  0.
        1    1    3    3  502    0 -0.71720073985E+03 -0.68469766589E+03 -0.16594432907E+04  0.19331166106E+04  0.50400001928E-02 0.  1.
       -1    1    3    3    0  502  0.71720073985E+03  0.68469766589E+03  0.14148452904E+03  0.10016015510E+04  0.50400001928E-02 0. -1.
</event>
<event>
 5   0  0.4856882E-05  0.2399092E+04  0.7818609E-02  0.8439843E-01
        2   -1    0    0  501    0  0.00000000000E+00  0.00000000000E+00  0.80668376393E+03  0.80668376393E+03  0.25500000920E-02 0. -1.
       -2   -1    0    0    0  501  0.00000000000E+00  0.00000000000E+00 -0.17837361062E+04  0.17837361062E+04  0.25500000920E-02 0.  1.
    10030    2    1    2    0    0  0.00000000000E+00  0.00000000000E+00 -0.97705234229E+03  0.25904198702E+04  0.23990922917E+04 0.  0.
        1    1    3    3  502    0 -0.27067512748E+03  0.63118803820E+03 -0.15504467473E+04  0.16957442262E+04  0.50400001928E-02 0.  1.
       -1    1    3    3    0  502  0.27067512748E+03 -0.63118803820E+03  0.57339440504E+03  0.89467564400E+03  0.50400001928E-02 0. -1.
</event>
<event>
 5   0  0.2139556E-05  0.2395293E+04  0.7818609E-02  0.8441268E-01
        1   -1    0    0  501    0  0.00000000000E+00  0.00000000000E+00  0.15410547054E+04  0.15410547055E+04  0.50400001928E-02 0.  1.
       -1   -1    0    0    0  501  0.00000000000E+00  0.00000000000E+00 -0.93076361845E+03  0.93076361847E+03  0.50400001928E-02 0. -1.
    10030    2    1    2    0    0  0.00000000000E+00  0.00000000000E+00  0.61029108700E+03  0.24718183239E+04  0.23952934300E+04 0.  0.
        2    1    3    3  502    0  0.80810813462E+03  0.23201668778E+03  0.11853235013E+04  0.14532247945E+04  0.25500000920E-02 0.  1.
       -2    1    3    3    0  502 -0.80810813462E+03 -0.23201668778E+03 -0.57503241431E+03  0.10185935294E+04  0.25500000920E-02 0. -1.
</event>
<event>
 5   0  0.2090039E-05  0.2345827E+04  0.7818609E-02  0.8460068E-01
        1   -1    0    0  501    0  0.00000000000E+00  0.00000000000E+00  0.16075418802E+04  0.16075418802E+04  0.50400001928E-02 0.  1.
       -1   -1    0    0    0  501  0.00000000000E+00  0.00000000000E+00 -0.85579519727E+03  0.85579519729E+03  0.50400001928E-02 0. -1.
    10030    2    1    2    0    0  0.00000000000E+00  0.00000000000E+00  0.75174668288E+03  0.24633370774E+04  0.23458274621E+04 0.  0.
        1    1    3    3  502    0 -0.20297181489E+03  0.49288658548E+03  0.14730029235E+04  0.15664840747E+04  0.50400001928E-02 0.  1.
       -1    1    3    3    0  502  0.20297181489E+03 -0.49288658548E+03 -0.72125624062E+03  0.89685300270E+03  0.50400001928E-02 0. -1.
</event>
<event>
 5   0  0.4713971E-05  0.2443779E+04  0.7818609E-02  0.8423293E-01
        2   -1    0    0  501    0  0.00000000000E+00  0.00000000000E+00  0.94953752960E+03  0.94953752960E+03  0.25500000920E-02 0.  1.
       -2   -1    0    0    0  501  0.00000000000E+00  0.00000000000E+00 -0.15723586979E+04  0.15723586979E+04  0.25500000920E-02 0. -1.
    10030    2    1    2    0    0  0.00000000000E+00  0.00000000000E+00 -0.62282116832E+03  0.25218962275E+04  0.24437787082E+04 0.  0.
        5    1    3    3  502    0  0.58736456483E+03 -0.50075518696E+02 -0.14158970094E+04  0.15337180709E+04  0.46999998093E+01 0. -1.
       -5    1    3    3    0  502 -0.58736456483E+03  0.50075518696E+02  0.79307584110E+03  0.98817815667E+03  0.46999998093E+01 0.  1.
</event>
<event>
 5   0  0.4856882E-05  0.2441472E+04  0.7818609E-02  0.8424138E-01
        2   -1    0    0  501    0  0.00000000000E+00  0.00000000000E+00  0.10706975788E+04  0.10706975788E+04  0.25500000920E-02 0. -1.
       -2   -1    0    0    0  501  0.00000000000E+00  0.00000000000E+00 -0.13918000350E+04  0.13918000350E+04  0.25500000920E-02 0.  1.
    10030    2    1    2    0    0  0.00000000000E+00  0.00000000000E+00 -0.32110245626E+03  0.24624976138E+04  0.24414724472E+04 0.  0.
        1    1    3    3  502    0 -0.10587535826E+04 -0.27921069631E+03  0.38379936696E+03  0.11602670881E+04  0.50400001928E-02 0. -1.
       -1    1    3    3    0  502  0.10587535826E+04  0.27921069631E+03 -0.70490182322E+03  0.13022305257E+04  0.50400001928E-02 0.  1.
</event>
<event>
 5   0  0.2139556E-05  0.2366075E+04  0.7818609E-02  0.8452315E-01
       -1   -1    0    0    0  501  0.00000000000E+00  0.00000000000E+00  0.70401947537E+03  0.70401947539E+03  0.50400001928E-02 0. -1.
        1   -1    0    0  501    0  0.00000000000E+00  0.00000000000E+00 -0.19879820048E+04  0.19879820048E+04  0.50400001928E-02 0.  1.
    10030    2    1    2    0    0  0.00000000000E+00  0.00000000000E+00 -0.12839625294E+04  0.26920014802E+04  0.23660752719E+04 0.  0.
        2    1    3    3  502    0 -0.18302411620E+03  0.36419759833E+03 -0.19055701873E+04  0.19486753081E+04  0.25500000920E-02 0.  1.
       -2    1    3    3    0  502  0.18302411620E+03 -0.36419759833E+03  0.62160765788E+03  0.74332617207E+03  0.25500000920E-02 0. -1.
</event>
<event>
 5   0  0.2139556E-05  0.2340906E+04  0.7818609E-02  0.8461965E-01
       -1   -1    0    0    0  501  0.00000000000E+00  0.00000000000E+00  0.83135968805E+03  0.83135968807E+03  0.50400001928E-02 0. -1.
        1   -1    0    0  501    0  0.00000000000E+00  0.00000000000E+00 -0.16478553723E+04  0.16478553723E+04  0.50400001928E-02 0.  1.
    10030    2    1    2    0    0  0.00000000000E+00  0.00000000000E+00 -0.81649568423E+03  0.24792150604E+04  0.23409062589E+04 0.  0.
        2    1    3    3  502    0 -0.80125623942E+03 -0.46579474359E+03  0.34881847554E+03  0.99027805855E+03  0.25500000920E-02 0. -1.
       -2    1    3    3    0  502  0.80125623942E+03  0.46579474359E+03 -0.11653141598E+04  0.14889370018E+04  0.25500000920E-02 0.  1.
</event>
<event>
 5   0  0.4914005E-05  0.2348398E+04  0.7818609E-02  0.8459079E-01
       -2   -1    0    0    0  501  0.00000000000E+00  0.00000000000E+00  0.13864480583E+04  0.13864480583E+04  0.25500000920E-02 0. -1.
        2   -1    0    0  501    0  0.00000000000E+00  0.00000000000E+00 -0.99444284917E+03  0.99444284917E+03  0.25500000920E-02 0.  1.
    10030    2    1    2    0    0  0.00000000000E+00  0.00000000000E+00  0.39200520910E+03  0.23808909074E+04  0.23483980560E+04 0.  0.
        2    1    3    3  502    0  0.77810135850E+03  0.87429922367E+03  0.10034405486E+03  0.11746956142E+04  0.25500000920E-02 0. -1.
       -2    1    3    3    0  502 -0.77810135850E+03 -0.87429922367E+03  0.29166115424E+03  0.12061952933E+04  0.25500000920E-02 0.  1.
</event>
<event>
 5   0  0.2065692E-05  0.2392537E+04  0.7818609E-02  0.8442303E-01
        1   -1    0    0  501    0  0.00000000000E+00  0.00000000000E+00  0.23104752173E+04  0.23104752173E+04  0.50400001928E-02 0. -1.
       -1   -1    0    0    0  501  0.00000000000E+00  0.00000000000E+00 -0.61937829186E+03  0.61937829188E+03  0.50400001928E-02 0.  1.
    10030    2    1    2    0    0  0.00000000000E+00  0.00000000000E+00  0.16910969254E+04  0.29298535092E+04  0.23925368908E+04 0.  0.
        3    1    3    3  502    0 -0.71777262427E+03  0.81314566649E+01  0.20174369408E+04  0.21413349764E+04  0.10100000352E+00 0. -1.
       -3    1    3    3    0  502  0.71777262427E+03 -0.81314566649E+01 -0.32634001536E+03  0.78851853280E+03  0.10100000352E+00 0.  1.
</event>
<event>
 5   0  0.4713971E-05  0.2423433E+04  0.7818609E-02  0.8430782E-01
       -2   -1    0    0    0  501  0.00000000000E+00  0.00000000000E+00  0.79324252819E+03  0.79324252819E+03  0.25500000920E-02 0. -1.
        2   -1    0    0  501    0  0.00000000000E+00  0.00000000000E+00 -0.18509556674E+04  0.18509556674E+04  0.25500000920E-02 0.  1.
    10030    2    1    2    0    0  0.00000000000E+00  0.00000000000E+00 -0.10577131392E+04  0.26441981956E+04  0.24234328983E+04 0.  0.
        5    1    3    3  502    0  0.39194111272E+03 -0.27367176991E+03  0.68599973667E+03  0.83614101813E+03  0.46999998093E+01 0. -1.
       -5    1    3    3    0  502 -0.39194111272E+03  0.27367176991E+03 -0.17437128759E+04  0.18080571775E+04  0.46999998093E+01 0.  1.
</event>
<event>
 5   0  0.2065692E-05  0.2347604E+04  0.7818609E-02  0.8459385E-01
       -1   -1    0    0    0  501  0.00000000000E+00  0.00000000000E+00  0.72476007731E+03  0.72476007733E+03  0.50400001928E-02 0.  1.
        1   -1    0    0  501    0  0.00000000000E+00  0.00000000000E+00 -0.19010580795E+04  0.19010580795E+04  0.50400001928E-02 0. -1.
    10030    2    1    2    0    0  0.00000000000E+00  0.00000000000E+00 -0.11762980022E+04  0.26258181569E+04  0.23476038854E+04 0.  0.
        3    1    3    3  502    0  0.77629920125E+02 -0.13274540345E+03  0.71344440018E+03  0.72982920535E+03  0.10100000352E+00 0.  1.
       -3    1    3    3    0  502 -0.77629920125E+02  0.13274540345E+03 -0.18897424024E+04  0.18959889515E+04  0.10100000352E+00 0. -1.
</event>
<event>
 5   0  0.4914005E-05  0.2410285E+04  0.7818609E-02  0.8435663E-01
        2   -1    0    0  501    0  0.00000000000E+00  0.00000000000E+00  0.16249742176E+04  0.16249742176E+04  0.25500000920E-02 0. -1.
       -2   -1    0    0    0  501  0.00000000000E+00  0.00000000000E+00 -0.89377961171E+03  0.89377961171E+03  0.25500000920E-02 0.  1.
    10030    2    1    2    0    0  0.00000000000E+00  0.00000000000E+00  0.73119460591E+03  0.25187538293E+04  0.24102853153E+04 0.  0.
        2    1    3    3  502    0  0.80286669134E+03  0.96616124150E+02 -0.56816900852E+03  0.98830441755E+03  0.25500000920E-02 0.  1.
       -2    1    3    3    0  502 -0.80286669134E+03 -0.96616124150E+02  0.12993636144E+04  0.15304494118E+04  0.25500000920E-02 0. -1.
</event>
<event>
 5   0  0.4914005E-05  0.2378873E+04  0.7818609E-02  0.8447456E-01
        2   -1    0    0  501    0  0.00000000000E+00  0.00000000000E+00  0.94190921268E+03  0.94190921268E+03  0.25500000920E-02 0. -1.
       -2   -1    0    0    0  501  0.00000000000E+00  0.00000000000E+00 -0.15020116935E+04  0.15020116935E+04  0.25500000920E-02 0.  1.
    10030    2    1    2    0    0  0.00000000000E+00  0.00000000000E+00 -0.56010248079E+03  0.24439209062E+04  0.23788725495E+04 0.  0.
        2    1    3    3  502    0 -0.34098941304E+03  0.10027708170E+04 -0.83608609946E+03  0.13493935886E+04  0.25500000920E-02 0.  1.
       -2    1    3    3    0  502  0.34098941304E+03 -0.10027708170E+04  0.27598361866E+03  0.10945273176E+04  0.25500000920E-02 0. -1.
</event>
<event>
 5   0  0.2090039E-05  0.2418621E+04  0.7818609E-02  0.8432565E-01
       -1   -1    0    0    0  501  0.00000000000E+00  0.00000000000E+00  0.13348053719E+04  0.13348053719E+04  0.50400001928E-02 0. -1.
        1   -1    0    0  501    0  0.00000000000E+00  0.00000000000E+00 -0.10956140884E+04  0.10956140884E+04  0.50400001928E-02 0.  1.
    10030    2    1    2    0    0  0.00000000000E+00  0.00000000000E+00  0.23919128354E+03  0.24304194603E+04  0.24186207398E+04 0.  0.
        1    1    3    3  502    0  0.75749431468E+02 -0.10439088849E+04 -0.48912163151E+03  0.11553024309E+04  0.50400001928E-02 0.  1.
       -1    1    3    3    0  502 -0.75749431468E+02  0.10439088849E+04  0.72831291505E+03  0.12751170294E+04  0.50400001928E-02 0. -1.
</event>
<event>
 5   0  0.4756705E-05  0.2459808E+04  0.7818609E-02  0.8417446E-01
       -2   -1    0    0    0  501  0.00000000000E+00  0.00000000000E+00  0.17276699790E+04  0.17276699790E+04  0.25500000920E-02 0. -1.
        2   -1    0    0  501    0  0.00000000000E+00  0.00000000000E+00 -0.87555150994E+03  0.87555150994E+03  0.25500000920E-02 0.  1.
    10030    2    1    2    0    0  0.00000000000E+00  0.00000000000E+00  0.85211846903E+03  0.26032214889E+04  0.24598081704E+04 0.  0.
        3    1    3    3  502    0  0.42772017167E+03  0.69141226596E+03  0.14027232665E+04  0.16213044252E+04  0.10100000352E+00 0. -1.
       -3    1    3    3    0  502 -0.42772017167E+03 -0.69141226596E+03 -0.55060479745E+03  0.98191706368E+03  0.10100000352E+00 0.  1.
</event>
<event>
 5   0  0.4914005E-05  0.2368270E+04  0.7818609E-02  0.8451479E-01
       -2   -1    0    0    0  501  0.00000000000E+00  0.00000000000E+00  0.73066449169E+03  0.73066449169E+03  0.25500000920E-02 0.  1.
        2   -1    0    0  501    0  0.00000000000E+00  0.00000000000E+00 -0.19190421158E+04  0.19190421158E+04  0.25500000920E-02 0. -1.
    10030    2    1    2    0    0  0.00000000000E+00  0.00000000000E+00 -0.11883776242E+04  0.26497066075E+04  0.23682701975E+04 0.  0.
        2    1    3    3  502    0  0.62973309509E+02  0.76176213286E+03  0.41768015112E+03  0.87103610339E+03  0.25500000920E-02 0.  1.
       -2    1    3    3    0  502 -0.62973309509E+02 -0.76176213286E+03 -0.16060577753E+04  0.17786705041E+04  0.25500000920E-02 0. -1.
</event>
<event>
 5   0  0.2065692E-05  0.2199494E+04  0.7818609E-02  0.8518639E-01
       -1   -1    0    0    0  501  0.00000000000E+00  0.00000000000E+00  0.47469238456E+03  0.47469238459E+03  0.50400001928E-02 0. -1.
        1   -1    0    0  501    0  0.00000000000E+00  0.00000000000E+00 -0.25478456912E+04  0.25478456912E+04  0.50400001928E-02 0.  1.
    10030    2    1    2    0    0  0.00000000000E+00  0.00000000000E+00 -0.20731533067E+04  0.30225380758E+04  0.21994935296E+04 0.  0.
        3    1    3    3  502    0  0.55380002086E+03  0.25419885543E+03  0.22149434673E+03  0.64836045302E+03  0.10100000352E+00 0. -1.
       -3    1    3    3    0  502 -0.55380002086E+03 -0.25419885543E+03 -0.22946476534E+04  0.23741776228E+04  0.10100000352E+00 0.  1.
</event>
<event>
 5   0  0.2065692E-05  0.2459042E+04  0.7818609E-02  0.8417724E-01
       -1   -1    0    0    0  501  0.00000000000E+00  0.00000000000E+00  0.19664396249E+04  0.19664396249E+04  0.50400001928E-02 0.  1.
        1   -1    0    0  501    0  0.00000000000E+00  0.00000000000E+00 -0.76876113973E+03  0.76876113974E+03  0.50400001928E-02 0. -1.
    10030    2    1    2    0    0  0.00000000000E+00  0.00000000000E+00  0.11976784852E+04  0.27352007647E+04  0.24590423886E+04 0.  0.
        3    1    3    3  502    0  0.79207050018E+03 -0.91807138907E+03  0.82540971403E+03  0.14668101305E+04  0.10100000352E+00 0.  1.
       -3    1    3    3    0  502 -0.79207050018E+03  0.91807138907E+03  0.37226877115E+03  0.12683906342E+04  0.10100000352E+00 0. -1.
</event>
<event>
 5   0  0.2057599E-05  0.2288526E+04  0.7818609E-02  0.8482459E-01
        1   -1    0    0  501    0  0.00000000000E+00  0.00000000000E+00  0.91164418766E+03  0.91164418768E+03  0.50400001928E-02 0.  1.
       -1   -1    0    0    0  501  0.00000000000E+00  0.00000000000E+00 -0.14362383378E+04  0.14362383378E+04  0.50400001928E-02 0. -1.
    10030    2    1    2    0    0  0.00000000000E+00  0.00000000000E+00 -0.52459415010E+03  0.23478825255E+04  0.22885264541E+04 0.  0.
        4    1    3    3  502    0 -0.32522441475E+03  0.93715693681E+02  0.85911434500E+03  0.92338108161E+03  0.12699999809E+01 0.  1.
       -4    1    3    3    0  502  0.32522441475E+03 -0.93715693681E+02 -0.13837084951E+04  0.14245014438E+04  0.12699999809E+01 0. -1.
</event>
<event>
 5   0  0.4756705E-05  0.2358026E+04  0.7818609E-02  0.8455387E-01
        2   -1    0    0  501    0  0.00000000000E+00  0.00000000000E+00  0.23935367189E+04  0.23935367189E+04  0.25500000920E-02 0.  1.
       -2   -1    0    0    0  501  0.00000000000E+00  0.00000000000E+00 -0.58076062575E+03  0.58076062576E+03  0.25500000920E-02 0. -1.
    10030    2    1    2    0    0  0.00000000000E+00  0.00000000000E+00  0.18127760931E+04  0.29742973446E+04  0.23580261938E+04 0.  0.
        3    1    3    3  502    0 -0.10058632865E+04  0.34079460960E+03  0.15522314355E+04  0.18807775936E+04  0.10100000352E+00 0.  1.
       -3    1    3    3    0  502  0.10058632865E+04 -0.34079460960E+03  0.26054465765E+03  0.10935197510E+04  0.10100000352E+00 0. -1.
</event>
<event>
 5   0  0.4914005E-05  0.2449155E+04  0.7818609E-02  0.8421327E-01
        2   -1    0    0  501    0  0.00000000000E+00  0.00000000000E+00  0.10821805923E+04  0.10821805923E+04  0.25500000920E-02 0. -1.
       -2   -1    0    0    0  501  0.00000000000E+00  0.00000000000E+00 -0.13857113494E+04  0.13857113494E+04  0.25500000920E-02 0.  1.
    10030    2    1    2    0    0  0.00000000000E+00  0.00000000000E+00 -0.30353075709E+03  0.24678919417E+04  0.24491548982E+04 0.  0.
        2    1    3    3  502    0 -0.87012758546E+03  0.20563878479E+03  0.69140419196E+03  0.11302429303E+04  0.25500000920E-02 0. -1.
       -2    1    3    3    0  502  0.87012758546E+03 -0.20563878479E+03 -0.99493494905E+03  0.13376490114E+04  0.25500000920E-02 0.  1.
</event>
<event>
 5   0  0.4664127E-05  0.2404343E+04  0.7818609E-02  0.8437879E-01
       -2   -1    0    0    0  501  0.00000000000E+00  0.00000000000E+00  0.12158899421E+04  0.12158899421E+04  0.25500000920E-02 0. -1.
        2   -1    0    0  501    0  0.00000000000E+00  0.00000000000E+00 -0.11886077443E+04  0.11886077443E+04  0.25500000920E-02 0.  1.
    10030    2    1    2    0    0  0.00000000000E+00  0.00000000000E+00  0.27282197758E+02  0.24044976864E+04  0.24043429052E+04 0.  0.
        4    1    3    3  502    0 -0.73776862633E+03  0.82197161805E+03 -0.46102057746E+03  0.11968631804E+04  0.12699999809E+01 0.  1.
       -4    1    3    3    0  502  0.73776862633E+03 -0.82197161805E+03  0.48830277522E+03  0.12076345060E+04  0.12699999809E+01 0. -1.
</event>
<event>
 5   0  0.2139556E-05  0.2353534E+04  0.7818609E-02  0.8457107E-01
       -1   -1    0    0    0  501  0.00000000000E+00  0.00000000000E+00  0.20611569896E+04  0.20611569896E+04  0.50400001928E-02 0. -1.
        1   -1    0    0  501    0  0.00000000000E+00  0.00000000000E+00 -0.67184642017E+03  0.67184642019E+03  0.50400001928E-02 0.  1.
    10030    2    1    2    0    0  0.00000000000E+00  0.00000000000E+00  0.13893105694E+04  0.27330034098E+04  0.23535343167E+04 0.  0.
        2    1    3    3  502    0  0.11026835083E+04  0.72647066255E+02  0.11643343889E+04  0.16052610644E+04  0.25500000920E-02 0.  1.
       -2    1    3    3    0  502 -0.11026835083E+04 -0.72647066255E+02  0.22497618049E+03  0.11277423454E+04  0.25500000920E-02 0. -1.
</event>
<event>
 5   0  0.1672125E-05  0.2398550E+04  0.7818609E-02  0.8440046E-01
       -3   -1    0    0    0  501  0.00000000000E+00  0.00000000000E+00  0.10466673797E+04  0.10466673846E+04  0.10100000352E+00 0. -1.
        3   -1    0    0  501    0  0.00000000000E+00  0.00000000000E+00 -0.13741336739E+04  0.13741336776E+04  0.10100000352E+00 0.  1.
    10030    2    1    2    0    0  0.00000000000E+00  0.00000000000E+00 -0.32746629416E+03  0.24208010622E+04  0.23985503140E+04 0.  0.
        3    1    3    3  502    0  0.69894800468E+03 -0.93268986303E+03  0.12141602168E+03  0.11718278689E+04  0.10100000352E+00 0. -1.
       -3    1    3    3    0  502 -0.69894800468E+03  0.93268986303E+03 -0.44888231584E+03  0.12489731933E+04  0.10100000352E+00 0.  1.
</event>
<event>
 5   0  0.4856882E-05  0.2124548E+04  0.7818609E-02  0.8550506E-01
        2   -1    0    0  501    0  0.00000000000E+00  0.00000000000E+00  0.14443943180E+04  0.14443943180E+04  0.25500000920E-02 0. -1.
       -2   -1    0    0    0  501  0.00000000000E+00  0.00000000000E+00 -0.78124509826E+03  0.78124509827E+03  0.25500000920E-02 0.  1.
    10030    2    1    2    0    0  0.00000000000E+00  0.00000000000E+00  0.66314921977E+03  0.22256394163E+04  0.21245479340E+04 0.  0.
        1    1    3    3  502    0  0.85554062820E+02 -0.66269634112E+03  0.11966647582E+04  0.13705810745E+04  0.50400001928E-02 0. -1.
       -1    1    3    3    0  502 -0.85554062820E+02  0.66269634112E+03 -0.53351553841E+03  0.85505834184E+03  0.50400001928E-02 0.  1.
</event>
<event>
 5   0  0.4914005E-05  0.2375565E+04  0.7818609E-02  0.8448709E-01
       -2   -1    0    0    0  501  0.00000000000E+00  0.00000000000E+00  0.46154100222E+03  0.46154100223E+03  0.25500000920E-02 0.  1.
        2   -1    0    0  501    0  0.00000000000E+00  0.00000000000E+00 -0.30567744173E+04  0.30567744173E+04  0.25500000920E-02 0. -1.
    10030    2    1    2    0    0  0.00000000000E+00  0.00000000000E+00 -0.25952334151E+04  0.35183154195E+04  0.23755645461E+04 0.  0.
        2    1    3    3  502    0  0.19598181314E+03 -0.11319427708E+04 -0.85053907360E+03  0.14293774950E+04  0.25500000920E-02 0.  1.
       -2    1    3    3    0  502 -0.19598181314E+03  0.11319427708E+04 -0.17446943414E+04  0.20889379245E+04  0.25500000920E-02 0. -1.
</event>
<event>
 5   0  0.2090039E-05  0.2329853E+04  0.7818609E-02  0.8466243E-01
       -1   -1    0    0    0  501  0.00000000000E+00  0.00000000000E+00  0.65453724638E+03  0.65453724640E+03  0.50400001928E-02 0.  1.
        1   -1    0    0  501    0  0.00000000000E+00  0.00000000000E+00 -0.20733027031E+04  0.20733027031E+04  0.50400001928E-02 0. -1.
    10030    2    1    2    0    0  0.00000000000E+00  0.00000000000E+00 -0.14187654567E+04  0.27278399495E+04  0.23298530788E+04 0.  0.
        1    1    3    3  502    0  0.61956883838E+03 -0.94706049857E+03 -0.10327173115E+04  0.15320881760E+04  0.50400001928E-02 0. -1.
       -1    1    3    3    0  502 -0.61956883838E+03  0.94706049857E+03 -0.38604814522E+03  0.11957517735E+04  0.50400001928E-02 0.  1.
</event>
<event>
 5   0  0.2065692E-05  0.2251421E+04  0.7818609E-02  0.8497325E-01
        1   -1    0    0  501    0  0.00000000000E+00  0.00000000000E+00  0.26320873885E+04  0.26320873885E+04  0.50400001928E-02 0. -1.
       -1   -1    0    0    0  501  0.00000000000E+00  0.00000000000E+00 -0.48145234463E+03  0.48145234465E+03  0.50400001928E-02 0.  1.
    10030    2    1    2    0    0  0.00000000000E+00  0.00000000000E+00  0.21506350438E+04  0.31135397331E+04  0.22514214572E+04 0.  0.
        3    1    3    3  502    0 -0.77143014492E+03 -0.32193799249E+03  0.21180039360E+04  0.22769912654E+04  0.10100000352E+00 0. -1.
       -3    1    3    3    0  502  0.77143014492E+03  0.32193799249E+03  0.32631107851E+02  0.83654846775E+03  0.10100000352E+00 0.  1.
</event>
<event>
 5   0  0.2057599E-05  0.2377245E+04  0.7818609E-02  0.8448072E-01
       -1   -1    0    0    0  501  0.00000000000E+00  0.00000000000E+00  0.88652359170E+03  0.88652359171E+03  0.50400001928E-02 0. -1.
        1   -1    0    0  501    0  0.00000000000E+00  0.00000000000E+00 -0.15936669811E+04  0.15936669811E+04  0.50400001928E-02 0.  1.
    10030    2    1    2    0    0  0.00000000000E+00  0.00000000000E+00 -0.70714338940E+03  0.24801905728E+04  0.23772449399E+04 0.  0.
        4    1    3    3  502    0 -0.96754503635E+03  0.26766749690E+03 -0.10175532949E+04  0.14294074322E+04  0.12699999809E+01 0.  1.
       -4    1    3    3    0  502  0.96754503635E+03 -0.26766749690E+03  0.31040990554E+03  0.10507831406E+04  0.12699999809E+01 0. -1.
</event>
<event>
 5   0  0.2090039E-05  0.2306658E+04  0.7818609E-02  0.8475301E-01
        1   -1    0    0  501    0  0.00000000000E+00  0.00000000000E+00  0.12167319590E+04  0.12167319590E+04  0.50400001928E-02 0.  1.
       -1   -1    0    0    0  501  0.00000000000E+00  0.00000000000E+00 -0.10932297192E+04  0.10932297192E+04  0.50400001928E-02 0. -1.
    10030    2    1    2    0    0  0.00000000000E+00  0.00000000000E+00  0.12350223983E+03  0.23099616781E+04  0.23066577881E+04 0.  0.
        1    1    3    3  502    0 -0.16269563729E+03  0.10178601505E+04 -0.45634701713E+03  0.11272806911E+04  0.50400001928E-02 0. -1.
       -1    1    3    3    0  502  0.16269563729E+03 -0.10178601505E+04  0.57984925696E+03  0.11826809871E+04  0.50400001928E-02 0.  1.
</event>
<event>
 5   0  0.4756705E-05  0.2413630E+04  0.7818609E-02  0.8434418E-01
        2   -1    0    0  501    0  0.00000000000E+00  0.00000000000E+00  0.20292995563E+04  0.20292995563E+04  0.25500000920E-02 0. -1.
       -2   -1    0    0    0  501  0.00000000000E+00  0.00000000000E+00 -0.71768706780E+03  0.71768706780E+03  0.25500000920E-02 0.  1.
    10030    2    1    2    0    0  0.00000000000E+00  0.00000000000E+00  0.13116124885E+04  0.27469866241E+04  0.24136296719E+04 0.  0.
        3    1    3    3  502    0  0.92686870779E+03 -0.75017670004E+03  0.86735888569E+03  0.14745040283E+04  0.10100000352E+00 0. -1.
       -3    1    3    3    0  502 -0.92686870779E+03  0.75017670004E+03  0.44425360281E+03  0.12724825958E+04  0.10100000352E+00 0.  1.
</event>
<event>
 5   0  0.2139556E-05  0.2389808E+04  0.7818609E-02  0.8443329E-01
       -1   -1    0    0    0  501  0.00000000000E+00  0.00000000000E+00  0.10998095489E+04  0.10998095489E+04  0.50400001928E-02 0.  1.
        1   -1    0    0  501    0  0.00000000000E+00  0.00000000000E+00 -0.12982204026E+04  0.12982204026E+04  0.50400001928E-02 0. -1.
    10030    2    1    2    0    0  0.00000000000E+00  0.00000000000E+00 -0.19841085368E+03  0.23980299516E+04  0.23898076872E+04 0.  0.
        2    1    3    3  502    0  0.38599682796E+03  0.18499032766E+03  0.10202404399E+04  0.11063930259E+04  0.25500000920E-02 0.  1.
       -2    1    3    3    0  502 -0.38599682796E+03 -0.18499032766E+03 -0.12186512936E+04  0.12916369257E+04  0.25500000920E-02 0. -1.
</event>
<event>
 5   0  0.4856882E-05  0.2379558E+04  0.7818609E-02  0.8447196E-01
        2   -1    0    0  501    0  0.00000000000E+00  0.00000000000E+00  0.25650502133E+04  0.25650502133E+04  0.25500000920E-02 0. -1.
       -2   -1    0    0    0  501  0.00000000000E+00  0.00000000000E+00 -0.55187010303E+03  0.55187010304E+03  0.25500000920E-02 0.  1.
    10030    2    1    2    0    0  0.00000000000E+00  0.00000000000E+00  0.20131801102E+04  0.31169203163E+04  0.23795583838E+04 0.  0.
        1    1    3    3  502    0  0.60963140596E+02  0.11626993001E+04  0.68576902884E+03  0.13512458429E+04  0.50400001928E-02 0.  1.
       -1    1    3    3    0  502 -0.60963140596E+02 -0.11626993001E+04  0.13274110814E+04  0.17656744734E+04  0.50400001928E-02 0. -1.
</event>
<event>
 5   0  0.2139556E-05  0.2487713E+04  0.7818609E-02  0.8407376E-01
        1   -1    0    0  501    0  0.00000000000E+00  0.00000000000E+00  0.56024655234E+03  0.56024655237E+03  0.50400001928E-02 0.  1.
       -1   -1    0    0    0  501  0.00000000000E+00  0.00000000000E+00 -0.27616044944E+04  0.27616044944E+04  0.50400001928E-02 0. -1.
    10030    2    1    2    0    0  0.00000000000E+00  0.00000000000E+00 -0.22013579421E+04  0.33218510468E+04  0.24877133251E+04 0.  0.
        2    1    3    3  502    0  0.63376100265E+03 -0.63205802773E+03  0.52661915391E+02  0.89661788753E+03  0.25500000920E-02 0.  1.
       -2    1    3    3    0  502 -0.63376100265E+03  0.63205802773E+03 -0.22540198574E+04  0.24252331592E+04  0.25500000920E-02 0. -1.
</event>
<event>
 5   0  0.2065692E-05  0.2406490E+04  0.7818609E-02  0.8437078E-01
       -1   -1    0    0    0  501  0.00000000000E+00  0.00000000000E+00  0.14162469697E+04  0.14162469697E+04  0.50400001928E-02 0.  1.
        1   -1    0    0  501    0  0.00000000000E+00  0.00000000000E+00 -0.10222784925E+04  0.10222784925E+04  0.50400001928E-02 0. -1.
    10030    2    1    2    0    0  0.00000000000E+00  0.00000000000E+00  0.39396847714E+03  0.24385254622E+04  0.24064902387E+04 0.  0.
        3    1    3    3  502    0 -0.10948662184E+04  0.11015685990E+03  0.69022080726E+03  0.12989500925E+04  0.10100000352E+00 0.  1.
       -3    1    3    3    0  502  0.10948662184E+04 -0.11015685990E+03 -0.29625233012E+03  0.11395753697E+04  0.10100000352E+00 0. -1.
</event>
<event>
 5   0  0.4664127E-05  0.2393216E+04  0.7818609E-02  0.8442048E-01
       -2   -1    0    0    0  501  0.00000000000E+00  0.00000000000E+00  0.16732919925E+04  0.16732919925E+04  0.25500000920E-02 0.  1.
        2   -1    0    0  501    0  0.00000000000E+00  0.00000000000E+00 -0.85572041546E+03  0.85572041546E+03  0.25500000920E-02 0. -1.
    10030    2    1    2    0    0  0.00000000000E+00  0.00000000000E+00  0.81757157708E+03  0.25290124080E+04  0.23932155098E+04 0.  0.
        4    1    3    3  502    0  0.90204055442E+03  0.18862783629E+03  0.12153862165E+04  0.15252615810E+04  0.12699999809E+01 0.  1.
       -4    1    3    3    0  502 -0.90204055442E+03 -0.18862783629E+03 -0.39781463940E+03  0.10037508270E+04  0.12699999809E+01 0. -1.
</event>
<event>
 5   0  0.2057599E-05  0.2401209E+04  0.7818609E-02  0.8439051E-01
        1   -1    0    0  501    0  0.00000000000E+00  0.00000000000E+00  0.12242167822E+04  0.12242167822E+04  0.50400001928E-02 0. -1.
       -1   -1    0    0    0  501  0.00000000000E+00  0.00000000000E+00 -0.11774479627E+04  0.11774479627E+04  0.50400001928E-02 0.  1.
    10030    2    1    2    0    0  0.00000000000E+00  0.00000000000E+00  0.46768819449E+02  0.24016647449E+04  0.24012093254E+04 0.  0.
        4    1    3    3  502    0 -0.57411043307E+02 -0.67694551413E+03 -0.96670165806E+03  0.11815519310E+04  0.12699999809E+01 0.  1.
       -4    1    3    3    0  502  0.57411043307E+02  0.67694551413E+03  0.10134704775E+04  0.12201128139E+04  0.12699999809E+01 0. -1.
</event>
<event>
 5   0  0.4914005E-05  0.2356228E+04  0.7818609E-02  0.8456075E-01
        2   -1    0    0  501    0  0.00000000000E+00  0.00000000000E+00  0.93727389527E+03  0.93727389528E+03  0.25500000920E-02 0. -1.
       -2   -1    0    0    0  501  0.00000000000E+00  0.00000000000E+00 -0.14808397139E+04  0.14808397139E+04  0.25500000920E-02 0.  1.
    10030    2    1    2    0    0  0.00000000000E+00  0.00000000000E+00 -0.54356581858E+03  0.24181136091E+04  0.23562278386E+04 0.  0.
        2    1    3    3  502    0  0.16283117500E+01  0.20324027707E+02  0.93709281424E+03  0.93731460034E+03  0.25500000920E-02 0. -1.
       -2    1    3    3    0  502 -0.16283117500E+01 -0.20324027707E+02 -0.14806586328E+04  0.14807990088E+04  0.25500000920E-02 0.  1.
</event>
<event>
 5   0  0.2149920E-05  0.2340571E+04  0.7818609E-02  0.8462094E-01
       -1   -1    0    0    0  501  0.00000000000E+00  0.00000000000E+00  0.93177138236E+03  0.93177138237E+03  0.50400001928E-02 0. -1.
        1   -1    0    0  501    0  0.00000000000E+00  0.00000000000E+00 -0.14698545971E+04  0.14698545971E+04  0.50400001928E-02 0.  1.
    10030    2    1    2    0    0  0.00000000000E+00  0.00000000000E+00 -0.53808321472E+03  0.24016259795E+04  0.23405712549E+04 0.  0.
        5    1    3    3  502    0 -0.55097347394E+03  0.19984981057E+02 -0.13282357152E+04  0.14381249506E+04  0.46999998093E+01 0.  1.
       -5    1    3    3    0  502  0.55097347394E+03 -0.19984981057E+02  0.79015250051E+03  0.96350102881E+03  0.46999998093E+01 0. -1.
</event>
<event>
 5   0  0.4756705E-05  0.2232610E+04  0.7818609E-02  0.8504977E-01
       -2   -1    0    0    0  501  0.00000000000E+00  0.00000000000E+00  0.87050581061E+03  0.87050581061E+03  0.25500000920E-02 0. -1.
        2   -1    0    0  501    0  0.00000000000E+00  0.00000000000E+00 -0.14315086490E+04  0.14315086490E+04  0.25500000920E-02 0.  1.
    10030    2    1    2    0    0  0.00000000000E+00  0.00000000000E+00 -0.56100283837E+03  0.23020144596E+04  0.22326097705E+04 0.  0.
        3    1    3    3  502    0 -0.88271083856E+01 -0.11157338851E+04 -0.31616817800E+03  0.11596992486E+04  0.10100000352E+00 0. -1.
       -3    1    3    3    0  502  0.88271083856E+01  0.11157338851E+04 -0.24483466038E+03  0.11423152110E+04  0.10100000352E+00 0.  1.
</event>
<event>
 5   0  0.2139556E-05  0.2377877E+04  0.7818609E-02  0.8447833E-01
       -1   -1    0    0    0  501  0.00000000000E+00  0.00000000000E+00  0.69057104991E+03  0.69057104993E+03  0.50400001928E-02 0. -1.
        1   -1    0    0  501    0  0.00000000000E+00  0.00000000000E+00 -0.20469641955E+04  0.20469641955E+04  0.50400001928E-02 0.  1.
    10030    2    1    2    0    0  0.00000000000E+00  0.00000000000E+00 -0.13563931456E+04  0.27375352454E+04  0.23778765432E+04 0.  0.
        2    1    3    3  502    0  0.28230150407E+03 -0.86434180436E+03  0.20369054183E+03  0.93181045862E+03  0.25500000920E-02 0. -1.
       -2    1    3    3    0  502 -0.28230150407E+03  0.86434180436E+03 -0.15600836874E+04  0.18057247868E+04  0.25500000920E-02 0.  1.
</event>
<event>
 5   0  0.4914005E-05  0.2600860E+04  0.7818609E-02  0.8367909E-01
       -2   -1    0    0    0  501  0.00000000000E+00  0.00000000000E+00  0.11653375983E+04  0.11653375983E+04  0.25500000920E-02 0.  1.
        2   -1    0    0  501    0  0.00000000000E+00  0.00000000000E+00 -0.14511834198E+04  0.14511834198E+04  0.25500000920E-02 0. -1.
    10030    2    1    2    0    0  0.00000000000E+00  0.00000000000E+00 -0.28584582145E+03  0.26165210181E+04  0.26008603200E+04 0.  0.
        2    1    3    3  502    0 -0.53870930633E+03 -0.11832921973E+04 -0.11573314516E+03  0.13052901217E+04  0.25500000920E-02 0. -1.
       -2    1    3    3    0  502  0.53870930633E+03  0.11832921973E+04 -0.17011267629E+03  0.13112308964E+04  0.25500000920E-02 0.  1.
</event>
<event>
 5   0  0.4856882E-05  0.2497516E+04  0.7818609E-02  0.8403871E-01
       -2   -1    0    0    0  501  0.00000000000E+00  0.00000000000E+00  0.87242796890E+03  0.87242796890E+03  0.25500000920E-02 0.  1.
        2   -1    0    0  501    0  0.00000000000E+00  0.00000000000E+00 -0.17874210073E+04  0.17874210073E+04  0.25500000920E-02 0. -1.
    10030    2    1    2    0    0  0.00000000000E+00  0.00000000000E+00 -0.91499303835E+03  0.26598489762E+04  0.24975156287E+04 0.  0.
        1    1    3    3  502    0 -0.64185394251E+03  0.15644379632E+03  0.67107216191E+03  0.94169474430E+03  0.50400001928E-02 0.  1.
       -1    1    3    3    0  502  0.64185394251E+03 -0.15644379632E+03 -0.15860652003E+04  0.17181542319E+04  0.50400001928E-02 0. -1.
</event>
<event>
 5   0  0.2065692E-05  0.2435587E+04  0.7818609E-02  0.8426299E-01
       -1   -1    0    0    0  501  0.00000000000E+00  0.00000000000E+00  0.12564012538E+04  0.12564012538E+04  0.50400001928E-02 0. -1.
        1   -1    0    0  501    0  0.00000000000E+00  0.00000000000E+00 -0.11803717291E+04  0.11803717291E+04  0.50400001928E-02 0.  1.
    10030    2    1    2    0    0  0.00000000000E+00  0.00000000000E+00  0.76029524675E+02  0.24367729829E+04  0.24355865991E+04 0.  0.
        3    1    3    3  502    0  0.40588083277E+03  0.85267390051E+03 -0.73127360940E+03  0.11943839973E+04  0.10100000352E+00 0.  1.
       -3    1    3    3    0  502 -0.40588083277E+03 -0.85267390051E+03  0.80730313407E+03  0.12423889856E+04  0.10100000352E+00 0. -1.
</event>
<event>
 5   0  0.2057599E-05  0.2385645E+04  0.7818609E-02  0.8444897E-01
        1   -1    0    0  501    0  0.00000000000E+00  0.00000000000E+00  0.94496586419E+03  0.94496586420E+03  0.50400001928E-02 0.  1.
       -1   -1    0    0    0  501  0.00000000000E+00  0.00000000000E+00 -0.15056898944E+04  0.15056898944E+04  0.50400001928E-02 0. -1.
    10030    2    1    2    0    0  0.00000000000E+00  0.00000000000E+00 -0.56072403018E+03  0.24506557586E+04  0.23856450300E+04 0.  0.
        4    1    3    3  502    0 -0.36728701841E+03 -0.92099751199E+03 -0.96152129707E+03  0.13811810122E+04  0.12699999809E+01 0. -1.
       -4    1    3    3    0  502  0.36728701841E+03  0.92099751199E+03  0.40079726689E+03  0.10694747463E+04  0.12699999809E+01 0.  1.
</event>
<event>
 5   0  0.4914005E-05  0.2409690E+04  0.7818609E-02  0.8435885E-01
       -2   -1    0    0    0  501  0.00000000000E+00  0.00000000000E+00  0.18553888130E+04  0.18553888130E+04  0.25500000920E-02 0.  1.
        2   -1    0    0  501    0  0.00000000000E+00  0.00000000000E+00 -0.78239758503E+03  0.78239758503E+03  0.25500000920E-02 0. -1.
    10030    2    1    2    0    0  0.00000000000E+00  0.00000000000E+00  0.10729912280E+04  0.26377863980E+04  0.24096902096E+04 0.  0.
        2    1    3    3  502    0 -0.51280293489E+02  0.65407860368E+03  0.16426977760E+04  0.17688709596E+04  0.25500000920E-02 0.  1.
       -2    1    3    3    0  502  0.51280293489E+02 -0.65407860368E+03 -0.56970654805E+03  0.86891543846E+03  0.25500000920E-02 0. -1.
</event>
<event>
 5   0  0.4664127E-05  0.2387325E+04  0.7818609E-02  0.8444264E-01
       -2   -1    0    0    0  501  0.00000000000E+00  0.00000000000E+00  0.10088553812E+04  0.10088553812E+04  0.25500000920E-02 0. -1.
        2   -1    0    0  501    0  0.00000000000E+00  0.00000000000E+00 -0.14123237270E+04  0.14123237270E+04  0.25500000920E-02 0.  1.
    10030    2    1    2    0    0  0.00000000000E+00  0.00000000000E+00 -0.40346834577E+03  0.24211791081E+04  0.23873251910E+04 0.  0.
        4    1    3    3  502    0 -0.57641321000E+03 -0.20098848756E+03  0.83857015039E+03  0.10372319272E+04  0.12699999809E+01 0. -1.
       -4    1    3    3    0  502  0.57641321000E+03  0.20098848756E+03 -0.12420384962E+04  0.13839471809E+04  0.12699999809E+01 0.  1.
</event>
<event>
 5   0  0.4756705E-05  0.2395002E+04  0.7818609E-02  0.8441377E-01
        2   -1    0    0  501    0  0.00000000000E+00  0.00000000000E+00  0.14828673636E+04  0.14828673636E+04  0.25500000920E-02 0.  1.
       -2   -1    0    0    0  501  0.00000000000E+00  0.00000000000E+00 -0.96705133801E+03  0.96705133802E+03  0.25500000920E-02 0. -1.
    10030    2    1    2    0    0  0.00000000000E+00  0.00000000000E+00  0.51581602560E+03  0.24499187016E+04  0.23950021863E+04 0.  0.
        3    1    3    3  502    0  0.67181843144E+02  0.11243329739E+04 -0.15807462136E+03  0.11373766449E+04  0.10100000352E+00 0. -1.
       -3    1    3    3    0  502 -0.67181843144E+02 -0.11243329739E+04  0.67389064696E+03  0.13125420567E+04  0.10100000352E+00 0.  1.
</event>
<event>
 5   0  0.4713971E-05  0.2317596E+04  0.7818609E-02  0.8471016E-01
        2   -1    0    0  501    0  0.00000000000E+00  0.00000000000E+00  0.87750571466E+03  0.87750571467E+03  0.25500000920E-02 0.  1.
       -2   -1    0    0    0  501  0.00000000000E+00  0.00000000000E+00 -0.15302605775E+04  0.15302605775E+04  0.25500000920E-02 0. -1.
    10030    2    1    2    0    0  0.00000000000E+00  0.00000000000E+00 -0.65275486287E+03  0.24077662922E+04  0.23175956522E+04 0.  0.
        5    1    3    3  502    0 -0.90206130555E+03 -0.57809670133E+03  0.13225018815E+03  0.10795474039E+04  0.46999998093E+01 0.  1.
       -5    1    3    3    0  502  0.90206130555E+03  0.57809670133E+03 -0.78500505102E+03  0.13282188883E+04  0.46999998093E+01 0. -1.
</event>
<event>
 5   0  0.2057599E-05  0.2310084E+04  0.7818609E-02  0.8473956E-01
       -1   -1    0    0    0  501  0.00000000000E+00  0.00000000000E+00  0.80419271330E+03  0.80419271332E+03  0.50400001928E-02 0.  1.
        1   -1    0    0  501    0  0.00000000000E+00  0.00000000000E+00 -0.16589579044E+04  0.16589579044E+04  0.50400001928E-02 0. -1.
    10030    2    1    2    0    0  0.00000000000E+00  0.00000000000E+00 -0.85476519112E+03  0.24631506177E+04  0.23100838586E+04 0.  0.
        4    1    3    3  502    0 -0.63783277670E+02 -0.41907885022E+03  0.71825183703E+03  0.83401600914E+03  0.12699999809E+01 0.  1.
       -4    1    3    3    0  502  0.63783277670E+02  0.41907885022E+03 -0.15730170282E+04  0.16291346086E+04  0.12699999809E+01 0. -1.
</event>
<event>
 5   0  0.2149920E-05  0.2399930E+04  0.7818609E-02  0.8439530E-01
        1   -1    0    0  501    0  0.00000000000E+00  0.00000000000E+00  0.74639119992E+03  0.74639119993E+03  0.50400001928E-02 0.  1.
       -1   -1    0    0    0  501  0.00000000000E+00  0.00000000000E+00 -0.19291704335E+04  0.19291704335E+04  0.50400001928E-02 0. -1.
    10030    2    1    2    0    0  0.00000000000E+00  0.00000000000E+00 -0.11827792336E+04  0.26755616335E+04  0.23999298613E+04 0.  0.
        5    1    3    3  502    0  0.48946247635E+03 -0.10521232732E+04 -0.25075443763E+03  0.11871970249E+04  0.46999998093E+01 0.  1.
       -5    1    3    3    0  502 -0.48946247635E+03  0.10521232732E+04 -0.93202479598E+03  0.14883646086E+04  0.46999998093E+01 0. -1.
</event>
<event>
 5   0  0.2090039E-05  0.2394182E+04  0.7818609E-02  0.8441685E-01
       -1   -1    0    0    0  501  0.00000000000E+00  0.00000000000E+00  0.81527437307E+03  0.81527437308E+03  0.50400001928E-02 0. -1.
        1   -1    0    0  501    0  0.00000000000E+00  0.00000000000E+00 -0.17577230319E+04  0.17577230319E+04  0.50400001928E-02 0.  1.
    10030    2    1    2    0    0  0.00000000000E+00  0.00000000000E+00 -0.94244865883E+03  0.25729974050E+04  0.23941817332E+04 0.  0.
        1    1    3    3  502    0  0.22258738027E+03 -0.82712785992E+03 -0.13699490768E+04  0.16156875043E+04  0.50400001928E-02 0. -1.
       -1    1    3    3    0  502 -0.22258738027E+03  0.82712785992E+03  0.42750041799E+03  0.95730990067E+03  0.50400001928E-02 0.  1.
</event>
<event>
 5   0  0.4664127E-05  0.2408132E+04  0.7818609E-02  0.8436465E-01
        2   -1    0    0  501    0  0.00000000000E+00  0.00000000000E+00  0.13271284168E+04  0.13271284168E+04  0.25500000920E-02 0. -1.
       -2   -1    0    0    0  501  0.00000000000E+00  0.00000000000E+00 -0.10924148689E+04  0.10924148689E+04  0.25500000920E-02 0.  1.
    10030    2    1    2    0    0  0.00000000000E+00  0.00000000000E+00  0.23471354786E+03  0.24195432858E+04  0.24081319030E+04 0.  0.
        4    1    3    3  502    0  0.79592187790E+03  0.19232056407E+03 -0.76960293797E+03  0.11237300077E+04  0.12699999809E+01 0.  1.
       -4    1    3    3    0  502 -0.79592187790E+03 -0.19232056407E+03  0.10043164858E+04  0.12958132781E+04  0.12699999809E+01 0. -1.
</event>
<event>
 5   0  0.4664127E-05  0.2403875E+04  0.7818609E-02  0.8438054E-01
       -2   -1    0    0    0  501  0.00000000000E+00  0.00000000000E+00  0.66391401828E+03  0.66391401829E+03  0.25500000920E-02 0.  1.
        2   -1    0    0  501    0  0.00000000000E+00  0.00000000000E+00 -0.21759647416E+04  0.21759647416E+04  0.25500000920E-02 0. -1.
    10030    2    1    2    0    0  0.00000000000E+00  0.00000000000E+00 -0.15120507233E+04  0.28398787599E+04  0.24038747848E+04 0.  0.
        4    1    3    3  502    0 -0.80634292531E+03  0.88067707098E+03 -0.91831241329E+03  0.15063466792E+04  0.12699999809E+01 0. -1.
       -4    1    3    3    0  502  0.80634292531E+03 -0.88067707098E+03 -0.59373830999E+03  0.13335320807E+04  0.12699999809E+01 0.  1.
</event>
<event>
 5   0  0.1672125E-05  0.2401392E+04  0.7818609E-02  0.8438983E-01
       -3   -1    0    0    0  501  0.00000000000E+00  0.00000000000E+00  0.15724896031E+04  0.15724896064E+04  0.10100000352E+00 0.  1.
        3   -1    0    0  501    0  0.00000000000E+00  0.00000000000E+00 -0.91680797266E+03  0.91680797823E+03  0.10100000352E+00 0. -1.
    10030    2    1    2    0    0  0.00000000000E+00  0.00000000000E+00  0.65568163046E+03  0.24892975846E+04  0.24013921096E+04 0.  0.
        2    1    3    3  502    0 -0.62385885698E+03  0.49231210475E+03 -0.60516217753E+03  0.99889556163E+03  0.25500000920E-02 0. -1.
       -2    1    3    3    0  502  0.62385885698E+03 -0.49231210475E+03  0.12608438080E+04  0.14904020230E+04  0.25500000920E-02 0.  1.
</event>
<event>
 5   0  0.4914005E-05  0.2492452E+04  0.7818609E-02  0.8405679E-01
       -2   -1    0    0    0  501  0.00000000000E+00  0.00000000000E+00  0.87511417301E+03  0.87511417302E+03  0.25500000920E-02 0. -1.
        2   -1    0    0  501    0  0.00000000000E+00  0.00000000000E+00 -0.17747162446E+04  0.17747162446E+04  0.25500000920E-02 0.  1.
    10030    2    1    2    0    0  0.00000000000E+00  0.00000000000E+00 -0.89960207160E+03  0.26498304176E+04  0.24924520768E+04 0.  0.
        2    1    3    3  502    0  0.10968498837E+04 -0.25792204929E+03  0.11624183698E+03  0.11327469336E+04  0.25500000920E-02 0.  1.
       -2    1    3    3    0  502 -0.10968498837E+04  0.25792204929E+03 -0.10158439086E+04  0.15170834840E+04  0.25500000920E-02 0. -1.
</event>
<event>
 5   0  0.2139556E-05  0.2299298E+04  0.7818609E-02  0.8478198E-01
       -1   -1    0    0    0  501  0.00000000000E+00  0.00000000000E+00  0.17098565854E+04  0.17098565854E+04  0.50400001928E-02 0.  1.
        1   -1    0    0  501    0  0.00000000000E+00  0.00000000000E+00 -0.77298434552E+03  0.77298434554E+03  0.50400001928E-02 0. -1.
    10030    2    1    2    0    0  0.00000000000E+00  0.00000000000E+00  0.93687223990E+03  0.24828409310E+04  0.22992976090E+04 0.  0.
        2    1    3    3  502    0 -0.19996739215E+03 -0.84018310286E+03 -0.35095017884E+03  0.93223421536E+03  0.25500000920E-02 0. -1.
       -2    1    3    3    0  502  0.19996739215E+03  0.84018310286E+03  0.12878224187E+04  0.15506067156E+04  0.25500000920E-02 0.  1.
</event>
<event>
 5   0  0.2065692E-05  0.2388118E+04  0.7818609E-02  0.8443965E-01
        1   -1    0    0  501    0  0.00000000000E+00  0.00000000000E+00  0.23155037627E+04  0.23155037627E+04  0.50400001928E-02 0.  1.
       -1   -1    0    0    0  501  0.00000000000E+00  0.00000000000E+00 -0.61575247421E+03  0.61575247423E+03  0.50400001928E-02 0. -1.
    10030    2    1    2    0    0  0.00000000000E+00  0.00000000000E+00  0.16997512885E+04  0.29312562369E+04  0.23881182307E+04 0.  0.
        3    1    3    3  502    0 -0.66239897319E+03  0.90020048315E+03  0.13657538996E+04  0.17647710996E+04  0.10100000352E+00 0.  1.
       -3    1    3    3    0  502  0.66239897319E+03 -0.90020048315E+03  0.33399738885E+03  0.11664851373E+04  0.10100000352E+00 0. -1.
</event>
<event>
 5   0  0.4713971E-05  0.2401826E+04  0.7818609E-02  0.8438820E-01
        2   -1    0    0  501    0  0.00000000000E+00  0.00000000000E+00  0.19119887903E+04  0.19119887903E+04  0.25500000920E-02 0.  1.
       -2   -1    0    0    0  501  0.00000000000E+00  0.00000000000E+00 -0.75428897502E+03  0.75428897502E+03  0.25500000920E-02 0. -1.
    10030    2    1    2    0    0  0.00000000000E+00  0.00000000000E+00  0.11576998153E+04  0.26662777653E+04  0.24018260261E+04 0.  0.
        5    1    3    3  502    0 -0.36793952027E+03  0.11110861157E+04  0.28040285680E+03  0.12035529483E+04  0.46999998093E+01 0. -1.
       -5    1    3    3    0  502  0.36793952027E+03 -0.11110861157E+04  0.87729695850E+03  0.14627248171E+04  0.46999998093E+01 0.  1.
</event>
<event>
 5   0  0.4856882E-05  0.2374280E+04  0.7818609E-02  0.8449196E-01
        2   -1    0    0  501    0  0.00000000000E+00  0.00000000000E+00  0.18617645216E+04  0.18617645216E+04  0.25500000920E-02 0. -1.
       -2   -1    0    0    0  501  0.00000000000E+00  0.00000000000E+00 -0.75697105174E+03  0.75697105175E+03  0.25500000920E-02 0.  1.
    10030    2    1    2    0    0  0.00000000000E+00  0.00000000000E+00  0.11047934699E+04  0.26187355734E+04  0.23742803946E+04 0.  0.
        1    1    3    3  502    0 -0.10744122235E+04 -0.36207914498E+03  0.94053656400E+03  0.14731164114E+04  0.50400001928E-02 0. -1.
       -1    1    3    3    0  502  0.10744122235E+04  0.36207914498E+03  0.16425690590E+03  0.11456191620E+04  0.50400001928E-02 0.  1.
</event>
<event>
 5   0  0.2057599E-05  0.2427839E+04  0.7818609E-02  0.8429154E-01
       -1   -1    0    0    0  501  0.00000000000E+00  0.00000000000E+00  0.13211140004E+04  0.13211140005E+04  0.50400001928E-02 0.  1.
        1   -1    0    0  501    0  0.00000000000E+00  0.00000000000E+00 -0.11154224936E+04  0.11154224936E+04  0.50400001928E-02 0. -1.
    10030    2    1    2    0    0  0.00000000000E+00  0.00000000000E+00  0.20569150686E+03  0.24365364940E+04  0.24278387695E+04 0.  0.
        4    1    3    3  502    0 -0.10512224490E+04  0.31846238225E+03 -0.41583431714E+03  0.11744814679E+04  0.12699999809E+01 0. -1.
       -4    1    3    3    0  502  0.10512224490E+04 -0.31846238225E+03  0.62152582400E+03  0.12620550261E+04  0.12699999809E+01 0.  1.
</event>
<event>
 5   0  0.2057599E-05  0.2022099E+04  0.7818609E-02  0.8596358E-01
        1   -1    0    0  501    0  0.00000000000E+00  0.00000000000E+00  0.18032460856E+04  0.18032460856E+04  0.50400001928E-02 0. -1.
       -1   -1    0    0    0  501  0.00000000000E+00  0.00000000000E+00 -0.56687835524E+03  0.56687835526E+03  0.50400001928E-02 0.  1.
    10030    2    1    2    0    0  0.00000000000E+00  0.00000000000E+00  0.12363677303E+04  0.23701244408E+04  0.20220990828E+04 0.  0.
        4    1    3    3  502    0 -0.95876035051E+03  0.28104936478E+03  0.79980209316E+03  0.12798027802E+04  0.12699999809E+01 0.  1.
       -4    1    3    3    0  502  0.95876035051E+03 -0.28104936478E+03  0.43656563718E+03  0.10903216606E+04  0.12699999809E+01 0. -1.
</event>
<event>
 5   0  0.2149920E-05  0.2397872E+04  0.7818609E-02  0.8440301E-01
        1   -1    0    0  501    0  0.00000000000E+00  0.00000000000E+00  0.24067596729E+04  0.24067596729E+04  0.50400001928E-02 0. -1.
       -1   -1    0    0    0  501  0.00000000000E+00  0.00000000000E+00 -0.59725433720E+03  0.59725433722E+03  0.50400001928E-02 0.  1.
    10030    2    1    2    0    0  0.00000000000E+00  0.00000000000E+00  0.18095053356E+04  0.30040140101E+04  0.23978721011E+04 0.  0.
        5    1    3    3  502    0  0.30672678240E+03  0.31998185511E+03 -0.49082530315E+03  0.66136319436E+03  0.46999998093E+01 0.  1.
       -5    1    3    3    0  502 -0.30672678240E+03 -0.31998185511E+03  0.23003306388E+04  0.23426508157E+04  0.46999998093E+01 0. -1.
</event>
<event>
 5   0  0.4664127E-05  0.2185519E+04  0.7818609E-02  0.8524479E-01
        2   -1    0    0  501    0  0.00000000000E+00  0.00000000000E+00  0.14259061202E+04  0.14259061202E+04  0.25500000920E-02 0. -1.
       -2   -1    0    0    0  501  0.00000000000E+00  0.00000000000E+00 -0.83744911196E+03  0.83744911197E+03  0.25500000920E-02 0.  1.
    10030    2    1    2    0    0  0.00000000000E+00  0.00000000000E+00  0.58845700822E+03  0.22633552322E+04  0.21855194477E+04 0.  0.
        4    1    3    3  502    0 -0.51274564405E+03  0.72837720859E+03  0.94976561678E+03  0.13021128189E+04  0.12699999809E+01 0. -1.
       -4    1    3    3    0  502  0.51274564405E+03 -0.72837720859E+03 -0.36130860855E+03  0.96124241324E+03  0.12699999809E+01 0.  1.
</event>
<event>
 5   0  0.2149920E-05  0.2377206E+04  0.7818609E-02  0.8448087E-01
        1   -1    0    0  501    0  0.00000000000E+00  0.00000000000E+00  0.13729999433E+04  0.13729999433E+04  0.50400001928E-02 0. -1.
       -1   -1    0    0    0  501  0.00000000000E+00  0.00000000000E+00 -0.10289705499E+04  0.10289705499E+04  0.50400001928E-02 0.  1.
    10030    2    1    2    0    0  0.00000000000E+00  0.00000000000E+00  0.34402939333E+03  0.24019704932E+04  0.23772055079E+04 0.  0.
        5    1    3    3  502    0  0.65147609070E+03  0.92389839807E+03 -0.19888577221E+03  0.11478619199E+04  0.46999998093E+01 0.  1.
       -5    1    3    3    0  502 -0.65147609070E+03 -0.92389839807E+03  0.54291516554E+03  0.12541085733E+04  0.46999998093E+01 0. -1.
</event>
<event>
 5   0  0.4756705E-05  0.2397041E+04  0.7818609E-02  0.8440612E-01
       -2   -1    0    0    0  501  0.00000000000E+00  0.00000000000E+00  0.91483574946E+03  0.91483574946E+03  0.25500000920E-02 0.  1.
        2   -1    0    0  501    0  0.00000000000E+00  0.00000000000E+00 -0.15701738432E+04  0.15701738432E+04  0.25500000920E-02 0. -1.
    10030    2    1    2    0    0  0.00000000000E+00  0.00000000000E+00 -0.65533809375E+03  0.24850095927E+04  0.23970408129E+04 0.  0.
        3    1    3    3  502    0  0.87614468924E+03 -0.80923893393E+03 -0.45013116843E+03  0.12748000814E+04  0.10100000352E+00 0.  1.
       -3    1    3    3    0  502 -0.87614468924E+03  0.80923893393E+03 -0.20520692532E+03  0.12102095112E+04  0.10100000352E+00 0. -1.
</event>
<event>
 5   0  0.4756705E-05  0.2409060E+04  0.7818609E-02  0.8436119E-01
        2   -1    0    0  501    0  0.00000000000E+00  0.00000000000E+00  0.24170488853E+04  0.24170488853E+04  0.25500000920E-02 0. -1.
       -2   -1    0    0    0  501  0.00000000000E+00  0.00000000000E+00 -0.60027430312E+03  0.60027430313E+03  0.25500000920E-02 0.  1.
    10030    2    1    2    0    0  0.00000000000E+00  0.00000000000E+00  0.18167745822E+04  0.30173231885E+04  0.24090598459E+04 0.  0.
        3    1    3    3  502    0  0.92417934356E+03  0.76912914762E+03  0.99892438352E+03  0.15631753065E+04  0.10100000352E+00 0. -1.
       -3    1    3    3    0  502 -0.92417934356E+03 -0.76912914762E+03  0.81785019868E+03  0.14541478819E+04  0.10100000352E+00 0.  1.
</event>
<event>
 5   0  0.1672125E-05  0.2396218E+04  0.7818609E-02  0.8440921E-01
       -3   -1    0    0    0  501  0.00000000000E+00  0.00000000000E+00  0.15282391159E+04  0.15282391193E+04  0.10100000352E+00 0. -1.
        3   -1    0    0  501    0  0.00000000000E+00  0.00000000000E+00 -0.93929376999E+03  0.93929377542E+03  0.10100000352E+00 0.  1.
    10030    2    1    2    0    0  0.00000000000E+00  0.00000000000E+00  0.58894534594E+03  0.24675328947E+04  0.23962182634E+04 0.  0.
        1    1    3    3  502    0 -0.33001527144E+03 -0.63281013224E+03 -0.69651237413E+03  0.99724030715E+03  0.50400001928E-02 0.  1.
       -1    1    3    3    0  502  0.33001527144E+03  0.63281013224E+03  0.12854577201E+04  0.14702925875E+04  0.50400001928E-02 0. -1.
</event>
<event>
 5   0  0.2149920E-05  0.2330123E+04  0.7818609E-02  0.8466138E-01
        1   -1    0    0  501    0  0.00000000000E+00  0.00000000000E+00  0.14421621482E+04  0.14421621482E+04  0.50400001928E-02 0.  1.
       -1   -1    0    0    0  501  0.00000000000E+00  0.00000000000E+00 -0.94120383445E+03  0.94120383446E+03  0.50400001928E-02 0. -1.
    10030    2    1    2    0    0  0.00000000000E+00  0.00000000000E+00  0.50095831377E+03  0.23833659827E+04  0.23301232103E+04 0.  0.
        5    1    3    3  502    0 -0.82855095004E+03  0.72775413662E+03  0.63486345052E+03  0.12724765031E+04  0.46999998093E+01 0.  1.
       -5    1    3    3    0  502  0.82855095004E+03 -0.72775413662E+03 -0.13390513675E+03  0.11108894796E+04  0.46999998093E+01 0. -1.
</event>
<event>
 5   0  0.4756705E-05  0.2372208E+04  0.7818609E-02  0.8449982E-01
        2   -1    0    0  501    0  0.00000000000E+00  0.00000000000E+00  0.15041526179E+04  0.15041526179E+04  0.25500000920E-02 0.  1.
       -2   -1    0    0    0  501  0.00000000000E+00  0.00000000000E+00 -0.93530590467E+03  0.93530590467E+03  0.25500000920E-02 0. -1.
    10030    2    1    2    0    0  0.00000000000E+00  0.00000000000E+00  0.56884671324E+03  0.24394585226E+04  0.23722081064E+04 0.  0.
        3    1    3    3  502    0 -0.94850269484E+03 -0.36620155001E+03 -0.34369679882E+03  0.10732606566E+04  0.10100000352E+00 0. -1.
       -3    1    3    3    0  502  0.94850269484E+03  0.36620155001E+03  0.91254351205E+03  0.13661978660E+04  0.10100000352E+00 0.  1.
</event>
<event>
 5   0  0.1672125E-05  0.2323350E+04  0.7818609E-02  0.8468771E-01
        3   -1    0    0  501    0  0.00000000000E+00  0.00000000000E+00  0.19863022357E+04  0.19863022383E+04  0.10100000352E+00 0. -1.
       -3   -1    0    0    0  501  0.00000000000E+00  0.00000000000E+00 -0.67939769138E+03  0.67939769889E+03  0.10100000352E+00 0.  1.
    10030    2    1    2    0    0  0.00000000000E+00  0.00000000000E+00  0.13069045443E+04  0.26656999372E+04  0.23233503109E+04 0.  0.
        5    1    3    3  502    0  0.88127104085E+03  0.63299515201E+03  0.17741113236E+03  0.10994627369E+04  0.46999998093E+01 0.  1.
       -5    1    3    3    0  502 -0.88127104085E+03 -0.63299515201E+03  0.11294934120E+04  0.15662372003E+04  0.46999998093E+01 0. -1.
</event>
<event>
 5   0  0.4914005E-05  0.2390292E+04  0.7818609E-02  0.8443147E-01
       -2   -1    0    0    0  501  0.00000000000E+00  0.00000000000E+00  0.56402515759E+03  0.56402515759E+03  0.25500000920E-02 0.  1.
        2   -1    0    0  501    0  0.00000000000E+00  0.00000000000E+00 -0.25324643233E+04  0.25324643233E+04  0.25500000920E-02 0. -1.
    10030    2    1    2    0    0  0.00000000000E+00  0.00000000000E+00 -0.19684391657E+04  0.30964894809E+04  0.23902916885E+04 0.  0.
        2    1    3    3  502    0 -0.47933544280E+03 -0.27476054959E+03 -0.23570957177E+04  0.24209824553E+04  0.25500000920E-02 0. -1.
       -2    1    3    3    0  502  0.47933544280E+03  0.27476054959E+03  0.38865655195E+03  0.67550702566E+03  0.25500000920E-02 0.  1.
</event>
<event>
 5   0  0.4856882E-05  0.2408301E+04  0.7818609E-02  0.8436402E-01
       -2   -1    0    0    0  501  0.00000000000E+00  0.00000000000E+00  0.96705290964E+03  0.96705290964E+03  0.25500000920E-02 0.  1.
        2   -1    0    0  501    0  0.00000000000E+00  0.00000000000E+00 -0.14993788169E+04  0.14993788169E+04  0.25500000920E-02 0. -1.
    10030    2    1    2    0    0  0.00000000000E+00  0.00000000000E+00 -0.53232590724E+03  0.24664317265E+04  0.24083011834E+04 0.  0.
        1    1    3    3  502    0  0.45132420112E+03 -0.47503185610E+03  0.76848459181E+03  0.10099095834E+04  0.50400001928E-02 0.  1.
       -1    1    3    3    0  502 -0.45132420112E+03  0.47503185610E+03 -0.13008104990E+04  0.14565221431E+04  0.50400001928E-02 0. -1.
</event>
<event>
 5   0  0.2090039E-05  0.2398693E+04  0.7818609E-02  0.8439993E-01
        1   -1    0    0  501    0  0.00000000000E+00  0.00000000000E+00  0.82433485812E+03  0.82433485813E+03  0.50400001928E-02 0. -1.
       -1   -1    0    0    0  501  0.00000000000E+00  0.00000000000E+00 -0.17449607194E+04  0.17449607194E+04  0.50400001928E-02 0.  1.
    10030    2    1    2    0    0  0.00000000000E+00  0.00000000000E+00 -0.92062586131E+03  0.25692955776E+04  0.23986929333E+04 0.  0.
        1    1    3    3  502    0  0.80170364715E+03  0.78472258245E+03 -0.59828368655E+01  0.11218529599E+04  0.50400001928E-02 0. -1.
       -1    1    3    3    0  502 -0.80170364715E+03 -0.78472258245E+03 -0.91464302445E+03  0.14474426177E+04  0.50400001928E-02 0.  1.
</event>
<event>
 5   0  0.4664127E-05  0.2287707E+04  0.7818609E-02  0.8482784E-01
        2   -1    0    0  501    0  0.00000000000E+00  0.00000000000E+00  0.15374404161E+04  0.15374404161E+04  0.25500000920E-02 0.  1.
       -2   -1    0    0    0  501  0.00000000000E+00  0.00000000000E+00 -0.85102553875E+03  0.85102553875E+03  0.25500000920E-02 0. -1.
    10030    2    1    2    0    0  0.00000000000E+00  0.00000000000E+00  0.68641487737E+03  0.23884659549E+04  0.22877072002E+04 0.  0.
        4    1    3    3  502    0  0.24216408968E+03 -0.95411604558E+03 -0.26504858200E+03  0.10194278976E+04  0.12699999809E+01 0. -1.
       -4    1    3    3    0  502 -0.24216408968E+03  0.95411604558E+03  0.95146345937E+03  0.13690380572E+04  0.12699999809E+01 0.  1.
</event>
<event>
 5   0  0.4664127E-05  0.2417241E+04  0.7818609E-02  0.8433077E-01
        2   -1    0    0  501    0  0.00000000000E+00  0.00000000000E+00  0.21066965798E+04  0.21066965798E+04  0.25500000920E-02 0.  1.
       -2   -1    0    0    0  501  0.00000000000E+00  0.00000000000E+00 -0.69339071471E+03  0.69339071471E+03  0.25500000920E-02 0. -1.
    10030    2    1    2    0    0  0.00000000000E+00  0.00000000000E+00  0.14133058651E+04  0.28000872945E+04  0.24172412764E+04 0.  0.
        4    1    3    3  502    0 -0.88789394981E+03  0.12208099542E+03 -0.23263852417E+03  0.92594909762E+03  0.12699999809E+01 0. -1.
       -4    1    3    3    0  502  0.88789394981E+03 -0.12208099542E+03  0.16459443892E+04  0.18741381969E+04  0.12699999809E+01 0.  1.
</event>
<event>
 5   0  0.4756705E-05  0.2449321E+04  0.7818609E-02  0.8421266E-01
        2   -1    0    0  501    0  0.00000000000E+00  0.00000000000E+00  0.14749053480E+04  0.14749053480E+04  0.25500000920E-02 0.  1.
       -2   -1    0    0    0  501  0.00000000000E+00  0.00000000000E+00 -0.10168746447E+04  0.10168746447E+04  0.25500000920E-02 0. -1.
    10030    2    1    2    0    0  0.00000000000E+00  0.00000000000E+00  0.45803070322E+03  0.24917799927E+04  0.24493214177E+04 0.  0.
        3    1    3    3  502    0 -0.44731126087E+03  0.77684969906E+03  0.10778720141E+04  0.14019240022E+04  0.10100000352E+00 0.  1.
       -3    1    3    3    0  502  0.44731126087E+03 -0.77684969906E+03 -0.61984131091E+03  0.10898559905E+04  0.10100000352E+00 0. -1.
</event>
<event>
 5   0  0.2057599E-05  0.2387835E+04  0.7818609E-02  0.8444072E-01
       -1   -1    0    0    0  501  0.00000000000E+00  0.00000000000E+00  0.67514974494E+03  0.67514974496E+03  0.50400001928E-02 0.  1.
        1   -1    0    0  501    0  0.00000000000E+00  0.00000000000E+00 -0.21112924815E+04  0.21112924815E+04  0.50400001928E-02 0. -1.
    10030    2    1    2    0    0  0.00000000000E+00  0.00000000000E+00 -0.14361427365E+04  0.27864422264E+04  0.23878346512E+04 0.  0.
        4    1    3    3  502    0  0.92894929897E+03  0.71875888718E+03 -0.96801251492E+03  0.15220417142E+04  0.12699999809E+01 0. -1.
       -4    1    3    3    0  502 -0.92894929897E+03 -0.71875888718E+03 -0.46813022162E+03  0.12644005122E+04  0.12699999809E+01 0.  1.
</event>
<event>
 5   0  0.2139556E-05  0.2393673E+04  0.7818609E-02  0.8441876E-01
        1   -1    0    0  501    0  0.00000000000E+00  0.00000000000E+00  0.81553781366E+03  0.81553781368E+03  0.50400001928E-02 0. -1.
       -1   -1    0    0    0  501  0.00000000000E+00  0.00000000000E+00 -0.17564088762E+04  0.17564088763E+04  0.50400001928E-02 0.  1.
    10030    2    1    2    0    0  0.00000000000E+00  0.00000000000E+00 -0.94087106259E+03  0.25719466899E+04  0.23936732065E+04 0.  0.
        2    1    3    3  502    0 -0.19742423359E+03 -0.93349872109E+03 -0.12467565907E+04  0.15699675751E+04  0.25500000920E-02 0.  1.
       -2    1    3    3    0  502  0.19742423359E+03  0.93349872109E+03  0.30588552813E+03  0.10019791149E+04  0.25500000920E-02 0. -1.
</event>
<event>
 5   0  0.4756705E-05  0.2397816E+04  0.7818609E-02  0.8440322E-01
        2   -1    0    0  501    0  0.00000000000E+00  0.00000000000E+00  0.14915336333E+04  0.14915336333E+04  0.25500000920E-02 0. -1.
       -2   -1    0    0    0  501  0.00000000000E+00  0.00000000000E+00 -0.96369256164E+03  0.96369256164E+03  0.25500000920E-02 0.  1.
    10030    2    1    2    0    0  0.00000000000E+00  0.00000000000E+00  0.52784107166E+03  0.24552261949E+04  0.23978155624E+04 0.  0.
        3    1    3    3  502    0 -0.11461546132E+04 -0.27536696928E+03  0.39860650388E+02  0.11794431935E+04  0.10100000352E+00 0.  1.
       -3    1    3    3    0  502  0.11461546132E+04  0.27536696928E+03  0.48798042127E+03  0.12757830014E+04  0.10100000352E+00 0. -1.
</event>
<event>
 5   0  0.4664127E-05  0.2398598E+04  0.7818609E-02  0.8440029E-01
       -2   -1    0    0    0  501  0.00000000000E+00  0.00000000000E+00  0.11159959594E+04  0.11159959594E+04  0.25500000920E-02 0. -1.
        2   -1    0    0  501    0  0.00000000000E+00  0.00000000000E+00 -0.12888201424E+04  0.12888201424E+04  0.25500000920E-02 0.  1.
    10030    2    1    2    0    0  0.00000000000E+00  0.00000000000E+00 -0.17282418301E+03  0.24048161018E+04  0.23985979832E+04 0.  0.
        4    1    3    3  502    0  0.78428907050E+03 -0.71132083810E+03  0.47827957712E+03  0.11618259971E+04  0.12699999809E+01 0. -1.
       -4    1    3    3    0  502 -0.78428907050E+03  0.71132083810E+03 -0.65110376013E+03  0.12429901046E+04  0.12699999809E+01 0.  1.
</event>
<event>
 5   0  0.4664127E-05  0.2170066E+04  0.7818609E-02  0.8530992E-01
        2   -1    0    0  501    0  0.00000000000E+00  0.00000000000E+00  0.98994198975E+03  0.98994198975E+03  0.25500000920E-02 0. -1.
       -2   -1    0    0    0  501  0.00000000000E+00  0.00000000000E+00 -0.11892577722E+04  0.11892577722E+04  0.25500000920E-02 0.  1.
    10030    2    1    2    0    0  0.00000000000E+00  0.00000000000E+00 -0.19931578240E+03  0.21791997619E+04  0.21700656260E+04 0.  0.
        4    1    3    3  502    0 -0.10255650442E+04  0.35180892624E+03 -0.14156376846E+03  0.10934327112E+04  0.12699999809E+01 0. -1.
       -4    1    3    3    0  502  0.10255650442E+04 -0.35180892624E+03 -0.57752013937E+02  0.10857670507E+04  0.12699999809E+01 0.  1.
</event>
<event>
 5   0  0.2065692E-05  0.2386710E+04  0.7818609E-02  0.8444496E-01
       -1   -1    0    0    0  501  0.00000000000E+00  0.00000000000E+00  0.13184552452E+04  0.13184552452E+04  0.50400001928E-02 0.  1.
        1   -1    0    0  501    0  0.00000000000E+00  0.00000000000E+00 -0.10801250676E+04  0.10801250676E+04  0.50400001928E-02 0. -1.
    10030    2    1    2    0    0  0.00000000000E+00  0.00000000000E+00  0.23833017759E+03  0.23985803129E+04  0.23867103393E+04 0.  0.
        3    1    3    3  502    0  0.79787352075E+03 -0.83149942059E+03 -0.19238169298E+03  0.11683339281E+04  0.10100000352E+00 0. -1.
       -3    1    3    3    0  502 -0.79787352075E+03  0.83149942059E+03  0.43071187057E+03  0.12302463848E+04  0.10100000352E+00 0.  1.
</event>
<event>
 5   0  0.2090039E-05  0.1733519E+04  0.7818609E-02  0.8742475E-01
       -1   -1    0    0    0  501  0.00000000000E+00  0.00000000000E+00  0.54237826784E+03  0.54237826786E+03  0.50400001928E-02 0.  1.
        1   -1    0    0  501    0  0.00000000000E+00  0.00000000000E+00 -0.13851447287E+04  0.13851447287E+04  0.50400001928E-02 0. -1.
    10030    2    1    2    0    0  0.00000000000E+00  0.00000000000E+00 -0.84276646081E+03  0.19275229965E+04  0.17335194244E+04 0.  0.
        1    1    3    3  502    0 -0.81494921913E+03  0.84375099350E+02 -0.73590139756E+03  0.11012775554E+04  0.50400001928E-02 0.  1.
       -1    1    3    3    0  502  0.81494921913E+03 -0.84375099350E+02 -0.10686506325E+03  0.82624544109E+03  0.50400001928E-02 0. -1.
</event>
<event>
 5   0  0.2139556E-05  0.2422655E+04  0.7818609E-02  0.8431070E-01
       -1   -1    0    0    0  501  0.00000000000E+00  0.00000000000E+00  0.93027096099E+03  0.93027096100E+03  0.50400001928E-02 0. -1.
        1   -1    0    0  501    0  0.00000000000E+00  0.00000000000E+00 -0.15772979404E+04  0.15772979404E+04  0.50400001928E-02 0.  1.
    10030    2    1    2    0    0  0.00000000000E+00  0.00000000000E+00 -0.64702697943E+03  0.25075689014E+04  0.24226551309E+04 0.  0.
        2    1    3    3  502    0 -0.34876947595E+03 -0.13828578116E+03 -0.15156426597E+04  0.15613890535E+04  0.25500000920E-02 0.  1.
       -2    1    3    3    0  502  0.34876947595E+03  0.13828578116E+03  0.86861568024E+03  0.94617984791E+03  0.25500000920E-02 0. -1.
</event>
<event>
 5   0  0.4856882E-05  0.2380951E+04  0.7818609E-02  0.8446670E-01
       -2   -1    0    0    0  501  0.00000000000E+00  0.00000000000E+00  0.74953461673E+03  0.74953461673E+03  0.25500000920E-02 0. -1.
        2   -1    0    0  501    0  0.00000000000E+00  0.00000000000E+00 -0.18908162229E+04  0.18908162229E+04  0.25500000920E-02 0.  1.
    10030    2    1    2    0    0  0.00000000000E+00  0.00000000000E+00 -0.11412816062E+04  0.26403508397E+04  0.23809512494E+04 0.  0.
        1    1    3    3  502    0 -0.45215225466E+03  0.91253563655E+03  0.11302287877E+03  0.10246643941E+04  0.50400001928E-02 0. -1.
       -1    1    3    3    0  502  0.45215225466E+03 -0.91253563655E+03 -0.12543044850E+04  0.16156864456E+04  0.50400001928E-02 0.  1.
</event>
<event>
 5   0  0.4664127E-05  0.2394525E+04  0.7818609E-02  0.8441556E-01
       -2   -1    0    0    0  501  0.00000000000E+00  0.00000000000E+00  0.21593221706E+04  0.21593221706E+04  0.25500000920E-02 0.  1.
        2   -1    0    0  501    0  0.00000000000E+00  0.00000000000E+00 -0.66383688881E+03  0.66383688881E+03  0.25500000920E-02 0. -1.
    10030    2    1    2    0    0  0.00000000000E+00  0.00000000000E+00  0.14954852818E+04  0.28231590594E+04  0.23945251819E+04 0.  0.
        4    1    3    3  502    0  0.20960790412E+03 -0.91139081694E+03 -0.13365184429E+03  0.94468678569E+03  0.12699999809E+01 0. -1.
       -4    1    3    3    0  502 -0.20960790412E+03  0.91139081694E+03  0.16291371261E+04  0.18784722737E+04  0.12699999809E+01 0.  1.
</event>
<event>
 5   0  0.2149920E-05  0.2669244E+04  0.7818609E-02  0.8345054E-01
       -1   -1    0    0    0  501  0.00000000000E+00  0.00000000000E+00  0.72254051674E+03  0.72254051675E+03  0.50400001928E-02 0. -1.
        1   -1    0    0  501    0  0.00000000000E+00  0.00000000000E+00 -0.24652125196E+04  0.24652125196E+04  0.50400001928E-02 0.  1.
    10030    2    1    2    0    0  0.00000000000E+00  0.00000000000E+00 -0.17426720029E+04  0.31877530364E+04  0.26692440337E+04 0.  0.
        5    1    3    3  502    0 -0.10322193156E+04 -0.59294333160E+03 -0.15068035250E+03  0.11999104836E+04  0.46999998093E+01 0. -1.
       -5    1    3    3    0  502  0.10322193156E+04  0.59294333160E+03 -0.15919916504E+04  0.19878425528E+04  0.46999998093E+01 0.  1.
</event>
<event>
 5   0  0.4856882E-05  0.2433372E+04  0.7818609E-02  0.8427114E-01
       -2   -1    0    0    0  501  0.00000000000E+00  0.00000000000E+00  0.96793796415E+03  0.96793796415E+03  0.25500000920E-02 0.  1.
        2   -1    0    0  501    0  0.00000000000E+00  0.00000000000E+00 -0.15293590561E+04  0.15293590561E+04  0.25500000920E-02 0. -1.
    10030    2    1    2    0    0  0.00000000000E+00  0.00000000000E+00 -0.56142109194E+03  0.24972970202E+04  0.24333718920E+04 0.  0.
        1    1    3    3  502    0  0.13800414386E+03 -0.14957046180E+03  0.95034672977E+03  0.97189267596E+03  0.50400001928E-02 0.  1.
       -1    1    3    3    0  502 -0.13800414386E+03  0.14957046180E+03 -0.15117678217E+04  0.15254043443E+04  0.50400001928E-02 0. -1.
</event>
<event>
 5   0  0.2065692E-05  0.2231511E+04  0.7818609E-02  0.8505426E-01
       -1   -1    0    0    0  501  0.00000000000E+00  0.00000000000E+00  0.84030128948E+03  0.84030128949E+03  0.50400001928E-02 0.  1.
        1   -1    0    0  501    0  0.00000000000E+00  0.00000000000E+00 -0.14815049077E+04  0.14815049077E+04  0.50400001928E-02 0. -1.
    10030    2    1    2    0    0  0.00000000000E+00  0.00000000000E+00 -0.64120361822E+03  0.23218061972E+04  0.22315111331E+04 0.  0.
        3    1    3    3  502    0 -0.72059038108E+03 -0.19196781760E+03 -0.11841291737E+04  0.13993798807E+04  0.10100000352E+00 0. -1.
       -3    1    3    3    0  502  0.72059038108E+03  0.19196781760E+03  0.54292555550E+03  0.92242631647E+03  0.10100000352E+00 0.  1.
</event>
<event>
 5   0  0.2149920E-05  0.2424886E+04  0.7818609E-02  0.8430245E-01
       -1   -1    0    0    0  501  0.00000000000E+00  0.00000000000E+00  0.12802641720E+04  0.12802641720E+04  0.50400001928E-02 0.  1.
        1   -1    0    0  501    0  0.00000000000E+00  0.00000000000E+00 -0.11482143162E+04  0.11482143162E+04  0.50400001928E-02 0. -1.
    10030    2    1    2    0    0  0.00000000000E+00  0.00000000000E+00  0.13204985585E+03  0.24284784882E+04  0.24248856887E+04 0.  0.
        5    1    3    3  502    0  0.16346708245E+03 -0.11818404281E+04  0.28204634216E+03  0.12259855275E+04  0.46999998093E+01 0.  1.
       -5    1    3    3    0  502 -0.16346708245E+03  0.11818404281E+04 -0.14999648631E+03  0.12024929607E+04  0.46999998093E+01 0. -1.
</event>
<event>
 5   0  0.2149920E-05  0.2373061E+04  0.7818609E-02  0.8449659E-01
        1   -1    0    0  501    0  0.00000000000E+00  0.00000000000E+00  0.19564041685E+04  0.19564041685E+04  0.50400001928E-02 0. -1.
       -1   -1    0    0    0  501  0.00000000000E+00  0.00000000000E+00 -0.71961335035E+03  0.71961335037E+03  0.50400001928E-02 0.  1.
    10030    2    1    2    0    0  0.00000000000E+00  0.00000000000E+00  0.12367908181E+04  0.26760175189E+04  0.23730609418E+04 0.  0.
        5    1    3    3  502    0 -0.32884440277E+03 -0.21363577018E+03  0.18812056870E+04  0.19216492423E+04  0.46999998093E+01 0. -1.
       -5    1    3    3    0  502  0.32884440277E+03  0.21363577018E+03 -0.64441486886E+03  0.75436827660E+03  0.46999998093E+01 0.  1.
</event>
<event>
 5   0  0.4713971E-05  0.2386409E+04  0.7818609E-02  0.8444609E-01
        2   -1    0    0  501    0  0.00000000000E+00  0.00000000000E+00  0.12769499942E+04  0.12769499942E+04  0.25500000920E-02 0. -1.
       -2   -1    0    0    0  501  0.00000000000E+00  0.00000000000E+00 -0.11149509916E+04  0.11149509916E+04  0.25500000920E-02 0.  1.
    10030    2    1    2    0    0  0.00000000000E+00  0.00000000000E+00  0.16199900259E+03  0.23919009859E+04  0.23864087348E+04 0.  0.
        5    1    3    3  502    0 -0.76335760739E+03  0.45730518903E+03  0.87773252788E+03  0.12499117382E+04  0.46999998093E+01 0. -1.
       -5    1    3    3    0  502  0.76335760739E+03 -0.45730518903E+03 -0.71573352528E+03  0.11419892477E+04  0.46999998093E+01 0.  1.
</event>
<event>
 5   0  0.4713971E-05  0.2382776E+04  0.7818609E-02  0.8445980E-01
       -2   -1    0    0    0  501  0.00000000000E+00  0.00000000000E+00  0.60354135570E+03  0.60354135570E+03  0.25500000920E-02 0. -1.
        2   -1    0    0  501    0  0.00000000000E+00  0.00000000000E+00 -0.23517947666E+04  0.23517947666E+04  0.25500000920E-02 0.  1.
    10030    2    1    2    0    0  0.00000000000E+00  0.00000000000E+00 -0.17482534109E+04  0.29553361223E+04  0.23827760296E+04 0.  0.
        5    1    3    3  502    0  0.32037056735E+03  0.95437795521E+03 -0.83925194935E+02  0.10102178528E+04  0.46999998093E+01 0. -1.
       -5    1    3    3    0  502 -0.32037056735E+03 -0.95437795521E+03 -0.16643282160E+04  0.19451182695E+04  0.46999998093E+01 0.  1.
</event>
<event>
 5   0  0.4664127E-05  0.1849898E+04  0.7818609E-02  0.8680205E-01
       -2   -1    0    0    0  501  0.00000000000E+00  0.00000000000E+00  0.11582483491E+04  0.11582483491E+04  0.25500000920E-02 0. -1.
        2   -1    0    0  501    0  0.00000000000E+00  0.00000000000E+00 -0.73864175354E+03  0.73864175354E+03  0.25500000920E-02 0.  1.
    10030    2    1    2    0    0  0.00000000000E+00  0.00000000000E+00  0.41960659554E+03  0.18968901026E+04  0.18498979341E+04 0.  0.
        4    1    3    3  502    0  0.82520887431E+03  0.33238319471E+03 -0.49768820639E+02  0.89102571387E+03  0.12699999809E+01 0.  1.
       -4    1    3    3    0  502 -0.82520887431E+03 -0.33238319471E+03  0.46937541618E+03  0.10058643888E+04  0.12699999809E+01 0. -1.
</event>
<event>
 5   0  0.2090039E-05  0.2404122E+04  0.7818609E-02  0.8437962E-01
       -1   -1    0    0    0  501  0.00000000000E+00  0.00000000000E+00  0.11361660127E+04  0.11361660127E+04  0.50400001928E-02 0. -1.
        1   -1    0    0  501    0  0.00000000000E+00  0.00000000000E+00 -0.12717774156E+04  0.12717774156E+04  0.50400001928E-02 0.  1.
    10030    2    1    2    0    0  0.00000000000E+00  0.00000000000E+00 -0.13561140290E+03  0.24079434283E+04  0.24041216902E+04 0.  0.
        1    1    3    3  502    0  0.10312291478E+04  0.22948679023E+03 -0.64217395615E+03  0.12363191870E+04  0.50400001928E-02 0.  1.
       -1    1    3    3    0  502 -0.10312291478E+04 -0.22948679023E+03  0.50656255325E+03  0.11716242412E+04  0.50400001928E-02 0. -1.
</event>
<event>
 5   0  0.4713971E-05  0.2383372E+04  0.7818609E-02  0.8445755E-01
       -2   -1    0    0    0  501  0.00000000000E+00  0.00000000000E+00  0.99060614418E+03  0.99060614418E+03  0.25500000920E-02 0. -1.
        2   -1    0    0  501    0  0.00000000000E+00  0.00000000000E+00 -0.14335826177E+04  0.14335826177E+04  0.25500000920E-02 0.  1.
    10030    2    1    2    0    0  0.00000000000E+00  0.00000000000E+00 -0.44297647351E+03  0.24241887619E+04  0.23833721902E+04 0.  0.
        5    1    3    3  502    0 -0.66821920420E+03 -0.50762615503E+02  0.78078044753E+03  0.10289479799E+04  0.46999998093E+01 0. -1.
       -5    1    3    3    0  502  0.66821920420E+03  0.50762615503E+02 -0.12237569210E+04  0.13952407820E+04  0.46999998093E+01 0.  1.
</event>
<event>
 5   0  0.2149920E-05  0.2403420E+04  0.7818609E-02  0.8438224E-01
       -1   -1    0    0    0  501  0.00000000000E+00  0.00000000000E+00  0.11823710496E+04  0.11823710496E+04  0.50400001928E-02 0.  1.
        1   -1    0    0  501    0  0.00000000000E+00  0.00000000000E+00 -0.12213648320E+04  0.12213648321E+04  0.50400001928E-02 0. -1.
    10030    2    1    2    0    0  0.00000000000E+00  0.00000000000E+00 -0.38993782440E+02  0.24037358817E+04  0.24034195792E+04 0.  0.
        5    1    3    3  502    0  0.61824862653E+03  0.87373308245E+03 -0.56586858106E+03  0.12107312685E+04  0.46999998093E+01 0. -1.
       -5    1    3    3    0  502 -0.61824862653E+03 -0.87373308245E+03  0.52687479862E+03  0.11930046131E+04  0.46999998093E+01 0.  1.
</event>
<event>
 5   0  0.4756705E-05  0.2407226E+04  0.7818609E-02  0.8436803E-01
       -2   -1    0    0    0  501  0.00000000000E+00  0.00000000000E+00  0.10098490006E+04  0.10098490006E+04  0.25500000920E-02 0. -1.
        2   -1    0    0  501    0  0.00000000000E+00  0.00000000000E+00 -0.14345557961E+04  0.14345557961E+04  0.25500000920E-02 0.  1.
    10030    2    1    2    0    0  0.00000000000E+00  0.00000000000E+00 -0.42470679556E+03  0.24444047967E+04  0.24072264015E+04 0.  0.
        3    1    3    3  502    0  0.35225655756E+02 -0.19131265482E+03 -0.14184874720E+04  0.14317639809E+04  0.10100000352E+00 0.  1.
       -3    1    3    3    0  502 -0.35225655756E+02  0.19131265482E+03  0.99378067643E+03  0.10126408158E+04  0.10100000352E+00 0. -1.
</event>
<event>
 5   0  0.4713971E-05  0.2383443E+04  0.7818609E-02  0.8445728E-01
       -2   -1    0    0    0  501  0.00000000000E+00  0.00000000000E+00  0.10027828759E+04  0.10027828759E+04  0.25500000920E-02 0.  1.
        2   -1    0    0  501    0  0.00000000000E+00  0.00000000000E+00 -0.14162584866E+04  0.14162584866E+04  0.25500000920E-02 0. -1.
    10030    2    1    2    0    0  0.00000000000E+00  0.00000000000E+00 -0.41347561070E+03  0.24190413625E+04  0.23834426850E+04 0.  0.
        5    1    3    3  502    0  0.28484341553E+03  0.11256949233E+04  0.65319592586E+02  0.11630191619E+04  0.46999998093E+01 0.  1.
       -5    1    3    3    0  502 -0.28484341553E+03 -0.11256949233E+04 -0.47879520329E+03  0.12560222006E+04  0.46999998093E+01 0. -1.
</event>
<event>
 5   0  0.2057599E-05  0.2391986E+04  0.7818609E-02  0.8442510E-01
       -1   -1    0    0    0  501  0.00000000000E+00  0.00000000000E+00  0.13417648484E+04  0.13417648484E+04  0.50400001928E-02 0.  1.
        1   -1    0    0  501    0  0.00000000000E+00  0.00000000000E+00 -0.10660582577E+04  0.10660582577E+04  0.50400001928E-02 0. -1.
    10030    2    1    2    0    0  0.00000000000E+00  0.00000000000E+00  0.27570659066E+03  0.24078231061E+04  0.23919862011E+04 0.  0.
        4    1    3    3  502    0 -0.11671453200E+04 -0.26000407875E+03  0.16183464119E+03  0.12066575252E+04  0.12699999809E+01 0. -1.
       -4    1    3    3    0  502  0.11671453200E+04  0.26000407875E+03  0.11387194946E+03  0.12011655809E+04  0.12699999809E+01 0.  1.
</event>
<event>
 5   0  0.4756705E-05  0.2400873E+04  0.7818609E-02  0.8439177E-01
       -2   -1    0    0    0  501  0.00000000000E+00  0.00000000000E+00  0.11026639884E+04  0.11026639884E+04  0.25500000920E-02 0.  1.
        2   -1    0    0  501    0  0.00000000000E+00  0.00000000000E+00 -0.13068784859E+04  0.13068784859E+04  0.25500000920E-02 0. -1.
    10030    2    1    2    0    0  0.00000000000E+00  0.00000000000E+00 -0.20421449749E+03  0.24095424743E+04  0.24008730442E+04 0.  0.
        3    1    3    3  502    0 -0.96771308921E+03  0.61451825753E+03  0.25547486999E+03  0.11744652959E+04  0.10100000352E+00 0. -1.
       -3    1    3    3    0  502  0.96771308921E+03 -0.61451825753E+03 -0.45968936749E+03  0.12350771784E+04  0.10100000352E+00 0.  1.
</event>
<event>
 5   0  0.4914005E-05  0.2440364E+04  0.7818609E-02  0.8424545E-01
        2   -1    0    0  501    0  0.00000000000E+00  0.00000000000E+00  0.89709951905E+03  0.89709951906E+03  0.25500000920E-02 0.  1.
       -2   -1    0    0    0  501  0.00000000000E+00  0.00000000000E+00 -0.16596195970E+04  0.16596195970E+04  0.25500000920E-02 0. -1.
    10030    2    1    2    0    0  0.00000000000E+00  0.00000000000E+00 -0.76252007798E+03  0.25567191161E+04  0.24403638600E+04 0.  0.
        2    1    3    3  502    0 -0.33032301485E+02  0.12041909683E+04 -0.17789975637E+03  0.12177090558E+04  0.25500000920E-02 0.  1.
       -2    1    3    3    0  502  0.33032301485E+02 -0.12041909683E+04 -0.58462032161E+03  0.13390100603E+04  0.25500000920E-02 0. -1.
</event>
<event>
 5   0  0.4664127E-05  0.2427970E+04  0.7818609E-02  0.8429106E-01
        2   -1    0    0  501    0  0.00000000000E+00  0.00000000000E+00  0.15147966608E+04  0.15147966608E+04  0.25500000920E-02 0.  1.
       -2   -1    0    0    0  501  0.00000000000E+00  0.00000000000E+00 -0.97290888883E+03  0.97290888884E+03  0.25500000920E-02 0. -1.
    10030    2    1    2    0    0  0.00000000000E+00  0.00000000000E+00  0.54188777201E+03  0.24877055497E+04  0.24279696342E+04 0.  0.
        4    1    3    3  502    0 -0.74510436993E+02  0.37339421976E+03  0.14520330089E+04  0.15011250848E+04  0.12699999809E+01 0.  1.
       -4    1    3    3    0  502  0.74510436993E+02 -0.37339421976E+03 -0.91014523685E+03  0.98658046486E+03  0.12699999809E+01 0. -1.
</event>
<event>
 5   0  0.4756705E-05  0.2357232E+04  0.7818609E-02  0.8455691E-01
       -2   -1    0    0    0  501  0.00000000000E+00  0.00000000000E+00  0.56012877308E+03  0.56012877309E+03  0.25500000920E-02 0. -1.
        2   -1    0    0  501    0  0.00000000000E+00  0.00000000000E+00 -0.24800283229E+04  0.24800283229E+04  0.25500000920E-02 0.  1.
    10030    2    1    2    0    0  0.00000000000E+00  0.00000000000E+00 -0.19198995499E+04  0.30401570960E+04  0.23572316151E+04 0.  0.
        3    1    3    3  502    0  0.82560502776E+03  0.13776573113E+02  0.12473183418E+03  0.83508771784E+03  0.10100000352E+00 0. -1.
       -3    1    3    3    0  502 -0.82560502776E+03 -0.13776573113E+02 -0.20446313840E+04  0.22050693782E+04  0.10100000352E+00 0.  1.
</event>
<event>
 5   0  0.4856882E-05  0.2441750E+04  0.7818609E-02  0.8424036E-01
        2   -1    0    0  501    0  0.00000000000E+00  0.00000000000E+00  0.99660755957E+03  0.99660755957E+03  0.25500000920E-02 0.  1.
       -2   -1    0    0    0  501  0.00000000000E+00  0.00000000000E+00 -0.14956097801E+04  0.14956097801E+04  0.25500000920E-02 0. -1.
    10030    2    1    2    0    0  0.00000000000E+00  0.00000000000E+00 -0.49900222049E+03  0.24922173396E+04  0.24417502026E+04 0.  0.
        1    1    3    3  502    0  0.72373923618E+03 -0.96300661422E+03 -0.45198431638E+03  0.12866507076E+04  0.50400001928E-02 0.  1.
       -1    1    3    3    0  502 -0.72373923618E+03  0.96300661422E+03 -0.47017904110E+02  0.12055666321E+04  0.50400001928E-02 0. -1.
</event>
<event>
 5   0  0.4856882E-05  0.2415268E+04  0.7818609E-02  0.8433810E-01
        2   -1    0    0  501    0  0.00000000000E+00  0.00000000000E+00  0.27570385942E+04  0.27570385942E+04  0.25500000920E-02 0. -1.
       -2   -1    0    0    0  501  0.00000000000E+00  0.00000000000E+00 -0.52896593969E+03  0.52896593970E+03  0.25500000920E-02 0.  1.
    10030    2    1    2    0    0  0.00000000000E+00  0.00000000000E+00  0.22280726545E+04  0.32860045339E+04  0.24152676959E+04 0.  0.
        1    1    3    3  502    0 -0.75059270539E+03 -0.23121909256E+03 -0.13402845290E+03  0.79675297575E+03  0.50400001928E-02 0.  1.
       -1    1    3    3    0  502  0.75059270539E+03  0.23121909256E+03  0.23621011074E+04  0.24892515581E+04  0.50400001928E-02 0. -1.
</event>
<event>
 5   0  0.2090039E-05  0.2391073E+04  0.7818609E-02  0.8442853E-01
       -1   -1    0    0    0  501  0.00000000000E+00  0.00000000000E+00  0.62528592924E+03  0.62528592926E+03  0.50400001928E-02 0.  1.
        1   -1    0    0  501    0  0.00000000000E+00  0.00000000000E+00 -0.22858457012E+04  0.22858457012E+04  0.50400001928E-02 0. -1.
    10030    2    1    2    0    0  0.00000000000E+00  0.00000000000E+00 -0.16605597720E+04  0.29111316305E+04  0.23910726910E+04 0.  0.
        1    1    3    3  502    0 -0.76716774211E+03  0.35073812021E+03 -0.18617430478E+04  0.20439302213E+04  0.50400001928E-02 0. -1.
       -1    1    3    3    0  502  0.76716774211E+03 -0.35073812021E+03  0.20118327587E+03  0.86720140914E+03  0.50400001928E-02 0.  1.
</event>
<event>
 5   0  0.2139556E-05  0.2389191E+04  0.7818609E-02  0.8443561E-01
       -1   -1    0    0    0  501  0.00000000000E+00  0.00000000000E+00  0.10018527400E+04  0.10018527400E+04  0.50400001928E-02 0. -1.
        1   -1    0    0  501    0  0.00000000000E+00  0.00000000000E+00 -0.14244197940E+04  0.14244197940E+04  0.50400001928E-02 0.  1.
    10030    2    1    2    0    0  0.00000000000E+00  0.00000000000E+00 -0.42256705404E+03  0.24262725340E+04  0.23891913891E+04 0.  0.
        2    1    3    3  502    0 -0.10266411644E+04 -0.52896643041E+03 -0.52141039513E+03  0.12671489120E+04  0.25500000920E-02 0.  1.
       -2    1    3    3    0  502  0.10266411644E+04  0.52896643041E+03  0.98843341087E+02  0.11591236220E+04  0.25500000920E-02 0. -1.
</event>
<event>
 5   0  0.4856882E-05  0.2420656E+04  0.7818609E-02  0.8431811E-01
        2   -1    0    0  501    0  0.00000000000E+00  0.00000000000E+00  0.91739936926E+03  0.91739936927E+03  0.25500000920E-02 0. -1.
       -2   -1    0    0    0  501  0.00000000000E+00  0.00000000000E+00 -0.15967890999E+04  0.15967890999E+04  0.25500000920E-02 0.  1.
    10030    2    1    2    0    0  0.00000000000E+00  0.00000000000E+00 -0.67938973067E+03  0.25141884692E+04  0.24206555419E+04 0.  0.
        1    1    3    3  502    0  0.26549944048E+03 -0.11432972581E+04 -0.64653284712E+03  0.13400086924E+04  0.50400001928E-02 0. -1.
       -1    1    3    3    0  502 -0.26549944048E+03  0.11432972581E+04 -0.32856883550E+02  0.11741797768E+04  0.50400001928E-02 0.  1.
</event>
<event>
 5   0  0.2065692E-05  0.2442875E+04  0.7818609E-02  0.8423624E-01
       -1   -1    0    0    0  501  0.00000000000E+00  0.00000000000E+00  0.69907186634E+03  0.69907186636E+03  0.50400001928E-02 0. -1.
        1   -1    0    0  501    0  0.00000000000E+00  0.00000000000E+00 -0.21341286661E+04  0.21341286661E+04  0.50400001928E-02 0.  1.
    10030    2    1    2    0    0  0.00000000000E+00  0.00000000000E+00 -0.14350567998E+04  0.28332005325E+04  0.24428747898E+04 0.  0.
        3    1    3    3  502    0 -0.17918635204E+03 -0.47211407905E+02 -0.21177320644E+04  0.21258235516E+04  0.10100000352E+00 0.  1.
       -3    1    3    3    0  502  0.17918635204E+03  0.47211407905E+02  0.68267526467E+03  0.70737698082E+03  0.10100000352E+00 0. -1.
</event>
<event>
 5   0  0.4713971E-05  0.2424386E+04  0.7818609E-02  0.8430430E-01
        2   -1    0    0  501    0  0.00000000000E+00  0.00000000000E+00  0.23128965384E+04  0.23128965384E+04  0.25500000920E-02 0.  1.
       -2   -1    0    0    0  501  0.00000000000E+00  0.00000000000E+00 -0.63531249598E+03  0.63531249598E+03  0.25500000920E-02 0. -1.
    10030    2    1    2    0    0  0.00000000000E+00  0.00000000000E+00  0.16775840424E+04  0.29482090344E+04  0.24243861679E+04 0.  0.
        5    1    3    3  502    0  0.26507512386E+02 -0.66252910404E+03 -0.39522400045E+03  0.77192717431E+03  0.46999998093E+01 0. -1.
       -5    1    3    3    0  502 -0.26507512386E+02  0.66252910404E+03  0.20728080429E+04  0.21762818601E+04  0.46999998093E+01 0.  1.
</event>
<event>
 5   0  0.2065692E-05  0.2397624E+04  0.7818609E-02  0.8440394E-01
        1   -1    0    0  501    0  0.00000000000E+00  0.00000000000E+00  0.12028873813E+04  0.12028873813E+04  0.50400001928E-02 0. -1.
       -1   -1    0    0    0  501  0.00000000000E+00  0.00000000000E+00 -0.11947506488E+04  0.11947506488E+04  0.50400001928E-02 0.  1.
    10030    2    1    2    0    0  0.00000000000E+00  0.00000000000E+00  0.81367324839E+01  0.23976380300E+04  0.23976242234E+04 0.  0.
        3    1    3    3  502    0 -0.95664637494E+03 -0.63725966898E+03  0.34447934012E+03  0.11999742490E+04  0.10100000352E+00 0. -1.
       -3    1    3    3    0  502  0.95664637494E+03  0.63725966898E+03 -0.33634260764E+03  0.11976637810E+04  0.10100000352E+00 0.  1.
</event>
<event>
 5   0  0.4914005E-05  0.2409998E+04  0.7818609E-02  0.8435770E-01
       -2   -1    0    0    0  501  0.00000000000E+00  0.00000000000E+00  0.57492967254E+03  0.57492967255E+03  0.25500000920E-02 0. -1.
        2   -1    0    0  501    0  0.00000000000E+00  0.00000000000E+00 -0.25255664525E+04  0.25255664525E+04  0.25500000920E-02 0.  1.
    10030    2    1    2    0    0  0.00000000000E+00  0.00000000000E+00 -0.19506367799E+04  0.31004961250E+04  0.24099984179E+04 0.  0.
        2    1    3    3  502    0 -0.59656033549E+03 -0.38589199324E+03  0.27678817649E+03  0.76250151408E+03  0.25500000920E-02 0. -1.
       -2    1    3    3    0  502  0.59656033549E+03  0.38589199324E+03 -0.22274249564E+04  0.23379946109E+04  0.25500000920E-02 0.  1.
</event>
<event>
 5   0  0.2057599E-05  0.2405518E+04  0.7818609E-02  0.8437441E-01
        1   -1    0    0  501    0  0.00000000000E+00  0.00000000000E+00  0.16099004187E+04  0.16099004187E+04  0.50400001928E-02 0. -1.
       -1   -1    0    0    0  501  0.00000000000E+00  0.00000000000E+00 -0.89858304706E+03  0.89858304707E+03  0.50400001928E-02 0.  1.
    10030    2    1    2    0    0  0.00000000000E+00  0.00000000000E+00  0.71131737168E+03  0.25084834658E+04  0.24055180097E+04 0.  0.
        4    1    3    3  502    0  0.79683591150E+03  0.70416167204E+03  0.94170747893E+03  0.14204244855E+04  0.12699999809E+01 0. -1.
       -4    1    3    3    0  502 -0.79683591150E+03 -0.70416167204E+03 -0.23039010725E+03  0.10880589803E+04  0.12699999809E+01 0.  1.
</event>
<event>
 5   0  0.2149920E-05  0.2393553E+04  0.7818609E-02  0.8441921E-01
        1   -1    0    0  501    0  0.00000000000E+00  0.00000000000E+00  0.12532484478E+04  0.12532484478E+04  0.50400001928E-02 0. -1.
       -1   -1    0    0    0  501  0.00000000000E+00  0.00000000000E+00 -0.11428496225E+04  0.11428496225E+04  0.50400001928E-02 0.  1.
    10030    2    1    2    0    0  0.00000000000E+00  0.00000000000E+00  0.11039882524E+03  0.23960980703E+04  0.23935534383E+04 0.  0.
        5    1    3    3  502    0  0.10531674335E+04 -0.35880948505E+03 -0.38611678080E+03  0.11777156482E+04  0.46999998093E+01 0.  1.
       -5    1    3    3    0  502 -0.10531674335E+04  0.35880948505E+03  0.49651560604E+03  0.12183824221E+04  0.46999998093E+01 0. -1.
</event>
<event>
 5   0  0.2090039E-05  0.2273494E+04  0.7818609E-02  0.8488446E-01
       -1   -1    0    0    0  501  0.00000000000E+00  0.00000000000E+00  0.47678230289E+03  0.47678230291E+03  0.50400001928E-02 0. -1.
        1   -1    0    0  501    0  0.00000000000E+00  0.00000000000E+00 -0.27102380454E+04  0.27102380454E+04  0.50400001928E-02 0.  1.
    10030    2    1    2    0    0  0.00000000000E+00  0.00000000000E+00 -0.22334557425E+04  0.31870203483E+04  0.22734938194E+04 0.  0.
        1    1    3    3  502    0  0.45038415094E+03  0.57785695378E+03 -0.23351222404E+04  0.24473578447E+04  0.50400001928E-02 0.  1.
       -1    1    3    3    0  502 -0.45038415094E+03 -0.57785695378E+03  0.10166649787E+03  0.73966250362E+03  0.50400001928E-02 0. -1.
</event>
<event>
 5   0  0.2139556E-05  0.2378822E+04  0.7818609E-02  0.8447475E-01
       -1   -1    0    0    0  501  0.00000000000E+00  0.00000000000E+00  0.97529631809E+03  0.97529631810E+03  0.50400001928E-02 0.  1.
        1   -1    0    0  501    0  0.00000000000E+00  0.00000000000E+00 -0.14505318155E+04  0.14505318155E+04  0.50400001928E-02 0. -1.
    10030    2    1    2    0    0  0.00000000000E+00  0.00000000000E+00 -0.47523549745E+03  0.24258281336E+04  0.23788218420E+04 0.  0.
        2    1    3    3  502    0 -0.10384042778E+04  0.26687413551E+02 -0.82846539954E+03  0.13286649617E+04  0.25500000920E-02 0. -1.
       -2    1    3    3    0  502  0.10384042778E+04 -0.26687413551E+02  0.35322990209E+03  0.10971631720E+04  0.25500000920E-02 0.  1.
</event>
<event>
 5   0  0.4756705E-05  0.2401620E+04  0.7818609E-02  0.8438897E-01
        2   -1    0    0  501    0  0.00000000000E+00  0.00000000000E+00  0.21411472753E+04  0.21411472753E+04  0.25500000920E-02 0.  1.
       -2   -1    0    0    0  501  0.00000000000E+00  0.00000000000E+00 -0.67344490896E+03  0.67344490897E+03  0.25500000920E-02 0. -1.
    10030    2    1    2    0    0  0.00000000000E+00  0.00000000000E+00  0.14677023664E+04  0.28145921843E+04  0.24016200631E+04 0.  0.
        3    1    3    3  502    0  0.83219982388E+03  0.47083578265E+03 -0.11749359946E+03  0.96335229132E+03  0.10100000352E+00 0. -1.
       -3    1    3    3    0  502 -0.83219982388E+03 -0.47083578265E+03  0.15851959658E+04  0.18512398930E+04  0.10100000352E+00 0.  1.
</event>
<event>
 5   0  0.4856882E-05  0.2129679E+04  0.7818609E-02  0.8548281E-01
       -2   -1    0    0    0  501  0.00000000000E+00  0.00000000000E+00  0.13353480621E+04  0.13353480621E+04  0.25500000920E-02 0. -1.
        2   -1    0    0  501    0  0.00000000000E+00  0.00000000000E+00 -0.84912901102E+03  0.84912901103E+03  0.25500000920E-02 0.  1.
    10030    2    1    2    0    0  0.00000000000E+00  0.00000000000E+00  0.48621905108E+03  0.21844770731E+04  0.21296786418E+04 0.  0.
        1    1    3    3  502    0 -0.18807545295E+03  0.41071899690E+03  0.12321929627E+04  0.13123878877E+04  0.50400001928E-02 0. -1.
       -1    1    3    3    0  502  0.18807545295E+03 -0.41071899690E+03 -0.74597391165E+03  0.87208918541E+03  0.50400001928E-02 0.  1.
</event>
<event>
 5   0  0.2139556E-05  0.2437203E+04  0.7818609E-02  0.8425705E-01
        1   -1    0    0  501    0  0.00000000000E+00  0.00000000000E+00  0.10613330321E+04  0.10613330321E+04  0.50400001928E-02 0. -1.
       -1   -1    0    0    0  501  0.00000000000E+00  0.00000000000E+00 -0.13991736553E+04  0.13991736553E+04  0.50400001928E-02 0.  1.
    10030    2    1    2    0    0  0.00000000000E+00  0.00000000000E+00 -0.33784062320E+03  0.24605066875E+04  0.24372026737E+04 0.  0.
        2    1    3    3  502    0 -0.10530283942E+04  0.60326954748E+03 -0.28036730136E+03  0.12455556068E+04  0.25500000920E-02 0. -1.
       -2    1    3    3    0  502  0.10530283942E+04 -0.60326954748E+03 -0.57473321837E+02  0.12149510807E+04  0.25500000920E-02 0.  1.
</event>
<event>
 5   0  0.2057599E-05  0.2382847E+04  0.7818609E-02  0.8445954E-01
        1   -1    0    0  501    0  0.00000000000E+00  0.00000000000E+00  0.70878776854E+03  0.70878776856E+03  0.50400001928E-02 0. -1.
       -1   -1    0    0    0  501  0.00000000000E+00  0.00000000000E+00 -0.20027002839E+04  0.20027002839E+04  0.50400001928E-02 0.  1.
    10030    2    1    2    0    0  0.00000000000E+00  0.00000000000E+00 -0.12939125154E+04  0.27114880525E+04  0.23828465879E+04 0.  0.
        4    1    3    3  502    0 -0.80103295739E+03  0.76748642281E+03 -0.11413933553E+04  0.15916876617E+04  0.12699999809E+01 0.  1.
       -4    1    3    3    0  502  0.80103295739E+03 -0.76748642281E+03 -0.15251916003E+03  0.11198003907E+04  0.12699999809E+01 0. -1.
</event>
<event>
 5   0  0.2065692E-05  0.2389057E+04  0.7818609E-02  0.8443612E-01
        1   -1    0    0  501    0  0.00000000000E+00  0.00000000000E+00  0.14892413771E+04  0.14892413771E+04  0.50400001928E-02 0.  1.
       -1   -1    0    0    0  501  0.00000000000E+00  0.00000000000E+00 -0.95813788279E+03  0.95813788281E+03  0.50400001928E-02 0. -1.
    10030    2    1    2    0    0  0.00000000000E+00  0.00000000000E+00  0.53110349433E+03  0.24473792599E+04  0.23890572032E+04 0.  0.
        3    1    3    3  502    0 -0.60109160864E+03  0.10114934602E+04  0.54442227003E+02  0.11778769496E+04  0.10100000352E+00 0. -1.
       -3    1    3    3    0  502  0.60109160864E+03 -0.10114934602E+04  0.47666126732E+03  0.12695023104E+04  0.10100000352E+00 0.  1.
</event>
<event>
 5   0  0.2057599E-05  0.2413802E+04  0.7818609E-02  0.8434354E-01
        1   -1    0    0  501    0  0.00000000000E+00  0.00000000000E+00  0.14671922491E+04  0.14671922491E+04  0.50400001928E-02 0. -1.
       -1   -1    0    0    0  501  0.00000000000E+00  0.00000000000E+00 -0.99278763699E+03  0.99278763701E+03  0.50400001928E-02 0.  1.
    10030    2    1    2    0    0  0.00000000000E+00  0.00000000000E+00  0.47440461206E+03  0.24599798861E+04  0.24138022504E+04 0.  0.
        4    1    3    3  502    0  0.66947011844E+02 -0.11775923037E+04  0.49783523842E+03  0.12802527382E+04  0.12699999809E+01 0. -1.
       -4    1    3    3    0  502 -0.66947011844E+02  0.11775923037E+04 -0.23430626354E+02  0.11797271478E+04  0.12699999809E+01 0.  1.
</event>
<event>
 5   0  0.4914005E-05  0.2395009E+04  0.7818609E-02  0.8441375E-01
        2   -1    0    0  501    0  0.00000000000E+00  0.00000000000E+00  0.11013980541E+04  0.11013980541E+04  0.25500000920E-02 0.  1.
       -2   -1    0    0    0  501  0.00000000000E+00  0.00000000000E+00 -0.13019969311E+04  0.13019969311E+04  0.25500000920E-02 0. -1.
    10030    2    1    2    0    0  0.00000000000E+00  0.00000000000E+00 -0.20059887696E+03  0.24033949851E+04  0.23950088821E+04 0.  0.
        2    1    3    3  502    0  0.11065704828E+03  0.50199138363E+02  0.10951955838E+04  0.11019157420E+04  0.25500000920E-02 0.  1.
       -2    1    3    3    0  502 -0.11065704828E+03 -0.50199138363E+02 -0.12957944607E+04  0.13014792431E+04  0.25500000920E-02 0. -1.
</event>
<event>
 5   0  0.4856882E-05  0.2110991E+04  0.7818609E-02  0.8556417E-01
       -2   -1    0    0    0  501  0.00000000000E+00  0.00000000000E+00  0.65945202775E+03  0.65945202776E+03  0.25500000920E-02 0.  1.
        2   -1    0    0  501    0  0.00000000000E+00  0.00000000000E+00 -0.16893891040E+04  0.16893891040E+04  0.25500000920E-02 0. -1.
    10030    2    1    2    0    0  0.00000000000E+00  0.00000000000E+00 -0.10299370763E+04  0.23488411318E+04  0.21109913030E+04 0.  0.
        1    1    3    3  502    0  0.82974540514E+03 -0.48591359248E+03 -0.99930898328E+03  0.13867977144E+04  0.50400001928E-02 0.  1.
       -1    1    3    3    0  502 -0.82974540514E+03  0.48591359248E+03 -0.30628092969E+02  0.96204341732E+03  0.50400001928E-02 0. -1.
</event>
<event>
 5   0  0.2090039E-05  0.2210673E+04  0.7818609E-02  0.8513999E-01
       -1   -1    0    0    0  501  0.00000000000E+00  0.00000000000E+00  0.78391678924E+03  0.78391678926E+03  0.50400001928E-02 0.  1.
        1   -1    0    0  501    0  0.00000000000E+00  0.00000000000E+00 -0.15585441322E+04  0.15585441322E+04  0.50400001928E-02 0. -1.
    10030    2    1    2    0    0  0.00000000000E+00  0.00000000000E+00 -0.77462734297E+03  0.23424609215E+04  0.22106731211E+04 0.  0.
        1    1    3    3  502    0 -0.64814943569E+02  0.98378541832E+03 -0.91683910184E+03  0.13463389859E+04  0.50400001928E-02 0.  1.
       -1    1    3    3    0  502  0.64814943569E+02 -0.98378541832E+03  0.14221175887E+03  0.99612193560E+03  0.50400001928E-02 0. -1.
</event>
<event>
 5   0  0.4914005E-05  0.2395565E+04  0.7818609E-02  0.8441166E-01
        2   -1    0    0  501    0  0.00000000000E+00  0.00000000000E+00  0.15428381792E+04  0.15428381792E+04  0.25500000920E-02 0. -1.
       -2   -1    0    0    0  501  0.00000000000E+00  0.00000000000E+00 -0.92989888726E+03  0.92989888726E+03  0.25500000920E-02 0.  1.
    10030    2    1    2    0    0  0.00000000000E+00  0.00000000000E+00  0.61293929190E+03  0.24727370664E+04  0.23955654915E+04 0.  0.
        2    1    3    3  502    0  0.35099988378E+02 -0.62666998301E+03  0.13594983926E+04  0.14973921184E+04  0.25500000920E-02 0. -1.
       -2    1    3    3    0  502 -0.35099988378E+02  0.62666998301E+03 -0.74655910069E+03  0.97534494802E+03  0.25500000920E-02 0.  1.
</event>
<event>
 5   0  0.2065692E-05  0.2478278E+04  0.7818609E-02  0.8410765E-01
       -1   -1    0    0    0  501  0.00000000000E+00  0.00000000000E+00  0.61835953476E+03  0.61835953478E+03  0.50400001928E-02 0. -1.
        1   -1    0    0  501    0  0.00000000000E+00  0.00000000000E+00 -0.24831266653E+04  0.24831266653E+04  0.50400001928E-02 0.  1.
    10030    2    1    2    0    0  0.00000000000E+00  0.00000000000E+00 -0.18647671306E+04  0.31014862001E+04  0.24782776677E+04 0.  0.
        3    1    3    3  502    0 -0.40059348573E+02 -0.11266807734E+04 -0.15759483456E+04  0.19376861239E+04  0.10100000352E+00 0. -1.
       -3    1    3    3    0  502  0.40059348573E+02  0.11266807734E+04 -0.28881878494E+03  0.11638000762E+04  0.10100000352E+00 0.  1.
</event>
<event>
 5   0  0.4856882E-05  0.2390091E+04  0.7818609E-02  0.8443223E-01
        2   -1    0    0  501    0  0.00000000000E+00  0.00000000000E+00  0.10965063603E+04  0.10965063603E+04  0.25500000920E-02 0.  1.
       -2   -1    0    0    0  501  0.00000000000E+00  0.00000000000E+00 -0.13024395574E+04  0.13024395574E+04  0.25500000920E-02 0. -1.
    10030    2    1    2    0    0  0.00000000000E+00  0.00000000000E+00 -0.20593319703E+03  0.23989459177E+04  0.23900905913E+04 0.  0.
        1    1    3    3  502    0  0.14872975479E+03 -0.37780991467E+03  0.10251515778E+04  0.11026316833E+04  0.50400001928E-02 0.  1.
       -1    1    3    3    0  502 -0.14872975479E+03  0.37780991467E+03 -0.12310847748E+04  0.12963142344E+04  0.50400001928E-02 0. -1.
</event>
<event>
 5   0  0.2065692E-05  0.2383239E+04  0.7818609E-02  0.8445805E-01
        1   -1    0    0  501    0  0.00000000000E+00  0.00000000000E+00  0.16675977861E+04  0.16675977861E+04  0.50400001928E-02 0. -1.
       -1   -1    0    0    0  501  0.00000000000E+00  0.00000000000E+00 -0.85149833346E+03  0.85149833347E+03  0.50400001928E-02 0.  1.
    10030    2    1    2    0    0  0.00000000000E+00  0.00000000000E+00  0.81609945267E+03  0.25190961196E+04  0.23832387508E+04 0.  0.
        3    1    3    3  502    0  0.79598718691E+03 -0.86416452955E+03  0.19775934195E+03  0.11914212955E+04  0.10100000352E+00 0. -1.
       -3    1    3    3    0  502 -0.79598718691E+03  0.86416452955E+03  0.61834011072E+03  0.13276748241E+04  0.10100000352E+00 0.  1.
</event>
<event>
 5   0  0.4713971E-05  0.2405233E+04  0.7818609E-02  0.8437547E-01
       -2   -1    0    0    0  501  0.00000000000E+00  0.00000000000E+00  0.67323235286E+03  0.67323235287E+03  0.25500000920E-02 0.  1.
        2   -1    0    0  501    0  0.00000000000E+00  0.00000000000E+00 -0.21482723797E+04  0.21482723797E+04  0.25500000920E-02 0. -1.
    10030    2    1    2    0    0  0.00000000000E+00  0.00000000000E+00 -0.14750400269E+04  0.28215047326E+04  0.24052330189E+04 0.  0.
        5    1    3    3  502    0 -0.10708922654E+04 -0.42672866768E+03 -0.11393827307E+04  0.16208401207E+04  0.46999998093E+01 0. -1.
       -5    1    3    3    0  502  0.10708922654E+04  0.42672866768E+03 -0.33565729619E+03  0.12006646119E+04  0.46999998093E+01 0.  1.
</event>
<event>
 5   0  0.4856882E-05  0.2425235E+04  0.7818609E-02  0.8430116E-01
       -2   -1    0    0    0  501  0.00000000000E+00  0.00000000000E+00  0.54729958141E+03  0.54729958142E+03  0.25500000920E-02 0.  1.
        2   -1    0    0  501    0  0.00000000000E+00  0.00000000000E+00 -0.26867209233E+04  0.26867209233E+04  0.25500000920E-02 0. -1.
    10030    2    1    2    0    0  0.00000000000E+00  0.00000000000E+00 -0.21394213419E+04  0.32340205047E+04  0.24252350292E+04 0.  0.
        1    1    3    3  502    0 -0.94623123443E+03 -0.73998539559E+03 -0.12908819462E+04  0.17633230373E+04  0.50400001928E-02 0. -1.
       -1    1    3    3    0  502  0.94623123443E+03  0.73998539559E+03 -0.84853939564E+03  0.14706974674E+04  0.50400001928E-02 0.  1.
</event>
<event>
 5   0  0.2139556E-05  0.2415367E+04  0.7818609E-02  0.8433773E-01
        1   -1    0    0  501    0  0.00000000000E+00  0.00000000000E+00  0.11172947804E+04  0.11172947804E+04  0.50400001928E-02 0.  1.
       -1   -1    0    0    0  501  0.00000000000E+00  0.00000000000E+00 -0.13053843543E+04  0.13053843543E+04  0.50400001928E-02 0. -1.
    10030    2    1    2    0    0  0.00000000000E+00  0.00000000000E+00 -0.18808957389E+03  0.24226791348E+04  0.24153667428E+04 0.  0.
        2    1    3    3  502    0  0.86687614629E+03  0.52578675877E+03  0.56412249960E+03  0.11602414246E+04  0.25500000920E-02 0.  1.
       -2    1    3    3    0  502 -0.86687614629E+03 -0.52578675877E+03 -0.75221207348E+03  0.12624377102E+04  0.25500000920E-02 0. -1.
</event>
<event>
 5   0  0.4914005E-05  0.2391431E+04  0.7818609E-02  0.8442719E-01
        2   -1    0    0  501    0  0.00000000000E+00  0.00000000000E+00  0.12908451792E+04  0.12908451792E+04  0.25500000920E-02 0. -1.
       -2   -1    0    0    0  501  0.00000000000E+00  0.00000000000E+00 -0.11075965564E+04  0.11075965564E+04  0.25500000920E-02 0.  1.
    10030    2    1    2    0    0  0.00000000000E+00  0.00000000000E+00  0.18324862272E+03  0.23984417356E+04  0.23914310990E+04 0.  0.
        2    1    3    3  502    0 -0.58062540589E+03 -0.57843406925E+03  0.96482231200E+03  0.12659359890E+04  0.25500000920E-02 0. -1.
       -2    1    3    3    0  502  0.58062540589E+03  0.57843406925E+03 -0.78157368927E+03  0.11325057467E+04  0.25500000920E-02 0.  1.
</event>
<event>
 5   0  0.4856882E-05  0.2407694E+04  0.7818609E-02  0.8436628E-01
        2   -1    0    0  501    0  0.00000000000E+00  0.00000000000E+00  0.60008673669E+03  0.60008673670E+03  0.25500000920E-02 0. -1.
       -2   -1    0    0    0  501  0.00000000000E+00  0.00000000000E+00 -0.24150645332E+04  0.24150645332E+04  0.25500000920E-02 0.  1.
    10030    2    1    2    0    0  0.00000000000E+00  0.00000000000E+00 -0.18149777965E+04  0.30151512699E+04  0.24076944944E+04 0.  0.
        1    1    3    3  502    0 -0.22712203465E+03 -0.29972878370E+03  0.52464221891E+03  0.64550075158E+03  0.50400001928E-02 0. -1.
       -1    1    3    3    0  502  0.22712203465E+03  0.29972878370E+03 -0.23396200154E+04  0.23696505183E+04  0.50400001928E-02 0.  1.
</event>
<event>
 5   0  0.2139556E-05  0.2309498E+04  0.7818609E-02  0.8474185E-01
       -1   -1    0    0    0  501  0.00000000000E+00  0.00000000000E+00  0.60929512329E+03  0.60929512331E+03  0.50400001928E-02 0. -1.
        1   -1    0    0  501    0  0.00000000000E+00  0.00000000000E+00 -0.21885053552E+04  0.21885053552E+04  0.50400001928E-02 0.  1.
    10030    2    1    2    0    0  0.00000000000E+00  0.00000000000E+00 -0.15792102319E+04  0.27978004785E+04  0.23094983353E+04 0.  0.
        2    1    3    3  502    0  0.58714459816E+03  0.92751186009E+03 -0.35546493949E+03  0.11538510965E+04  0.25500000920E-02 0.  1.
       -2    1    3    3    0  502 -0.58714459816E+03 -0.92751186009E+03 -0.12237452924E+04  0.16439493820E+04  0.25500000920E-02 0. -1.
</event>
<event>
 5   0  0.2057599E-05  0.1752250E+04  0.7818609E-02  0.8732113E-01
        1   -1    0    0  501    0  0.00000000000E+00  0.00000000000E+00  0.73807492026E+03  0.73807492028E+03  0.50400001928E-02 0. -1.
       -1   -1    0    0    0  501  0.00000000000E+00  0.00000000000E+00 -0.10399966411E+04  0.10399966411E+04  0.50400001928E-02 0.  1.
    10030    2    1    2    0    0  0.00000000000E+00  0.00000000000E+00 -0.30192172081E+03  0.17780715614E+04  0.17522504820E+04 0.  0.
        4    1    3    3  502    0  0.14691733902E+03  0.14007028737E+03 -0.10158049211E+04  0.10358888167E+04  0.12699999809E+01 0.  1.
       -4    1    3    3    0  502 -0.14691733902E+03 -0.14007028737E+03  0.71388320030E+03  0.74218274467E+03  0.12699999809E+01 0. -1.
</event>
<event>
 5   0  0.4713971E-05  0.2388686E+04  0.7818609E-02  0.8443752E-01
       -2   -1    0    0    0  501  0.00000000000E+00  0.00000000000E+00  0.64176928266E+03  0.64176928266E+03  0.25500000920E-02 0.  1.
        2   -1    0    0  501    0  0.00000000000E+00  0.00000000000E+00 -0.22226916052E+04  0.22226916052E+04  0.25500000920E-02 0. -1.
    10030    2    1    2    0    0  0.00000000000E+00  0.00000000000E+00 -0.15809223225E+04  0.28644608878E+04  0.23886859961E+04 0.  0.
        5    1    3    3  502    0 -0.93635209204E+03  0.62744601747E+03 -0.12640825686E+04  0.16936264568E+04  0.46999998093E+01 0.  1.
       -5    1    3    3    0  502  0.93635209204E+03 -0.62744601747E+03 -0.31683975392E+03  0.11708344310E+04  0.46999998093E+01 0. -1.
</event>
<event>
 5   0  0.2065692E-05  0.2406364E+04  0.7818609E-02  0.8437125E-01
       -1   -1    0    0    0  501  0.00000000000E+00  0.00000000000E+00  0.83852496771E+03  0.83852496772E+03  0.50400001928E-02 0.  1.
        1   -1    0    0  501    0  0.00000000000E+00  0.00000000000E+00 -0.17264212450E+04  0.17264212450E+04  0.50400001928E-02 0. -1.
    10030    2    1    2    0    0  0.00000000000E+00  0.00000000000E+00 -0.88789627725E+03  0.25649462127E+04  0.24063643271E+04 0.  0.
        3    1    3    3  502    0 -0.59544719069E+02 -0.83673125054E+03 -0.13633349214E+04  0.16007332311E+04  0.10100000352E+00 0. -1.
       -3    1    3    3    0  502  0.59544719069E+02  0.83673125054E+03  0.47543864415E+03  0.96421298153E+03  0.10100000352E+00 0.  1.
</event>
<event>
 5   0  0.2065692E-05  0.2338585E+04  0.7818609E-02  0.8462861E-01
       -1   -1    0    0    0  501  0.00000000000E+00  0.00000000000E+00  0.67985171969E+03  0.67985171971E+03  0.50400001928E-02 0.  1.
        1   -1    0    0  501    0  0.00000000000E+00  0.00000000000E+00 -0.20110933113E+04  0.20110933113E+04  0.50400001928E-02 0. -1.
    10030    2    1    2    0    0  0.00000000000E+00  0.00000000000E+00 -0.13312415916E+04  0.26909450311E+04  0.23385852528E+04 0.  0.
        3    1    3    3  502    0  0.34201183891E+03  0.10283244235E+04 -0.16034332825E+03  0.10955059155E+04  0.10100000352E+00 0.  1.
       -3    1    3    3    0  502 -0.34201183891E+03 -0.10283244235E+04 -0.11708982634E+04  0.15954391155E+04  0.10100000352E+00 0. -1.
</event>
<event>
 5   0  0.4756705E-05  0.2459038E+04  0.7818609E-02  0.8417725E-01
        2   -1    0    0  501    0  0.00000000000E+00  0.00000000000E+00  0.13666453743E+04  0.13666453743E+04  0.25500000920E-02 0.  1.
       -2   -1    0    0    0  501  0.00000000000E+00  0.00000000000E+00 -0.11061519279E+04  0.11061519279E+04  0.25500000920E-02 0. -1.
    10030    2    1    2    0    0  0.00000000000E+00  0.00000000000E+00  0.26049344642E+03  0.24727973022E+04  0.24590383612E+04 0.  0.
        3    1    3    3  502    0 -0.55293478181E+03 -0.21732780114E+03  0.12127218613E+04  0.13504305126E+04  0.10100000352E+00 0.  1.
       -3    1    3    3    0  502  0.55293478181E+03  0.21732780114E+03 -0.95222841491E+03  0.11223667896E+04  0.10100000352E+00 0. -1.
</event>
<event>
 5   0  0.4713971E-05  0.2351692E+04  0.7818609E-02  0.8457814E-01
        2   -1    0    0  501    0  0.00000000000E+00  0.00000000000E+00  0.13034781975E+04  0.13034781975E+04  0.25500000920E-02 0. -1.
       -2   -1    0    0    0  501  0.00000000000E+00  0.00000000000E+00 -0.10607107132E+04  0.10607107132E+04  0.25500000920E-02 0.  1.
    10030    2    1    2    0    0  0.00000000000E+00  0.00000000000E+00  0.24276748429E+03  0.23641889107E+04  0.23516915516E+04 0.  0.
        5    1    3    3  502    0  0.26120949085E+03 -0.24311222058E+03 -0.10049528301E+04  0.10664362290E+04  0.46999998093E+01 0.  1.
       -5    1    3    3    0  502 -0.26120949085E+03  0.24311222058E+03  0.12477203144E+04  0.12977526817E+04  0.46999998093E+01 0. -1.
</event>
<event>
 5   0  0.2149920E-05  0.2388452E+04  0.7818609E-02  0.8443840E-01
        1   -1    0    0  501    0  0.00000000000E+00  0.00000000000E+00  0.17496277140E+04  0.17496277140E+04  0.50400001928E-02 0. -1.
       -1   -1    0    0    0  501  0.00000000000E+00  0.00000000000E+00 -0.81513072656E+03  0.81513072657E+03  0.50400001928E-02 0.  1.
    10030    2    1    2    0    0  0.00000000000E+00  0.00000000000E+00  0.93449698744E+03  0.25647584406E+04  0.23884516405E+04 0.  0.
        5    1    3    3  502    0 -0.38419271543E+02  0.39027246009E+03 -0.74400711684E+03  0.84104536943E+03  0.46999998093E+01 0.  1.
       -5    1    3    3    0  502  0.38419271543E+02 -0.39027246009E+03  0.16785041043E+04  0.17237130711E+04  0.46999998093E+01 0. -1.
</event>
<event>
 5   0  0.2139556E-05  0.2389458E+04  0.7818609E-02  0.8443461E-01
       -1   -1    0    0    0  501  0.00000000000E+00  0.00000000000E+00  0.13956994808E+04  0.13956994808E+04  0.50400001928E-02 0. -1.
        1   -1    0    0  501    0  0.00000000000E+00  0.00000000000E+00 -0.10226969255E+04  0.10226969255E+04  0.50400001928E-02 0.  1.
    10030    2    1    2    0    0  0.00000000000E+00  0.00000000000E+00  0.37300255535E+03  0.24183964063E+04  0.23894581544E+04 0.  0.
        2    1    3    3  502    0 -0.52575952937E+03 -0.46947582032E+02  0.12712793534E+04  0.13765094815E+04  0.25500000920E-02 0. -1.
       -2    1    3    3    0  502  0.52575952937E+03  0.46947582032E+02 -0.89827679807E+03  0.10418869248E+04  0.25500000920E-02 0.  1.
</event>
<event>
 5   0  0.4664127E-05  0.2367150E+04  0.7818609E-02  0.8451906E-01
       -2   -1    0    0    0  501  0.00000000000E+00  0.00000000000E+00  0.72302913730E+03  0.72302913730E+03  0.25500000920E-02 0.  1.
        2   -1    0    0  501    0  0.00000000000E+00  0.00000000000E+00 -0.19374730707E+04  0.19374730707E+04  0.25500000920E-02 0. -1.
    10030    2    1    2    0    0  0.00000000000E+00  0.00000000000E+00 -0.12144439334E+04  0.26605022080E+04  0.23671497484E+04 0.  0.
        4    1    3    3  502    0  0.15692984869E+03  0.10231370379E+04  0.37848658100E+02  0.10357946271E+04  0.12699999809E+01 0.  1.
       -4    1    3    3    0  502 -0.15692984869E+03 -0.10231370379E+04 -0.12522925915E+04  0.16247075808E+04  0.12699999809E+01 0. -1.
</event>
<event>
 5   0  0.4713971E-05  0.2410928E+04  0.7818609E-02  0.8435424E-01
       -2   -1    0    0    0  501  0.00000000000E+00  0.00000000000E+00  0.58224367938E+03  0.58224367938E+03  0.25500000920E-02 0. -1.
        2   -1    0    0  501    0  0.00000000000E+00  0.00000000000E+00 -0.24957642916E+04  0.24957642917E+04  0.25500000920E-02 0.  1.
    10030    2    1    2    0    0  0.00000000000E+00  0.00000000000E+00 -0.19135206123E+04  0.30780079710E+04  0.24109276091E+04 0.  0.
        5    1    3    3  502    0  0.49158340371E+03  0.71990212457E+03  0.10620042811E+03  0.87818786867E+03  0.46999998093E+01 0. -1.
       -5    1    3    3    0  502 -0.49158340371E+03 -0.71990212457E+03 -0.20197210404E+04  0.21998201024E+04  0.46999998093E+01 0.  1.
</event>
<event>
 5   0  0.2090039E-05  0.2412455E+04  0.7818609E-02  0.8434855E-01
        1   -1    0    0  501    0  0.00000000000E+00  0.00000000000E+00  0.19353741245E+04  0.19353741245E+04  0.50400001928E-02 0. -1.
       -1   -1    0    0    0  501  0.00000000000E+00  0.00000000000E+00 -0.75178453188E+03  0.75178453190E+03  0.50400001928E-02 0.  1.
    10030    2    1    2    0    0  0.00000000000E+00  0.00000000000E+00  0.11835895926E+04  0.26871586564E+04  0.24124546257E+04 0.  0.
        1    1    3    3  502    0  0.69973518530E+03  0.51180009272E+03  0.15259954641E+04  0.17550586375E+04  0.50400001928E-02 0. -1.
       -1    1    3    3    0  502 -0.69973518530E+03 -0.51180009272E+03 -0.34240587148E+03  0.93210001894E+03  0.50400001928E-02 0.  1.
</event>
<event>
 5   0  0.4914005E-05  0.2410108E+04  0.7818609E-02  0.8435729E-01
        2   -1    0    0  501    0  0.00000000000E+00  0.00000000000E+00  0.17061235899E+04  0.17061235899E+04  0.25500000920E-02 0.  1.
       -2   -1    0    0    0  501  0.00000000000E+00  0.00000000000E+00 -0.85114304255E+03  0.85114304256E+03  0.25500000920E-02 0. -1.
    10030    2    1    2    0    0  0.00000000000E+00  0.00000000000E+00  0.85498054736E+03  0.25572666325E+04  0.24101080667E+04 0.  0.
        2    1    3    3  502    0 -0.37656817431E+03  0.73791145498E+03 -0.50106560030E+03  0.96818574721E+03  0.25500000920E-02 0. -1.
       -2    1    3    3    0  502  0.37656817431E+03 -0.73791145498E+03  0.13560461477E+04  0.15890808853E+04  0.25500000920E-02 0.  1.
</event>
<event>
 5   0  0.2139556E-05  0.2408693E+04  0.7818609E-02  0.8436256E-01
       -1   -1    0    0    0  501  0.00000000000E+00  0.00000000000E+00  0.13963357630E+04  0.13963357630E+04  0.50400001928E-02 0. -1.
        1   -1    0    0  501    0  0.00000000000E+00  0.00000000000E+00 -0.10387551196E+04  0.10387551196E+04  0.50400001928E-02 0.  1.
    10030    2    1    2    0    0  0.00000000000E+00  0.00000000000E+00  0.35758064337E+03  0.24350908827E+04  0.24086933575E+04 0.  0.
        2    1    3    3  502    0 -0.16797480110E+03  0.90637221347E+03  0.96234884697E+03  0.13326070037E+04  0.25500000920E-02 0. -1.
       -2    1    3    3    0  502  0.16797480110E+03 -0.90637221347E+03 -0.60476820360E+03  0.11024838789E+04  0.25500000920E-02 0.  1.
</event>
<event>
 5   0  0.4856882E-05  0.2455262E+04  0.7818609E-02  0.8419099E-01
        2   -1    0    0  501    0  0.00000000000E+00  0.00000000000E+00  0.19681816161E+04  0.19681816161E+04  0.25500000920E-02 0.  1.
       -2   -1    0    0    0  501  0.00000000000E+00  0.00000000000E+00 -0.76572089634E+03  0.76572089635E+03  0.25500000920E-02 0. -1.
    10030    2    1    2    0    0  0.00000000000E+00  0.00000000000E+00  0.12024607197E+04  0.27339025124E+04  0.24552619341E+04 0.  0.
        1    1    3    3  502    0 -0.22965794211E+03 -0.60591971176E+03  0.17622489697E+04  0.18776056291E+04  0.50400001928E-02 0.  1.
       -1    1    3    3    0  502  0.22965794211E+03  0.60591971176E+03 -0.55978824996E+03  0.85629688326E+03  0.50400001928E-02 0. -1.
</event>
<event>
 5   0  0.2065692E-05  0.2376119E+04  0.7818609E-02  0.8448499E-01
       -1   -1    0    0    0  501  0.00000000000E+00  0.00000000000E+00  0.92587613152E+03  0.92587613154E+03  0.50400001928E-02 0. -1.
        1   -1    0    0  501    0  0.00000000000E+00  0.00000000000E+00 -0.15244856096E+04  0.15244856096E+04  0.50400001928E-02 0.  1.
    10030    2    1    2    0    0  0.00000000000E+00  0.00000000000E+00 -0.59860947804E+03  0.24503617411E+04  0.23761185482E+04 0.  0.
        3    1    3    3  502    0 -0.62177793533E+03 -0.61010305451E+03  0.53380593553E+03  0.10216566571E+04  0.10100000352E+00 0. -1.
       -3    1    3    3    0  502  0.62177793533E+03  0.61010305451E+03 -0.11324154136E+04  0.14287050840E+04  0.10100000352E+00 0.  1.
</event>
<event>
 5   0  0.2065692E-05  0.2419744E+04  0.7818609E-02  0.8432148E-01
        1   -1    0    0  501    0  0.00000000000E+00  0.00000000000E+00  0.20853791696E+04  0.20853791697E+04  0.50400001928E-02 0.  1.
       -1   -1    0    0    0  501  0.00000000000E+00  0.00000000000E+00 -0.70193006047E+03  0.70193006049E+03  0.50400001928E-02 0. -1.
    10030    2    1    2    0    0  0.00000000000E+00  0.00000000000E+00  0.13834491092E+04  0.27873092301E+04  0.24197440581E+04 0.  0.
        3    1    3    3  502    0 -0.24592569105E+03 -0.11822292581E+04  0.60517954894E+03  0.13506989897E+04  0.10100000352E+00 0.  1.
       -3    1    3    3    0  502  0.24592569105E+03  0.11822292581E+04  0.77826956023E+03  0.14366102404E+04  0.10100000352E+00 0. -1.
</event>
<event>
 5   0  0.4664127E-05  0.2424591E+04  0.7818609E-02  0.8430354E-01
        2   -1    0    0  501    0  0.00000000000E+00  0.00000000000E+00  0.24152508453E+04  0.24152508453E+04  0.25500000920E-02 0.  1.
       -2   -1    0    0    0  501  0.00000000000E+00  0.00000000000E+00 -0.60849184076E+03  0.60849184076E+03  0.25500000920E-02 0. -1.
    10030    2    1    2    0    0  0.00000000000E+00  0.00000000000E+00  0.18067590045E+04  0.30237426861E+04  0.24245910441E+04 0.  0.
        4    1    3    3  502    0 -0.49905266859E+03  0.77928622820E+03  0.18800527016E+04  0.20954570779E+04  0.12699999809E+01 0.  1.
       -4    1    3    3    0  502  0.49905266859E+03 -0.77928622820E+03 -0.73293697047E+02  0.92828560821E+03  0.12699999809E+01 0. -1.
</event>
<event>
 5   0  0.4856882E-05  0.2384051E+04  0.7818609E-02  0.8445499E-01
       -2   -1    0    0    0  501  0.00000000000E+00  0.00000000000E+00  0.62505488133E+03  0.62505488133E+03  0.25500000920E-02 0. -1.
        2   -1    0    0  501    0  0.00000000000E+00  0.00000000000E+00 -0.22732809431E+04  0.22732809432E+04  0.25500000920E-02 0.  1.
    10030    2    1    2    0    0  0.00000000000E+00  0.00000000000E+00 -0.16482260618E+04  0.28983358245E+04  0.23840514677E+04 0.  0.
        1    1    3    3  502    0  0.11293110768E+04  0.32206515451E+03 -0.57539268798E+03  0.13077255894E+04  0.50400001928E-02 0. -1.
       -1    1    3    3    0  502 -0.11293110768E+04 -0.32206515451E+03 -0.10728333738E+04  0.15906102351E+04  0.50400001928E-02 0.  1.
</event>
<event>
 5   0  0.4713971E-05  0.2403868E+04  0.7818609E-02  0.8438057E-01
       -2   -1    0    0    0  501  0.00000000000E+00  0.00000000000E+00  0.76504726053E+03  0.76504726054E+03  0.25500000920E-02 0.  1.
        2   -1    0    0  501    0  0.00000000000E+00  0.00000000000E+00 -0.18883079222E+04  0.18883079222E+04  0.25500000920E-02 0. -1.
    10030    2    1    2    0    0  0.00000000000E+00  0.00000000000E+00 -0.11232606617E+04  0.26533551828E+04  0.24038675529E+04 0.  0.
        5    1    3    3  502    0  0.74510804692E+03 -0.94294835841E+03 -0.54299285613E+03  0.13187876781E+04  0.46999998093E+01 0.  1.
       -5    1    3    3    0  502 -0.74510804692E+03  0.94294835841E+03 -0.58026780555E+03  0.13345675046E+04  0.46999998093E+01 0. -1.
</event>
<event>
 5   0  0.2057599E-05  0.2418414E+04  0.7818609E-02  0.8432642E-01
       -1   -1    0    0    0  501  0.00000000000E+00  0.00000000000E+00  0.10117777693E+04  0.10117777693E+04  0.50400001928E-02 0. -1.
        1   -1    0    0  501    0  0.00000000000E+00  0.00000000000E+00 -0.14451606511E+04  0.14451606511E+04  0.50400001928E-02 0.  1.
    10030    2    1    2    0    0  0.00000000000E+00  0.00000000000E+00 -0.43338288181E+03  0.24569384203E+04  0.24184138767E+04 0.  0.
        4    1    3    3  502    0 -0.19032532306E+03  0.11135684255E+04 -0.65474617972E+03  0.13057383120E+04  0.12699999809E+01 0. -1.
       -4    1    3    3    0  502  0.19032532306E+03 -0.11135684255E+04  0.22136329791E+03  0.11512001083E+04  0.12699999809E+01 0.  1.
</event>
<event>
 5   0  0.2149920E-05  0.2388793E+04  0.7818609E-02  0.8443711E-01
        1   -1    0    0  501    0  0.00000000000E+00  0.00000000000E+00  0.14315327061E+04  0.14315327061E+04  0.50400001928E-02 0. -1.
       -1   -1    0    0    0  501  0.00000000000E+00  0.00000000000E+00 -0.99654244827E+03  0.99654244828E+03  0.50400001928E-02 0.  1.
    10030    2    1    2    0    0  0.00000000000E+00  0.00000000000E+00  0.43499025785E+03  0.24280751544E+04  0.23887930909E+04 0.  0.
        5    1    3    3  502    0  0.16683431380E+03  0.53422057374E+02  0.14183944754E+04  0.14291789889E+04  0.46999998093E+01 0. -1.
       -5    1    3    3    0  502 -0.16683431380E+03 -0.53422057374E+02 -0.98340421752E+03  0.99889616553E+03  0.46999998093E+01 0.  1.
</event>
<event>
 5   0  0.4914005E-05  0.2404684E+04  0.7818609E-02  0.8437752E-01
       -2   -1    0    0    0  501  0.00000000000E+00  0.00000000000E+00  0.76520198787E+03  0.76520198787E+03  0.25500000920E-02 0.  1.
        2   -1    0    0  501    0  0.00000000000E+00  0.00000000000E+00 -0.18892080836E+04  0.18892080836E+04  0.25500000920E-02 0. -1.
    10030    2    1    2    0    0  0.00000000000E+00  0.00000000000E+00 -0.11240060957E+04  0.26544100714E+04  0.24046835809E+04 0.  0.
        2    1    3    3  502    0  0.37940953681E+03  0.94920889986E+03  0.13672325936E+03  0.10313303941E+04  0.25500000920E-02 0.  1.
       -2    1    3    3    0  502 -0.37940953681E+03 -0.94920889986E+03 -0.12607293550E+04  0.16230796773E+04  0.25500000920E-02 0. -1.
</event>
<event>
 5   0  0.2057599E-05  0.2399579E+04  0.7818609E-02  0.8439661E-01
       -1   -1    0    0    0  501  0.00000000000E+00  0.00000000000E+00  0.94888242108E+03  0.94888242109E+03  0.50400001928E-02 0.  1.
        1   -1    0    0  501    0  0.00000000000E+00  0.00000000000E+00 -0.15170424518E+04  0.15170424518E+04  0.50400001928E-02 0. -1.
    10030    2    1    2    0    0  0.00000000000E+00  0.00000000000E+00 -0.56816003076E+03  0.24659248729E+04  0.23995790586E+04 0.  0.
        4    1    3    3  502    0 -0.11448355136E+04 -0.13138244428E+03 -0.62735722096E+03  0.13120550276E+04  0.12699999809E+01 0. -1.
       -4    1    3    3    0  502  0.11448355136E+04  0.13138244428E+03  0.59197190205E+02  0.11538698454E+04  0.12699999809E+01 0.  1.
</event>
<event>
 5   0  0.4713971E-05  0.2402183E+04  0.7818609E-02  0.8438687E-01
       -2   -1    0    0    0  501  0.00000000000E+00  0.00000000000E+00  0.72380401335E+03  0.72380401335E+03  0.25500000920E-02 0. -1.
        2   -1    0    0  501    0  0.00000000000E+00  0.00000000000E+00 -0.19931101239E+04  0.19931101239E+04  0.25500000920E-02 0.  1.
    10030    2    1    2    0    0  0.00000000000E+00  0.00000000000E+00 -0.12693061105E+04  0.27169141372E+04  0.24021832625E+04 0.  0.
        5    1    3    3  502    0 -0.11472718698E+04  0.25860056599E+02 -0.23366341706E+03  0.11711200486E+04  0.46999998093E+01 0.  1.
       -5    1    3    3    0  502  0.11472718698E+04 -0.25860056599E+02 -0.10356426935E+04  0.15457940886E+04  0.46999998093E+01 0. -1.
</event>
<event>
 5   0  0.2149920E-05  0.2354297E+04  0.7818609E-02  0.8456815E-01
        1   -1    0    0  501    0  0.00000000000E+00  0.00000000000E+00  0.14536081019E+04  0.14536081019E+04  0.50400001928E-02 0. -1.
       -1   -1    0    0    0  501  0.00000000000E+00  0.00000000000E+00 -0.95326799847E+03  0.95326799849E+03  0.50400001928E-02 0.  1.
    10030    2    1    2    0    0  0.00000000000E+00  0.00000000000E+00  0.50034010341E+03  0.24068761004E+04  0.23542965708E+04 0.  0.
        5    1    3    3  502    0  0.10013416084E+04  0.61765614260E+03  0.21094829000E+03  0.11952846516E+04  0.46999998093E+01 0.  1.
       -5    1    3    3    0  502 -0.10013416084E+04 -0.61765614260E+03  0.28939181341E+03  0.12115914488E+04  0.46999998093E+01 0. -1.
</event>
<event>
 5   0  0.2090039E-05  0.2417055E+04  0.7818609E-02  0.8433146E-01
        1   -1    0    0  501    0  0.00000000000E+00  0.00000000000E+00  0.13508103897E+04  0.13508103897E+04  0.50400001928E-02 0. -1.
       -1   -1    0    0    0  501  0.00000000000E+00  0.00000000000E+00 -0.10812310508E+04  0.10812310508E+04  0.50400001928E-02 0.  1.
    10030    2    1    2    0    0  0.00000000000E+00  0.00000000000E+00  0.26957933885E+03  0.24320414405E+04  0.24170545191E+04 0.  0.
        1    1    3    3  502    0  0.40279243647E+03 -0.32351020497E+02  0.12808205781E+04  0.13430523775E+04  0.50400001928E-02 0. -1.
       -1    1    3    3    0  502 -0.40279243647E+03  0.32351020497E+02 -0.10112412392E+04  0.10889890630E+04  0.50400001928E-02 0.  1.
</event>
<event>
 5   0  0.4914005E-05  0.2450668E+04  0.7818609E-02  0.8420774E-01
        2   -1    0    0  501    0  0.00000000000E+00  0.00000000000E+00  0.58542723653E+03  0.58542723653E+03  0.25500000920E-02 0. -1.
       -2   -1    0    0    0  501  0.00000000000E+00  0.00000000000E+00 -0.25646970088E+04  0.25646970088E+04  0.25500000920E-02 0.  1.
    10030    2    1    2    0    0  0.00000000000E+00  0.00000000000E+00 -0.19792697723E+04  0.31501242453E+04  0.24506680578E+04 0.  0.
        2    1    3    3  502    0  0.32203834632E+03 -0.74803786910E+03 -0.21664556429E+04  0.23144760536E+04  0.25500000920E-02 0.  1.
       -2    1    3    3    0  502 -0.32203834632E+03  0.74803786910E+03  0.18718587065E+03  0.83564819170E+03  0.25500000920E-02 0. -1.
</event>
<event>
 5   0  0.2149920E-05  0.2582825E+04  0.7818609E-02  0.8374059E-01
        1   -1    0    0  501    0  0.00000000000E+00  0.00000000000E+00  0.14872362726E+04  0.14872362726E+04  0.50400001928E-02 0.  1.
       -1   -1    0    0    0  501  0.00000000000E+00  0.00000000000E+00 -0.11213724965E+04  0.11213724965E+04  0.50400001928E-02 0. -1.
    10030    2    1    2    0    0  0.00000000000E+00  0.00000000000E+00  0.36586377611E+03  0.26086087691E+04  0.25828246955E+04 0.  0.
        5    1    3    3  502    0 -0.51913615954E+03  0.10290421801E+04  0.77123595999E+03  0.13868154732E+04  0.46999998093E+01 0.  1.
       -5    1    3    3    0  502  0.51913615954E+03 -0.10290421801E+04 -0.40537218388E+03  0.12217932960E+04  0.46999998093E+01 0. -1.
</event>
<event>
 5   0  0.4856882E-05  0.2403533E+04  0.7818609E-02  0.8438182E-01
       -2   -1    0    0    0  501  0.00000000000E+00  0.00000000000E+00  0.93535611765E+03  0.93535611765E+03  0.25500000920E-02 0.  1.
        2   -1    0    0  501    0  0.00000000000E+00  0.00000000000E+00 -0.15440568672E+04  0.15440568672E+04  0.25500000920E-02 0. -1.
    10030    2    1    2    0    0  0.00000000000E+00  0.00000000000E+00 -0.60870074954E+03  0.24794129848E+04  0.24035332631E+04 0.  0.
        1    1    3    3  502    0  0.15460898090E+02  0.63643033380E+03  0.74712289728E+03  0.98156774235E+03  0.50400001928E-02 0.  1.
       -1    1    3    3    0  502 -0.15460898090E+02 -0.63643033380E+03 -0.13558236468E+04  0.14978452425E+04  0.50400001928E-02 0. -1.
</event>
<event>
 5   0  0.2090039E-05  0.2416163E+04  0.7818609E-02  0.8433477E-01
       -1   -1    0    0    0  501  0.00000000000E+00  0.00000000000E+00  0.89394010273E+03  0.89394010274E+03  0.50400001928E-02 0. -1.
        1   -1    0    0  501    0  0.00000000000E+00  0.00000000000E+00 -0.16326159951E+04  0.16326159951E+04  0.50400001928E-02 0.  1.
    10030    2    1    2    0    0  0.00000000000E+00  0.00000000000E+00 -0.73867589238E+03  0.25265560979E+04  0.24161629998E+04 0.  0.
        1    1    3    3  502    0  0.68552214518E+03 -0.27632735577E+03 -0.13685944554E+04  0.15554254088E+04  0.50400001928E-02 0.  1.
       -1    1    3    3    0  502 -0.68552214518E+03  0.27632735577E+03  0.62991856303E+03  0.97113068902E+03  0.50400001928E-02 0. -1.
</event>
<event>
 5   0  0.2139556E-05  0.2341237E+04  0.7818609E-02  0.8461837E-01
       -1   -1    0    0    0  501  0.00000000000E+00  0.00000000000E+00  0.13106396957E+04  0.13106396957E+04  0.50400001928E-02 0. -1.
        1   -1    0    0  501    0  0.00000000000E+00  0.00000000000E+00 -0.10455563899E+04  0.10455563899E+04  0.50400001928E-02 0.  1.
    10030    2    1    2    0    0  0.00000000000E+00  0.00000000000E+00  0.26508330580E+03  0.23561960856E+04  0.23412370309E+04 0.  0.
        2    1    3    3  502    0  0.10897976849E+04  0.33035719072E+03 -0.14039745781E+03  0.11473910901E+04  0.25500000920E-02 0.  1.
       -2    1    3    3    0  502 -0.10897976849E+04 -0.33035719072E+03  0.40548076360E+03  0.12088049955E+04  0.25500000920E-02 0. -1.
</event>
<event>
 5   0  0.4664127E-05  0.2434953E+04  0.7818609E-02  0.8426532E-01
       -2   -1    0    0    0  501  0.00000000000E+00  0.00000000000E+00  0.15515743123E+04  0.15515743123E+04  0.25500000920E-02 0.  1.
        2   -1    0    0  501    0  0.00000000000E+00  0.00000000000E+00 -0.95531929051E+03  0.95531929051E+03  0.25500000920E-02 0. -1.
    10030    2    1    2    0    0  0.00000000000E+00  0.00000000000E+00  0.59625502180E+03  0.25068936028E+04  0.24349528712E+04 0.  0.
        4    1    3    3  502    0  0.82163916016E+03  0.69404270428E+03  0.88547466467E+03  0.13931450677E+04  0.12699999809E+01 0.  1.
       -4    1    3    3    0  502 -0.82163916016E+03 -0.69404270428E+03 -0.28921964286E+03  0.11137485352E+04  0.12699999809E+01 0. -1.
</event>
<event>
 5   0  0.4914005E-05  0.2407275E+04  0.7818609E-02  0.8436785E-01
       -2   -1    0    0    0  501  0.00000000000E+00  0.00000000000E+00  0.96437927967E+03  0.96437927967E+03  0.25500000920E-02 0. -1.
        2   -1    0    0  501    0  0.00000000000E+00  0.00000000000E+00 -0.15022547827E+04  0.15022547827E+04  0.25500000920E-02 0.  1.
    10030    2    1    2    0    0  0.00000000000E+00  0.00000000000E+00 -0.53787550305E+03  0.24666340624E+04  0.24072751278E+04 0.  0.
        2    1    3    3  502    0  0.71438474141E+02  0.99246739571E+03 -0.96287298121E+03  0.13846369073E+04  0.25500000920E-02 0. -1.
       -2    1    3    3    0  502 -0.71438474141E+02 -0.99246739571E+03  0.42499747816E+03  0.10819971551E+04  0.25500000920E-02 0.  1.
</event>
<event>
 5   0  0.4664127E-05  0.2437672E+04  0.7818609E-02  0.8425533E-01
        2   -1    0    0  501    0  0.00000000000E+00  0.00000000000E+00  0.22437419276E+04  0.22437419276E+04  0.25500000920E-02 0. -1.
       -2   -1    0    0    0  501  0.00000000000E+00  0.00000000000E+00 -0.66209081612E+03  0.66209081613E+03  0.25500000920E-02 0.  1.
    10030    2    1    2    0    0  0.00000000000E+00  0.00000000000E+00  0.15816511115E+04  0.29058327437E+04  0.24376717777E+04 0.  0.
        4    1    3    3  502    0  0.80788950058E+03 -0.49637547600E+03 -0.12207596812E+03  0.95602207779E+03  0.12699999809E+01 0.  1.
       -4    1    3    3    0  502 -0.80788950058E+03  0.49637547600E+03  0.17037270796E+04  0.19498106659E+04  0.12699999809E+01 0. -1.
</event>
<event>
 5   0  0.2139556E-05  0.2391184E+04  0.7818609E-02  0.8442812E-01
       -1   -1    0    0    0  501  0.00000000000E+00  0.00000000000E+00  0.99441058828E+03  0.99441058829E+03  0.50400001928E-02 0.  1.
        1   -1    0    0  501    0  0.00000000000E+00  0.00000000000E+00 -0.14374747438E+04  0.14374747438E+04  0.50400001928E-02 0. -1.
    10030    2    1    2    0    0  0.00000000000E+00  0.00000000000E+00 -0.44306415551E+03  0.24318853321E+04  0.23911838956E+04 0.  0.
        2    1    3    3  502    0  0.10963823451E+04 -0.32277017797E+03  0.13544864183E+03  0.11509045004E+04  0.25500000920E-02 0.  1.
       -2    1    3    3    0  502 -0.10963823451E+04  0.32277017797E+03 -0.57851279734E+03  0.12809808317E+04  0.25500000920E-02 0. -1.
</event>
<event>
 5   0  0.4856882E-05  0.2258705E+04  0.7818609E-02  0.8494384E-01
        2   -1    0    0  501    0  0.00000000000E+00  0.00000000000E+00  0.13011353312E+04  0.13011353312E+04  0.25500000920E-02 0. -1.
       -2   -1    0    0    0  501  0.00000000000E+00  0.00000000000E+00 -0.98024915052E+03  0.98024915052E+03  0.25500000920E-02 0.  1.
    10030    2    1    2    0    0  0.00000000000E+00  0.00000000000E+00  0.32088618073E+03  0.22813844818E+04  0.22587047644E+04 0.  0.
        1    1    3    3  502    0 -0.98066078485E+02 -0.62042380585E+03  0.11084268073E+04  0.12740300788E+04  0.50400001928E-02 0. -1.
       -1    1    3    3    0  502  0.98066078485E+02  0.62042380585E+03 -0.78754062656E+03  0.10073544029E+04  0.50400001928E-02 0.  1.
</event>
<event>
 5   0  0.2057599E-05  0.2439270E+04  0.7818609E-02  0.8424946E-01
       -1   -1    0    0    0  501  0.00000000000E+00  0.00000000000E+00  0.23094276257E+04  0.23094276257E+04  0.50400001928E-02 0.  1.
        1   -1    0    0  501    0  0.00000000000E+00  0.00000000000E+00 -0.64410309881E+03  0.64410309883E+03  0.50400001928E-02 0. -1.
    10030    2    1    2    0    0  0.00000000000E+00  0.00000000000E+00  0.16653245269E+04  0.29535307246E+04  0.24392699648E+04 0.  0.
        4    1    3    3  502    0 -0.27211703629E+03 -0.51256438341E+03  0.21315446945E+04  0.22091297667E+04  0.12699999809E+01 0.  1.
       -4    1    3    3    0  502  0.27211703629E+03  0.51256438341E+03 -0.46622016754E+03  0.74440095789E+03  0.12699999809E+01 0. -1.
</event>
<event>
 5   0  0.2139556E-05  0.2369512E+04  0.7818609E-02  0.8451007E-01
        1   -1    0    0  501    0  0.00000000000E+00  0.00000000000E+00  0.21838171353E+04  0.21838171353E+04  0.50400001928E-02 0.  1.
       -1   -1    0    0    0  501  0.00000000000E+00  0.00000000000E+00 -0.64274918349E+03  0.64274918351E+03  0.50400001928E-02 0. -1.
    10030    2    1    2    0    0  0.00000000000E+00  0.00000000000E+00  0.15410679518E+04  0.28265663188E+04  0.23695119165E+04 0.  0.
        2    1    3    3  502    0  0.70416881477E+03 -0.89482521566E+03  0.38018227632E+03  0.12004600991E+04  0.25500000920E-02 0.  1.
       -2    1    3    3    0  502 -0.70416881477E+03  0.89482521566E+03  0.11608856755E+04  0.16261062197E+04  0.25500000920E-02 0. -1.
</event>
<event>
 5   0  0.2090039E-05  0.2366491E+04  0.7818609E-02  0.8452156E-01
        1   -1    0    0  501    0  0.00000000000E+00  0.00000000000E+00  0.75900296285E+03  0.75900296287E+03  0.50400001928E-02 0. -1.
       -1   -1    0    0    0  501  0.00000000000E+00  0.00000000000E+00 -0.18446173555E+04  0.18446173555E+04  0.50400001928E-02 0.  1.
    10030    2    1    2    0    0  0.00000000000E+00  0.00000000000E+00 -0.10856143926E+04  0.26036203183E+04  0.23664911055E+04 0.  0.
        1    1    3    3  502    0 -0.10351151872E+04  0.14498148710E+02  0.87673745838E+02  0.10389226789E+04  0.50400001928E-02 0. -1.
       -1    1    3    3    0  502  0.10351151872E+04 -0.14498148710E+02 -0.11732881385E+04  0.15646976394E+04  0.50400001928E-02 0.  1.
</event>
<event>
 5   0  0.4856882E-05  0.2509297E+04  0.7818609E-02  0.8399681E-01
        2   -1    0    0  501    0  0.00000000000E+00  0.00000000000E+00  0.14344142334E+04  0.14344142334E+04  0.25500000920E-02 0. -1.
       -2   -1    0    0    0  501  0.00000000000E+00  0.00000000000E+00 -0.10974115636E+04  0.10974115636E+04  0.25500000920E-02 0.  1.
    10030    2    1    2    0    0  0.00000000000E+00  0.00000000000E+00  0.33700266975E+03  0.25318257970E+04  0.25092969268E+04 0.  0.
        1    1    3    3  502    0  0.82873332265E+03 -0.86105755265E+03  0.55393064569E+03  0.13172160754E+04  0.50400001928E-02 0.  1.
       -1    1    3    3    0  502 -0.82873332265E+03  0.86105755265E+03 -0.21692797594E+03  0.12146097216E+04  0.50400001928E-02 0. -1.
</event>
<event>
 5   0  0.2065692E-05  0.2348489E+04  0.7818609E-02  0.8459044E-01
        1   -1    0    0  501    0  0.00000000000E+00  0.00000000000E+00  0.21698621609E+04  0.21698621609E+04  0.50400001928E-02 0.  1.
       -1   -1    0    0    0  501  0.00000000000E+00  0.00000000000E+00 -0.63545534645E+03  0.63545534647E+03  0.50400001928E-02 0. -1.
    10030    2    1    2    0    0  0.00000000000E+00  0.00000000000E+00  0.15344068145E+04  0.28053175074E+04  0.23484893112E+04 0.  0.
        3    1    3    3  502    0  0.20683229051E+03  0.32800705795E+03 -0.55676579086E+03  0.67849567614E+03  0.10100000352E+00 0. -1.
       -3    1    3    3    0  502 -0.20683229051E+03 -0.32800705795E+03  0.20911726053E+04  0.21268218312E+04  0.10100000352E+00 0.  1.
</event>
<event>
 5   0  0.2149920E-05  0.2419894E+04  0.7818609E-02  0.8432093E-01
        1   -1    0    0  501    0  0.00000000000E+00  0.00000000000E+00  0.16613076655E+04  0.16613076655E+04  0.50400001928E-02 0. -1.
       -1   -1    0    0    0  501  0.00000000000E+00  0.00000000000E+00 -0.88121652560E+03  0.88121652562E+03  0.50400001928E-02 0.  1.
    10030    2    1    2    0    0  0.00000000000E+00  0.00000000000E+00  0.78009113992E+03  0.25425241911E+04  0.24198940216E+04 0.  0.
        5    1    3    3  502    0 -0.71205316140E+03 -0.94623773699E+03  0.65074049879E+03  0.13512478849E+04  0.46999998093E+01 0.  1.
       -5    1    3    3    0  502  0.71205316140E+03  0.94623773699E+03  0.12935064113E+03  0.11912763063E+04  0.46999998093E+01 0. -1.
</event>
<event>
 5   0  0.2065692E-05  0.2401574E+04  0.7818609E-02  0.8438915E-01
       -1   -1    0    0    0  501  0.00000000000E+00  0.00000000000E+00  0.15399450031E+04  0.15399450031E+04  0.50400001928E-02 0. -1.
        1   -1    0    0  501    0  0.00000000000E+00  0.00000000000E+00 -0.93632488914E+03  0.93632488915E+03  0.50400001928E-02 0.  1.
    10030    2    1    2    0    0  0.00000000000E+00  0.00000000000E+00  0.60362011393E+03  0.24762698922E+04  0.24015735128E+04 0.  0.
        3    1    3    3  502    0 -0.63070995958E+03  0.42827171573E+03 -0.65477197354E+03  0.10049567469E+04  0.10100000352E+00 0.  1.
       -3    1    3    3    0  502  0.63070995958E+03 -0.42827171573E+03  0.12583920875E+04  0.14713131453E+04  0.10100000352E+00 0. -1.
</event>
<event>
 5   0  0.4914005E-05  0.2489784E+04  0.7818609E-02  0.8406634E-01
       -2   -1    0    0    0  501  0.00000000000E+00  0.00000000000E+00  0.11583121515E+04  0.11583121515E+04  0.25500000920E-02 0. -1.
        2   -1    0    0  501    0  0.00000000000E+00  0.00000000000E+00 -0.13379432113E+04  0.13379432113E+04  0.25500000920E-02 0.  1.
    10030    2    1    2    0    0  0.00000000000E+00  0.00000000000E+00 -0.17963105985E+03  0.24962553628E+04  0.24897838297E+04 0.  0.
        2    1    3    3  502    0 -0.22504018967E+03  0.56276503542E+03  0.10003968393E+04  0.11696757705E+04  0.25500000920E-02 0. -1.
       -2    1    3    3    0  502  0.22504018967E+03 -0.56276503542E+03 -0.11800278991E+04  0.13265795923E+04  0.25500000920E-02 0.  1.
</event>
<event>
 5   0  0.4914005E-05  0.2390152E+04  0.7818609E-02  0.8443200E-01
       -2   -1    0    0    0  501  0.00000000000E+00  0.00000000000E+00  0.11350180918E+04  0.11350180918E+04  0.25500000920E-02 0. -1.
        2   -1    0    0  501    0  0.00000000000E+00  0.00000000000E+00 -0.12583115972E+04  0.12583115972E+04  0.25500000920E-02 0.  1.
    10030    2    1    2    0    0  0.00000000000E+00  0.00000000000E+00 -0.12329350547E+03  0.23933296890E+04  0.23901518177E+04 0.  0.
        2    1    3    3  502    0 -0.91339673020E+02 -0.21318772133E+03  0.11122662229E+04  0.11361901650E+04  0.25500000920E-02 0. -1.
       -2    1    3    3    0  502  0.91339673020E+02  0.21318772133E+03 -0.12355597284E+04  0.12571395240E+04  0.25500000920E-02 0.  1.
</event>
<event>
 5   0  0.4664127E-05  0.2325852E+04  0.7818609E-02  0.8467797E-01
        2   -1    0    0  501    0  0.00000000000E+00  0.00000000000E+00  0.24900754766E+04  0.24900754766E+04  0.25500000920E-02 0. -1.
       -2   -1    0    0    0  501  0.00000000000E+00  0.00000000000E+00 -0.54311466962E+03  0.54311466963E+03  0.25500000920E-02 0.  1.
    10030    2    1    2    0    0  0.00000000000E+00  0.00000000000E+00  0.19469608070E+04  0.30331901462E+04  0.23258516890E+04 0.  0.
        4    1    3    3  502    0 -0.28043122189E+03  0.91628798156E+03  0.18327853465E+04  0.20681704656E+04  0.12699999809E+01 0. -1.
       -4    1    3    3    0  502  0.28043122189E+03 -0.91628798156E+03  0.11417546045E+03  0.96501968064E+03  0.12699999809E+01 0.  1.
</event>
<event>
 5   0  0.1672125E-05  0.2479181E+04  0.7818609E-02  0.8410440E-01
        3   -1    0    0  501    0  0.00000000000E+00  0.00000000000E+00  0.18915844718E+04  0.18915844745E+04  0.10100000352E+00 0.  1.
       -3   -1    0    0    0  501  0.00000000000E+00  0.00000000000E+00 -0.81232697501E+03  0.81232698129E+03  0.10100000352E+00 0. -1.
    10030    2    1    2    0    0  0.00000000000E+00  0.00000000000E+00  0.10792574968E+04  0.27039114558E+04  0.24791814004E+04 0.  0.
        1    1    3    3  502    0  0.94298397629E+02  0.76621461068E+03 -0.51813460057E+03  0.92975291435E+03  0.50400001928E-02 0. -1.
       -1    1    3    3    0  502 -0.94298397629E+02 -0.76621461068E+03  0.15973920973E+04  0.17741585414E+04  0.50400001928E-02 0.  1.
</event>
<event>
 5   0  0.2065692E-05  0.2336129E+04  0.7818609E-02  0.8463811E-01
       -1   -1    0    0    0  501  0.00000000000E+00  0.00000000000E+00  0.58939748062E+03  0.58939748064E+03  0.50400001928E-02 0.  1.
        1   -1    0    0  501    0  0.00000000000E+00  0.00000000000E+00 -0.23148626946E+04  0.23148626946E+04  0.50400001928E-02 0. -1.
    10030    2    1    2    0    0  0.00000000000E+00  0.00000000000E+00 -0.17254652140E+04  0.29042601752E+04  0.23361286268E+04 0.  0.
        3    1    3    3  502    0  0.15102751803E+03  0.85553344482E+03  0.10793608714E+03  0.87544102915E+03  0.10100000352E+00 0.  1.
       -3    1    3    3    0  502 -0.15102751803E+03 -0.85553344482E+03 -0.18334013011E+04  0.20288191461E+04  0.10100000352E+00 0. -1.
</event>
<event>
 5   0  0.2057599E-05  0.2355288E+04  0.7818609E-02  0.8456435E-01
        1   -1    0    0  501    0  0.00000000000E+00  0.00000000000E+00  0.11176270432E+04  0.11176270432E+04  0.50400001928E-02 0.  1.
       -1   -1    0    0    0  501  0.00000000000E+00  0.00000000000E+00 -0.12408835933E+04  0.12408835933E+04  0.50400001928E-02 0. -1.
    10030    2    1    2    0    0  0.00000000000E+00  0.00000000000E+00 -0.12325655006E+03  0.23585106365E+04  0.23552877203E+04 0.  0.
        4    1    3    3  502    0 -0.59240190476E+02 -0.13943183329E+03 -0.12310845585E+04  0.12403714925E+04  0.12699999809E+01 0. -1.
       -4    1    3    3    0  502  0.59240190476E+02  0.13943183329E+03  0.11078280084E+04  0.11181391440E+04  0.12699999809E+01 0.  1.
</event>
<event>
 5   0  0.4713971E-05  0.2255618E+04  0.7818609E-02  0.8495629E-01
       -2   -1    0    0    0  501  0.00000000000E+00  0.00000000000E+00  0.15363253398E+04  0.15363253398E+04  0.25500000920E-02 0.  1.
        2   -1    0    0  501    0  0.00000000000E+00  0.00000000000E+00 -0.82791912227E+03  0.82791912227E+03  0.25500000920E-02 0. -1.
    10030    2    1    2    0    0  0.00000000000E+00  0.00000000000E+00  0.70840621754E+03  0.23642444621E+04  0.22556179879E+04 0.  0.
        5    1    3    3  502    0 -0.62003120122E+03  0.20853297603E+03 -0.60873790957E+03  0.89359309818E+03  0.46999998093E+01 0. -1.
       -5    1    3    3    0  502  0.62003120122E+03 -0.20853297603E+03  0.13171441271E+04  0.14706513639E+04  0.46999998093E+01 0.  1.
</event>
<event>
 5   0  0.2065692E-05  0.2385216E+04  0.7818609E-02  0.8445059E-01
        1   -1    0    0  501    0  0.00000000000E+00  0.00000000000E+00  0.14844371198E+04  0.14844371198E+04  0.50400001928E-02 0. -1.
       -1   -1    0    0    0  501  0.00000000000E+00  0.00000000000E+00 -0.95815052403E+03  0.95815052404E+03  0.50400001928E-02 0.  1.
    10030    2    1    2    0    0  0.00000000000E+00  0.00000000000E+00  0.52628659578E+03  0.24425876439E+04  0.23852163040E+04 0.  0.
        3    1    3    3  502    0 -0.10782458319E+04  0.23796697265E+03  0.72461729898E+03  0.13207242688E+04  0.10100000352E+00 0. -1.
       -3    1    3    3    0  502  0.10782458319E+04 -0.23796697265E+03 -0.19833070320E+03  0.11218633750E+04  0.10100000352E+00 0.  1.
</event>
<event>
 5   0  0.2139556E-05  0.2425019E+04  0.7818609E-02  0.8430196E-01
        1   -1    0    0  501    0  0.00000000000E+00  0.00000000000E+00  0.22499690876E+04  0.22499690876E+04  0.50400001928E-02 0. -1.
       -1   -1    0    0    0  501  0.00000000000E+00  0.00000000000E+00 -0.65342222110E+03  0.65342222112E+03  0.50400001928E-02 0.  1.
    10030    2    1    2    0    0  0.00000000000E+00  0.00000000000E+00  0.15965468665E+04  0.29033913087E+04  0.24250194215E+04 0.  0.
        2    1    3    3  502    0  0.61103118679E+03 -0.59217686445E+03  0.18324688821E+04  0.20203897529E+04  0.25500000920E-02 0. -1.
       -2    1    3    3    0  502 -0.61103118679E+03  0.59217686445E+03 -0.23592201559E+03  0.88300155576E+03  0.25500000920E-02 0.  1.
</event>
<event>
 5   0  0.4756705E-05  0.2402858E+04  0.7818609E-02  0.8438434E-01
       -2   -1    0    0    0  501  0.00000000000E+00  0.00000000000E+00  0.89079238383E+03  0.89079238383E+03  0.25500000920E-02 0. -1.
        2   -1    0    0  501    0  0.00000000000E+00  0.00000000000E+00 -0.16203906093E+04  0.16203906093E+04  0.25500000920E-02 0.  1.
    10030    2    1    2    0    0  0.00000000000E+00  0.00000000000E+00 -0.72959822550E+03  0.25111829932E+04  0.24028579763E+04 0.  0.
        3    1    3    3  502    0  0.20998728402E+03 -0.85283386742E+03 -0.12215184306E+04  0.15045024265E+04  0.10100000352E+00 0.  1.
       -3    1    3    3    0  502 -0.20998728402E+03  0.85283386742E+03  0.49192020511E+03  0.10066805666E+04  0.10100000352E+00 0. -1.
</event>
<event>
 5   0  0.2065692E-05  0.2293500E+04  0.7818609E-02  0.8480488E-01
       -1   -1    0    0    0  501  0.00000000000E+00  0.00000000000E+00  0.84302760010E+03  0.84302760011E+03  0.50400001928E-02 0. -1.
        1   -1    0    0  501    0  0.00000000000E+00  0.00000000000E+00 -0.15598961073E+04  0.15598961073E+04  0.50400001928E-02 0.  1.
    10030    2    1    2    0    0  0.00000000000E+00  0.00000000000E+00 -0.71686850722E+03  0.24029237074E+04  0.22934999209E+04 0.  0.
        3    1    3    3  502    0 -0.46834463878E+03 -0.36795505027E+03 -0.13851358308E+04  0.15077595629E+04  0.10100000352E+00 0.  1.
       -3    1    3    3    0  502  0.46834463878E+03  0.36795505027E+03  0.66826732355E+03  0.89516414452E+03  0.10100000352E+00 0. -1.
</event>
<event>
 5   0  0.2065692E-05  0.2380316E+04  0.7818609E-02  0.8446910E-01
        1   -1    0    0  501    0  0.00000000000E+00  0.00000000000E+00  0.13838046830E+04  0.13838046830E+04  0.50400001928E-02 0.  1.
       -1   -1    0    0    0  501  0.00000000000E+00  0.00000000000E+00 -0.10236102411E+04  0.10236102411E+04  0.50400001928E-02 0. -1.
    10030    2    1    2    0    0  0.00000000000E+00  0.00000000000E+00  0.36019444186E+03  0.24074149241E+04  0.23803164876E+04 0.  0.
        3    1    3    3  502    0 -0.11263940601E+04 -0.13210910903E+03  0.54512186001E+03  0.12583219969E+04  0.10100000352E+00 0. -1.
       -3    1    3    3    0  502  0.11263940601E+04  0.13210910903E+03 -0.18492741815E+03  0.11490929273E+04  0.10100000352E+00 0.  1.
</event>
<event>
 5   0  0.2065692E-05  0.1955730E+04  0.7818609E-02  0.8627603E-01
       -1   -1    0    0    0  501  0.00000000000E+00  0.00000000000E+00  0.12342480611E+04  0.12342480612E+04  0.50400001928E-02 0. -1.
        1   -1    0    0  501    0  0.00000000000E+00  0.00000000000E+00 -0.77473873557E+03  0.77473873559E+03  0.50400001928E-02 0.  1.
    10030    2    1    2    0    0  0.00000000000E+00  0.00000000000E+00  0.45950932557E+03  0.20089867967E+04  0.19557298201E+04 0.  0.
        3    1    3    3  502    0 -0.86715885286E+03 -0.43751159031E+03  0.11336023049E+03  0.97787086050E+03  0.10100000352E+00 0.  1.
       -3    1    3    3    0  502  0.86715885286E+03  0.43751159031E+03  0.34614909509E+03  0.10311159362E+04  0.10100000352E+00 0. -1.
</event>
<event>
 5   0  0.1672125E-05  0.2402166E+04  0.7818609E-02  0.8438693E-01
       -4   -1    0    0    0  501  0.00000000000E+00  0.00000000000E+00  0.88581348983E+03  0.88581440023E+03  0.12699999809E+01 0.  1.
        4   -1    0    0  501    0  0.00000000000E+00  0.00000000000E+00 -0.16285574103E+04  0.16285579055E+04  0.12699999809E+01 0. -1.
    10030    2    1    2    0    0  0.00000000000E+00  0.00000000000E+00 -0.74274392045E+03  0.25143723057E+04  0.24021655980E+04 0.  0.
        2    1    3    3  502    0  0.90615918217E+03  0.50731382557E+03  0.26022759730E+03  0.10706120602E+04  0.25500000920E-02 0.  1.
       -2    1    3    3    0  502 -0.90615918217E+03 -0.50731382557E+03 -0.10029715177E+04  0.14437602455E+04  0.25500000920E-02 0. -1.
</event>
<event>
 5   0  0.2057599E-05  0.2485916E+04  0.7818609E-02  0.8408020E-01
       -1   -1    0    0    0  501  0.00000000000E+00  0.00000000000E+00  0.23828378880E+04  0.23828378880E+04  0.50400001928E-02 0.  1.
        1   -1    0    0  501    0  0.00000000000E+00  0.00000000000E+00 -0.64836315860E+03  0.64836315862E+03  0.50400001928E-02 0. -1.
    10030    2    1    2    0    0  0.00000000000E+00  0.00000000000E+00  0.17344747294E+04  0.30312010466E+04  0.24859157665E+04 0.  0.
        4    1    3    3  502    0  0.38062649713E+03 -0.11151767285E+04  0.38494322835E+03  0.12396283991E+04  0.12699999809E+01 0. -1.
       -4    1    3    3    0  502 -0.38062649713E+03  0.11151767285E+04  0.13495315011E+04  0.17915726475E+04  0.12699999809E+01 0.  1.
</event>
<event>
 5   0  0.2057599E-05  0.2377695E+04  0.7818609E-02  0.8447902E-01
        1   -1    0    0  501    0  0.00000000000E+00  0.00000000000E+00  0.13629669644E+04  0.13629669644E+04  0.50400001928E-02 0.  1.
       -1   -1    0    0    0  501  0.00000000000E+00  0.00000000000E+00 -0.10369721872E+04  0.10369721873E+04  0.50400001928E-02 0. -1.
    10030    2    1    2    0    0  0.00000000000E+00  0.00000000000E+00  0.32599477711E+03  0.23999391516E+04  0.23776953835E+04 0.  0.
        4    1    3    3  502    0 -0.50360549085E+03 -0.14842782843E+01 -0.92398794483E+03  0.10523193567E+04  0.12699999809E+01 0. -1.
       -4    1    3    3    0  502  0.50360549085E+03  0.14842782843E+01  0.12499827219E+04  0.13476197949E+04  0.12699999809E+01 0.  1.
</event>
<event>
 5   0  0.4756705E-05  0.2336230E+04  0.7818609E-02  0.8463771E-01
        2   -1    0    0  501    0  0.00000000000E+00  0.00000000000E+00  0.16270563671E+04  0.16270563672E+04  0.25500000920E-02 0.  1.
       -2   -1    0    0    0  501  0.00000000000E+00  0.00000000000E+00 -0.83862679639E+03  0.83862679639E+03  0.25500000920E-02 0. -1.
    10030    2    1    2    0    0  0.00000000000E+00  0.00000000000E+00  0.78842957076E+03  0.24656831635E+04  0.23362303557E+04 0.  0.
        3    1    3    3  502    0 -0.37302590877E+03  0.82286130982E+03 -0.38724844571E+03  0.98296003618E+03  0.10100000352E+00 0. -1.
       -3    1    3    3    0  502  0.37302590877E+03 -0.82286130982E+03  0.11756780165E+04  0.14827231274E+04  0.10100000352E+00 0.  1.
</event>
<event>
 5   0  0.4664127E-05  0.2538883E+04  0.7818609E-02  0.8389263E-01
        2   -1    0    0  501    0  0.00000000000E+00  0.00000000000E+00  0.12984935872E+04  0.12984935872E+04  0.25500000920E-02 0. -1.
       -2   -1    0    0    0  501  0.00000000000E+00  0.00000000000E+00 -0.12410390477E+04  0.12410390477E+04  0.25500000920E-02 0.  1.
    10030    2    1    2    0    0  0.00000000000E+00  0.00000000000E+00  0.57454539450E+02  0.25395326349E+04  0.25388826243E+04 0.  0.
        4    1    3    3  502    0  0.33311303308E+03 -0.58662866942E+03 -0.10469001465E+04  0.12454312579E+04  0.12699999809E+01 0.  1.
       -4    1    3    3    0  502 -0.33311303308E+03  0.58662866942E+03  0.11043546860E+04  0.12941013770E+04  0.12699999809E+01 0. -1.
</event>
<event>
 5   0  0.4664127E-05  0.2435378E+04  0.7818609E-02  0.8426376E-01
       -2   -1    0    0    0  501  0.00000000000E+00  0.00000000000E+00  0.94054229548E+03  0.94054229548E+03  0.25500000920E-02 0.  1.
        2   -1    0    0  501    0  0.00000000000E+00  0.00000000000E+00 -0.15765015646E+04  0.15765015646E+04  0.25500000920E-02 0. -1.
    10030    2    1    2    0    0  0.00000000000E+00  0.00000000000E+00 -0.63595926914E+03  0.25170438601E+04  0.24353779176E+04 0.  0.
        4    1    3    3  502    0 -0.36563051706E+03 -0.11429505178E+04 -0.53165677844E+03  0.13125098491E+04  0.12699999809E+01 0. -1.
       -4    1    3    3    0  502  0.36563051706E+03  0.11429505178E+04 -0.10430249070E+03  0.12045340110E+04  0.12699999809E+01 0.  1.
</event>
<event>
 5   0  0.2149920E-05  0.2427143E+04  0.7818609E-02  0.8429411E-01
       -1   -1    0    0    0  501  0.00000000000E+00  0.00000000000E+00  0.79228995670E+03  0.79228995672E+03  0.50400001928E-02 0.  1.
        1   -1    0    0  501    0  0.00000000000E+00  0.00000000000E+00 -0.18588591092E+04  0.18588591092E+04  0.50400001928E-02 0. -1.
    10030    2    1    2    0    0  0.00000000000E+00  0.00000000000E+00 -0.10665691525E+04  0.26511490659E+04  0.24271426849E+04 0.  0.
        5    1    3    3  502    0  0.43024342938E+03  0.10926612706E+04 -0.19890173860E+03  0.11910508186E+04  0.46999998093E+01 0. -1.
       -5    1    3    3    0  502 -0.43024342938E+03 -0.10926612706E+04 -0.86766741392E+03  0.14600982474E+04  0.46999998093E+01 0.  1.
</event>
<event>
 5   0  0.2065692E-05  0.2416152E+04  0.7818609E-02  0.8433481E-01
        1   -1    0    0  501    0  0.00000000000E+00  0.00000000000E+00  0.11820733545E+04  0.11820733545E+04  0.50400001928E-02 0.  1.
       -1   -1    0    0    0  501  0.00000000000E+00  0.00000000000E+00 -0.12346509452E+04  0.12346509453E+04  0.50400001928E-02 0. -1.
    10030    2    1    2    0    0  0.00000000000E+00  0.00000000000E+00 -0.52577590726E+02  0.24167242998E+04  0.24161523003E+04 0.  0.
        3    1    3    3  502    0 -0.66521487486E+03 -0.98772674809E+03 -0.22964215371E+03  0.12127862498E+04  0.10100000352E+00 0. -1.
       -3    1    3    3    0  502  0.66521487486E+03  0.98772674809E+03  0.17706456298E+03  0.12039380500E+04  0.10100000352E+00 0.  1.
</event>
<event>
 5   0  0.4664127E-05  0.2380936E+04  0.7818609E-02  0.8446676E-01
       -2   -1    0    0    0  501  0.00000000000E+00  0.00000000000E+00  0.10706173455E+04  0.10706173455E+04  0.25500000920E-02 0.  1.
        2   -1    0    0  501    0  0.00000000000E+00  0.00000000000E+00 -0.13237350805E+04  0.13237350805E+04  0.25500000920E-02 0. -1.
    10030    2    1    2    0    0  0.00000000000E+00  0.00000000000E+00 -0.25311773499E+03  0.23943524260E+04  0.23809357303E+04 0.  0.
        4    1    3    3  502    0  0.30817024579E+03  0.87765717399E+03  0.62056849458E+03  0.11181940282E+04  0.12699999809E+01 0.  1.
       -4    1    3    3    0  502 -0.30817024579E+03 -0.87765717399E+03 -0.87368622957E+03  0.12761583977E+04  0.12699999809E+01 0. -1.
</event>
<event>
 5   0  0.4713971E-05  0.2387419E+04  0.7818609E-02  0.8444229E-01
       -2   -1    0    0    0  501  0.00000000000E+00  0.00000000000E+00  0.84350425738E+03  0.84350425739E+03  0.25500000920E-02 0.  1.
        2   -1    0    0  501    0  0.00000000000E+00  0.00000000000E+00 -0.16893131479E+04  0.16893131479E+04  0.25500000920E-02 0. -1.
    10030    2    1    2    0    0  0.00000000000E+00  0.00000000000E+00 -0.84580889054E+03  0.25328174053E+04  0.23874193870E+04 0.  0.
        5    1    3    3  502    0  0.12285092889E+03  0.56174804721E+03 -0.15326845138E+04  0.16370085914E+04  0.46999998093E+01 0. -1.
       -5    1    3    3    0  502 -0.12285092889E+03 -0.56174804721E+03  0.68687562329E+03  0.89580881394E+03  0.46999998093E+01 0.  1.
</event>
<event>
 5   0  0.2149920E-05  0.2415051E+04  0.7818609E-02  0.8433890E-01
        1   -1    0    0  501    0  0.00000000000E+00  0.00000000000E+00  0.10221583963E+04  0.10221583963E+04  0.50400001928E-02 0.  1.
       -1   -1    0    0    0  501  0.00000000000E+00  0.00000000000E+00 -0.14265083930E+04  0.14265083931E+04  0.50400001928E-02 0. -1.
    10030    2    1    2    0    0  0.00000000000E+00  0.00000000000E+00 -0.40434999679E+03  0.24486667893E+04  0.24150507500E+04 0.  0.
        5    1    3    3  502    0  0.10507427926E+04  0.59500662538E+03 -0.20069146466E+03  0.12240884177E+04  0.46999998093E+01 0.  1.
       -5    1    3    3    0  502 -0.10507427926E+04 -0.59500662538E+03 -0.20365853212E+03  0.12245783716E+04  0.46999998093E+01 0. -1.
</event>
<event>
 5   0  0.2065692E-05  0.2345895E+04  0.7818609E-02  0.8460042E-01
        1   -1    0    0  501    0  0.00000000000E+00  0.00000000000E+00  0.17856390299E+04  0.17856390299E+04  0.50400001928E-02 0.  1.
       -1   -1    0    0    0  501  0.00000000000E+00  0.00000000000E+00 -0.77048362004E+03  0.77048362005E+03  0.50400001928E-02 0. -1.
    10030    2    1    2    0    0  0.00000000000E+00  0.00000000000E+00  0.10151554098E+04  0.25561226499E+04  0.23458948176E+04 0.  0.
        3    1    3    3  502    0  0.35121447330E+03  0.48831309481E+03 -0.58964063279E+03  0.84230479688E+03  0.10100000352E+00 0. -1.
       -3    1    3    3    0  502 -0.35121447330E+03 -0.48831309481E+03  0.16047960426E+04  0.17138178530E+04  0.10100000352E+00 0.  1.
</event>
<event>
 5   0  0.4914005E-05  0.2436558E+04  0.7818609E-02  0.8425942E-01
        2   -1    0    0  501    0  0.00000000000E+00  0.00000000000E+00  0.10482085046E+04  0.10482085046E+04  0.25500000920E-02 0. -1.
       -2   -1    0    0    0  501  0.00000000000E+00  0.00000000000E+00 -0.14159432423E+04  0.14159432423E+04  0.25500000920E-02 0.  1.
    10030    2    1    2    0    0  0.00000000000E+00  0.00000000000E+00 -0.36773473770E+03  0.24641517469E+04  0.24365580220E+04 0.  0.
        2    1    3    3  502    0  0.30619952321E+03 -0.62285044686E+03 -0.11964570903E+04  0.13831884890E+04  0.25500000920E-02 0.  1.
       -2    1    3    3    0  502 -0.30619952321E+03  0.62285044686E+03  0.82872235265E+03  0.10809632579E+04  0.25500000920E-02 0. -1.
</event>
<event>
 5   0  0.4713971E-05  0.2470150E+04  0.7818609E-02  0.8413698E-01
       -2   -1    0    0    0  501  0.00000000000E+00  0.00000000000E+00  0.72226577387E+03  0.72226577388E+03  0.25500000920E-02 0.  1.
        2   -1    0    0  501    0  0.00000000000E+00  0.00000000000E+00 -0.21119784390E+04  0.21119784390E+04  0.25500000920E-02 0. -1.
    10030    2    1    2    0    0  0.00000000000E+00  0.00000000000E+00 -0.13897126652E+04  0.28342442129E+04  0.24701495839E+04 0.  0.
        5    1    3    3  502    0 -0.77380711937E+03 -0.88183394202E+03 -0.11377267558E+04  0.16342744017E+04  0.46999998093E+01 0. -1.
       -5    1    3    3    0  502  0.77380711937E+03  0.88183394202E+03 -0.25198590941E+03  0.11999698112E+04  0.46999998093E+01 0.  1.
</event>
<event>
 5   0  0.4856882E-05  0.2007255E+04  0.7818609E-02  0.8603236E-01
       -2   -1    0    0    0  501  0.00000000000E+00  0.00000000000E+00  0.11594522213E+04  0.11594522213E+04  0.25500000920E-02 0.  1.
        2   -1    0    0  501    0  0.00000000000E+00  0.00000000000E+00 -0.86874457022E+03  0.86874457022E+03  0.25500000920E-02 0. -1.
    10030    2    1    2    0    0  0.00000000000E+00  0.00000000000E+00  0.29070765107E+03  0.20281967915E+04  0.20072546641E+04 0.  0.
        1    1    3    3  502    0 -0.18550820187E+03 -0.96907565707E+03 -0.40266083326E+02  0.98749292634E+03  0.50400001928E-02 0. -1.
       -1    1    3    3    0  502  0.18550820187E+03  0.96907565707E+03  0.33097373439E+03  0.10407038652E+04  0.50400001928E-02 0.  1.
</event>
<event>
 5   0  0.4664127E-05  0.1812101E+04  0.7818609E-02  0.8699891E-01
       -2   -1    0    0    0  501  0.00000000000E+00  0.00000000000E+00  0.77900649432E+03  0.77900649433E+03  0.25500000920E-02 0. -1.
        2   -1    0    0  501    0  0.00000000000E+00  0.00000000000E+00 -0.10538134676E+04  0.10538134676E+04  0.25500000920E-02 0.  1.
    10030    2    1    2    0    0  0.00000000000E+00  0.00000000000E+00 -0.27480697328E+03  0.18328199619E+04  0.18121010293E+04 0.  0.
        4    1    3    3  502    0 -0.14764879275E+03 -0.71602748055E+03 -0.67871461621E+03  0.99757238437E+03  0.12699999809E+01 0.  1.
       -4    1    3    3    0  502  0.14764879275E+03  0.71602748055E+03  0.40390764293E+03  0.83524757756E+03  0.12699999809E+01 0. -1.
</event>
<event>
 5   0  0.4713971E-05  0.2411205E+04  0.7818609E-02  0.8435321E-01
        2   -1    0    0  501    0  0.00000000000E+00  0.00000000000E+00  0.13443251118E+04  0.13443251118E+04  0.25500000920E-02 0. -1.
       -2   -1    0    0    0  501  0.00000000000E+00  0.00000000000E+00 -0.10811946491E+04  0.10811946491E+04  0.25500000920E-02 0.  1.
    10030    2    1    2    0    0  0.00000000000E+00  0.00000000000E+00  0.26313046271E+03  0.24255197610E+04  0.24112047757E+04 0.  0.
        5    1    3    3  502    0 -0.34162210884E+03 -0.16741005617E+03  0.12823513872E+04  0.13376019447E+04  0.46999998093E+01 0. -1.
       -5    1    3    3    0  502  0.34162210884E+03  0.16741005617E+03 -0.10192209245E+04  0.10879178163E+04  0.46999998093E+01 0.  1.
</event>
<event>
 5   0  0.4756705E-05  0.2354754E+04  0.7818609E-02  0.8456640E-01
        2   -1    0    0  501    0  0.00000000000E+00  0.00000000000E+00  0.16413171204E+04  0.16413171204E+04  0.25500000920E-02 0. -1.
       -2   -1    0    0    0  501  0.00000000000E+00  0.00000000000E+00 -0.84457598316E+03  0.84457598316E+03  0.25500000920E-02 0.  1.
    10030    2    1    2    0    0  0.00000000000E+00  0.00000000000E+00  0.79674113727E+03  0.24858931036E+04  0.23547543572E+04 0.  0.
        3    1    3    3  502    0 -0.77239757995E+03 -0.77549558029E+03 -0.59640715984E+02  0.10961516509E+04  0.10100000352E+00 0.  1.
       -3    1    3    3    0  502  0.77239757995E+03  0.77549558029E+03  0.85638185326E+03  0.13897414527E+04  0.10100000352E+00 0. -1.
</event>
<event>
 5   0  0.2057599E-05  0.2368361E+04  0.7818609E-02  0.8451445E-01
       -1   -1    0    0    0  501  0.00000000000E+00  0.00000000000E+00  0.92088517668E+03  0.92088517670E+03  0.50400001928E-02 0. -1.
        1   -1    0    0  501    0  0.00000000000E+00  0.00000000000E+00 -0.15227556710E+04  0.15227556710E+04  0.50400001928E-02 0.  1.
    10030    2    1    2    0    0  0.00000000000E+00  0.00000000000E+00 -0.60187049435E+03  0.24436408477E+04  0.23683607202E+04 0.  0.
        4    1    3    3  502    0 -0.70526197369E+03  0.44267659874E+03 -0.11696746425E+04  0.14357915603E+04  0.12699999809E+01 0.  1.
       -4    1    3    3    0  502  0.70526197369E+03 -0.44267659874E+03  0.56780414811E+03  0.10078492874E+04  0.12699999809E+01 0. -1.
</event>
<event>
 5   0  0.4713971E-05  0.2368741E+04  0.7818609E-02  0.8451300E-01
        2   -1    0    0  501    0  0.00000000000E+00  0.00000000000E+00  0.13664214018E+04  0.13664214018E+04  0.25500000920E-02 0. -1.
       -2   -1    0    0    0  501  0.00000000000E+00  0.00000000000E+00 -0.10265745609E+04  0.10265745609E+04  0.25500000920E-02 0.  1.
    10030    2    1    2    0    0  0.00000000000E+00  0.00000000000E+00  0.33984684085E+03  0.23929959627E+04  0.23687409741E+04 0.  0.
        5    1    3    3  502    0 -0.37510315762E+03  0.22021243916E+03 -0.94295328217E+03  0.10384502297E+04  0.46999998093E+01 0.  1.
       -5    1    3    3    0  502  0.37510315762E+03 -0.22021243916E+03  0.12828001230E+04  0.13545457330E+04  0.46999998093E+01 0. -1.
</event>
<event>
 5   0  0.2149920E-05  0.2366716E+04  0.7818609E-02  0.8452071E-01
        1   -1    0    0  501    0  0.00000000000E+00  0.00000000000E+00  0.19706127842E+04  0.19706127842E+04  0.50400001928E-02 0. -1.
       -1   -1    0    0    0  501  0.00000000000E+00  0.00000000000E+00 -0.71060963114E+03  0.71060963116E+03  0.50400001928E-02 0.  1.
    10030    2    1    2    0    0  0.00000000000E+00  0.00000000000E+00  0.12600031531E+04  0.26812224154E+04  0.23667162261E+04 0.  0.
        5    1    3    3  502    0  0.10344279020E+04  0.41013429437E+03  0.10860686695E+04  0.15549335899E+04  0.46999998093E+01 0. -1.
       -5    1    3    3    0  502 -0.10344279020E+04 -0.41013429437E+03  0.17393448355E+03  0.11262888255E+04  0.46999998093E+01 0.  1.
</event>
<event>
 5   0  0.2149920E-05  0.2405890E+04  0.7818609E-02  0.8437302E-01
        1   -1    0    0  501    0  0.00000000000E+00  0.00000000000E+00  0.78875837190E+03  0.78875837192E+03  0.50400001928E-02 0. -1.
       -1   -1    0    0    0  501  0.00000000000E+00  0.00000000000E+00 -0.18346265564E+04  0.18346265564E+04  0.50400001928E-02 0.  1.
    10030    2    1    2    0    0  0.00000000000E+00  0.00000000000E+00 -0.10458681845E+04  0.26233849283E+04  0.24058903181E+04 0.  0.
        5    1    3    3  502    0  0.68709626719E+03  0.73887460249E+03  0.19127266573E+03  0.10269587534E+04  0.46999998093E+01 0. -1.
       -5    1    3    3    0  502 -0.68709626719E+03 -0.73887460249E+03 -0.12371408502E+04  0.15964261749E+04  0.46999998093E+01 0.  1.
</event>
<event>
 5   0  0.2149920E-05  0.2419854E+04  0.7818609E-02  0.8432108E-01
       -1   -1    0    0    0  501  0.00000000000E+00  0.00000000000E+00  0.13405228888E+04  0.13405228889E+04  0.50400001928E-02 0.  1.
        1   -1    0    0  501    0  0.00000000000E+00  0.00000000000E+00 -0.10920535934E+04  0.10920535934E+04  0.50400001928E-02 0. -1.
    10030    2    1    2    0    0  0.00000000000E+00  0.00000000000E+00  0.24846929542E+03  0.24325764823E+04  0.24198535806E+04 0.  0.
        5    1    3    3  502    0  0.24654458656E+03 -0.71977118160E+03  0.10699497562E+04  0.13128858891E+04  0.46999998093E+01 0.  1.
       -5    1    3    3    0  502 -0.24654458656E+03  0.71977118160E+03 -0.82148046077E+03  0.11196905932E+04  0.46999998093E+01 0. -1.
</event>
<event>
 5   0  0.2090039E-05  0.2400334E+04  0.7818609E-02  0.8439379E-01
        1   -1    0    0  501    0  0.00000000000E+00  0.00000000000E+00  0.20387283545E+04  0.20387283545E+04  0.50400001928E-02 0.  1.
       -1   -1    0    0    0  501  0.00000000000E+00  0.00000000000E+00 -0.70651921373E+03  0.70651921375E+03  0.50400001928E-02 0. -1.
    10030    2    1    2    0    0  0.00000000000E+00  0.00000000000E+00  0.13322091407E+04  0.27452475682E+04  0.24003339385E+04 0.  0.
        1    1    3    3  502    0  0.27427926412E+03 -0.11246793263E+04  0.10282567800E+04  0.15483684017E+04  0.50400001928E-02 0.  1.
       -1    1    3    3    0  502 -0.27427926412E+03  0.11246793263E+04  0.30395236078E+03  0.11968791666E+04  0.50400001928E-02 0. -1.
</event>
<event>
 5   0  0.4756705E-05  0.2279408E+04  0.7818609E-02  0.8486085E-01
        2   -1    0    0  501    0  0.00000000000E+00  0.00000000000E+00  0.15209952067E+04  0.15209952067E+04  0.25500000920E-02 0. -1.
       -2   -1    0    0    0  501  0.00000000000E+00  0.00000000000E+00 -0.85399721234E+03  0.85399721234E+03  0.25500000920E-02 0.  1.
    10030    2    1    2    0    0  0.00000000000E+00  0.00000000000E+00  0.66699799439E+03  0.23749924191E+04  0.22794084027E+04 0.  0.
        3    1    3    3  502    0 -0.98203713845E+03  0.42990147272E+03  0.73665253547E+03  0.13007187189E+04  0.10100000352E+00 0. -1.
       -3    1    3    3    0  502  0.98203713845E+03 -0.42990147272E+03 -0.69654541078E+02  0.10742737001E+04  0.10100000352E+00 0.  1.
</event>
<event>
 5   0  0.4713971E-05  0.2401618E+04  0.7818609E-02  0.8438898E-01
       -2   -1    0    0    0  501  0.00000000000E+00  0.00000000000E+00  0.10027426873E+04  0.10027426873E+04  0.25500000920E-02 0. -1.
        2   -1    0    0  501    0  0.00000000000E+00  0.00000000000E+00 -0.14379983322E+04  0.14379983322E+04  0.25500000920E-02 0.  1.
    10030    2    1    2    0    0  0.00000000000E+00  0.00000000000E+00 -0.43525564493E+03  0.24407410194E+04  0.24016180478E+04 0.  0.
        5    1    3    3  502    0  0.10800620988E+04 -0.36514227101E+03 -0.60067246855E+03  0.12886785945E+04  0.46999998093E+01 0. -1.
       -5    1    3    3    0  502 -0.10800620988E+04  0.36514227101E+03  0.16541682362E+03  0.11520624249E+04  0.46999998093E+01 0.  1.
</event>
<event>
 5   0  0.2057599E-05  0.2393549E+04  0.7818609E-02  0.8441923E-01
        1   -1    0    0  501    0  0.00000000000E+00  0.00000000000E+00  0.10612431906E+04  0.10612431906E+04  0.50400001928E-02 0. -1.
       -1   -1    0    0    0  501  0.00000000000E+00  0.00000000000E+00 -0.13496145853E+04  0.13496145853E+04  0.50400001928E-02 0.  1.
    10030    2    1    2    0    0  0.00000000000E+00  0.00000000000E+00 -0.28837139469E+03  0.24108577759E+04  0.23935490708E+04 0.  0.
        4    1    3    3  502    0 -0.62404561671E+03  0.10976365732E+03 -0.11668042202E+04  0.13277479781E+04  0.12699999809E+01 0.  1.
       -4    1    3    3    0  502  0.62404561671E+03 -0.10976365732E+03  0.87843282554E+03  0.10831097978E+04  0.12699999809E+01 0. -1.
</event>
<event>
 5   0  0.4664127E-05  0.2367406E+04  0.7818609E-02  0.8451808E-01
        2   -1    0    0  501    0  0.00000000000E+00  0.00000000000E+00  0.11424643806E+04  0.11424643806E+04  0.25500000920E-02 0.  1.
       -2   -1    0    0    0  501  0.00000000000E+00  0.00000000000E+00 -0.12264297906E+04  0.12264297906E+04  0.25500000920E-02 0. -1.
    10030    2    1    2    0    0  0.00000000000E+00  0.00000000000E+00 -0.83965409951E+02  0.23688941712E+04  0.23674056274E+04 0.  0.
        4    1    3    3  502    0  0.47159534768E+03  0.51709791766E+03  0.91326843066E+03  0.11505882268E+04  0.12699999809E+01 0.  1.
       -4    1    3    3    0  502 -0.47159534768E+03 -0.51709791766E+03 -0.99723384061E+03  0.12183059444E+04  0.12699999809E+01 0. -1.
</event>
<event>
 5   0  0.4914005E-05  0.2264131E+04  0.7818609E-02  0.8492200E-01
       -2   -1    0    0    0  501  0.00000000000E+00  0.00000000000E+00  0.10021996196E+04  0.10021996196E+04  0.25500000920E-02 0.  1.
        2   -1    0    0  501    0  0.00000000000E+00  0.00000000000E+00 -0.12787592487E+04  0.12787592487E+04  0.25500000920E-02 0. -1.
    10030    2    1    2    0    0  0.00000000000E+00  0.00000000000E+00 -0.27655962911E+03  0.22809588683E+04  0.22641307671E+04 0.  0.
        2    1    3    3  502    0 -0.24489662579E+03 -0.69537888828E+03  0.72720136195E+03  0.10355423586E+04  0.25500000920E-02 0.  1.
       -2    1    3    3    0  502  0.24489662579E+03  0.69537888828E+03 -0.10037609911E+04  0.12454165098E+04  0.25500000920E-02 0. -1.
</event>
<event>
 5   0  0.2090039E-05  0.2416017E+04  0.7818609E-02  0.8433531E-01
       -1   -1    0    0    0  501  0.00000000000E+00  0.00000000000E+00  0.74072225296E+03  0.74072225297E+03  0.50400001928E-02 0.  1.
        1   -1    0    0  501    0  0.00000000000E+00  0.00000000000E+00 -0.19700825701E+04  0.19700825701E+04  0.50400001928E-02 0. -1.
    10030    2    1    2    0    0  0.00000000000E+00  0.00000000000E+00 -0.12293603172E+04  0.27108048231E+04  0.24160165562E+04 0.  0.
        1    1    3    3  502    0 -0.11780034622E+04  0.10690115825E+03 -0.88989169967E+03  0.14802118942E+04  0.50400001928E-02 0. -1.
       -1    1    3    3    0  502  0.11780034622E+04 -0.10690115825E+03 -0.33946861751E+03  0.12305929290E+04  0.50400001928E-02 0.  1.
</event>
<event>
 5   0  0.4713971E-05  0.2409311E+04  0.7818609E-02  0.8436026E-01
        2   -1    0    0  501    0  0.00000000000E+00  0.00000000000E+00  0.21629597695E+04  0.21629597695E+04  0.25500000920E-02 0.  1.
       -2   -1    0    0    0  501  0.00000000000E+00  0.00000000000E+00 -0.67092985401E+03  0.67092985401E+03  0.25500000920E-02 0. -1.
    10030    2    1    2    0    0  0.00000000000E+00  0.00000000000E+00  0.14920299155E+04  0.28338896235E+04  0.24093105092E+04 0.  0.
        5    1    3    3  502    0  0.36518750162E+03 -0.10779891131E+04  0.12102135718E+04  0.16613432573E+04  0.46999998093E+01 0.  1.
       -5    1    3    3    0  502 -0.36518750162E+03  0.10779891131E+04  0.28181634367E+03  0.11725463662E+04  0.46999998093E+01 0. -1.
</event>
<event>
 5   0  0.2065692E-05  0.2408235E+04  0.7818609E-02  0.8436427E-01
       -1   -1    0    0    0  501  0.00000000000E+00  0.00000000000E+00  0.75667562057E+03  0.75667562058E+03  0.50400001928E-02 0.  1.
        1   -1    0    0  501    0  0.00000000000E+00  0.00000000000E+00 -0.19161426989E+04  0.19161426989E+04  0.50400001928E-02 0. -1.
    10030    2    1    2    0    0  0.00000000000E+00  0.00000000000E+00 -0.11594670783E+04  0.26728183195E+04  0.24082345947E+04 0.  0.
        3    1    3    3  502    0  0.58376789003E+02  0.34889009275E+03  0.69770579890E+03  0.78225669593E+03  0.10100000352E+00 0.  1.
       -3    1    3    3    0  502 -0.58376789003E+02 -0.34889009275E+03 -0.18571728772E+04  0.18905616235E+04  0.10100000352E+00 0. -1.
</event>
<event>
 5   0  0.4664127E-05  0.2395083E+04  0.7818609E-02  0.8441347E-01
       -2   -1    0    0    0  501  0.00000000000E+00  0.00000000000E+00  0.56998953565E+03  0.56998953566E+03  0.25500000920E-02 0. -1.
        2   -1    0    0  501    0  0.00000000000E+00  0.00000000000E+00 -0.25160208815E+04  0.25160208815E+04  0.25500000920E-02 0.  1.
    10030    2    1    2    0    0  0.00000000000E+00  0.00000000000E+00 -0.19460313459E+04  0.30860104172E+04  0.23950829413E+04 0.  0.
        4    1    3    3  502    0  0.69685780652E+03 -0.72983928437E+03 -0.18038866303E+04  0.20669505973E+04  0.12699999809E+01 0.  1.
       -4    1    3    3    0  502 -0.69685780652E+03  0.72983928437E+03 -0.14214471553E+03  0.10190598199E+04  0.12699999809E+01 0. -1.
</event>
<event>
 5   0  0.4713971E-05  0.2418951E+04  0.7818609E-02  0.8432443E-01
       -2   -1    0    0    0  501  0.00000000000E+00  0.00000000000E+00  0.52843573235E+03  0.52843573235E+03  0.25500000920E-02 0. -1.
        2   -1    0    0  501    0  0.00000000000E+00  0.00000000000E+00 -0.27682281687E+04  0.27682281687E+04  0.25500000920E-02 0.  1.
    10030    2    1    2    0    0  0.00000000000E+00  0.00000000000E+00 -0.22397924364E+04  0.32966639011E+04  0.24189507475E+04 0.  0.
        5    1    3    3  502    0  0.84224344856E+03  0.25370582882E+03 -0.22511984949E+04  0.24169520946E+04  0.46999998093E+01 0.  1.
       -5    1    3    3    0  502 -0.84224344856E+03 -0.25370582882E+03  0.11406058547E+02  0.87971180644E+03  0.46999998093E+01 0. -1.
</event>
<event>
 5   0  0.2090039E-05  0.2402904E+04  0.7818609E-02  0.8438417E-01
        1   -1    0    0  501    0  0.00000000000E+00  0.00000000000E+00  0.12911648173E+04  0.12911648173E+04  0.50400001928E-02 0.  1.
       -1   -1    0    0    0  501  0.00000000000E+00  0.00000000000E+00 -0.11179723570E+04  0.11179723570E+04  0.50400001928E-02 0. -1.
    10030    2    1    2    0    0  0.00000000000E+00  0.00000000000E+00  0.17319246037E+03  0.24091371743E+04  0.24029037218E+04 0.  0.
        1    1    3    3  502    0 -0.60621210130E+03 -0.57217349504E+03 -0.78087133972E+03  0.11422064916E+04  0.50400001928E-02 0. -1.
       -1    1    3    3    0  502  0.60621210130E+03  0.57217349504E+03  0.95406380009E+03  0.12669306827E+04  0.50400001928E-02 0.  1.
</event>
<event>
 5   0  0.2090039E-05  0.2259490E+04  0.7818609E-02  0.8494067E-01
       -1   -1    0    0    0  501  0.00000000000E+00  0.00000000000E+00  0.10373940303E+04  0.10373940303E+04  0.50400001928E-02 0. -1.
        1   -1    0    0  501    0  0.00000000000E+00  0.00000000000E+00 -0.12303168147E+04  0.12303168147E+04  0.50400001928E-02 0.  1.
    10030    2    1    2    0    0  0.00000000000E+00  0.00000000000E+00 -0.19292278443E+03  0.22677108450E+04  0.22594896052E+04 0.  0.
        1    1    3    3  502    0 -0.48840887256E+03  0.63608414938E+03  0.70215810902E+03  0.10659138248E+04  0.50400001928E-02 0. -1.
       -1    1    3    3    0  502  0.48840887256E+03 -0.63608414938E+03 -0.89508089345E+03  0.12017970202E+04  0.50400001928E-02 0.  1.
</event>
<event>
 5   0  0.2065692E-05  0.2413894E+04  0.7818609E-02  0.8434320E-01
       -1   -1    0    0    0  501  0.00000000000E+00  0.00000000000E+00  0.10243662993E+04  0.10243662993E+04  0.50400001928E-02 0.  1.
        1   -1    0    0  501    0  0.00000000000E+00  0.00000000000E+00 -0.14220704350E+04  0.14220704350E+04  0.50400001928E-02 0. -1.
    10030    2    1    2    0    0  0.00000000000E+00  0.00000000000E+00 -0.39770413569E+03  0.24464367343E+04  0.24138939736E+04 0.  0.
        3    1    3    3  502    0 -0.89007032510E+03 -0.68522604892E+03  0.24864457197E+03  0.11504712318E+04  0.10100000352E+00 0.  1.
       -3    1    3    3    0  502  0.89007032510E+03  0.68522604892E+03 -0.64634870766E+03  0.12959655026E+04  0.10100000352E+00 0. -1.
</event>
<event>
 5   0  0.4664127E-05  0.2370972E+04  0.7818609E-02  0.8450452E-01
        2   -1    0    0  501    0  0.00000000000E+00  0.00000000000E+00  0.12048938063E+04  0.12048938063E+04  0.25500000920E-02 0.  1.
       -2   -1    0    0    0  501  0.00000000000E+00  0.00000000000E+00 -0.11663903641E+04  0.11663903641E+04  0.25500000920E-02 0. -1.
    10030    2    1    2    0    0  0.00000000000E+00  0.00000000000E+00  0.38503442218E+02  0.23712841705E+04  0.23709715523E+04 0.  0.
        4    1    3    3  502    0 -0.49092124945E+03  0.70371827950E+03 -0.79887314261E+03  0.11723578809E+04  0.12699999809E+01 0. -1.
       -4    1    3    3    0  502  0.49092124945E+03 -0.70371827950E+03  0.83737658483E+03  0.11989262896E+04  0.12699999809E+01 0.  1.
</event>
<event>
 5   0  0.4856882E-05  0.2405719E+04  0.7818609E-02  0.8437365E-01
        2   -1    0    0  501    0  0.00000000000E+00  0.00000000000E+00  0.15709074079E+04  0.15709074079E+04  0.25500000920E-02 0. -1.
       -2   -1    0    0    0  501  0.00000000000E+00  0.00000000000E+00 -0.92104183964E+03  0.92104183964E+03  0.25500000920E-02 0.  1.
    10030    2    1    2    0    0  0.00000000000E+00  0.00000000000E+00  0.64986556825E+03  0.24919492475E+04  0.24057193925E+04 0.  0.
        1    1    3    3  502    0  0.78516873631E+03 -0.47278303020E+02  0.12675768720E+04  0.14918030396E+04  0.50400001928E-02 0. -1.
       -1    1    3    3    0  502 -0.78516873631E+03  0.47278303020E+02 -0.61771130378E+03  0.10001462079E+04  0.50400001928E-02 0.  1.
</event>
<event>
 5   0  0.4713971E-05  0.2406809E+04  0.7818609E-02  0.8436959E-01
        2   -1    0    0  501    0  0.00000000000E+00  0.00000000000E+00  0.20814117615E+04  0.20814117615E+04  0.25500000920E-02 0.  1.
       -2   -1    0    0    0  501  0.00000000000E+00  0.00000000000E+00 -0.69576941598E+03  0.69576941598E+03  0.25500000920E-02 0. -1.
    10030    2    1    2    0    0  0.00000000000E+00  0.00000000000E+00  0.13856423455E+04  0.27771811775E+04  0.24068092120E+04 0.  0.
        5    1    3    3  502    0 -0.22886787178E+03  0.10960722991E+04  0.12015857874E+04  0.16424327938E+04  0.46999998093E+01 0.  1.
       -5    1    3    3    0  502  0.22886787178E+03 -0.10960722991E+04  0.18405655813E+03  0.11347483837E+04  0.46999998093E+01 0. -1.
</event>
<event>
 5   0  0.2139556E-05  0.2411884E+04  0.7818609E-02  0.8435068E-01
       -1   -1    0    0    0  501  0.00000000000E+00  0.00000000000E+00  0.13718103871E+04  0.13718103872E+04  0.50400001928E-02 0. -1.
        1   -1    0    0  501    0  0.00000000000E+00  0.00000000000E+00 -0.10601291591E+04  0.10601291591E+04  0.50400001928E-02 0.  1.
    10030    2    1    2    0    0  0.00000000000E+00  0.00000000000E+00  0.31168122802E+03  0.24319395463E+04  0.24118840704E+04 0.  0.
        2    1    3    3  502    0 -0.84237813805E+03  0.83142378892E+03 -0.77230208380E+02  0.11860990470E+04  0.25500000920E-02 0. -1.
       -2    1    3    3    0  502  0.84237813805E+03 -0.83142378892E+03  0.38891143640E+03  0.12458404993E+04  0.25500000920E-02 0.  1.
</event>
<event>
 5   0  0.2149920E-05  0.2379714E+04  0.7818609E-02  0.8447138E-01
       -1   -1    0    0    0  501  0.00000000000E+00  0.00000000000E+00  0.61123984388E+03  0.61123984390E+03  0.50400001928E-02 0.  1.
        1   -1    0    0  501    0  0.00000000000E+00  0.00000000000E+00 -0.23162099908E+04  0.23162099908E+04  0.50400001928E-02 0. -1.
    10030    2    1    2    0    0  0.00000000000E+00  0.00000000000E+00 -0.17049701469E+04  0.29274498347E+04  0.23797141284E+04 0.  0.
        5    1    3    3  502    0  0.26206644617E+03  0.30682327906E+03 -0.22294601059E+04  0.22656861655E+04  0.46999998093E+01 0. -1.
       -5    1    3    3    0  502 -0.26206644617E+03 -0.30682327906E+03  0.52448995898E+03  0.66176366919E+03  0.46999998093E+01 0.  1.
</event>
<event>
 5   0  0.4664127E-05  0.2403917E+04  0.7818609E-02  0.8438039E-01
        2   -1    0    0  501    0  0.00000000000E+00  0.00000000000E+00  0.13508337959E+04  0.13508337959E+04  0.25500000920E-02 0. -1.
       -2   -1    0    0    0  501  0.00000000000E+00  0.00000000000E+00 -0.10694903053E+04  0.10694903053E+04  0.25500000920E-02 0.  1.
    10030    2    1    2    0    0  0.00000000000E+00  0.00000000000E+00  0.28134349054E+03  0.24203241012E+04  0.24039165117E+04 0.  0.
        4    1    3    3  502    0 -0.11386539637E+04 -0.17824382649E+03  0.48417235357E+03  0.12500912733E+04  0.12699999809E+01 0.  1.
       -4    1    3    3    0  502  0.11386539637E+04  0.17824382649E+03 -0.20282886304E+03  0.11702328279E+04  0.12699999809E+01 0. -1.
</event>
<event>
 5   0  0.2065692E-05  0.2383003E+04  0.7818609E-02  0.8445894E-01
        1   -1    0    0  501    0  0.00000000000E+00  0.00000000000E+00  0.10107822349E+04  0.10107822349E+04  0.50400001928E-02 0. -1.
       -1   -1    0    0    0  501  0.00000000000E+00  0.00000000000E+00 -0.14045319079E+04  0.14045319079E+04  0.50400001928E-02 0.  1.
    10030    2    1    2    0    0  0.00000000000E+00  0.00000000000E+00 -0.39374967294E+03  0.24153141428E+04  0.23830030641E+04 0.  0.
        3    1    3    3  502    0  0.37678093218E+03 -0.96742516017E+03  0.39568937848E+03  0.11110559868E+04  0.10100000352E+00 0. -1.
       -3    1    3    3    0  502 -0.37678093218E+03  0.96742516017E+03 -0.78943905143E+03  0.13042581560E+04  0.10100000352E+00 0.  1.
</event>
<event>
 5   0  0.4664127E-05  0.2474230E+04  0.7818609E-02  0.8412224E-01
        2   -1    0    0  501    0  0.00000000000E+00  0.00000000000E+00  0.13205136164E+04  0.13205136164E+04  0.25500000920E-02 0.  1.
       -2   -1    0    0    0  501  0.00000000000E+00  0.00000000000E+00 -0.11589838362E+04  0.11589838362E+04  0.25500000920E-02 0. -1.
    10030    2    1    2    0    0  0.00000000000E+00  0.00000000000E+00  0.16152978015E+03  0.24794974526E+04  0.24742303344E+04 0.  0.
        4    1    3    3  502    0  0.58459704411E+03  0.44663224470E+03 -0.91594691274E+03  0.11748167627E+04  0.12699999809E+01 0. -1.
       -4    1    3    3    0  502 -0.58459704411E+03 -0.44663224470E+03  0.10774766929E+04  0.13046806899E+04  0.12699999809E+01 0.  1.
</event>
<event>
 5   0  0.2065692E-05  0.2164830E+04  0.7818609E-02  0.8533211E-01
       -1   -1    0    0    0  501  0.00000000000E+00  0.00000000000E+00  0.85278197357E+03  0.85278197359E+03  0.50400001928E-02 0. -1.
        1   -1    0    0  501    0  0.00000000000E+00  0.00000000000E+00 -0.13738830882E+04  0.13738830882E+04  0.50400001928E-02 0.  1.
    10030    2    1    2    0    0  0.00000000000E+00  0.00000000000E+00 -0.52110111467E+03  0.22266650618E+04  0.21648304612E+04 0.  0.
        3    1    3    3  502    0  0.46476144384E+03 -0.31304031738E+03  0.69198191932E+03  0.89041362683E+03  0.10100000352E+00 0. -1.
       -3    1    3    3    0  502 -0.46476144384E+03  0.31304031738E+03 -0.12130830340E+04  0.13362514350E+04  0.10100000352E+00 0.  1.
</event>
<event>
 5   0  0.2090039E-05  0.2365782E+04  0.7818609E-02  0.8452426E-01
       -1   -1    0    0    0  501  0.00000000000E+00  0.00000000000E+00  0.94087490851E+03  0.94087490852E+03  0.50400001928E-02 0. -1.
        1   -1    0    0  501    0  0.00000000000E+00  0.00000000000E+00 -0.14871599055E+04  0.14871599055E+04  0.50400001928E-02 0.  1.
    10030    2    1    2    0    0  0.00000000000E+00  0.00000000000E+00 -0.54628499700E+03  0.24280348140E+04  0.23657822724E+04 0.  0.
        1    1    3    3  502    0 -0.10099478266E+04 -0.61220204539E+03 -0.34157140919E+03  0.12294132683E+04  0.50400001928E-02 0. -1.
       -1    1    3    3    0  502  0.10099478266E+04  0.61220204539E+03 -0.20471358781E+03  0.11986215457E+04  0.50400001928E-02 0.  1.
</event>
<event>
 5   0  0.4664127E-05  0.2401757E+04  0.7818609E-02  0.8438846E-01
       -2   -1    0    0    0  501  0.00000000000E+00  0.00000000000E+00  0.49655888343E+03  0.49655888343E+03  0.25500000920E-02 0. -1.
        2   -1    0    0  501    0  0.00000000000E+00  0.00000000000E+00 -0.29042050181E+04  0.29042050181E+04  0.25500000920E-02 0.  1.
    10030    2    1    2    0    0  0.00000000000E+00  0.00000000000E+00 -0.24076461347E+04  0.34007639016E+04  0.24017566913E+04 0.  0.
        4    1    3    3  502    0  0.68686604143E+03 -0.97518559482E+03 -0.14007126602E+04  0.18397742994E+04  0.12699999809E+01 0. -1.
       -4    1    3    3    0  502 -0.68686604143E+03  0.97518559482E+03 -0.10069334745E+04  0.15609896022E+04  0.12699999809E+01 0.  1.
</event>
<event>
 5   0  0.4856882E-05  0.2379160E+04  0.7818609E-02  0.8447347E-01
        2   -1    0    0  501    0  0.00000000000E+00  0.00000000000E+00  0.94413609690E+03  0.94413609691E+03  0.25500000920E-02 0. -1.
       -2   -1    0    0    0  501  0.00000000000E+00  0.00000000000E+00 -0.14988313407E+04  0.14988313407E+04  0.25500000920E-02 0.  1.
    10030    2    1    2    0    0  0.00000000000E+00  0.00000000000E+00 -0.55469524377E+03  0.24429674376E+04  0.23791601643E+04 0.  0.
        1    1    3    3  502    0 -0.99756820040E+03 -0.64544005264E+03 -0.33691726276E+03  0.12350094809E+04  0.50400001928E-02 0. -1.
       -1    1    3    3    0  502  0.99756820040E+03  0.64544005264E+03 -0.21777798101E+03  0.12079579567E+04  0.50400001928E-02 0.  1.
</event>
<event>
 5   0  0.4664127E-05  0.2272545E+04  0.7818609E-02  0.8488826E-01
       -2   -1    0    0    0  501  0.00000000000E+00  0.00000000000E+00  0.85228750433E+03  0.85228750434E+03  0.25500000920E-02 0.  1.
        2   -1    0    0  501    0  0.00000000000E+00  0.00000000000E+00 -0.15148821110E+04  0.15148821110E+04  0.25500000920E-02 0. -1.
    10030    2    1    2    0    0  0.00000000000E+00  0.00000000000E+00 -0.66259460670E+03  0.23671696154E+04  0.22725449116E+04 0.  0.
        4    1    3    3  502    0  0.77984133654E+03 -0.93788285757E+02  0.52396615364E+03  0.94418795575E+03  0.12699999809E+01 0.  1.
       -4    1    3    3    0  502 -0.77984133654E+03  0.93788285757E+02 -0.11865607603E+04  0.14229816596E+04  0.12699999809E+01 0. -1.
</event>
<event>
 5   0  0.4664127E-05  0.2313643E+04  0.7818609E-02  0.8472561E-01
       -2   -1    0    0    0  501  0.00000000000E+00  0.00000000000E+00  0.11037231482E+04  0.11037231482E+04  0.25500000920E-02 0. -1.
        2   -1    0    0  501    0  0.00000000000E+00  0.00000000000E+00 -0.12124740931E+04  0.12124740932E+04  0.25500000920E-02 0.  1.
    10030    2    1    2    0    0  0.00000000000E+00  0.00000000000E+00 -0.10875094492E+03  0.23161972414E+04  0.23136427756E+04 0.  0.
        4    1    3    3  502    0  0.11898756751E+03 -0.36297200078E+03  0.10387675733E+04  0.11067729663E+04  0.12699999809E+01 0. -1.
       -4    1    3    3    0  502 -0.11898756751E+03  0.36297200078E+03 -0.11475185183E+04  0.12094242751E+04  0.12699999809E+01 0.  1.
</event>
<event>
 5   0  0.2090039E-05  0.1857296E+04  0.7818609E-02  0.8676410E-01
       -1   -1    0    0    0  501  0.00000000000E+00  0.00000000000E+00  0.10862707583E+04  0.10862707583E+04  0.50400001928E-02 0.  1.
        1   -1    0    0  501    0  0.00000000000E+00  0.00000000000E+00 -0.79389659678E+03  0.79389659679E+03  0.50400001928E-02 0. -1.
    10030    2    1    2    0    0  0.00000000000E+00  0.00000000000E+00  0.29237416152E+03  0.18801673551E+04  0.18572955158E+04 0.  0.
        1    1    3    3  502    0 -0.91819554992E+03 -0.12305599529E+03  0.80888376892E+02  0.92992944647E+03  0.50400001928E-02 0. -1.
       -1    1    3    3    0  502  0.91819554992E+03  0.12305599529E+03  0.21148578463E+03  0.95023790863E+03  0.50400001928E-02 0.  1.
</event>
<event>
 5   0  0.2065692E-05  0.2463478E+04  0.7818609E-02  0.8416113E-01
        1   -1    0    0  501    0  0.00000000000E+00  0.00000000000E+00  0.25755953062E+04  0.25755953062E+04  0.50400001928E-02 0. -1.
       -1   -1    0    0    0  501  0.00000000000E+00  0.00000000000E+00 -0.58906029022E+03  0.58906029024E+03  0.50400001928E-02 0.  1.
    10030    2    1    2    0    0  0.00000000000E+00  0.00000000000E+00  0.19865350159E+04  0.31646555964E+04  0.24634779630E+04 0.  0.
        3    1    3    3  502    0 -0.39835365101E+03 -0.19676584466E+03 -0.48253516638E+03  0.65592882685E+03  0.10100000352E+00 0.  1.
       -3    1    3    3    0  502  0.39835365101E+03  0.19676584466E+03  0.24690701823E+04  0.25087267696E+04  0.10100000352E+00 0. -1.
</event>
<event>
 5   0  0.4914005E-05  0.2376455E+04  0.7818609E-02  0.8448371E-01
        2   -1    0    0  501    0  0.00000000000E+00  0.00000000000E+00  0.12543215701E+04  0.12543215702E+04  0.25500000920E-02 0.  1.
       -2   -1    0    0    0  501  0.00000000000E+00  0.00000000000E+00 -0.11256158908E+04  0.11256158908E+04  0.25500000920E-02 0. -1.
    10030    2    1    2    0    0  0.00000000000E+00  0.00000000000E+00  0.12870567931E+03  0.23799374610E+04  0.23764547474E+04 0.  0.
        2    1    3    3  502    0  0.10315865296E+03  0.11128822063E+04 -0.33964358296E+03  0.11681208312E+04  0.25500000920E-02 0. -1.
       -2    1    3    3    0  502 -0.10315865296E+03 -0.11128822063E+04  0.46834926226E+03  0.12118166298E+04  0.25500000920E-02 0.  1.
</event>
<event>
 5   0  0.2139556E-05  0.2214731E+04  0.7818609E-02  0.8512322E-01
       -1   -1    0    0    0  501  0.00000000000E+00  0.00000000000E+00  0.85715768570E+03  0.85715768571E+03  0.50400001928E-02 0.  1.
        1   -1    0    0  501    0  0.00000000000E+00  0.00000000000E+00 -0.14306096603E+04  0.14306096603E+04  0.50400001928E-02 0. -1.
    10030    2    1    2    0    0  0.00000000000E+00  0.00000000000E+00 -0.57345197457E+03  0.22877673460E+04  0.22147307426E+04 0.  0.
        2    1    3    3  502    0  0.38689052932E+03 -0.11669767086E+03  0.77827117774E+03  0.87693138509E+03  0.25500000920E-02 0.  1.
       -2    1    3    3    0  502 -0.38689052932E+03  0.11669767086E+03 -0.13517231523E+04  0.14108359609E+04  0.25500000920E-02 0. -1.
</event>
<event>
 5   0  0.2057599E-05  0.2403591E+04  0.7818609E-02  0.8438160E-01
       -1   -1    0    0    0  501  0.00000000000E+00  0.00000000000E+00  0.16382646051E+04  0.16382646051E+04  0.50400001928E-02 0.  1.
        1   -1    0    0  501    0  0.00000000000E+00  0.00000000000E+00 -0.88161101911E+03  0.88161101913E+03  0.50400001928E-02 0. -1.
    10030    2    1    2    0    0  0.00000000000E+00  0.00000000000E+00  0.75665358596E+03  0.25198756242E+04  0.24035907539E+04 0.  0.
        4    1    3    3  502    0  0.38284513171E+03 -0.76858343797E+03 -0.50319755746E+03  0.99523881091E+03  0.12699999809E+01 0. -1.
       -4    1    3    3    0  502 -0.38284513171E+03  0.76858343797E+03  0.12598511434E+04  0.15246368133E+04  0.12699999809E+01 0.  1.
</event>
<event>
 5   0  0.2057599E-05  0.2401840E+04  0.7818609E-02  0.8438815E-01
       -1   -1    0    0    0  501  0.00000000000E+00  0.00000000000E+00  0.11536002311E+04  0.11536002311E+04  0.50400001928E-02 0.  1.
        1   -1    0    0  501    0  0.00000000000E+00  0.00000000000E+00 -0.12501810803E+04  0.12501810803E+04  0.50400001928E-02 0. -1.
    10030    2    1    2    0    0  0.00000000000E+00  0.00000000000E+00 -0.96580849148E+02  0.24037813114E+04  0.24018402804E+04 0.  0.
        4    1    3    3  502    0 -0.10460126988E+04 -0.53887341172E+03  0.19207121182E+03  0.11922332335E+04  0.12699999809E+01 0. -1.
       -4    1    3    3    0  502  0.10460126988E+04  0.53887341172E+03 -0.28865206097E+03  0.12115480779E+04  0.12699999809E+01 0.  1.
</event>
<event>
 5   0  0.4914005E-05  0.2394534E+04  0.7818609E-02  0.8441553E-01
       -2   -1    0    0    0  501  0.00000000000E+00  0.00000000000E+00  0.55224941181E+03  0.55224941181E+03  0.25500000920E-02 0. -1.
        2   -1    0    0  501    0  0.00000000000E+00  0.00000000000E+00 -0.25956536567E+04  0.25956536567E+04  0.25500000920E-02 0.  1.
    10030    2    1    2    0    0  0.00000000000E+00  0.00000000000E+00 -0.20434042449E+04  0.31479030685E+04  0.23945339464E+04 0.  0.
        2    1    3    3  502    0 -0.41467632666E+03 -0.30491562978E+03 -0.24427807067E+04  0.24964189509E+04  0.25500000920E-02 0.  1.
       -2    1    3    3    0  502  0.41467632666E+03  0.30491562978E+03  0.39937646187E+03  0.65148411760E+03  0.25500000920E-02 0. -1.
</event>
<event>
 5   0  0.2090039E-05  0.2407366E+04  0.7818609E-02  0.8436751E-01
        1   -1    0    0  501    0  0.00000000000E+00  0.00000000000E+00  0.11591274802E+04  0.11591274802E+04  0.50400001928E-02 0. -1.
       -1   -1    0    0    0  501  0.00000000000E+00  0.00000000000E+00 -0.12499507519E+04  0.12499507519E+04  0.50400001928E-02 0.  1.
    10030    2    1    2    0    0  0.00000000000E+00  0.00000000000E+00 -0.90823271747E+02  0.24090782321E+04  0.24073655854E+04 0.  0.
        1    1    3    3  502    0 -0.22430286121E+03 -0.54903006530E+03 -0.10935853049E+04  0.12440557082E+04  0.50400001928E-02 0.  1.
       -1    1    3    3    0  502  0.22430286121E+03  0.54903006530E+03  0.10027620331E+04  0.11650225239E+04  0.50400001928E-02 0. -1.
</event>
<event>
 5   0  0.4914005E-05  0.2344167E+04  0.7818609E-02  0.8460707E-01
       -2   -1    0    0    0  501  0.00000000000E+00  0.00000000000E+00  0.10071233580E+04  0.10071233580E+04  0.25500000920E-02 0. -1.
        2   -1    0    0  501    0  0.00000000000E+00  0.00000000000E+00 -0.13640631668E+04  0.13640631668E+04  0.25500000920E-02 0.  1.
    10030    2    1    2    0    0  0.00000000000E+00  0.00000000000E+00 -0.35693980873E+03  0.23711865248E+04  0.23441671247E+04 0.  0.
        2    1    3    3  502    0 -0.43167894907E+03 -0.50021946373E+03  0.80078656631E+03  0.10381836792E+04  0.25500000920E-02 0. -1.
       -2    1    3    3    0  502  0.43167894907E+03  0.50021946373E+03 -0.11577263750E+04  0.13330028456E+04  0.25500000920E-02 0.  1.
</event>
<event>
 5   0  0.4914005E-05  0.2352490E+04  0.7818609E-02  0.8457508E-01
       -2   -1    0    0    0  501  0.00000000000E+00  0.00000000000E+00  0.13433817172E+04  0.13433817172E+04  0.25500000920E-02 0. -1.
        2   -1    0    0  501    0  0.00000000000E+00  0.00000000000E+00 -0.10299027669E+04  0.10299027669E+04  0.25500000920E-02 0.  1.
    10030    2    1    2    0    0  0.00000000000E+00  0.00000000000E+00  0.31347895033E+03  0.23732844841E+04  0.23524902104E+04 0.  0.
        2    1    3    3  502    0 -0.50286494029E+03 -0.15151511282E+03  0.12185266552E+04  0.13268900433E+04  0.25500000920E-02 0. -1.
       -2    1    3    3    0  502  0.50286494029E+03  0.15151511282E+03 -0.90504770489E+03  0.10463944408E+04  0.25500000920E-02 0.  1.
</event>
<event>
 5   0  0.4914005E-05  0.2422683E+04  0.7818609E-02  0.8431060E-01
       -2   -1    0    0    0  501  0.00000000000E+00  0.00000000000E+00  0.63095863047E+03  0.63095863048E+03  0.25500000920E-02 0. -1.
        2   -1    0    0  501    0  0.00000000000E+00  0.00000000000E+00 -0.23255862061E+04  0.23255862061E+04  0.25500000920E-02 0.  1.
    10030    2    1    2    0    0  0.00000000000E+00  0.00000000000E+00 -0.16946275756E+04  0.29565448365E+04  0.24226833781E+04 0.  0.
        2    1    3    3  502    0  0.91572181322E+03 -0.26091927155E+03  0.66509335413E+02  0.95448876221E+03  0.25500000920E-02 0. -1.
       -2    1    3    3    0  502 -0.91572181322E+03  0.26091927155E+03 -0.17611369110E+04  0.20020560743E+04  0.25500000920E-02 0.  1.
</event>
<event>
 5   0  0.4856882E-05  0.2359015E+04  0.7818609E-02  0.8455009E-01
        2   -1    0    0  501    0  0.00000000000E+00  0.00000000000E+00  0.24291294369E+04  0.24291294369E+04  0.25500000920E-02 0.  1.
       -2   -1    0    0    0  501  0.00000000000E+00  0.00000000000E+00 -0.57273116170E+03  0.57273116171E+03  0.25500000920E-02 0. -1.
    10030    2    1    2    0    0  0.00000000000E+00  0.00000000000E+00  0.18563982752E+04  0.30018605986E+04  0.23590151541E+04 0.  0.
        1    1    3    3  502    0 -0.54271509127E+03 -0.43688873313E+03 -0.28290739282E+03  0.75196278389E+03  0.50400001928E-02 0. -1.
       -1    1    3    3    0  502  0.54271509127E+03  0.43688873313E+03  0.21393056680E+04  0.22498978147E+04  0.50400001928E-02 0.  1.
</event>
<event>
 5   0  0.2139556E-05  0.2412897E+04  0.7818609E-02  0.8434691E-01
       -1   -1    0    0    0  501  0.00000000000E+00  0.00000000000E+00  0.50754870737E+03  0.50754870740E+03  0.50400001928E-02 0. -1.
        1   -1    0    0  501    0  0.00000000000E+00  0.00000000000E+00 -0.28677416091E+04  0.28677416091E+04  0.50400001928E-02 0.  1.
    10030    2    1    2    0    0  0.00000000000E+00  0.00000000000E+00 -0.23601929017E+04  0.33752903165E+04  0.24128974672E+04 0.  0.
        2    1    3    3  502    0  0.60505293274E+03 -0.14569075855E+03  0.26567386770E+03  0.67668120451E+03  0.25500000920E-02 0. -1.
       -2    1    3    3    0  502 -0.60505293274E+03  0.14569075855E+03 -0.26258667694E+04  0.26986091120E+04  0.25500000920E-02 0.  1.
</event>
<event>
 5   0  0.4664127E-05  0.2402600E+04  0.7818609E-02  0.8438531E-01
        2   -1    0    0  501    0  0.00000000000E+00  0.00000000000E+00  0.12130702488E+04  0.12130702488E+04  0.25500000920E-02 0.  1.
       -2   -1    0    0    0  501  0.00000000000E+00  0.00000000000E+00 -0.11896442495E+04  0.11896442495E+04  0.25500000920E-02 0. -1.
    10030    2    1    2    0    0  0.00000000000E+00  0.00000000000E+00  0.23425999318E+02  0.24027144983E+04  0.24026002962E+04 0.  0.
        4    1    3    3  502    0  0.32946400553E+03 -0.10471480891E+04 -0.47621877097E+03  0.11966000092E+04  0.12699999809E+01 0. -1.
       -4    1    3    3    0  502 -0.32946400553E+03  0.10471480891E+04  0.49964477029E+03  0.12061144891E+04  0.12699999809E+01 0.  1.
</event>
<event>
 5   0  0.4713971E-05  0.2383130E+04  0.7818609E-02  0.8445847E-01
        2   -1    0    0  501    0  0.00000000000E+00  0.00000000000E+00  0.10477579509E+04  0.10477579509E+04  0.25500000920E-02 0.  1.
       -2   -1    0    0    0  501  0.00000000000E+00  0.00000000000E+00 -0.13551094959E+04  0.13551094959E+04  0.25500000920E-02 0. -1.
    10030    2    1    2    0    0  0.00000000000E+00  0.00000000000E+00 -0.30735154500E+03  0.24028674468E+04  0.23831296638E+04 0.  0.
        5    1    3    3  502    0  0.47700010090E+03  0.10799309068E+04 -0.31633392397E+03  0.12222393797E+04  0.46999998093E+01 0.  1.
       -5    1    3    3    0  502 -0.47700010090E+03 -0.10799309068E+04  0.89823789701E+01  0.11806280671E+04  0.46999998093E+01 0. -1.
</event>
<event>
 5   0  0.2065692E-05  0.2411449E+04  0.7818609E-02  0.8435230E-01
       -1   -1    0    0    0  501  0.00000000000E+00  0.00000000000E+00  0.98429788777E+03  0.98429788778E+03  0.50400001928E-02 0.  1.
        1   -1    0    0  501    0  0.00000000000E+00  0.00000000000E+00 -0.14769625933E+04  0.14769625933E+04  0.50400001928E-02 0. -1.
    10030    2    1    2    0    0  0.00000000000E+00  0.00000000000E+00 -0.49266470556E+03  0.24612604811E+04  0.24114486608E+04 0.  0.
        3    1    3    3  502    0  0.97892024573E+03  0.66635746641E+03 -0.47785274891E+03  0.12769731322E+04  0.10100000352E+00 0. -1.
       -3    1    3    3    0  502 -0.97892024573E+03 -0.66635746641E+03 -0.14811956650E+02  0.11842873489E+04  0.10100000352E+00 0.  1.
</event>
<event>
 5   0  0.4713971E-05  0.2387197E+04  0.7818609E-02  0.8444312E-01
        2   -1    0    0  501    0  0.00000000000E+00  0.00000000000E+00  0.81352505546E+03  0.81352505547E+03  0.25500000920E-02 0. -1.
       -2   -1    0    0    0  501  0.00000000000E+00  0.00000000000E+00 -0.17512403294E+04  0.17512403294E+04  0.25500000920E-02 0.  1.
    10030    2    1    2    0    0  0.00000000000E+00  0.00000000000E+00 -0.93771527389E+03  0.25647653848E+04  0.23871974247E+04 0.  0.
        5    1    3    3  502    0 -0.32149535986E+03 -0.24913610661E+03  0.73676514451E+03  0.84158958774E+03  0.46999998093E+01 0. -1.
       -5    1    3    3    0  502  0.32149535986E+03  0.24913610661E+03 -0.16744804184E+04  0.17231757971E+04  0.46999998093E+01 0.  1.
</event>
<event>
 5   0  0.2149920E-05  0.2381819E+04  0.7818609E-02  0.8446342E-01
        1   -1    0    0  501    0  0.00000000000E+00  0.00000000000E+00  0.13230590097E+04  0.13230590097E+04  0.50400001928E-02 0. -1.
       -1   -1    0    0    0  501  0.00000000000E+00  0.00000000000E+00 -0.10719592350E+04  0.10719592350E+04  0.50400001928E-02 0.  1.
    10030    2    1    2    0    0  0.00000000000E+00  0.00000000000E+00  0.25109977471E+03  0.23950182448E+04  0.23818189049E+04 0.  0.
        5    1    3    3  502    0 -0.21741244790E+03  0.22364199052E+03 -0.10301493058E+04  0.10763426938E+04  0.46999998093E+01 0.  1.
       -5    1    3    3    0  502  0.21741244790E+03 -0.22364199052E+03  0.12812490805E+04  0.13186755509E+04  0.46999998093E+01 0. -1.
</event>
<event>
 5   0  0.4713971E-05  0.2375047E+04  0.7818609E-02  0.8448905E-01
        2   -1    0    0  501    0  0.00000000000E+00  0.00000000000E+00  0.11900227527E+04  0.11900227527E+04  0.25500000920E-02 0.  1.
       -2   -1    0    0    0  501  0.00000000000E+00  0.00000000000E+00 -0.11850293762E+04  0.11850293762E+04  0.25500000920E-02 0. -1.
    10030    2    1    2    0    0  0.00000000000E+00  0.00000000000E+00  0.49933765376E+01  0.23750521289E+04  0.23750468798E+04 0.  0.
        5    1    3    3  502    0  0.65971956134E+03 -0.65896467581E+02  0.98769812787E+03  0.11895973797E+04  0.46999998093E+01 0.  1.
       -5    1    3    3    0  502 -0.65971956134E+03  0.65896467581E+02 -0.98270475133E+03  0.11854547492E+04  0.46999998093E+01 0. -1.
</event>
<event>
 5   0  0.4914005E-05  0.2394238E+04  0.7818609E-02  0.8441664E-01
       -2   -1    0    0    0  501  0.00000000000E+00  0.00000000000E+00  0.12366284587E+04  0.12366284587E+04  0.25500000920E-02 0.  1.
        2   -1    0    0  501    0  0.00000000000E+00  0.00000000000E+00 -0.11588716268E+04  0.11588716268E+04  0.25500000920E-02 0. -1.
    10030    2    1    2    0    0  0.00000000000E+00  0.00000000000E+00  0.77756831889E+02  0.23955000856E+04  0.23942377775E+04 0.  0.
        2    1    3    3  502    0 -0.94934213473E+03 -0.59545687845E+03  0.46013988807E+03  0.12114239966E+04  0.25500000920E-02 0.  1.
       -2    1    3    3    0  502  0.94934213473E+03  0.59545687845E+03 -0.38238305618E+03  0.11840760890E+04  0.25500000920E-02 0. -1.
</event>
<event>
 5   0  0.2090039E-05  0.2379669E+04  0.7818609E-02  0.8447155E-01
        1   -1    0    0  501    0  0.00000000000E+00  0.00000000000E+00  0.11627742632E+04  0.11627742632E+04  0.50400001928E-02 0.  1.
       -1   -1    0    0    0  501  0.00000000000E+00  0.00000000000E+00 -0.12175245298E+04  0.12175245298E+04  0.50400001928E-02 0. -1.
    10030    2    1    2    0    0  0.00000000000E+00  0.00000000000E+00 -0.54750266592E+02  0.23802987931E+04  0.23796690427E+04 0.  0.
        1    1    3    3  502    0 -0.11203694638E+04  0.55086871854E+02  0.36952187033E+03  0.11810201995E+04  0.50400001928E-02 0.  1.
       -1    1    3    3    0  502  0.11203694638E+04 -0.55086871854E+02 -0.42427213692E+03  0.11992785936E+04  0.50400001928E-02 0. -1.
</event>
<event>
 5   0  0.2065692E-05  0.2387152E+04  0.7818609E-02  0.8444329E-01
       -1   -1    0    0    0  501  0.00000000000E+00  0.00000000000E+00  0.13615170683E+04  0.13615170683E+04  0.50400001928E-02 0.  1.
        1   -1    0    0  501    0  0.00000000000E+00  0.00000000000E+00 -0.10463501387E+04  0.10463501387E+04  0.50400001928E-02 0. -1.
    10030    2    1    2    0    0  0.00000000000E+00  0.00000000000E+00  0.31516692960E+03  0.24078672070E+04  0.23871519209E+04 0.  0.
        3    1    3    3  502    0  0.64426516046E+03 -0.45049938686E+03 -0.74831719821E+03  0.10853598177E+04  0.10100000352E+00 0. -1.
       -3    1    3    3    0  502 -0.64426516046E+03  0.45049938686E+03  0.10634841278E+04  0.13225073893E+04  0.10100000352E+00 0.  1.
</event>
<event>
 5   0  0.4664127E-05  0.2276649E+04  0.7818609E-02  0.8487185E-01
        2   -1    0    0  501    0  0.00000000000E+00  0.00000000000E+00  0.10049409976E+04  0.10049409976E+04  0.25500000920E-02 0.  1.
       -2   -1    0    0    0  501  0.00000000000E+00  0.00000000000E+00 -0.12894114238E+04  0.12894114238E+04  0.25500000920E-02 0. -1.
    10030    2    1    2    0    0  0.00000000000E+00  0.00000000000E+00 -0.28447042618E+03  0.22943524215E+04  0.22766487675E+04 0.  0.
        4    1    3    3  502    0  0.57767102889E+03 -0.37623023768E+03  0.77063857733E+03  0.10339915083E+04  0.12699999809E+01 0.  1.
       -4    1    3    3    0  502 -0.57767102889E+03  0.37623023768E+03 -0.10551090035E+04  0.12603609132E+04  0.12699999809E+01 0. -1.
</event>
<event>
 5   0  0.4664127E-05  0.2374209E+04  0.7818609E-02  0.8449223E-01
       -2   -1    0    0    0  501  0.00000000000E+00  0.00000000000E+00  0.14021158237E+04  0.14021158237E+04  0.25500000920E-02 0. -1.
        2   -1    0    0  501    0  0.00000000000E+00  0.00000000000E+00 -0.10050647473E+04  0.10050647473E+04  0.25500000920E-02 0.  1.
    10030    2    1    2    0    0  0.00000000000E+00  0.00000000000E+00  0.39705107635E+03  0.24071805710E+04  0.23742090776E+04 0.  0.
        4    1    3    3  502    0 -0.20901408720E+03  0.11597777502E+04  0.34349460720E+03  0.12275021289E+04  0.12699999809E+01 0. -1.
       -4    1    3    3    0  502  0.20901408720E+03 -0.11597777502E+04  0.53556469153E+02  0.11796784421E+04  0.12699999809E+01 0.  1.
</event>
<event>
 5   0  0.4856882E-05  0.2401177E+04  0.7818609E-02  0.8439063E-01
       -2   -1    0    0    0  501  0.00000000000E+00  0.00000000000E+00  0.78574364548E+03  0.78574364548E+03  0.25500000920E-02 0.  1.
        2   -1    0    0  501    0  0.00000000000E+00  0.00000000000E+00 -0.18344565459E+04  0.18344565459E+04  0.25500000920E-02 0. -1.
    10030    2    1    2    0    0  0.00000000000E+00  0.00000000000E+00 -0.10487129005E+04  0.26202001914E+04  0.24011768564E+04 0.  0.
        1    1    3    3  502    0  0.29500159507E+03 -0.10579600453E+04  0.47502572880E+01  0.10983296242E+04  0.50400001928E-02 0.  1.
       -1    1    3    3    0  502 -0.29500159507E+03  0.10579600453E+04 -0.10534631578E+04  0.15218705672E+04  0.50400001928E-02 0. -1.
</event>
<event>
 5   0  0.4713971E-05  0.2468677E+04  0.7818609E-02  0.8414230E-01
        2   -1    0    0  501    0  0.00000000000E+00  0.00000000000E+00  0.16261791783E+04  0.16261791783E+04  0.25500000920E-02 0.  1.
       -2   -1    0    0    0  501  0.00000000000E+00  0.00000000000E+00 -0.93691481722E+03  0.93691481722E+03  0.25500000920E-02 0. -1.
    10030    2    1    2    0    0  0.00000000000E+00  0.00000000000E+00  0.68926436105E+03  0.25630939955E+04  0.24686768663E+04 0.  0.
        5    1    3    3  502    0 -0.55286689957E+03 -0.17455256079E+03 -0.78674109750E+03  0.97729936541E+03  0.46999998093E+01 0. -1.
       -5    1    3    3    0  502  0.55286689957E+03  0.17455256079E+03  0.14760054586E+04  0.15857946301E+04  0.46999998093E+01 0.  1.
</event>
<event>
 5   0  0.2065692E-05  0.2407560E+04  0.7818609E-02  0.8436679E-01
        1   -1    0    0  501    0  0.00000000000E+00  0.00000000000E+00  0.17143924005E+04  0.17143924005E+04  0.50400001928E-02 0. -1.
       -1   -1    0    0    0  501  0.00000000000E+00  0.00000000000E+00 -0.84524765131E+03  0.84524765132E+03  0.50400001928E-02 0.  1.
    10030    2    1    2    0    0  0.00000000000E+00  0.00000000000E+00  0.86914474921E+03  0.25596400518E+04  0.24075598850E+04 0.  0.
        3    1    3    3  502    0 -0.31987705529E+03 -0.10978772726E+04  0.34744530092E+02  0.11440555182E+04  0.10100000352E+00 0.  1.
       -3    1    3    3    0  502  0.31987705529E+03  0.10978772726E+04  0.83440021911E+03  0.14155845337E+04  0.10100000352E+00 0. -1.
</event>
<event>
 5   0  0.2090039E-05  0.2384601E+04  0.7818609E-02  0.8445291E-01
       -1   -1    0    0    0  501  0.00000000000E+00  0.00000000000E+00  0.85148510455E+03  0.85148510457E+03  0.50400001928E-02 0. -1.
        1   -1    0    0  501    0  0.00000000000E+00  0.00000000000E+00 -0.16695305737E+04  0.16695305737E+04  0.50400001928E-02 0.  1.
    10030    2    1    2    0    0  0.00000000000E+00  0.00000000000E+00 -0.81804546917E+03  0.25210156783E+04  0.23846009437E+04 0.  0.
        1    1    3    3  502    0  0.48627240012E+03 -0.92127356658E+03 -0.10221793547E+04  0.14594712964E+04  0.50400001928E-02 0.  1.
       -1    1    3    3    0  502 -0.48627240012E+03  0.92127356658E+03  0.20413388556E+03  0.10615443820E+04  0.50400001928E-02 0. -1.
</event>
<event>
 5   0  0.4914005E-05  0.2398606E+04  0.7818609E-02  0.8440026E-01
       -2   -1    0    0    0  501  0.00000000000E+00  0.00000000000E+00  0.84967528041E+03  0.84967528041E+03  0.25500000920E-02 0.  1.
        2   -1    0    0  501    0  0.00000000000E+00  0.00000000000E+00 -0.16927972153E+04  0.16927972153E+04  0.25500000920E-02 0. -1.
    10030    2    1    2    0    0  0.00000000000E+00  0.00000000000E+00 -0.84312193484E+03  0.25424724957E+04  0.23986062191E+04 0.  0.
        2    1    3    3  502    0 -0.78024939535E+03  0.73669712178E+03  0.14611320041E+03  0.10829869969E+04  0.25500000920E-02 0.  1.
       -2    1    3    3    0  502  0.78024939535E+03 -0.73669712178E+03 -0.98923513525E+03  0.14594854987E+04  0.25500000920E-02 0. -1.
</event>
<event>
 5   0  0.2149920E-05  0.2405765E+04  0.7818609E-02  0.8437348E-01
        1   -1    0    0  501    0  0.00000000000E+00  0.00000000000E+00  0.14720449981E+04  0.14720449981E+04  0.50400001928E-02 0. -1.
       -1   -1    0    0    0  501  0.00000000000E+00  0.00000000000E+00 -0.98293641456E+03  0.98293641457E+03  0.50400001928E-02 0.  1.
    10030    2    1    2    0    0  0.00000000000E+00  0.00000000000E+00  0.48910858350E+03  0.24549814126E+04  0.24057652691E+04 0.  0.
        5    1    3    3  502    0  0.28954226172E+03 -0.36351026938E+03 -0.88761573771E+03  0.10019272554E+04  0.46999998093E+01 0.  1.
       -5    1    3    3    0  502 -0.28954226172E+03  0.36351026938E+03  0.13767243212E+04  0.14530541572E+04  0.46999998093E+01 0. -1.
</event>
<event>
 5   0  0.2065692E-05  0.2411873E+04  0.7818609E-02  0.8435072E-01
        1   -1    0    0  501    0  0.00000000000E+00  0.00000000000E+00  0.24782387317E+04  0.24782387317E+04  0.50400001928E-02 0.  1.
       -1   -1    0    0    0  501  0.00000000000E+00  0.00000000000E+00 -0.58682096263E+03  0.58682096265E+03  0.50400001928E-02 0. -1.
    10030    2    1    2    0    0  0.00000000000E+00  0.00000000000E+00  0.18914177691E+04  0.30650596943E+04  0.24118726651E+04 0.  0.
        3    1    3    3  502    0 -0.23769658317E+03  0.56825459811E+03 -0.37182692037E+03  0.71949164195E+03  0.10100000352E+00 0. -1.
       -3    1    3    3    0  502  0.23769658317E+03 -0.56825459811E+03  0.22632446894E+04  0.23455680524E+04  0.10100000352E+00 0.  1.
</event>
<event>
 5   0  0.2139556E-05  0.2368207E+04  0.7818609E-02  0.8451503E-01
        1   -1    0    0  501    0  0.00000000000E+00  0.00000000000E+00  0.13323125508E+04  0.13323125508E+04  0.50400001928E-02 0.  1.
       -1   -1    0    0    0  501  0.00000000000E+00  0.00000000000E+00 -0.10523816504E+04  0.10523816504E+04  0.50400001928E-02 0. -1.
    10030    2    1    2    0    0  0.00000000000E+00  0.00000000000E+00  0.27993090039E+03  0.23846942012E+04  0.23682071540E+04 0.  0.
        2    1    3    3  502    0 -0.37496667044E+03  0.95965351562E+03  0.72760891507E+03  0.12613285089E+04  0.25500000920E-02 0. -1.
       -2    1    3    3    0  502  0.37496667044E+03 -0.95965351562E+03 -0.44767801468E+03  0.11233656924E+04  0.25500000920E-02 0.  1.
</event>
<event>
 5   0  0.4914005E-05  0.2371353E+04  0.7818609E-02  0.8450307E-01
        2   -1    0    0  501    0  0.00000000000E+00  0.00000000000E+00  0.13613448265E+04  0.13613448265E+04  0.25500000920E-02 0.  1.
       -2   -1    0    0    0  501  0.00000000000E+00  0.00000000000E+00 -0.10326763137E+04  0.10326763137E+04  0.25500000920E-02 0. -1.
    10030    2    1    2    0    0  0.00000000000E+00  0.00000000000E+00  0.32866851279E+03  0.23940211402E+04  0.23713528266E+04 0.  0.
        2    1    3    3  502    0  0.66407960467E+03 -0.91265950365E+02  0.11516900826E+04  0.13325619090E+04  0.25500000920E-02 0.  1.
       -2    1    3    3    0  502 -0.66407960467E+03  0.91265950365E+02 -0.82302156981E+03  0.10614592312E+04  0.25500000920E-02 0. -1.
</event>
<event>
 5   0  0.4756705E-05  0.2383870E+04  0.7818609E-02  0.8445567E-01
       -2   -1    0    0    0  501  0.00000000000E+00  0.00000000000E+00  0.63198441779E+03  0.63198441780E+03  0.25500000920E-02 0. -1.
        2   -1    0    0  501    0  0.00000000000E+00  0.00000000000E+00 -0.22480124745E+04  0.22480124745E+04  0.25500000920E-02 0.  1.
    10030    2    1    2    0    0  0.00000000000E+00  0.00000000000E+00 -0.16160280568E+04  0.28799968923E+04  0.23838698412E+04 0.  0.
        3    1    3    3  502    0  0.58650672298E+03 -0.10273353772E+04 -0.98433612366E+03  0.15389365574E+04  0.10100000352E+00 0.  1.
       -3    1    3    3    0  502 -0.58650672298E+03  0.10273353772E+04 -0.63169193309E+03  0.13410603349E+04  0.10100000352E+00 0. -1.
</event>
<event>
 5   0  0.2149920E-05  0.2407185E+04  0.7818609E-02  0.8436818E-01
       -1   -1    0    0    0  501  0.00000000000E+00  0.00000000000E+00  0.15731193092E+04  0.15731193092E+04  0.50400001928E-02 0. -1.
        1   -1    0    0  501    0  0.00000000000E+00  0.00000000000E+00 -0.92086798362E+03  0.92086798363E+03  0.50400001928E-02 0.  1.
    10030    2    1    2    0    0  0.00000000000E+00  0.00000000000E+00  0.65225132560E+03  0.24939872929E+04  0.24071852495E+04 0.  0.
        5    1    3    3  502    0  0.83324861694E+03  0.82306925824E+03  0.61337185380E+03  0.13221170079E+04  0.46999998093E+01 0.  1.
       -5    1    3    3    0  502 -0.83324861694E+03 -0.82306925824E+03  0.38879471799E+02  0.11718702850E+04  0.46999998093E+01 0. -1.
</event>
<event>
 5   0  0.2090039E-05  0.2210060E+04  0.7818609E-02  0.8514253E-01
       -1   -1    0    0    0  501  0.00000000000E+00  0.00000000000E+00  0.57855639783E+03  0.57855639785E+03  0.50400001928E-02 0. -1.
        1   -1    0    0  501    0  0.00000000000E+00  0.00000000000E+00 -0.21105825892E+04  0.21105825892E+04  0.50400001928E-02 0.  1.
    10030    2    1    2    0    0  0.00000000000E+00  0.00000000000E+00 -0.15320261914E+04  0.26891389871E+04  0.22100597822E+04 0.  0.
        1    1    3    3  502    0  0.16138394521E+03 -0.10796798737E+04 -0.97442470629E+03  0.14633034257E+04  0.50400001928E-02 0. -1.
       -1    1    3    3    0  502 -0.16138394521E+03  0.10796798737E+04 -0.55760148512E+03  0.12258355614E+04  0.50400001928E-02 0.  1.
</event>
<event>
 5   0  0.2065692E-05  0.2296563E+04  0.7818609E-02  0.8479277E-01
       -1   -1    0    0    0  501  0.00000000000E+00  0.00000000000E+00  0.52400247491E+03  0.52400247494E+03  0.50400001928E-02 0. -1.
        1   -1    0    0  501    0  0.00000000000E+00  0.00000000000E+00 -0.25163061684E+04  0.25163061684E+04  0.50400001928E-02 0.  1.
    10030    2    1    2    0    0  0.00000000000E+00  0.00000000000E+00 -0.19923036935E+04  0.30403086434E+04  0.22965632236E+04 0.  0.
        3    1    3    3  502    0 -0.46241095543E+03  0.10351364129E+04 -0.12374394056E+04  0.16782692209E+04  0.10100000352E+00 0.  1.
       -3    1    3    3    0  502  0.46241095543E+03 -0.10351364129E+04 -0.75486428788E+03  0.13620394225E+04  0.10100000352E+00 0. -1.
</event>
<event>
 5   0  0.4713971E-05  0.2391761E+04  0.7818609E-02  0.8442594E-01
        2   -1    0    0  501    0  0.00000000000E+00  0.00000000000E+00  0.12245628978E+04  0.12245628978E+04  0.25500000920E-02 0. -1.
       -2   -1    0    0    0  501  0.00000000000E+00  0.00000000000E+00 -0.11678701259E+04  0.11678701259E+04  0.25500000920E-02 0.  1.
    10030    2    1    2    0    0  0.00000000000E+00  0.00000000000E+00  0.56692771979E+02  0.23924330237E+04  0.23917612135E+04 0.  0.
        5    1    3    3  502    0  0.77241075896E+03  0.66596084750E+03 -0.59631769819E+03  0.11814140333E+04  0.46999998093E+01 0.  1.
       -5    1    3    3    0  502 -0.77241075896E+03 -0.66596084750E+03  0.65301047017E+03  0.12110189904E+04  0.46999998093E+01 0. -1.
</event>
<event>
 5   0  0.1672125E-05  0.2359421E+04  0.7818609E-02  0.8454854E-01
       -3   -1    0    0    0  501  0.00000000000E+00  0.00000000000E+00  0.98569522158E+03  0.98569522675E+03  0.10100000352E+00 0.  1.
        3   -1    0    0  501    0  0.00000000000E+00  0.00000000000E+00 -0.14119138388E+04  0.14119138424E+04  0.10100000352E+00 0. -1.
    10030    2    1    2    0    0  0.00000000000E+00  0.00000000000E+00 -0.42621861726E+03  0.23976090692E+04  0.23594208906E+04 0.  0.
        1    1    3    3  502    0  0.24303663398E+03  0.49432247268E+03  0.84698941984E+03  0.10103527056E+04  0.50400001928E-02 0.  1.
       -1    1    3    3    0  502 -0.24303663398E+03 -0.49432247268E+03 -0.12732080371E+04  0.13872563635E+04  0.50400001928E-02 0. -1.
</event>
<event>
 5   0  0.4914005E-05  0.2470295E+04  0.7818609E-02  0.8413645E-01
       -2   -1    0    0    0  501  0.00000000000E+00  0.00000000000E+00  0.12606194842E+04  0.12606194843E+04  0.25500000920E-02 0.  1.
        2   -1    0    0  501    0  0.00000000000E+00  0.00000000000E+00 -0.12101900308E+04  0.12101900308E+04  0.25500000920E-02 0. -1.
    10030    2    1    2    0    0  0.00000000000E+00  0.00000000000E+00  0.50429453457E+02  0.24708095150E+04  0.24702948265E+04 0.  0.
        2    1    3    3  502    0 -0.10312011201E+03  0.90512091426E+02 -0.12025437483E+04  0.12103460921E+04  0.25500000920E-02 0. -1.
       -2    1    3    3    0  502  0.10312011201E+03 -0.90512091426E+02  0.12529732017E+04  0.12604634229E+04  0.25500000920E-02 0.  1.
</event>
<event>
 5   0  0.4914005E-05  0.2612013E+04  0.7818609E-02  0.8364132E-01
        2   -1    0    0  501    0  0.00000000000E+00  0.00000000000E+00  0.25477823841E+04  0.25477823841E+04  0.25500000920E-02 0. -1.
       -2   -1    0    0    0  501  0.00000000000E+00  0.00000000000E+00 -0.66946578264E+03  0.66946578264E+03  0.25500000920E-02 0.  1.
    10030    2    1    2    0    0  0.00000000000E+00  0.00000000000E+00  0.18783166015E+04  0.32172481668E+04  0.26120131147E+04 0.  0.
        2    1    3    3  502    0  0.54740995307E+03 -0.28959303415E+03  0.23554297812E+04  0.24354817257E+04  0.25500000920E-02 0. -1.
       -2    1    3    3    0  502 -0.54740995307E+03  0.28959303415E+03 -0.47711317969E+03  0.78176644107E+03  0.25500000920E-02 0.  1.
</event>
<event>
 5   0  0.4713971E-05  0.2412286E+04  0.7818609E-02  0.8434918E-01
       -2   -1    0    0    0  501  0.00000000000E+00  0.00000000000E+00  0.16054246168E+04  0.16054246168E+04  0.25500000920E-02 0.  1.
        2   -1    0    0  501    0  0.00000000000E+00  0.00000000000E+00 -0.90616582484E+03  0.90616582484E+03  0.25500000920E-02 0. -1.
    10030    2    1    2    0    0  0.00000000000E+00  0.00000000000E+00  0.69925879196E+03  0.25115904416E+04  0.24122859881E+04 0.  0.
        5    1    3    3  502    0 -0.46469143289E+03  0.60641026228E+03 -0.62211236678E+03  0.98524992814E+03  0.46999998093E+01 0. -1.
       -5    1    3    3    0  502  0.46469143289E+03 -0.60641026228E+03  0.13213711587E+04  0.15263405135E+04  0.46999998093E+01 0.  1.
</event>
<event>
 5   0  0.4856882E-05  0.2411344E+04  0.7818609E-02  0.8435269E-01
        2   -1    0    0  501    0  0.00000000000E+00  0.00000000000E+00  0.20586802328E+04  0.20586802328E+04  0.25500000920E-02 0. -1.
       -2   -1    0    0    0  501  0.00000000000E+00  0.00000000000E+00 -0.70610531300E+03  0.70610531301E+03  0.25500000920E-02 0.  1.
    10030    2    1    2    0    0  0.00000000000E+00  0.00000000000E+00  0.13525749198E+04  0.27647855459E+04  0.24113440652E+04 0.  0.
        1    1    3    3  502    0  0.73059525025E+03 -0.36145278726E+03  0.16948867663E+04  0.18807069649E+04  0.50400001928E-02 0. -1.
       -1    1    3    3    0  502 -0.73059525025E+03  0.36145278726E+03 -0.34231184646E+03  0.88407858098E+03  0.50400001928E-02 0.  1.
</event>
<event>
 5   0  0.4914005E-05  0.2393426E+04  0.7818609E-02  0.8441969E-01
       -2   -1    0    0    0  501  0.00000000000E+00  0.00000000000E+00  0.11871888455E+04  0.11871888455E+04  0.25500000920E-02 0.  1.
        2   -1    0    0  501    0  0.00000000000E+00  0.00000000000E+00 -0.12063135540E+04  0.12063135540E+04  0.25500000920E-02 0. -1.
    10030    2    1    2    0    0  0.00000000000E+00  0.00000000000E+00 -0.19124708493E+02  0.23935023995E+04  0.23934259926E+04 0.  0.
        2    1    3    3  502    0  0.11225438316E+04 -0.40396141967E+03 -0.10354680433E+03  0.11975021600E+04  0.25500000920E-02 0.  1.
       -2    1    3    3    0  502 -0.11225438316E+04  0.40396141967E+03  0.84422095842E+02  0.11960002395E+04  0.25500000920E-02 0. -1.
</event>
<event>
 5   0  0.4856882E-05  0.2389811E+04  0.7818609E-02  0.8443328E-01
        2   -1    0    0  501    0  0.00000000000E+00  0.00000000000E+00  0.11807924131E+04  0.11807924131E+04  0.25500000920E-02 0. -1.
       -2   -1    0    0    0  501  0.00000000000E+00  0.00000000000E+00 -0.12091876759E+04  0.12091876759E+04  0.25500000920E-02 0.  1.
    10030    2    1    2    0    0  0.00000000000E+00  0.00000000000E+00 -0.28395262837E+02  0.23899800890E+04  0.23898114016E+04 0.  0.
        1    1    3    3  502    0  0.39822202799E+03  0.59166196290E+03  0.94459574337E+03  0.11835986568E+04  0.50400001928E-02 0. -1.
       -1    1    3    3    0  502 -0.39822202799E+03 -0.59166196290E+03 -0.97299100621E+03  0.12063814323E+04  0.50400001928E-02 0.  1.
</event>
<event>
 5   0  0.2057599E-05  0.2426811E+04  0.7818609E-02  0.8429534E-01
       -1   -1    0    0    0  501  0.00000000000E+00  0.00000000000E+00  0.76615123093E+03  0.76615123095E+03  0.50400001928E-02 0. -1.
        1   -1    0    0  501    0  0.00000000000E+00  0.00000000000E+00 -0.19217525849E+04  0.19217525849E+04  0.50400001928E-02 0.  1.
    10030    2    1    2    0    0  0.00000000000E+00  0.00000000000E+00 -0.11556013540E+04  0.26879038159E+04  0.24268111657E+04 0.  0.
        4    1    3    3  502    0  0.80882827406E+03  0.74446850175E+02 -0.15762309664E+04  0.17732036496E+04  0.12699999809E+01 0.  1.
       -4    1    3    3    0  502 -0.80882827406E+03 -0.74446850175E+02  0.42062961247E+03  0.91470016628E+03  0.12699999809E+01 0. -1.
</event>
<event>
 5   0  0.2057599E-05  0.2386801E+04  0.7818609E-02  0.8444462E-01
        1   -1    0    0  501    0  0.00000000000E+00  0.00000000000E+00  0.22527230258E+04  0.22527230258E+04  0.50400001928E-02 0.  1.
       -1   -1    0    0    0  501  0.00000000000E+00  0.00000000000E+00 -0.63221473785E+03  0.63221473787E+03  0.50400001928E-02 0. -1.
    10030    2    1    2    0    0  0.00000000000E+00  0.00000000000E+00  0.16205082880E+04  0.28849377637E+04  0.23868009530E+04 0.  0.
        4    1    3    3  502    0  0.79599348166E+03 -0.70547698041E+03  0.14644076950E+04  0.18099157171E+04  0.12699999809E+01 0.  1.
       -4    1    3    3    0  502 -0.79599348166E+03  0.70547698041E+03  0.15610059294E+03  0.10750220466E+04  0.12699999809E+01 0. -1.
</event>
<event>
 5   0  0.2057599E-05  0.2387349E+04  0.7818609E-02  0.8444255E-01
        1   -1    0    0  501    0  0.00000000000E+00  0.00000000000E+00  0.19517186211E+04  0.19517186211E+04  0.50400001928E-02 0.  1.
       -1   -1    0    0    0  501  0.00000000000E+00  0.00000000000E+00 -0.73005319210E+03  0.73005319212E+03  0.50400001928E-02 0. -1.
    10030    2    1    2    0    0  0.00000000000E+00  0.00000000000E+00  0.12216654290E+04  0.26817718132E+04  0.23873486628E+04 0.  0.
        4    1    3    3  502    0  0.18090529571E+03 -0.42635333746E+03  0.18466719500E+04  0.19038652259E+04  0.12699999809E+01 0.  1.
       -4    1    3    3    0  502 -0.18090529571E+03  0.42635333746E+03 -0.62500652104E+03  0.77790658734E+03  0.12699999809E+01 0. -1.
</event>
<event>
 5   0  0.4664127E-05  0.2388611E+04  0.7818609E-02  0.8443780E-01
        2   -1    0    0  501    0  0.00000000000E+00  0.00000000000E+00  0.12848943971E+04  0.12848943971E+04  0.25500000920E-02 0.  1.
       -2   -1    0    0    0  501  0.00000000000E+00  0.00000000000E+00 -0.11101034776E+04  0.11101034776E+04  0.25500000920E-02 0. -1.
    10030    2    1    2    0    0  0.00000000000E+00  0.00000000000E+00  0.17479091955E+03  0.23949978747E+04  0.23886110932E+04 0.  0.
        4    1    3    3  502    0 -0.60335154319E+03  0.68788781183E+03  0.85700325587E+03  0.12536661915E+04  0.12699999809E+01 0.  1.
       -4    1    3    3    0  502  0.60335154319E+03 -0.68788781183E+03 -0.68221233632E+03  0.11413316832E+04  0.12699999809E+01 0. -1.
</event>
<event>
 5   0  0.2149920E-05  0.2422549E+04  0.7818609E-02  0.8431109E-01
       -1   -1    0    0    0  501  0.00000000000E+00  0.00000000000E+00  0.16973610240E+04  0.16973610240E+04  0.50400001928E-02 0. -1.
        1   -1    0    0  501    0  0.00000000000E+00  0.00000000000E+00 -0.86439256471E+03  0.86439256472E+03  0.50400001928E-02 0.  1.
    10030    2    1    2    0    0  0.00000000000E+00  0.00000000000E+00  0.83296845933E+03  0.25617535888E+04  0.24225492761E+04 0.  0.
        5    1    3    3  502    0 -0.89045291635E+03 -0.61701367632E+03 -0.15645316784E+03  0.10945830059E+04  0.46999998093E+01 0. -1.
       -5    1    3    3    0  502  0.89045291635E+03  0.61701367632E+03  0.98942162717E+03  0.14671705829E+04  0.46999998093E+01 0.  1.
</event>
<event>
 5   0  0.2139556E-05  0.2393143E+04  0.7818609E-02  0.8442075E-01
        1   -1    0    0  501    0  0.00000000000E+00  0.00000000000E+00  0.21838400562E+04  0.21838400562E+04  0.50400001928E-02 0.  1.
       -1   -1    0    0    0  501  0.00000000000E+00  0.00000000000E+00 -0.65562628816E+03  0.65562628818E+03  0.50400001928E-02 0. -1.
    10030    2    1    2    0    0  0.00000000000E+00  0.00000000000E+00  0.15282137680E+04  0.28394663444E+04  0.23931426619E+04 0.  0.
        2    1    3    3  502    0  0.70721901170E+03  0.25913897975E+03 -0.33906555554E+03  0.82600072173E+03  0.25500000920E-02 0. -1.
       -2    1    3    3    0  502 -0.70721901170E+03 -0.25913897975E+03  0.18672793236E+04  0.20134656226E+04  0.25500000920E-02 0.  1.
</event>
<event>
 5   0  0.2057599E-05  0.2323163E+04  0.7818609E-02  0.8468844E-01
        1   -1    0    0  501    0  0.00000000000E+00  0.00000000000E+00  0.11027338064E+04  0.11027338065E+04  0.50400001928E-02 0. -1.
       -1   -1    0    0    0  501  0.00000000000E+00  0.00000000000E+00 -0.12235695233E+04  0.12235695234E+04  0.50400001928E-02 0.  1.
    10030    2    1    2    0    0  0.00000000000E+00  0.00000000000E+00 -0.12083571690E+03  0.23263033298E+04  0.23231629112E+04 0.  0.
        4    1    3    3  502    0  0.79518742659E+03  0.70553622356E+03 -0.52920180537E+03  0.11875018189E+04  0.12699999809E+01 0.  1.
       -4    1    3    3    0  502 -0.79518742659E+03 -0.70553622356E+03  0.40836608847E+03  0.11388015109E+04  0.12699999809E+01 0. -1.
</event>
<event>
 5   0  0.2057599E-05  0.2423304E+04  0.7818609E-02  0.8430830E-01
        1   -1    0    0  501    0  0.00000000000E+00  0.00000000000E+00  0.10597628815E+04  0.10597628815E+04  0.50400001928E-02 0. -1.
       -1   -1    0    0    0  501  0.00000000000E+00  0.00000000000E+00 -0.13853101710E+04  0.13853101710E+04  0.50400001928E-02 0.  1.
    10030    2    1    2    0    0  0.00000000000E+00  0.00000000000E+00 -0.32554728954E+03  0.24450730525E+04  0.24233037767E+04 0.  0.
        4    1    3    3  502    0 -0.11274240133E+04 -0.19113777049E+03 -0.56697207013E+03  0.12763532012E+04  0.12699999809E+01 0.  1.
       -4    1    3    3    0  502  0.11274240133E+04  0.19113777049E+03  0.24142478059E+03  0.11687198512E+04  0.12699999809E+01 0. -1.
</event>
<event>
 5   0  0.4756705E-05  0.2437091E+04  0.7818609E-02  0.8425746E-01
       -2   -1    0    0    0  501  0.00000000000E+00  0.00000000000E+00  0.17016361258E+04  0.17016361258E+04  0.25500000920E-02 0. -1.
        2   -1    0    0  501    0  0.00000000000E+00  0.00000000000E+00 -0.87260311756E+03  0.87260311756E+03  0.25500000920E-02 0.  1.
    10030    2    1    2    0    0  0.00000000000E+00  0.00000000000E+00  0.82903300829E+03  0.25742392434E+04  0.24370908792E+04 0.  0.
        3    1    3    3  502    0 -0.13345672597E+03 -0.14570925479E+02 -0.86476779439E+03  0.87512648114E+03  0.10100000352E+00 0.  1.
       -3    1    3    3    0  502  0.13345672597E+03  0.14570925479E+02  0.16938008027E+04  0.16991127623E+04  0.10100000352E+00 0. -1.
</event>
<event>
 5   0  0.2139556E-05  0.2372869E+04  0.7818609E-02  0.8449731E-01
       -1   -1    0    0    0  501  0.00000000000E+00  0.00000000000E+00  0.97446437729E+03  0.97446437731E+03  0.50400001928E-02 0. -1.
        1   -1    0    0  501    0  0.00000000000E+00  0.00000000000E+00 -0.14445132869E+04  0.14445132869E+04  0.50400001928E-02 0.  1.
    10030    2    1    2    0    0  0.00000000000E+00  0.00000000000E+00 -0.47004890964E+03  0.24189776642E+04  0.23728689308E+04 0.  0.
        2    1    3    3  502    0  0.68309247509E+03  0.91702010733E+03  0.87485974565E+02  0.11468195161E+04  0.25500000920E-02 0.  1.
       -2    1    3    3    0  502 -0.68309247509E+03 -0.91702010733E+03 -0.55753488420E+03  0.12721581481E+04  0.25500000920E-02 0. -1.
</event>
<event>
 5   0  0.4756705E-05  0.2508436E+04  0.7818609E-02  0.8399986E-01
        2   -1    0    0  501    0  0.00000000000E+00  0.00000000000E+00  0.19798383297E+04  0.19798383297E+04  0.25500000920E-02 0.  1.
       -2   -1    0    0    0  501  0.00000000000E+00  0.00000000000E+00 -0.79454094248E+03  0.79454094248E+03  0.25500000920E-02 0. -1.
    10030    2    1    2    0    0  0.00000000000E+00  0.00000000000E+00  0.11852973872E+04  0.27743792722E+04  0.25084358572E+04 0.  0.
        3    1    3    3  502    0 -0.11740394788E+04 -0.37581124003E+03  0.33692170633E+03  0.12779354570E+04  0.10100000352E+00 0. -1.
       -3    1    3    3    0  502  0.11740394788E+04  0.37581124003E+03  0.84837568091E+03  0.14964438152E+04  0.10100000352E+00 0.  1.
</event>
<event>
 5   0  0.2149920E-05  0.2368118E+04  0.7818609E-02  0.8451537E-01
       -1   -1    0    0    0  501  0.00000000000E+00  0.00000000000E+00  0.61087251628E+03  0.61087251630E+03  0.50400001928E-02 0.  1.
        1   -1    0    0  501    0  0.00000000000E+00  0.00000000000E+00 -0.22950709960E+04  0.22950709960E+04  0.50400001928E-02 0. -1.
    10030    2    1    2    0    0  0.00000000000E+00  0.00000000000E+00 -0.16841984797E+04  0.29059435123E+04  0.23681180666E+04 0.  0.
        5    1    3    3  502    0 -0.33732516638E+03 -0.98579665034E+03 -0.15186664189E+03  0.10529334597E+04  0.46999998093E+01 0.  1.
       -5    1    3    3    0  502  0.33732516638E+03  0.98579665034E+03 -0.15323318378E+04  0.18530100525E+04  0.46999998093E+01 0. -1.
</event>
<event>
 5   0  0.4756705E-05  0.2422059E+04  0.7818609E-02  0.8431291E-01
        2   -1    0    0  501    0  0.00000000000E+00  0.00000000000E+00  0.15596891281E+04  0.15596891281E+04  0.25500000920E-02 0. -1.
       -2   -1    0    0    0  501  0.00000000000E+00  0.00000000000E+00 -0.94031074747E+03  0.94031074747E+03  0.25500000920E-02 0.  1.
    10030    2    1    2    0    0  0.00000000000E+00  0.00000000000E+00  0.61937838062E+03  0.24999998756E+04  0.24220590000E+04 0.  0.
        3    1    3    3  502    0 -0.62974938083E+03 -0.57569375248E+03 -0.57737586167E+03  0.10302283607E+04  0.10100000352E+00 0.  1.
       -3    1    3    3    0  502  0.62974938083E+03  0.57569375248E+03  0.11967542423E+04  0.14697715149E+04  0.10100000352E+00 0. -1.
</event>
<event>
 5   0  0.2065692E-05  0.2395878E+04  0.7818609E-02  0.8441048E-01
        1   -1    0    0  501    0  0.00000000000E+00  0.00000000000E+00  0.11822011073E+04  0.11822011073E+04  0.50400001928E-02 0.  1.
       -1   -1    0    0    0  501  0.00000000000E+00  0.00000000000E+00 -0.12138865091E+04  0.12138865091E+04  0.50400001928E-02 0. -1.
    10030    2    1    2    0    0  0.00000000000E+00  0.00000000000E+00 -0.31685401787E+02  0.23960876164E+04  0.23958781064E+04 0.  0.
        3    1    3    3  502    0 -0.96463648178E+03  0.69697953199E+03 -0.15279975641E+03  0.11998549020E+04  0.10100000352E+00 0.  1.
       -3    1    3    3    0  502  0.96463648178E+03 -0.69697953199E+03  0.12111435463E+03  0.11962327144E+04  0.10100000352E+00 0. -1.
</event>
<event>
 5   0  0.2149920E-05  0.2458013E+04  0.7818609E-02  0.8418098E-01
        1   -1    0    0  501    0  0.00000000000E+00  0.00000000000E+00  0.28720585331E+04  0.28720585331E+04  0.50400001928E-02 0.  1.
       -1   -1    0    0    0  501  0.00000000000E+00  0.00000000000E+00 -0.52591426630E+03  0.52591426632E+03  0.50400001928E-02 0. -1.
    10030    2    1    2    0    0  0.00000000000E+00  0.00000000000E+00  0.23461442668E+04  0.33979727994E+04  0.24580126576E+04 0.  0.
        5    1    3    3  502    0 -0.10917145515E+04 -0.56305093132E+03  0.11183411773E+04  0.16611971864E+04  0.46999998093E+01 0. -1.
       -5    1    3    3    0  502  0.10917145515E+04  0.56305093132E+03  0.12278030895E+04  0.17367756130E+04  0.46999998093E+01 0.  1.
</event>
<event>
 5   0  0.4713971E-05  0.2433978E+04  0.7818609E-02  0.8426891E-01
       -2   -1    0    0    0  501  0.00000000000E+00  0.00000000000E+00  0.13501712129E+04  0.13501712129E+04  0.25500000920E-02 0.  1.
        2   -1    0    0  501    0  0.00000000000E+00  0.00000000000E+00 -0.10969440995E+04  0.10969440995E+04  0.25500000920E-02 0. -1.
    10030    2    1    2    0    0  0.00000000000E+00  0.00000000000E+00  0.25322711335E+03  0.24471153124E+04  0.24339780980E+04 0.  0.
        5    1    3    3  502    0 -0.83466282748E+02  0.25244885898E+03  0.13206021406E+04  0.13471114099E+04  0.46999998093E+01 0.  1.
       -5    1    3    3    0  502  0.83466282748E+02 -0.25244885898E+03 -0.10673750273E+04  0.11000039026E+04  0.46999998093E+01 0. -1.
</event>
<event>
 5   0  0.2065692E-05  0.2248775E+04  0.7818609E-02  0.8498397E-01
       -1   -1    0    0    0  501  0.00000000000E+00  0.00000000000E+00  0.15279951092E+04  0.15279951092E+04  0.50400001928E-02 0. -1.
        1   -1    0    0  501    0  0.00000000000E+00  0.00000000000E+00 -0.82738981206E+03  0.82738981207E+03  0.50400001928E-02 0.  1.
    10030    2    1    2    0    0  0.00000000000E+00  0.00000000000E+00  0.70060529714E+03  0.23553849213E+04  0.22487752989E+04 0.  0.
        3    1    3    3  502    0  0.32231010490E+03 -0.22246150664E+03 -0.75364468916E+03  0.84932517528E+03  0.10100000352E+00 0.  1.
       -3    1    3    3    0  502 -0.32231010490E+03  0.22246150664E+03  0.14542499863E+04  0.15060597460E+04  0.10100000352E+00 0. -1.
</event>
<event>
 5   0  0.2139556E-05  0.2172369E+04  0.7818609E-02  0.8530018E-01
        1   -1    0    0  501    0  0.00000000000E+00  0.00000000000E+00  0.12437176314E+04  0.12437176314E+04  0.50400001928E-02 0. -1.
       -1   -1    0    0    0  501  0.00000000000E+00  0.00000000000E+00 -0.94860458224E+03  0.94860458226E+03  0.50400001928E-02 0.  1.
    10030    2    1    2    0    0  0.00000000000E+00  0.00000000000E+00  0.29511304913E+03  0.21923222136E+04  0.21723685177E+04 0.  0.
        2    1    3    3  502    0 -0.46170387767E+03 -0.14167565921E+03 -0.83428982861E+03  0.96399272880E+03  0.25500000920E-02 0.  1.
       -2    1    3    3    0  502  0.46170387767E+03  0.14167565921E+03  0.11294028777E+04  0.12283294848E+04  0.25500000920E-02 0. -1.
</event>
<event>
 5   0  0.4914005E-05  0.2397068E+04  0.7818609E-02  0.8440602E-01
        2   -1    0    0  501    0  0.00000000000E+00  0.00000000000E+00  0.10087020424E+04  0.10087020424E+04  0.25500000920E-02 0.  1.
       -2   -1    0    0    0  501  0.00000000000E+00  0.00000000000E+00 -0.14240907743E+04  0.14240907743E+04  0.25500000920E-02 0. -1.
    10030    2    1    2    0    0  0.00000000000E+00  0.00000000000E+00 -0.41538873193E+03  0.24327928168E+04  0.23970676024E+04 0.  0.
        2    1    3    3  502    0 -0.78165323919E+03  0.64318480036E+03  0.44359774436E+03  0.11051911294E+04  0.25500000920E-02 0.  1.
       -2    1    3    3    0  502  0.78165323919E+03 -0.64318480036E+03 -0.85898647628E+03  0.13276016873E+04  0.25500000920E-02 0. -1.
</event>
<event>
 5   0  0.4914005E-05  0.2416089E+04  0.7818609E-02  0.8433504E-01
       -2   -1    0    0    0  501  0.00000000000E+00  0.00000000000E+00  0.10233489500E+04  0.10233489500E+04  0.25500000920E-02 0.  1.
        2   -1    0    0  501    0  0.00000000000E+00  0.00000000000E+00 -0.14260747489E+04  0.14260747489E+04  0.25500000920E-02 0. -1.
    10030    2    1    2    0    0  0.00000000000E+00  0.00000000000E+00 -0.40272579892E+03  0.24494236990E+04  0.24160894826E+04 0.  0.
        2    1    3    3  502    0 -0.95781655548E+03  0.21065492339E+03 -0.91649146206E+03  0.13422908220E+04  0.25500000920E-02 0. -1.
       -2    1    3    3    0  502  0.95781655548E+03 -0.21065492339E+03  0.51376566314E+03  0.11071328770E+04  0.25500000920E-02 0.  1.
</event>
<event>
 5   0  0.4664127E-05  0.2390747E+04  0.7818609E-02  0.8442976E-01
        2   -1    0    0  501    0  0.00000000000E+00  0.00000000000E+00  0.13078026873E+04  0.13078026873E+04  0.25500000920E-02 0. -1.
       -2   -1    0    0    0  501  0.00000000000E+00  0.00000000000E+00 -0.10926096614E+04  0.10926096614E+04  0.25500000920E-02 0.  1.
    10030    2    1    2    0    0  0.00000000000E+00  0.00000000000E+00  0.21519302588E+03  0.24004123487E+04  0.23907470392E+04 0.  0.
        4    1    3    3  502    0 -0.96997775505E+03  0.68583098826E+02 -0.59045210428E+03  0.11376272619E+04  0.12699999809E+01 0.  1.
       -4    1    3    3    0  502  0.96997775505E+03 -0.68583098826E+02  0.80564513016E+03  0.12627850868E+04  0.12699999809E+01 0. -1.
</event>
<event>
 5   0  0.4856882E-05  0.2416533E+04  0.7818609E-02  0.8433340E-01
        2   -1    0    0  501    0  0.00000000000E+00  0.00000000000E+00  0.10186848163E+04  0.10186848163E+04  0.25500000920E-02 0.  1.
       -2   -1    0    0    0  501  0.00000000000E+00  0.00000000000E+00 -0.14331304290E+04  0.14331304290E+04  0.25500000920E-02 0. -1.
    10030    2    1    2    0    0  0.00000000000E+00  0.00000000000E+00 -0.41444561271E+03  0.24518152452E+04  0.24165332257E+04 0.  0.
        1    1    3    3  502    0 -0.51956438970E+03  0.10906622469E+04 -0.18650617319E+03  0.12224057610E+04  0.50400001928E-02 0. -1.
       -1    1    3    3    0  502  0.51956438970E+03 -0.10906622469E+04 -0.22793943952E+03  0.12294094842E+04  0.50400001928E-02 0.  1.
</event>
<event>
 5   0  0.4713971E-05  0.2431920E+04  0.7818609E-02  0.8427649E-01
       -2   -1    0    0    0  501  0.00000000000E+00  0.00000000000E+00  0.65859395852E+03  0.65859395853E+03  0.25500000920E-02 0.  1.
        2   -1    0    0  501    0  0.00000000000E+00  0.00000000000E+00 -0.22450231260E+04  0.22450231260E+04  0.25500000920E-02 0. -1.
    10030    2    1    2    0    0  0.00000000000E+00  0.00000000000E+00 -0.15864291675E+04  0.29036170846E+04  0.24319199556E+04 0.  0.
        5    1    3    3  502    0  0.87624013510E+03  0.72614483629E+03 -0.28182362707E+03  0.11724034051E+04  0.46999998093E+01 0.  1.
       -5    1    3    3    0  502 -0.87624013510E+03 -0.72614483629E+03 -0.13046055404E+04  0.17312136794E+04  0.46999998093E+01 0. -1.
</event>
<event>
 5   0  0.4664127E-05  0.2280778E+04  0.7818609E-02  0.8485539E-01
       -2   -1    0    0    0  501  0.00000000000E+00  0.00000000000E+00  0.15302190337E+04  0.15302190337E+04  0.25500000920E-02 0. -1.
        2   -1    0    0  501    0  0.00000000000E+00  0.00000000000E+00 -0.84987019265E+03  0.84987019266E+03  0.25500000920E-02 0.  1.
    10030    2    1    2    0    0  0.00000000000E+00  0.00000000000E+00  0.68034884102E+03  0.23800892263E+04  0.22807784153E+04 0.  0.
        4    1    3    3  502    0  0.91990590316E+03 -0.11781158580E+03 -0.35233181315E+03  0.99209160861E+03  0.12699999809E+01 0.  1.
       -4    1    3    3    0  502 -0.91990590316E+03  0.11781158580E+03  0.10326806542E+04  0.13879976177E+04  0.12699999809E+01 0. -1.
</event>
<event>
 5   0  0.4756705E-05  0.2405042E+04  0.7818609E-02  0.8437618E-01
        2   -1    0    0  501    0  0.00000000000E+00  0.00000000000E+00  0.19833883156E+04  0.19833883156E+04  0.25500000920E-02 0. -1.
       -2   -1    0    0    0  501  0.00000000000E+00  0.00000000000E+00 -0.72908388620E+03  0.72908388620E+03  0.25500000920E-02 0.  1.
    10030    2    1    2    0    0  0.00000000000E+00  0.00000000000E+00  0.12543044294E+04  0.27124722018E+04  0.24050417551E+04 0.  0.
        3    1    3    3  502    0 -0.10926713972E+04  0.48708132679E+03  0.48958754157E+03  0.12926232909E+04  0.10100000352E+00 0.  1.
       -3    1    3    3    0  502  0.10926713972E+04 -0.48708132679E+03  0.76471688783E+03  0.14198489109E+04  0.10100000352E+00 0. -1.
</event>
<event>
 5   0  0.1672125E-05  0.2397129E+04  0.7818609E-02  0.8440579E-01
        3   -1    0    0  501    0  0.00000000000E+00  0.00000000000E+00  0.12147328880E+04  0.12147328922E+04  0.10100000352E+00 0.  1.
       -3   -1    0    0    0  501  0.00000000000E+00  0.00000000000E+00 -0.11826116758E+04  0.11826116801E+04  0.10100000352E+00 0. -1.
    10030    2    1    2    0    0  0.00000000000E+00  0.00000000000E+00  0.32121212176E+02  0.23973445723E+04  0.23971293720E+04 0.  0.
        5    1    3    3  502    0 -0.60565055784E+03  0.93442721725E+03 -0.42733953943E+03  0.11927313170E+04  0.46999998093E+01 0. -1.
       -5    1    3    3    0  502  0.60565055784E+03 -0.93442721725E+03  0.45946075160E+03  0.12046132553E+04  0.46999998093E+01 0.  1.
</event>
<event>
 5   0  0.1672125E-05  0.2337682E+04  0.7818609E-02  0.8463210E-01
        3   -1    0    0  501    0  0.00000000000E+00  0.00000000000E+00  0.10923487555E+04  0.10923487602E+04  0.10100000352E+00 0. -1.
       -3   -1    0    0    0  501  0.00000000000E+00  0.00000000000E+00 -0.12506897118E+04  0.12506897159E+04  0.10100000352E+00 0.  1.
    10030    2    1    2    0    0  0.00000000000E+00  0.00000000000E+00 -0.15834095632E+03  0.23430384761E+04  0.23376820660E+04 0.  0.
        3    1    3    3  502    0  0.74338035547E+03  0.17147723455E+03 -0.96673358324E+03  0.12315001527E+04  0.10100000352E+00 0.  1.
       -3    1    3    3    0  502 -0.74338035547E+03 -0.17147723455E+03  0.80839262692E+03  0.11115383234E+04  0.10100000352E+00 0. -1.
</event>
<event>
 5   0  0.2065692E-05  0.2399645E+04  0.7818609E-02  0.8439636E-01
       -1   -1    0    0    0  501  0.00000000000E+00  0.00000000000E+00  0.74701916409E+03  0.74701916410E+03  0.50400001928E-02 0.  1.
        1   -1    0    0  501    0  0.00000000000E+00  0.00000000000E+00 -0.19270915187E+04  0.19270915188E+04  0.50400001928E-02 0. -1.
    10030    2    1    2    0    0  0.00000000000E+00  0.00000000000E+00 -0.11800723547E+04  0.26741106829E+04  0.23996452200E+04 0.  0.
        3    1    3    3  502    0  0.78058046672E+03 -0.76293945605E+03 -0.34866085426E+02  0.10920614144E+04  0.10100000352E+00 0.  1.
       -3    1    3    3    0  502 -0.78058046672E+03  0.76293945605E+03 -0.11452062692E+04  0.15820492685E+04  0.10100000352E+00 0. -1.
</event>
<event>
 5   0  0.4713971E-05  0.2422565E+04  0.7818609E-02  0.8431104E-01
        2   -1    0    0  501    0  0.00000000000E+00  0.00000000000E+00  0.17437394251E+04  0.17437394251E+04  0.25500000920E-02 0. -1.
       -2   -1    0    0    0  501  0.00000000000E+00  0.00000000000E+00 -0.84141284582E+03  0.84141284583E+03  0.25500000920E-02 0.  1.
    10030    2    1    2    0    0  0.00000000000E+00  0.00000000000E+00  0.90232657928E+03  0.25851522709E+04  0.24225645519E+04 0.  0.
        5    1    3    3  502    0  0.16304735772E+03  0.33601651771E+02 -0.82913731857E+03  0.84569751975E+03  0.46999998093E+01 0.  1.
       -5    1    3    3    0  502 -0.16304735772E+03 -0.33601651771E+02  0.17314638978E+04  0.17394547512E+04  0.46999998093E+01 0. -1.
</event>
<event>
 5   0  0.2057599E-05  0.2481605E+04  0.7818609E-02  0.8409568E-01
       -1   -1    0    0    0  501  0.00000000000E+00  0.00000000000E+00  0.97487750184E+03  0.97487750185E+03  0.50400001928E-02 0. -1.
        1   -1    0    0  501    0  0.00000000000E+00  0.00000000000E+00 -0.15792665271E+04  0.15792665271E+04  0.50400001928E-02 0.  1.
    10030    2    1    2    0    0  0.00000000000E+00  0.00000000000E+00 -0.60438902522E+03  0.25541440289E+04  0.24816054535E+04 0.  0.
        4    1    3    3  502    0  0.50593639318E+03  0.81501065783E+03 -0.11122033567E+04  0.14687450173E+04  0.12699999809E+01 0.  1.
       -4    1    3    3    0  502 -0.50593639318E+03 -0.81501065783E+03  0.50781433145E+03  0.10853990116E+04  0.12699999809E+01 0. -1.
</event>
<event>
 5   0  0.4856882E-05  0.2485415E+04  0.7818609E-02  0.8408200E-01
       -2   -1    0    0    0  501  0.00000000000E+00  0.00000000000E+00  0.94927420991E+03  0.94927420991E+03  0.25500000920E-02 0.  1.
        2   -1    0    0  501    0  0.00000000000E+00  0.00000000000E+00 -0.16268446497E+04  0.16268446497E+04  0.25500000920E-02 0. -1.
    10030    2    1    2    0    0  0.00000000000E+00  0.00000000000E+00 -0.67757043982E+03  0.25761188596E+04  0.24854147900E+04 0.  0.
        1    1    3    3  502    0 -0.32458027320E+03 -0.50561700877E+03  0.78871921788E+03  0.99150336256E+03  0.50400001928E-02 0.  1.
       -1    1    3    3    0  502  0.32458027320E+03  0.50561700877E+03 -0.14662896577E+04  0.15846154971E+04  0.50400001928E-02 0. -1.
</event>
<event>
 5   0  0.4914005E-05  0.2390294E+04  0.7818609E-02  0.8443146E-01
       -2   -1    0    0    0  501  0.00000000000E+00  0.00000000000E+00  0.14279967322E+04  0.14279967322E+04  0.25500000920E-02 0. -1.
        2   -1    0    0  501    0  0.00000000000E+00  0.00000000000E+00 -0.10002655346E+04  0.10002655346E+04  0.25500000920E-02 0.  1.
    10030    2    1    2    0    0  0.00000000000E+00  0.00000000000E+00  0.42773119765E+03  0.24282622668E+04  0.23902936345E+04 0.  0.
        2    1    3    3  502    0  0.97112096192E+03  0.56554767110E+03  0.62708943535E+03  0.12869192869E+04  0.25500000920E-02 0. -1.
       -2    1    3    3    0  502 -0.97112096192E+03 -0.56554767110E+03 -0.19935823769E+03  0.11413429800E+04  0.25500000920E-02 0.  1.
</event>
<event>
 5   0  0.2149920E-05  0.2381586E+04  0.7818609E-02  0.8446430E-01
       -1   -1    0    0    0  501  0.00000000000E+00  0.00000000000E+00  0.15582047943E+04  0.15582047943E+04  0.50400001928E-02 0.  1.
        1   -1    0    0  501    0  0.00000000000E+00  0.00000000000E+00 -0.91001396405E+03  0.91001396406E+03  0.50400001928E-02 0. -1.
    10030    2    1    2    0    0  0.00000000000E+00  0.00000000000E+00  0.64819083026E+03  0.24682187584E+04  0.23815861284E+04 0.  0.
        5    1    3    3  502    0 -0.30192607850E+03 -0.87186125137E+03 -0.45605871255E+03  0.10292293417E+04  0.46999998093E+01 0. -1.
       -5    1    3    3    0  502  0.30192607850E+03  0.87186125137E+03  0.11042495428E+04  0.14389894167E+04  0.46999998093E+01 0.  1.
</event>
<event>
 5   0  0.4664127E-05  0.2422406E+04  0.7818609E-02  0.8431163E-01
        2   -1    0    0  501    0  0.00000000000E+00  0.00000000000E+00  0.27959995686E+04  0.27959995686E+04  0.25500000920E-02 0.  1.
       -2   -1    0    0    0  501  0.00000000000E+00  0.00000000000E+00 -0.52468264158E+03  0.52468264158E+03  0.25500000920E-02 0. -1.
    10030    2    1    2    0    0  0.00000000000E+00  0.00000000000E+00  0.22713169270E+04  0.33206822102E+04  0.24224057790E+04 0.  0.
        4    1    3    3  502    0  0.10443118885E+04 -0.36777917904E+03  0.46247282320E+03  0.11998881490E+04  0.12699999809E+01 0. -1.
       -4    1    3    3    0  502 -0.10443118885E+04  0.36777917904E+03  0.18088441038E+04  0.21207940612E+04  0.12699999809E+01 0.  1.
</event>
<event>
 5   0  0.4713971E-05  0.2359403E+04  0.7818609E-02  0.8454861E-01
        2   -1    0    0  501    0  0.00000000000E+00  0.00000000000E+00  0.10441602559E+04  0.10441602560E+04  0.25500000920E-02 0.  1.
       -2   -1    0    0    0  501  0.00000000000E+00  0.00000000000E+00 -0.13328376229E+04  0.13328376229E+04  0.25500000920E-02 0. -1.
    10030    2    1    2    0    0  0.00000000000E+00  0.00000000000E+00 -0.28867736699E+03  0.23769978789E+04  0.23594033767E+04 0.  0.
        5    1    3    3  502    0 -0.58767077168E+03 -0.59016183637E+03  0.69737117576E+03  0.10862764730E+04  0.46999998093E+01 0.  1.
       -5    1    3    3    0  502  0.58767077168E+03  0.59016183637E+03 -0.98604854275E+03  0.12907214059E+04  0.46999998093E+01 0. -1.
</event>
<event>
 5   0  0.2057599E-05  0.2400330E+04  0.7818609E-02  0.8439380E-01
        1   -1    0    0  501    0  0.00000000000E+00  0.00000000000E+00  0.17838626711E+04  0.17838626711E+04  0.50400001928E-02 0. -1.
       -1   -1    0    0    0  501  0.00000000000E+00  0.00000000000E+00 -0.80745918475E+03  0.80745918476E+03  0.50400001928E-02 0.  1.
    10030    2    1    2    0    0  0.00000000000E+00  0.00000000000E+00  0.97640348638E+03  0.25913218559E+04  0.24003302257E+04 0.  0.
        4    1    3    3  502    0  0.23770809389E+03  0.93770868409E+03  0.12550695952E+04  0.15846147847E+04  0.12699999809E+01 0. -1.
       -4    1    3    3    0  502 -0.23770809389E+03 -0.93770868409E+03 -0.27866610883E+03  0.10067070712E+04  0.12699999809E+01 0.  1.
</event>
<event>
 5   0  0.4756705E-05  0.2447564E+04  0.7818609E-02  0.8421908E-01
        2   -1    0    0  501    0  0.00000000000E+00  0.00000000000E+00  0.17921364257E+04  0.17921364257E+04  0.25500000920E-02 0.  1.
       -2   -1    0    0    0  501  0.00000000000E+00  0.00000000000E+00 -0.83567461322E+03  0.83567461322E+03  0.25500000920E-02 0. -1.
    10030    2    1    2    0    0  0.00000000000E+00  0.00000000000E+00  0.95646181251E+03  0.26278110389E+04  0.24475644338E+04 0.  0.
        3    1    3    3  502    0 -0.46587455998E+03 -0.12021077510E+03 -0.72986975481E+03  0.87418510927E+03  0.10100000352E+00 0. -1.
       -3    1    3    3    0  502  0.46587455998E+03  0.12021077510E+03  0.16863315673E+04  0.17536259297E+04  0.10100000352E+00 0.  1.
</event>
<event>
 5   0  0.2149920E-05  0.2273628E+04  0.7818609E-02  0.8488392E-01
        1   -1    0    0  501    0  0.00000000000E+00  0.00000000000E+00  0.12511707500E+04  0.12511707500E+04  0.50400001928E-02 0. -1.
       -1   -1    0    0    0  501  0.00000000000E+00  0.00000000000E+00 -0.10329092901E+04  0.10329092901E+04  0.50400001928E-02 0.  1.
    10030    2    1    2    0    0  0.00000000000E+00  0.00000000000E+00  0.21826145982E+03  0.22840800401E+04  0.22736278422E+04 0.  0.
        5    1    3    3  502    0  0.76419555724E+03 -0.80758353197E+03  0.34715409844E+03  0.11647849883E+04  0.46999998093E+01 0. -1.
       -5    1    3    3    0  502 -0.76419555724E+03  0.80758353197E+03 -0.12889263862E+03  0.11192950519E+04  0.46999998093E+01 0.  1.
</event>
<event>
 5   0  0.2065692E-05  0.2364926E+04  0.7818609E-02  0.8452753E-01
        1   -1    0    0  501    0  0.00000000000E+00  0.00000000000E+00  0.10701057468E+04  0.10701057468E+04  0.50400001928E-02 0.  1.
       -1   -1    0    0    0  501  0.00000000000E+00  0.00000000000E+00 -0.13066174946E+04  0.13066174946E+04  0.50400001928E-02 0. -1.
    10030    2    1    2    0    0  0.00000000000E+00  0.00000000000E+00 -0.23651174786E+03  0.23767232414E+04  0.23649261213E+04 0.  0.
        3    1    3    3  502    0 -0.95423643686E+03  0.29791271747E+03 -0.75299153364E+03  0.12515252393E+04  0.10100000352E+00 0. -1.
       -3    1    3    3    0  502  0.95423643686E+03 -0.29791271747E+03  0.51647978578E+03  0.11251980021E+04  0.10100000352E+00 0.  1.
</event>
<event>
 5   0  0.2065692E-05  0.2472739E+04  0.7818609E-02  0.8412762E-01
        1   -1    0    0  501    0  0.00000000000E+00  0.00000000000E+00  0.14264559051E+04  0.14264559051E+04  0.50400001928E-02 0.  1.
       -1   -1    0    0    0  501  0.00000000000E+00  0.00000000000E+00 -0.10716137444E+04  0.10716137444E+04  0.50400001928E-02 0. -1.
    10030    2    1    2    0    0  0.00000000000E+00  0.00000000000E+00  0.35484216073E+03  0.24980696495E+04  0.24727391724E+04 0.  0.
        3    1    3    3  502    0 -0.77746334751E+03  0.25675235627E+03  0.11133228850E+04  0.13819764418E+04  0.10100000352E+00 0.  1.
       -3    1    3    3    0  502  0.77746334751E+03 -0.25675235627E+03 -0.75848072425E+03  0.11160932078E+04  0.10100000352E+00 0. -1.
</event>
<event>
 5   0  0.2090039E-05  0.2385318E+04  0.7818609E-02  0.8445021E-01
        1   -1    0    0  501    0  0.00000000000E+00  0.00000000000E+00  0.17367203622E+04  0.17367203622E+04  0.50400001928E-02 0.  1.
       -1   -1    0    0    0  501  0.00000000000E+00  0.00000000000E+00 -0.81903539567E+03  0.81903539568E+03  0.50400001928E-02 0. -1.
    10030    2    1    2    0    0  0.00000000000E+00  0.00000000000E+00  0.91768496650E+03  0.25557557579E+04  0.23853179654E+04 0.  0.
        1    1    3    3  502    0  0.34181096787E+03 -0.90459773341E+03 -0.28910809414E+03  0.10093142658E+04  0.50400001928E-02 0. -1.
       -1    1    3    3    0  502 -0.34181096787E+03  0.90459773341E+03  0.12067930606E+04  0.15464414920E+04  0.50400001928E-02 0.  1.
</event>
<event>
 5   0  0.4756705E-05  0.2432427E+04  0.7818609E-02  0.8427462E-01
        2   -1    0    0  501    0  0.00000000000E+00  0.00000000000E+00  0.89257075688E+03  0.89257075689E+03  0.25500000920E-02 0. -1.
       -2   -1    0    0    0  501  0.00000000000E+00  0.00000000000E+00 -0.16572082145E+04  0.16572082145E+04  0.25500000920E-02 0.  1.
    10030    2    1    2    0    0  0.00000000000E+00  0.00000000000E+00 -0.76463745765E+03  0.25497789714E+04  0.24324272572E+04 0.  0.
        3    1    3    3  502    0  0.82023265090E+03 -0.15320570917E+03  0.54519835838E+03  0.99674211865E+03  0.10100000352E+00 0. -1.
       -3    1    3    3    0  502 -0.82023265090E+03  0.15320570917E+03 -0.13098358160E+04  0.15530368528E+04  0.10100000352E+00 0.  1.
</event>
<event>
 5   0  0.1672125E-05  0.2374440E+04  0.7818609E-02  0.8449135E-01
        3   -1    0    0  501    0  0.00000000000E+00  0.00000000000E+00  0.12867946541E+04  0.12867946580E+04  0.10100000352E+00 0. -1.
       -3   -1    0    0    0  501  0.00000000000E+00  0.00000000000E+00 -0.10953509827E+04  0.10953509874E+04  0.10100000352E+00 0.  1.
    10030    2    1    2    0    0  0.00000000000E+00  0.00000000000E+00  0.19144367136E+03  0.23821456454E+04  0.23744403965E+04 0.  0.
        4    1    3    3  502    0  0.32533041648E+03 -0.96529002003E+03  0.70750845369E+03  0.12402397057E+04  0.12699999809E+01 0. -1.
       -4    1    3    3    0  502 -0.32533041648E+03  0.96529002003E+03 -0.51606478233E+03  0.11419059397E+04  0.12699999809E+01 0.  1.
</event>
<event>
 5   0  0.4756705E-05  0.2386399E+04  0.7818609E-02  0.8444613E-01
        2   -1    0    0  501    0  0.00000000000E+00  0.00000000000E+00  0.12396257449E+04  0.12396257449E+04  0.25500000920E-02 0. -1.
       -2   -1    0    0    0  501  0.00000000000E+00  0.00000000000E+00 -0.11485116615E+04  0.11485116615E+04  0.25500000920E-02 0.  1.
    10030    2    1    2    0    0  0.00000000000E+00  0.00000000000E+00  0.91114083420E+02  0.23881374064E+04  0.23863986456E+04 0.  0.
        3    1    3    3  502    0  0.37403601091E+03 -0.23908613417E+03 -0.10627965425E+04  0.11517819316E+04  0.10100000352E+00 0.  1.
       -3    1    3    3    0  502 -0.37403601091E+03  0.23908613417E+03  0.11539106260E+04  0.12363554747E+04  0.10100000352E+00 0. -1.
</event>
<event>
 5   0  0.4713971E-05  0.2383745E+04  0.7818609E-02  0.8445614E-01
        2   -1    0    0  501    0  0.00000000000E+00  0.00000000000E+00  0.21946955807E+04  0.21946955807E+04  0.25500000920E-02 0.  1.
       -2   -1    0    0    0  501  0.00000000000E+00  0.00000000000E+00 -0.64726977973E+03  0.64726977973E+03  0.25500000920E-02 0. -1.
    10030    2    1    2    0    0  0.00000000000E+00  0.00000000000E+00  0.15474258010E+04  0.28419653605E+04  0.23837450578E+04 0.  0.
        5    1    3    3  502    0  0.27665437505E+02 -0.11915350189E+04  0.76880338881E+03  0.14183094932E+04  0.46999998093E+01 0.  1.
       -5    1    3    3    0  502 -0.27665437505E+02  0.11915350189E+04  0.77862241221E+03  0.14236558673E+04  0.46999998093E+01 0. -1.
</event>
<event>
 5   0  0.2139556E-05  0.2469134E+04  0.7818609E-02  0.8414065E-01
       -1   -1    0    0    0  501  0.00000000000E+00  0.00000000000E+00  0.12287756318E+04  0.12287756318E+04  0.50400001928E-02 0. -1.
        1   -1    0    0  501    0  0.00000000000E+00  0.00000000000E+00 -0.12403852874E+04  0.12403852874E+04  0.50400001928E-02 0.  1.
    10030    2    1    2    0    0  0.00000000000E+00  0.00000000000E+00 -0.11609655596E+02  0.24691609192E+04  0.24691336255E+04 0.  0.
        2    1    3    3  502    0  0.10631901076E+04  0.35803632314E+03 -0.52116671347E+03  0.12370036204E+04  0.25500000920E-02 0. -1.
       -2    1    3    3    0  502 -0.10631901076E+04 -0.35803632314E+03  0.50955705787E+03  0.12321572988E+04  0.25500000920E-02 0.  1.
</event>
<event>
 5   0  0.2057599E-05  0.2237349E+04  0.7818609E-02  0.8503041E-01
       -1   -1    0    0    0  501  0.00000000000E+00  0.00000000000E+00  0.10052362145E+04  0.10052362145E+04  0.50400001928E-02 0.  1.
        1   -1    0    0  501    0  0.00000000000E+00  0.00000000000E+00 -0.12449142645E+04  0.12449142646E+04  0.50400001928E-02 0. -1.
    10030    2    1    2    0    0  0.00000000000E+00  0.00000000000E+00 -0.23967805004E+03  0.22501504791E+04  0.22373492376E+04 0.  0.
        4    1    3    3  502    0  0.63620984483E+03 -0.19797584610E+03  0.78389789701E+03  0.10288123872E+04  0.12699999809E+01 0.  1.
       -4    1    3    3    0  502 -0.63620984483E+03  0.19797584610E+03 -0.10235759470E+04  0.12213380918E+04  0.12699999809E+01 0. -1.
</event>
<event>
 5   0  0.4914005E-05  0.2425111E+04  0.7818609E-02  0.8430162E-01
        2   -1    0    0  501    0  0.00000000000E+00  0.00000000000E+00  0.73784120793E+03  0.73784120794E+03  0.25500000920E-02 0.  1.
       -2   -1    0    0    0  501  0.00000000000E+00  0.00000000000E+00 -0.19926927103E+04  0.19926927103E+04  0.25500000920E-02 0. -1.
    10030    2    1    2    0    0  0.00000000000E+00  0.00000000000E+00 -0.12548515024E+04  0.27305339182E+04  0.24251109636E+04 0.  0.
        2    1    3    3  502    0  0.30980313053E+03 -0.11632665062E+04 -0.79107066889E+03  0.14404720571E+04  0.25500000920E-02 0.  1.
       -2    1    3    3    0  502 -0.30980313053E+03  0.11632665062E+04 -0.46378083348E+03  0.12900618611E+04  0.25500000920E-02 0. -1.
</event>
<event>
 5   0  0.4756705E-05  0.1771073E+04  0.7818609E-02  0.8721836E-01
        2   -1    0    0  501    0  0.00000000000E+00  0.00000000000E+00  0.12842282067E+04  0.12842282067E+04  0.25500000920E-02 0. -1.
       -2   -1    0    0    0  501  0.00000000000E+00  0.00000000000E+00 -0.61061964378E+03  0.61061964379E+03  0.25500000920E-02 0.  1.
    10030    2    1    2    0    0  0.00000000000E+00  0.00000000000E+00  0.67360856293E+03  0.18948478505E+04  0.17710730873E+04 0.  0.
        3    1    3    3  502    0 -0.27854689652E+03  0.60075122546E+03 -0.29223511428E+03  0.72380368931E+03  0.10100000352E+00 0.  1.
       -3    1    3    3    0  502  0.27854689652E+03 -0.60075122546E+03  0.96584367721E+03  0.11710441612E+04  0.10100000352E+00 0. -1.
</event>
<event>
 5   0  0.2090039E-05  0.2393539E+04  0.7818609E-02  0.8441926E-01
       -1   -1    0    0    0  501  0.00000000000E+00  0.00000000000E+00  0.51448734041E+03  0.51448734044E+03  0.50400001928E-02 0. -1.
        1   -1    0    0  501    0  0.00000000000E+00  0.00000000000E+00 -0.27838534244E+04  0.27838534245E+04  0.50400001928E-02 0.  1.
    10030    2    1    2    0    0  0.00000000000E+00  0.00000000000E+00 -0.22693660840E+04  0.32983407649E+04  0.23935390905E+04 0.  0.
        1    1    3    3  502    0  0.11128140164E+04 -0.13702240881E+03 -0.17113588875E+04  0.20459421834E+04  0.50400001928E-02 0.  1.
       -1    1    3    3    0  502 -0.11128140164E+04  0.13702240881E+03 -0.55800719650E+03  0.12523985815E+04  0.50400001928E-02 0. -1.
</event>
<event>
 5   0  0.4713971E-05  0.2392073E+04  0.7818609E-02  0.8442477E-01
       -2   -1    0    0    0  501  0.00000000000E+00  0.00000000000E+00  0.86597676992E+03  0.86597676992E+03  0.25500000920E-02 0.  1.
        2   -1    0    0  501    0  0.00000000000E+00  0.00000000000E+00 -0.16518960399E+04  0.16518960399E+04  0.25500000920E-02 0. -1.
    10030    2    1    2    0    0  0.00000000000E+00  0.00000000000E+00 -0.78591926996E+03  0.25178728098E+04  0.23920732404E+04 0.  0.
        5    1    3    3  502    0  0.28009871909E+03  0.24798646634E+03  0.80279806744E+03  0.88569713051E+03  0.46999998093E+01 0.  1.
       -5    1    3    3    0  502 -0.28009871909E+03 -0.24798646634E+03 -0.15887173374E+04  0.16321756793E+04  0.46999998093E+01 0. -1.
</event>
<event>
 5   0  0.2057599E-05  0.2454131E+04  0.7818609E-02  0.8419511E-01
        1   -1    0    0  501    0  0.00000000000E+00  0.00000000000E+00  0.16340325179E+04  0.16340325179E+04  0.50400001928E-02 0. -1.
       -1   -1    0    0    0  501  0.00000000000E+00  0.00000000000E+00 -0.92145642946E+03  0.92145642947E+03  0.50400001928E-02 0.  1.
    10030    2    1    2    0    0  0.00000000000E+00  0.00000000000E+00  0.71257608842E+03  0.25554889474E+04  0.24541310230E+04 0.  0.
        4    1    3    3  502    0  0.10505678429E+03  0.58507054164E+03  0.14740962039E+04  0.15894356539E+04  0.12699999809E+01 0. -1.
       -4    1    3    3    0  502 -0.10505678429E+03 -0.58507054164E+03 -0.76152011548E+03  0.96605329346E+03  0.12699999809E+01 0.  1.
</event>
<event>
 5   0  0.2149920E-05  0.2379080E+04  0.7818609E-02  0.8447377E-01
       -1   -1    0    0    0  501  0.00000000000E+00  0.00000000000E+00  0.89519569492E+03  0.89519569493E+03  0.50400001928E-02 0. -1.
        1   -1    0    0  501    0  0.00000000000E+00  0.00000000000E+00 -0.15806664005E+04  0.15806664005E+04  0.50400001928E-02 0.  1.
    10030    2    1    2    0    0  0.00000000000E+00  0.00000000000E+00 -0.68547070556E+03  0.24758620954E+04  0.23790802902E+04 0.  0.
        5    1    3    3  502    0  0.98184273836E+03  0.21157017936E+03  0.32053535830E+03  0.10542969741E+04  0.46999998093E+01 0. -1.
       -5    1    3    3    0  502 -0.98184273836E+03 -0.21157017936E+03 -0.10060060639E+04  0.14215651213E+04  0.46999998093E+01 0.  1.
</event>
<event>
 5   0  0.4914005E-05  0.2206310E+04  0.7818609E-02  0.8515806E-01
        2   -1    0    0  501    0  0.00000000000E+00  0.00000000000E+00  0.37051335744E+03  0.37051335745E+03  0.25500000920E-02 0.  1.
       -2   -1    0    0    0  501  0.00000000000E+00  0.00000000000E+00 -0.32845005668E+04  0.32845005668E+04  0.25500000920E-02 0. -1.
    10030    2    1    2    0    0  0.00000000000E+00  0.00000000000E+00 -0.29139872094E+04  0.36550139243E+04  0.22063103431E+04 0.  0.
        2    1    3    3  502    0 -0.65013947441E+03  0.34584571776E+03 -0.96284932494E+02  0.74267178815E+03  0.25500000920E-02 0.  1.
       -2    1    3    3    0  502  0.65013947441E+03 -0.34584571776E+03 -0.28177022769E+04  0.29123421361E+04  0.25500000920E-02 0. -1.
</event>
<event>
 5   0  0.2090039E-05  0.2360481E+04  0.7818609E-02  0.8454449E-01
       -1   -1    0    0    0  501  0.00000000000E+00  0.00000000000E+00  0.91181456274E+03  0.91181456275E+03  0.50400001928E-02 0.  1.
        1   -1    0    0  501    0  0.00000000000E+00  0.00000000000E+00 -0.15276873423E+04  0.15276873423E+04  0.50400001928E-02 0. -1.
    10030    2    1    2    0    0  0.00000000000E+00  0.00000000000E+00 -0.61587277959E+03  0.24395019051E+04  0.23604809392E+04 0.  0.
        1    1    3    3  502    0 -0.42294139939E+03 -0.55781654707E+03 -0.12899724285E+04  0.14676742124E+04  0.50400001928E-02 0. -1.
       -1    1    3    3    0  502  0.42294139939E+03  0.55781654707E+03  0.67409964892E+03  0.97182769265E+03  0.50400001928E-02 0.  1.
</event>
<event>
 5   0  0.2139556E-05  0.2408337E+04  0.7818609E-02  0.8436389E-01
       -1   -1    0    0    0  501  0.00000000000E+00  0.00000000000E+00  0.13858749088E+04  0.13858749088E+04  0.50400001928E-02 0. -1.
        1   -1    0    0  501    0  0.00000000000E+00  0.00000000000E+00 -0.10462863270E+04  0.10462863270E+04  0.50400001928E-02 0.  1.
    10030    2    1    2    0    0  0.00000000000E+00  0.00000000000E+00  0.33958858184E+03  0.24321612358E+04  0.24083371591E+04 0.  0.
        2    1    3    3  502    0 -0.10187232639E+04 -0.55223275951E+03  0.50054576193E+03  0.12622615295E+04  0.25500000920E-02 0. -1.
       -2    1    3    3    0  502  0.10187232639E+04  0.55223275951E+03 -0.16095718009E+03  0.11698997063E+04  0.25500000920E-02 0.  1.
</event>
<event>
 5   0  0.4713971E-05  0.2019537E+04  0.7818609E-02  0.8597541E-01
       -2   -1    0    0    0  501  0.00000000000E+00  0.00000000000E+00  0.59184173069E+03  0.59184173069E+03  0.25500000920E-02 0.  1.
        2   -1    0    0  501    0  0.00000000000E+00  0.00000000000E+00 -0.17228126632E+04  0.17228126632E+04  0.25500000920E-02 0. -1.
    10030    2    1    2    0    0  0.00000000000E+00  0.00000000000E+00 -0.11309709325E+04  0.23146543939E+04  0.20195370046E+04 0.  0.
        5    1    3    3  502    0 -0.53837886864E+03 -0.46444767170E+02 -0.15431302944E+04  0.16350174672E+04  0.46999998093E+01 0. -1.
       -5    1    3    3    0  502  0.53837886864E+03  0.46444767170E+02  0.41215936186E+03  0.67963692672E+03  0.46999998093E+01 0.  1.
</event>
<event>
 5   0  0.4664127E-05  0.2374973E+04  0.7818609E-02  0.8448933E-01
        2   -1    0    0  501    0  0.00000000000E+00  0.00000000000E+00  0.85049266173E+03  0.85049266174E+03  0.25500000920E-02 0. -1.
       -2   -1    0    0    0  501  0.00000000000E+00  0.00000000000E+00 -0.16580082511E+04  0.16580082511E+04  0.25500000920E-02 0.  1.
    10030    2    1    2    0    0  0.00000000000E+00  0.00000000000E+00 -0.80751558937E+03  0.25085009128E+04  0.23749727162E+04 0.  0.
        4    1    3    3  502    0 -0.10550677987E+04 -0.52766463016E+03 -0.54751365454E+03  0.13005271380E+04  0.12699999809E+01 0. -1.
       -4    1    3    3    0  502  0.10550677987E+04  0.52766463016E+03 -0.26000193483E+03  0.12079737749E+04  0.12699999809E+01 0.  1.
</event>
<event>
 5   0  0.2139556E-05  0.2461812E+04  0.7818609E-02  0.8416718E-01
        1   -1    0    0  501    0  0.00000000000E+00  0.00000000000E+00  0.18455641212E+04  0.18455641212E+04  0.50400001928E-02 0.  1.
       -1   -1    0    0    0  501  0.00000000000E+00  0.00000000000E+00 -0.82095749226E+03  0.82095749228E+03  0.50400001928E-02 0. -1.
    10030    2    1    2    0    0  0.00000000000E+00  0.00000000000E+00  0.10246066290E+04  0.26665216135E+04  0.24618120910E+04 0.  0.
        2    1    3    3  502    0 -0.10527233056E+04 -0.66851365374E+02  0.11994313435E+04  0.15972886436E+04  0.25500000920E-02 0.  1.
       -2    1    3    3    0  502  0.10527233056E+04  0.66851365374E+02 -0.17482471454E+03  0.10692329699E+04  0.25500000920E-02 0. -1.
</event>
<event>
 5   0  0.2065692E-05  0.2340613E+04  0.7818609E-02  0.8462078E-01
        1   -1    0    0  501    0  0.00000000000E+00  0.00000000000E+00  0.14575998688E+04  0.14575998688E+04  0.50400001928E-02 0. -1.
       -1   -1    0    0    0  501  0.00000000000E+00  0.00000000000E+00 -0.93963866619E+03  0.93963866621E+03  0.50400001928E-02 0.  1.
    10030    2    1    2    0    0  0.00000000000E+00  0.00000000000E+00  0.51796120258E+03  0.23972385350E+04  0.23406129083E+04 0.  0.
        3    1    3    3  502    0  0.68182860705E+03 -0.51625273292E+03 -0.55922693395E+03  0.10218326221E+04  0.10100000352E+00 0.  1.
       -3    1    3    3    0  502 -0.68182860705E+03  0.51625273292E+03  0.10771881365E+04  0.13754059129E+04  0.10100000352E+00 0. -1.
</event>
<event>
 5   0  0.2139556E-05  0.2332098E+04  0.7818609E-02  0.8465372E-01
       -1   -1    0    0    0  501  0.00000000000E+00  0.00000000000E+00  0.10570007686E+04  0.10570007686E+04  0.50400001928E-02 0.  1.
        1   -1    0    0  501    0  0.00000000000E+00  0.00000000000E+00 -0.12863477324E+04  0.12863477324E+04  0.50400001928E-02 0. -1.
    10030    2    1    2    0    0  0.00000000000E+00  0.00000000000E+00 -0.22934696377E+03  0.23433485011E+04  0.23320982328E+04 0.  0.
        2    1    3    3  502    0 -0.15084898061E+03 -0.53452437066E+03 -0.11448994075E+04  0.12725039769E+04  0.25500000920E-02 0. -1.
       -2    1    3    3    0  502  0.15084898061E+03  0.53452437066E+03  0.91555244374E+03  0.10708445242E+04  0.25500000920E-02 0.  1.
</event>
<event>
 5   0  0.4756705E-05  0.2388478E+04  0.7818609E-02  0.8443830E-01
       -2   -1    0    0    0  501  0.00000000000E+00  0.00000000000E+00  0.99532720661E+03  0.99532720661E+03  0.25500000920E-02 0. -1.
        2   -1    0    0  501    0  0.00000000000E+00  0.00000000000E+00 -0.14329026655E+04  0.14329026655E+04  0.25500000920E-02 0.  1.
    10030    2    1    2    0    0  0.00000000000E+00  0.00000000000E+00 -0.43757545887E+03  0.24282298721E+04  0.23884781828E+04 0.  0.
        3    1    3    3  502    0  0.47426327622E+03  0.88764635652E+02  0.89182317325E+03  0.10139789930E+04  0.10100000352E+00 0. -1.
       -3    1    3    3    0  502 -0.47426327622E+03 -0.88764635652E+02 -0.13293986321E+04  0.14142508791E+04  0.10100000352E+00 0.  1.
</event>
<event>
 5   0  0.2149920E-05  0.2420001E+04  0.7818609E-02  0.8432053E-01
        1   -1    0    0  501    0  0.00000000000E+00  0.00000000000E+00  0.17215274170E+04  0.17215274170E+04  0.50400001928E-02 0.  1.
       -1   -1    0    0    0  501  0.00000000000E+00  0.00000000000E+00 -0.85046649374E+03  0.85046649375E+03  0.50400001928E-02 0. -1.
    10030    2    1    2    0    0  0.00000000000E+00  0.00000000000E+00  0.87106092325E+03  0.25719939108E+04  0.24200011456E+04 0.  0.
        5    1    3    3  502    0 -0.39948132481E+03 -0.46925395481E+03 -0.67116474931E+03  0.91119087665E+03  0.46999998093E+01 0. -1.
       -5    1    3    3    0  502  0.39948132481E+03  0.46925395481E+03  0.15422256726E+04  0.16608030341E+04  0.46999998093E+01 0.  1.
</event>
<event>
 5   0  0.2057599E-05  0.2400405E+04  0.7818609E-02  0.8439352E-01
        1   -1    0    0  501    0  0.00000000000E+00  0.00000000000E+00  0.16555276997E+04  0.16555276997E+04  0.50400001928E-02 0. -1.
       -1   -1    0    0    0  501  0.00000000000E+00  0.00000000000E+00 -0.87010710689E+03  0.87010710691E+03  0.50400001928E-02 0.  1.
    10030    2    1    2    0    0  0.00000000000E+00  0.00000000000E+00  0.78542059278E+03  0.25256348066E+04  0.24004053134E+04 0.  0.
        4    1    3    3  502    0 -0.82973680560E+03  0.83518761668E+03  0.63830421448E+03  0.13391920716E+04  0.12699999809E+01 0.  1.
       -4    1    3    3    0  502  0.82973680560E+03 -0.83518761668E+03  0.14711637830E+03  0.11864427349E+04  0.12699999809E+01 0. -1.
</event>
<event>
 5   0  0.2065692E-05  0.2224630E+04  0.7818609E-02  0.8508246E-01
        1   -1    0    0  501    0  0.00000000000E+00  0.00000000000E+00  0.12114222706E+04  0.12114222706E+04  0.50400001928E-02 0. -1.
       -1   -1    0    0    0  501  0.00000000000E+00  0.00000000000E+00 -0.10213157594E+04  0.10213157594E+04  0.50400001928E-02 0.  1.
    10030    2    1    2    0    0  0.00000000000E+00  0.00000000000E+00  0.19010651117E+03  0.22327380300E+04  0.22246299974E+04 0.  0.
        3    1    3    3  502    0 -0.40285712276E+03  0.91451333413E+03 -0.39521062058E+03  0.10746254903E+04  0.10100000352E+00 0.  1.
       -3    1    3    3    0  502  0.40285712276E+03 -0.91451333413E+03  0.58531713175E+03  0.11581125397E+04  0.10100000352E+00 0. -1.
</event>
<event>
 5   0  0.4856882E-05  0.2391352E+04  0.7818609E-02  0.8442748E-01
        2   -1    0    0  501    0  0.00000000000E+00  0.00000000000E+00  0.15972419764E+04  0.15972419764E+04  0.25500000920E-02 0.  1.
       -2   -1    0    0    0  501  0.00000000000E+00  0.00000000000E+00 -0.89506852438E+03  0.89506852439E+03  0.25500000920E-02 0. -1.
    10030    2    1    2    0    0  0.00000000000E+00  0.00000000000E+00  0.70217345199E+03  0.24923105008E+04  0.23913519347E+04 0.  0.
        1    1    3    3  502    0  0.65762295363E+03  0.55706513213E+03  0.12148407419E+04  0.14895058035E+04  0.50400001928E-02 0.  1.
       -1    1    3    3    0  502 -0.65762295363E+03 -0.55706513213E+03 -0.51266728992E+03  0.10028046972E+04  0.50400001928E-02 0. -1.
</event>
<event>
 5   0  0.2090039E-05  0.2372944E+04  0.7818609E-02  0.8449703E-01
        1   -1    0    0  501    0  0.00000000000E+00  0.00000000000E+00  0.11336424860E+04  0.11336424860E+04  0.50400001928E-02 0. -1.
       -1   -1    0    0    0  501  0.00000000000E+00  0.00000000000E+00 -0.12417632033E+04  0.12417632033E+04  0.50400001928E-02 0.  1.
    10030    2    1    2    0    0  0.00000000000E+00  0.00000000000E+00 -0.10812071727E+03  0.23754056893E+04  0.23729437624E+04 0.  0.
        1    1    3    3  502    0 -0.82405631901E+03 -0.34363129999E+02  0.79974064665E+03  0.11488406084E+04  0.50400001928E-02 0. -1.
       -1    1    3    3    0  502  0.82405631901E+03  0.34363129999E+02 -0.90786136392E+03  0.12265650809E+04  0.50400001928E-02 0.  1.
</event>
<event>
 5   0  0.4756705E-05  0.2379234E+04  0.7818609E-02  0.8447319E-01
       -2   -1    0    0    0  501  0.00000000000E+00  0.00000000000E+00  0.13010257541E+04  0.13010257541E+04  0.25500000920E-02 0. -1.
        2   -1    0    0  501    0  0.00000000000E+00  0.00000000000E+00 -0.10877484273E+04  0.10877484273E+04  0.25500000920E-02 0.  1.
    10030    2    1    2    0    0  0.00000000000E+00  0.00000000000E+00  0.21327732682E+03  0.23887741814E+04  0.23792340934E+04 0.  0.
        3    1    3    3  502    0  0.21794430195E+03  0.11686648033E+04  0.15053543760E+03  0.11983063338E+04  0.10100000352E+00 0.  1.
       -3    1    3    3    0  502 -0.21794430195E+03 -0.11686648033E+04  0.62741889220E+02  0.11904678476E+04  0.10100000352E+00 0. -1.
</event>
<event>
 5   0  0.4756705E-05  0.2385877E+04  0.7818609E-02  0.8444810E-01
        2   -1    0    0  501    0  0.00000000000E+00  0.00000000000E+00  0.13018815855E+04  0.13018815855E+04  0.25500000920E-02 0.  1.
       -2   -1    0    0    0  501  0.00000000000E+00  0.00000000000E+00 -0.10931116940E+04  0.10931116940E+04  0.25500000920E-02 0. -1.
    10030    2    1    2    0    0  0.00000000000E+00  0.00000000000E+00  0.20876989149E+03  0.23949932795E+04  0.23858767658E+04 0.  0.
        3    1    3    3  502    0  0.35218580163E+03 -0.34089437387E+03  0.11961335030E+04  0.12926635990E+04  0.10100000352E+00 0.  1.
       -3    1    3    3    0  502 -0.35218580163E+03  0.34089437387E+03 -0.98736361152E+03  0.11023296805E+04  0.10100000352E+00 0. -1.
</event>
<event>
 5   0  0.4664127E-05  0.2245710E+04  0.7818609E-02  0.8499640E-01
       -2   -1    0    0    0  501  0.00000000000E+00  0.00000000000E+00  0.76080492966E+03  0.76080492967E+03  0.25500000920E-02 0. -1.
        2   -1    0    0  501    0  0.00000000000E+00  0.00000000000E+00 -0.16571965863E+04  0.16571965863E+04  0.25500000920E-02 0.  1.
    10030    2    1    2    0    0  0.00000000000E+00  0.00000000000E+00 -0.89639165661E+03  0.24180015159E+04  0.22457099833E+04 0.  0.
        4    1    3    3  502    0 -0.19359901112E+03  0.89046052425E+02 -0.16352241352E+04  0.16490510489E+04  0.12699999809E+01 0.  1.
       -4    1    3    3    0  502  0.19359901112E+03 -0.89046052425E+02  0.73883247856E+03  0.76895046709E+03  0.12699999809E+01 0. -1.
</event>
<event>
 5   0  0.2065692E-05  0.2408591E+04  0.7818609E-02  0.8436294E-01
        1   -1    0    0  501    0  0.00000000000E+00  0.00000000000E+00  0.11743530930E+04  0.11743530930E+04  0.50400001928E-02 0. -1.
       -1   -1    0    0    0  501  0.00000000000E+00  0.00000000000E+00 -0.12350012790E+04  0.12350012790E+04  0.50400001928E-02 0.  1.
    10030    2    1    2    0    0  0.00000000000E+00  0.00000000000E+00 -0.60648186004E+02  0.24093543720E+04  0.24085909340E+04 0.  0.
        3    1    3    3  502    0 -0.56118534095E+03 -0.33162877108E+03  0.98262757423E+03  0.11791792012E+04  0.10100000352E+00 0. -1.
       -3    1    3    3    0  502  0.56118534095E+03  0.33162877108E+03 -0.10432757602E+04  0.12301751708E+04  0.10100000352E+00 0.  1.
</event>
<event>
 5   0  0.4664127E-05  0.2340771E+04  0.7818609E-02  0.8462017E-01
       -2   -1    0    0    0  501  0.00000000000E+00  0.00000000000E+00  0.19873343218E+04  0.19873343218E+04  0.25500000920E-02 0. -1.
        2   -1    0    0  501    0  0.00000000000E+00  0.00000000000E+00 -0.68926613131E+03  0.68926613131E+03  0.25500000920E-02 0.  1.
    10030    2    1    2    0    0  0.00000000000E+00  0.00000000000E+00  0.12980681905E+04  0.26766004531E+04  0.23407710179E+04 0.  0.
        4    1    3    3  502    0 -0.15005678729E+03 -0.50566084233E+03  0.18437221709E+04  0.19176868835E+04  0.12699999809E+01 0. -1.
       -4    1    3    3    0  502  0.15005678729E+03  0.50566084233E+03 -0.54565398040E+03  0.75891356959E+03  0.12699999809E+01 0.  1.
</event>
<event>
 5   0  0.2149920E-05  0.2400057E+04  0.7818609E-02  0.8439482E-01
        1   -1    0    0  501    0  0.00000000000E+00  0.00000000000E+00  0.12531570068E+04  0.12531570068E+04  0.50400001928E-02 0.  1.
       -1   -1    0    0    0  501  0.00000000000E+00  0.00000000000E+00 -0.11491524944E+04  0.11491524944E+04  0.50400001928E-02 0. -1.
    10030    2    1    2    0    0  0.00000000000E+00  0.00000000000E+00  0.10400451237E+03  0.24023095012E+04  0.24000570828E+04 0.  0.
        5    1    3    3  502    0 -0.83747463338E+03 -0.28052891530E+02  0.91181697015E+03  0.12383791840E+04  0.46999998093E+01 0.  1.
       -5    1    3    3    0  502  0.83747463338E+03  0.28052891530E+02 -0.80781245778E+03  0.11639303172E+04  0.46999998093E+01 0. -1.
</event>
<event>
 5   0  0.4856882E-05  0.2394286E+04  0.7818609E-02  0.8441646E-01
        2   -1    0    0  501    0  0.00000000000E+00  0.00000000000E+00  0.22038378782E+04  0.22038378782E+04  0.25500000920E-02 0.  1.
       -2   -1    0    0    0  501  0.00000000000E+00  0.00000000000E+00 -0.65029812173E+03  0.65029812173E+03  0.25500000920E-02 0. -1.
    10030    2    1    2    0    0  0.00000000000E+00  0.00000000000E+00  0.15535397565E+04  0.28541359999E+04  0.23942862258E+04 0.  0.
        1    1    3    3  502    0 -0.90722609262E+03 -0.52897185529E+02 -0.15219268444E+03  0.92142276322E+03  0.50400001928E-02 0. -1.
       -1    1    3    3    0  502  0.90722609262E+03  0.52897185529E+02  0.17057324409E+04  0.19327132367E+04  0.50400001928E-02 0.  1.
</event>
<event>
 5   0  0.2139556E-05  0.2412748E+04  0.7818609E-02  0.8434746E-01
        1   -1    0    0  501    0  0.00000000000E+00  0.00000000000E+00  0.10508464377E+04  0.10508464377E+04  0.50400001928E-02 0.  1.
       -1   -1    0    0    0  501  0.00000000000E+00  0.00000000000E+00 -0.13849196585E+04  0.13849196585E+04  0.50400001928E-02 0. -1.
    10030    2    1    2    0    0  0.00000000000E+00  0.00000000000E+00 -0.33407322078E+03  0.24357660962E+04  0.24127477196E+04 0.  0.
        2    1    3    3  502    0  0.21110025453E+03  0.90233529701E+03  0.61270868826E+03  0.11109384512E+04  0.25500000920E-02 0.  1.
       -2    1    3    3    0  502 -0.21110025453E+03 -0.90233529701E+03 -0.94678190904E+03  0.13248276450E+04  0.25500000920E-02 0. -1.
</event>
<event>
 5   0  0.4713971E-05  0.2386676E+04  0.7818609E-02  0.8444509E-01
        2   -1    0    0  501    0  0.00000000000E+00  0.00000000000E+00  0.14446609087E+04  0.14446609087E+04  0.25500000920E-02 0. -1.
       -2   -1    0    0    0  501  0.00000000000E+00  0.00000000000E+00 -0.98573667359E+03  0.98573667359E+03  0.25500000920E-02 0.  1.
    10030    2    1    2    0    0  0.00000000000E+00  0.00000000000E+00  0.45892423506E+03  0.24303975822E+04  0.23866757120E+04 0.  0.
        5    1    3    3  502    0  0.45706894327E+03 -0.55202737861E+03  0.12010831595E+04  0.13986668980E+04  0.46999998093E+01 0. -1.
       -5    1    3    3    0  502 -0.45706894327E+03  0.55202737861E+03 -0.74215892443E+03  0.10317306842E+04  0.46999998093E+01 0.  1.
</event>
<event>
 5   0  0.2065692E-05  0.2351523E+04  0.7818609E-02  0.8457879E-01
       -1   -1    0    0    0  501  0.00000000000E+00  0.00000000000E+00  0.85078773216E+03  0.85078773217E+03  0.50400001928E-02 0.  1.
        1   -1    0    0  501    0  0.00000000000E+00  0.00000000000E+00 -0.16248644751E+04  0.16248644751E+04  0.50400001928E-02 0. -1.
    10030    2    1    2    0    0  0.00000000000E+00  0.00000000000E+00 -0.77407674290E+03  0.24756522072E+04  0.23515227082E+04 0.  0.
        3    1    3    3  502    0  0.49946382577E+03 -0.22620477493E+03  0.70795209681E+03  0.89544899075E+03  0.10100000352E+00 0.  1.
       -3    1    3    3    0  502 -0.49946382577E+03  0.22620477493E+03 -0.14820288397E+04  0.15802032165E+04  0.10100000352E+00 0. -1.
</event>
<event>
 5   0  0.2065692E-05  0.2377263E+04  0.7818609E-02  0.8448065E-01
        1   -1    0    0  501    0  0.00000000000E+00  0.00000000000E+00  0.11862389399E+04  0.11862389399E+04  0.50400001928E-02 0. -1.
       -1   -1    0    0    0  501  0.00000000000E+00  0.00000000000E+00 -0.11910289610E+04  0.11910289610E+04  0.50400001928E-02 0.  1.
    10030    2    1    2    0    0  0.00000000000E+00  0.00000000000E+00 -0.47900210449E+01  0.23772679009E+04  0.23772630752E+04 0.  0.
        3    1    3    3  502    0 -0.33481936622E+03  0.61455650043E+03 -0.96315771239E+03  0.11905698171E+04  0.10100000352E+00 0.  1.
       -3    1    3    3    0  502  0.33481936622E+03 -0.61455650043E+03  0.95836769134E+03  0.11866980839E+04  0.10100000352E+00 0. -1.
</event>
<event>
 5   0  0.1672125E-05  0.2388137E+04  0.7818609E-02  0.8443958E-01
       -3   -1    0    0    0  501  0.00000000000E+00  0.00000000000E+00  0.13328691439E+04  0.13328691477E+04  0.10100000352E+00 0. -1.
        3   -1    0    0  501    0  0.00000000000E+00  0.00000000000E+00 -0.10697219098E+04  0.10697219146E+04  0.10100000352E+00 0.  1.
    10030    2    1    2    0    0  0.00000000000E+00  0.00000000000E+00  0.26314723408E+03  0.24025910623E+04  0.23881367937E+04 0.  0.
        1    1    3    3  502    0 -0.11800652994E+04  0.13084572445E+02 -0.51389750853E+02  0.11812562057E+04  0.50400001928E-02 0.  1.
       -1    1    3    3    0  502  0.11800652994E+04 -0.13084572445E+02  0.31453698494E+03  0.12213348566E+04  0.50400001928E-02 0. -1.
</event>
<event>
 5   0  0.2090039E-05  0.2408615E+04  0.7818609E-02  0.8436285E-01
       -1   -1    0    0    0  501  0.00000000000E+00  0.00000000000E+00  0.16292746078E+04  0.16292746079E+04  0.50400001928E-02 0. -1.
        1   -1    0    0  501    0  0.00000000000E+00  0.00000000000E+00 -0.89018520804E+03  0.89018520806E+03  0.50400001928E-02 0.  1.
    10030    2    1    2    0    0  0.00000000000E+00  0.00000000000E+00  0.73908939980E+03  0.25194598159E+04  0.24086146689E+04 0.  0.
        1    1    3    3  502    0 -0.90097639250E+03 -0.11909887998E+03 -0.45701862271E+03  0.10172556338E+04  0.50400001928E-02 0.  1.
       -1    1    3    3    0  502  0.90097639250E+03  0.11909887998E+03  0.11961080225E+04  0.15022041821E+04  0.50400001928E-02 0. -1.
</event>
<event>
 5   0  0.2139556E-05  0.2406341E+04  0.7818609E-02  0.8437134E-01
       -1   -1    0    0    0  501  0.00000000000E+00  0.00000000000E+00  0.12780307994E+04  0.12780307994E+04  0.50400001928E-02 0. -1.
        1   -1    0    0  501    0  0.00000000000E+00  0.00000000000E+00 -0.11326947132E+04  0.11326947132E+04  0.50400001928E-02 0.  1.
    10030    2    1    2    0    0  0.00000000000E+00  0.00000000000E+00  0.14533608625E+03  0.24107255126E+04  0.24063405659E+04 0.  0.
        2    1    3    3  502    0 -0.38304461710E+03 -0.85398303226E+03 -0.68475763216E+03  0.11596996218E+04  0.25500000920E-02 0.  1.
       -2    1    3    3    0  502  0.38304461710E+03  0.85398303226E+03  0.83009371841E+03  0.12510258908E+04  0.25500000920E-02 0. -1.
</event>
<event>
 5   0  0.2149920E-05  0.2383930E+04  0.7818609E-02  0.8445545E-01
       -1   -1    0    0    0  501  0.00000000000E+00  0.00000000000E+00  0.47164503287E+03  0.47164503290E+03  0.50400001928E-02 0. -1.
        1   -1    0    0  501    0  0.00000000000E+00  0.00000000000E+00 -0.30123930926E+04  0.30123930926E+04  0.50400001928E-02 0.  1.
    10030    2    1    2    0    0  0.00000000000E+00  0.00000000000E+00 -0.25407480597E+04  0.34840381255E+04  0.23839297299E+04 0.  0.
        5    1    3    3  502    0 -0.52399953268E+03 -0.34241669529E+03 -0.27528343959E+04  0.28231089254E+04  0.46999998093E+01 0.  1.
       -5    1    3    3    0  502  0.52399953268E+03  0.34241669529E+03  0.21208633622E+03  0.66092920005E+03  0.46999998093E+01 0. -1.
</event>
<event>
 5   0  0.4713971E-05  0.2335067E+04  0.7818609E-02  0.8464222E-01
       -2   -1    0    0    0  501  0.00000000000E+00  0.00000000000E+00  0.82515144008E+03  0.82515144009E+03  0.25500000920E-02 0.  1.
        2   -1    0    0  501    0  0.00000000000E+00  0.00000000000E+00 -0.16519803693E+04  0.16519803693E+04  0.25500000920E-02 0. -1.
    10030    2    1    2    0    0  0.00000000000E+00  0.00000000000E+00 -0.82682892920E+03  0.24771318094E+04  0.23350665778E+04 0.  0.
        5    1    3    3  502    0  0.89080016022E+03 -0.16357401728E+03  0.36818089378E+03  0.97768125947E+03  0.46999998093E+01 0.  1.
       -5    1    3    3    0  502 -0.89080016022E+03  0.16357401728E+03 -0.11950098230E+04  0.14994505499E+04  0.46999998093E+01 0. -1.
</event>
<event>
 5   0  0.2149920E-05  0.2380486E+04  0.7818609E-02  0.8446845E-01
        1   -1    0    0  501    0  0.00000000000E+00  0.00000000000E+00  0.16800453264E+04  0.16800453264E+04  0.50400001928E-02 0. -1.
       -1   -1    0    0    0  501  0.00000000000E+00  0.00000000000E+00 -0.84323848117E+03  0.84323848118E+03  0.50400001928E-02 0.  1.
    10030    2    1    2    0    0  0.00000000000E+00  0.00000000000E+00  0.83680684522E+03  0.25232838076E+04  0.23804863951E+04 0.  0.
        5    1    3    3  502    0  0.81454855164E+03  0.39895736186E+03  0.12353502444E+04  0.15325692924E+04  0.46999998093E+01 0. -1.
       -5    1    3    3    0  502 -0.81454855164E+03 -0.39895736186E+03 -0.39854339921E+03  0.99071451519E+03  0.46999998093E+01 0.  1.
</event>
<event>
 5   0  0.4856882E-05  0.2306004E+04  0.7818609E-02  0.8475558E-01
       -2   -1    0    0    0  501  0.00000000000E+00  0.00000000000E+00  0.63182161772E+03  0.63182161773E+03  0.25500000920E-02 0.  1.
        2   -1    0    0  501    0  0.00000000000E+00  0.00000000000E+00 -0.21040964921E+04  0.21040964921E+04  0.25500000920E-02 0. -1.
    10030    2    1    2    0    0  0.00000000000E+00  0.00000000000E+00 -0.14722748744E+04  0.27359181098E+04  0.23060040325E+04 0.  0.
        1    1    3    3  502    0 -0.58963346319E+03  0.27856641721E+03 -0.18642761476E+04  0.19750423854E+04  0.50400001928E-02 0. -1.
       -1    1    3    3    0  502  0.58963346319E+03 -0.27856641721E+03  0.39200127323E+03  0.76087572438E+03  0.50400001928E-02 0.  1.
</event>
<event>
 5   0  0.2090039E-05  0.2503196E+04  0.7818609E-02  0.8401848E-01
        1   -1    0    0  501    0  0.00000000000E+00  0.00000000000E+00  0.21072473196E+04  0.21072473196E+04  0.50400001928E-02 0. -1.
       -1   -1    0    0    0  501  0.00000000000E+00  0.00000000000E+00 -0.74338571456E+03  0.74338571458E+03  0.50400001928E-02 0.  1.
    10030    2    1    2    0    0  0.00000000000E+00  0.00000000000E+00  0.13638616051E+04  0.28506330342E+04  0.25031960007E+04 0.  0.
        1    1    3    3  502    0  0.74162885778E+03 -0.10073039431E+04  0.63330858127E+03  0.14020536208E+04  0.50400001928E-02 0. -1.
       -1    1    3    3    0  502 -0.74162885778E+03  0.10073039431E+04  0.73055302378E+03  0.14485794134E+04  0.50400001928E-02 0.  1.
</event>
<event>
 5   0  0.4664127E-05  0.2361780E+04  0.7818609E-02  0.8453953E-01
       -2   -1    0    0    0  501  0.00000000000E+00  0.00000000000E+00  0.68836082410E+03  0.68836082411E+03  0.25500000920E-02 0. -1.
        2   -1    0    0  501    0  0.00000000000E+00  0.00000000000E+00 -0.20258283789E+04  0.20258283789E+04  0.25500000920E-02 0.  1.
    10030    2    1    2    0    0  0.00000000000E+00  0.00000000000E+00 -0.13374675548E+04  0.27141892030E+04  0.23617797462E+04 0.  0.
        4    1    3    3  502    0 -0.56051737902E+03 -0.76461308559E+02  0.52250417540E+03  0.77008979353E+03  0.12699999809E+01 0. -1.
       -4    1    3    3    0  502  0.56051737902E+03  0.76461308559E+02 -0.18599717302E+04  0.19440994095E+04  0.12699999809E+01 0.  1.
</event>
<event>
 5   0  0.4756705E-05  0.2385903E+04  0.7818609E-02  0.8444800E-01
       -2   -1    0    0    0  501  0.00000000000E+00  0.00000000000E+00  0.78646933336E+03  0.78646933337E+03  0.25500000920E-02 0. -1.
        2   -1    0    0  501    0  0.00000000000E+00  0.00000000000E+00 -0.18095210872E+04  0.18095210872E+04  0.25500000920E-02 0.  1.
    10030    2    1    2    0    0  0.00000000000E+00  0.00000000000E+00 -0.10230517538E+04  0.25959904205E+04  0.23859026327E+04 0.  0.
        3    1    3    3  502    0  0.96762519843E+03  0.23876692814E+03 -0.12248649851E+04  0.15791144393E+04  0.10100000352E+00 0. -1.
       -3    1    3    3    0  502 -0.96762519843E+03 -0.23876692814E+03  0.20181323130E+03  0.10168759812E+04  0.10100000352E+00 0.  1.
</event>
<event>
 5   0  0.2065692E-05  0.2401002E+04  0.7818609E-02  0.8439128E-01
       -1   -1    0    0    0  501  0.00000000000E+00  0.00000000000E+00  0.53109413007E+03  0.53109413009E+03  0.50400001928E-02 0.  1.
        1   -1    0    0  501    0  0.00000000000E+00  0.00000000000E+00 -0.27136488879E+04  0.27136488879E+04  0.50400001928E-02 0. -1.
    10030    2    1    2    0    0  0.00000000000E+00  0.00000000000E+00 -0.21825547579E+04  0.32447430180E+04  0.24010022870E+04 0.  0.
        3    1    3    3  502    0  0.75717298419E+03  0.45742152859E+03 -0.21880524921E+04  0.23601099765E+04  0.10100000352E+00 0. -1.
       -3    1    3    3    0  502 -0.75717298419E+03 -0.45742152859E+03  0.54977342784E+01  0.88463304149E+03  0.10100000352E+00 0.  1.
</event>
<event>
 5   0  0.2149920E-05  0.2366577E+04  0.7818609E-02  0.8452124E-01
       -1   -1    0    0    0  501  0.00000000000E+00  0.00000000000E+00  0.57950238414E+03  0.57950238416E+03  0.50400001928E-02 0.  1.
        1   -1    0    0  501    0  0.00000000000E+00  0.00000000000E+00 -0.24161615341E+04  0.24161615341E+04  0.50400001928E-02 0. -1.
    10030    2    1    2    0    0  0.00000000000E+00  0.00000000000E+00 -0.18366591499E+04  0.29956639182E+04  0.23665767425E+04 0.  0.
        5    1    3    3  502    0 -0.19310525684E+03 -0.96631841974E+03 -0.89155225914E+02  0.98946029373E+03  0.46999998093E+01 0.  1.
       -5    1    3    3    0  502  0.19310525684E+03  0.96631841974E+03 -0.17475039240E+04  0.20062036245E+04  0.46999998093E+01 0. -1.
</event>
<event>
 5   0  0.2057599E-05  0.2176378E+04  0.7818609E-02  0.8528325E-01
       -1   -1    0    0    0  501  0.00000000000E+00  0.00000000000E+00  0.76008195493E+03  0.76008195494E+03  0.50400001928E-02 0. -1.
        1   -1    0    0  501    0  0.00000000000E+00  0.00000000000E+00 -0.15579303747E+04  0.15579303747E+04  0.50400001928E-02 0.  1.
    10030    2    1    2    0    0  0.00000000000E+00  0.00000000000E+00 -0.79784841977E+03  0.23180123296E+04  0.21763775085E+04 0.  0.
        4    1    3    3  502    0 -0.90410952083E+03  0.58617729722E+03 -0.56092573535E+03  0.12147662915E+04  0.12699999809E+01 0. -1.
       -4    1    3    3    0  502  0.90410952083E+03 -0.58617729722E+03 -0.23692268441E+03  0.11032460382E+04  0.12699999809E+01 0.  1.
</event>
<event>
 5   0  0.4756705E-05  0.2263648E+04  0.7818609E-02  0.8492394E-01
        2   -1    0    0  501    0  0.00000000000E+00  0.00000000000E+00  0.84701299767E+03  0.84701299767E+03  0.25500000920E-02 0. -1.
       -2   -1    0    0    0  501  0.00000000000E+00  0.00000000000E+00 -0.15124036750E+04  0.15124036750E+04  0.25500000920E-02 0.  1.
    10030    2    1    2    0    0  0.00000000000E+00  0.00000000000E+00 -0.66539067730E+03  0.23594166726E+04  0.22636480030E+04 0.  0.
        3    1    3    3  502    0 -0.10612177201E+04 -0.38859855632E+03 -0.39723152070E+03  0.11979085018E+04  0.10100000352E+00 0.  1.
       -3    1    3    3    0  502  0.10612177201E+04  0.38859855632E+03 -0.26815915660E+03  0.11615081708E+04  0.10100000352E+00 0. -1.
</event>
<event>
 5   0  0.4914005E-05  0.2405036E+04  0.7818609E-02  0.8437621E-01
        2   -1    0    0  501    0  0.00000000000E+00  0.00000000000E+00  0.18449750107E+04  0.18449750107E+04  0.25500000920E-02 0.  1.
       -2   -1    0    0    0  501  0.00000000000E+00  0.00000000000E+00 -0.78377704869E+03  0.78377704869E+03  0.25500000920E-02 0. -1.
    10030    2    1    2    0    0  0.00000000000E+00  0.00000000000E+00  0.10611979620E+04  0.26287520593E+04  0.24050356079E+04 0.  0.
        2    1    3    3  502    0 -0.84604387636E+03  0.22786323143E+03  0.14308236808E+04  0.16777867261E+04  0.25500000920E-02 0.  1.
       -2    1    3    3    0  502  0.84604387636E+03 -0.22786323143E+03 -0.36962571880E+03  0.95096533321E+03  0.25500000920E-02 0. -1.
</event>
<event>
 5   0  0.4756705E-05  0.2356433E+04  0.7818609E-02  0.8455997E-01
        2   -1    0    0  501    0  0.00000000000E+00  0.00000000000E+00  0.14838871458E+04  0.14838871458E+04  0.25500000920E-02 0.  1.
       -2   -1    0    0    0  501  0.00000000000E+00  0.00000000000E+00 -0.93551198900E+03  0.93551198900E+03  0.25500000920E-02 0. -1.
    10030    2    1    2    0    0  0.00000000000E+00  0.00000000000E+00  0.54837515676E+03  0.24193991348E+04  0.23564330800E+04 0.  0.
        3    1    3    3  502    0 -0.10171744817E+04  0.59418454076E+03  0.29703091527E+03  0.12148771829E+04  0.10100000352E+00 0.  1.
       -3    1    3    3    0  502  0.10171744817E+04 -0.59418454076E+03  0.25134424150E+03  0.12045219519E+04  0.10100000352E+00 0. -1.
</event>
<event>
 5   0  0.4914005E-05  0.2294522E+04  0.7818609E-02  0.8480084E-01
       -2   -1    0    0    0  501  0.00000000000E+00  0.00000000000E+00  0.64921127289E+03  0.64921127290E+03  0.25500000920E-02 0.  1.
        2   -1    0    0  501    0  0.00000000000E+00  0.00000000000E+00 -0.20273953559E+04  0.20273953559E+04  0.25500000920E-02 0. -1.
    10030    2    1    2    0    0  0.00000000000E+00  0.00000000000E+00 -0.13781840830E+04  0.26766066288E+04  0.22945221024E+04 0.  0.
        2    1    3    3  502    0 -0.45780667587E+03  0.42722069218E+03  0.43228742344E+03  0.76090530867E+03  0.25500000920E-02 0.  1.
       -2    1    3    3    0  502  0.45780667587E+03 -0.42722069218E+03 -0.18104715064E+04  0.19157013201E+04  0.25500000920E-02 0. -1.
</event>
<event>
 5   0  0.4756705E-05  0.2399817E+04  0.7818609E-02  0.8439572E-01
       -2   -1    0    0    0  501  0.00000000000E+00  0.00000000000E+00  0.18136216999E+04  0.18136216999E+04  0.25500000920E-02 0.  1.
        2   -1    0    0  501    0  0.00000000000E+00  0.00000000000E+00 -0.79387048130E+03  0.79387048130E+03  0.25500000920E-02 0. -1.
    10030    2    1    2    0    0  0.00000000000E+00  0.00000000000E+00  0.10197512186E+04  0.26074921812E+04  0.23998172695E+04 0.  0.
        3    1    3    3  502    0 -0.33235256056E+03  0.11476066324E+04  0.38926739578E+03  0.12565780210E+04  0.10100000352E+00 0.  1.
       -3    1    3    3    0  502  0.33235256056E+03 -0.11476066324E+04  0.63048382278E+03  0.13509141602E+04  0.10100000352E+00 0. -1.
</event>
<event>
 5   0  0.4713971E-05  0.2339692E+04  0.7818609E-02  0.8462434E-01
        2   -1    0    0  501    0  0.00000000000E+00  0.00000000000E+00  0.23222252309E+04  0.23222252309E+04  0.25500000920E-02 0.  1.
       -2   -1    0    0    0  501  0.00000000000E+00  0.00000000000E+00 -0.58932252947E+03  0.58932252948E+03  0.25500000920E-02 0. -1.
    10030    2    1    2    0    0  0.00000000000E+00  0.00000000000E+00  0.17329027014E+04  0.29115477604E+04  0.23396919858E+04 0.  0.
        5    1    3    3  502    0 -0.95638420372E+03  0.16452154644E+03  0.16794072602E+04  0.19396311299E+04  0.46999998093E+01 0.  1.
       -5    1    3    3    0  502  0.95638420372E+03 -0.16452154644E+03  0.53495441183E+02  0.97191663047E+03  0.46999998093E+01 0. -1.
</event>
<event>
 5   0  0.4664127E-05  0.2409777E+04  0.7818609E-02  0.8435852E-01
       -2   -1    0    0    0  501  0.00000000000E+00  0.00000000000E+00  0.11976534469E+04  0.11976534469E+04  0.25500000920E-02 0.  1.
        2   -1    0    0  501    0  0.00000000000E+00  0.00000000000E+00 -0.12121670328E+04  0.12121670328E+04  0.25500000920E-02 0. -1.
    10030    2    1    2    0    0  0.00000000000E+00  0.00000000000E+00 -0.14513585837E+02  0.24098204797E+04  0.24097767739E+04 0.  0.
        4    1    3    3  502    0 -0.42966527746E+03  0.10616929759E+04  0.36684915861E+03  0.12026571181E+04  0.12699999809E+01 0.  1.
       -4    1    3    3    0  502  0.42966527746E+03 -0.10616929759E+04 -0.38136274444E+03  0.12071633616E+04  0.12699999809E+01 0. -1.
</event>
<event>
 5   0  0.4664127E-05  0.2491822E+04  0.7818609E-02  0.8405905E-01
       -2   -1    0    0    0  501  0.00000000000E+00  0.00000000000E+00  0.10255271518E+04  0.10255271518E+04  0.25500000920E-02 0. -1.
        2   -1    0    0  501    0  0.00000000000E+00  0.00000000000E+00 -0.15136554773E+04  0.15136554773E+04  0.25500000920E-02 0.  1.
    10030    2    1    2    0    0  0.00000000000E+00  0.00000000000E+00 -0.48812832548E+03  0.25391826291E+04  0.24918224579E+04 0.  0.
        4    1    3    3  502    0 -0.11385024296E+04  0.47447333946E+03 -0.64706196348E+02  0.12351118317E+04  0.12699999809E+01 0. -1.
       -4    1    3    3    0  502  0.11385024296E+04 -0.47447333946E+03 -0.42342212913E+03  0.13040707973E+04  0.12699999809E+01 0.  1.
</event>
<event>
 5   0  0.2090039E-05  0.2264903E+04  0.7818609E-02  0.8491889E-01
        1   -1    0    0  501    0  0.00000000000E+00  0.00000000000E+00  0.12408135405E+04  0.12408135405E+04  0.50400001928E-02 0. -1.
       -1   -1    0    0    0  501  0.00000000000E+00  0.00000000000E+00 -0.10335525503E+04  0.10335525503E+04  0.50400001928E-02 0.  1.
    10030    2    1    2    0    0  0.00000000000E+00  0.00000000000E+00  0.20726099021E+03  0.22743660908E+04  0.22649026462E+04 0.  0.
        1    1    3    3  502    0 -0.10857627605E+04  0.26667348061E+03 -0.77262357353E+02  0.11206984381E+04  0.50400001928E-02 0. -1.
       -1    1    3    3    0  502  0.10857627605E+04 -0.26667348061E+03  0.28452334757E+03  0.11536676526E+04  0.50400001928E-02 0.  1.
</event>
<event>
 5   0  0.4914005E-05  0.2384837E+04  0.7818609E-02  0.8445202E-01
       -2   -1    0    0    0  501  0.00000000000E+00  0.00000000000E+00  0.12239180348E+04  0.12239180348E+04  0.25500000920E-02 0.  1.
        2   -1    0    0  501    0  0.00000000000E+00  0.00000000000E+00 -0.11617299779E+04  0.11617299779E+04  0.25500000920E-02 0. -1.
    10030    2    1    2    0    0  0.00000000000E+00  0.00000000000E+00  0.62188056895E+02  0.23856480127E+04  0.23848373291E+04 0.  0.
        2    1    3    3  502    0 -0.75635273325E+03 -0.25385601523E+02  0.95289975092E+03  0.12168532455E+04  0.25500000920E-02 0.  1.
       -2    1    3    3    0  502  0.75635273325E+03  0.25385601523E+02 -0.89071169403E+03  0.11687947672E+04  0.25500000920E-02 0. -1.
</event>
<event>
 5   0  0.2149920E-05  0.2402106E+04  0.7818609E-02  0.8438715E-01
        1   -1    0    0  501    0  0.00000000000E+00  0.00000000000E+00  0.11443127391E+04  0.11443127391E+04  0.50400001928E-02 0.  1.
       -1   -1    0    0    0  501  0.00000000000E+00  0.00000000000E+00 -0.12606069934E+04  0.12606069934E+04  0.50400001928E-02 0. -1.
    10030    2    1    2    0    0  0.00000000000E+00  0.00000000000E+00 -0.11629425432E+03  0.24049197325E+04  0.24021062771E+04 0.  0.
        5    1    3    3  502    0  0.97590021895E+03 -0.55471198971E+03  0.36945957280E+03  0.11817821689E+04  0.46999998093E+01 0.  1.
       -5    1    3    3    0  502 -0.97590021895E+03  0.55471198971E+03 -0.48575382712E+03  0.12231375636E+04  0.46999998093E+01 0. -1.
</event>
<event>
 5   0  0.2057599E-05  0.2365199E+04  0.7818609E-02  0.8452649E-01
        1   -1    0    0  501    0  0.00000000000E+00  0.00000000000E+00  0.12049289453E+04  0.12049289453E+04  0.50400001928E-02 0. -1.
       -1   -1    0    0    0  501  0.00000000000E+00  0.00000000000E+00 -0.11606834888E+04  0.11606834888E+04  0.50400001928E-02 0.  1.
    10030    2    1    2    0    0  0.00000000000E+00  0.00000000000E+00  0.44245456487E+02  0.23656124341E+04  0.23651986233E+04 0.  0.
        4    1    3    3  502    0 -0.77806204926E+02 -0.39328911111E+03  0.11348862054E+04  0.12036188943E+04  0.12699999809E+01 0. -1.
       -4    1    3    3    0  502  0.77806204926E+02  0.39328911111E+03 -0.10906407489E+04  0.11619935398E+04  0.12699999809E+01 0.  1.
</event>
<event>
 5   0  0.2149920E-05  0.2366386E+04  0.7818609E-02  0.8452197E-01
        1   -1    0    0  501    0  0.00000000000E+00  0.00000000000E+00  0.65247602966E+03  0.65247602968E+03  0.50400001928E-02 0.  1.
       -1   -1    0    0    0  501  0.00000000000E+00  0.00000000000E+00 -0.21455889094E+04  0.21455889094E+04  0.50400001928E-02 0. -1.
    10030    2    1    2    0    0  0.00000000000E+00  0.00000000000E+00 -0.14931128798E+04  0.27980649391E+04  0.23663857107E+04 0.  0.
        5    1    3    3  502    0 -0.25961684659E+03 -0.12827985399E+03  0.60991667847E+03  0.67518669466E+03  0.46999998093E+01 0.  1.
       -5    1    3    3    0  502  0.25961684659E+03  0.12827985399E+03 -0.21030295582E+04  0.21228782444E+04  0.46999998093E+01 0. -1.
</event>
<event>
 5   0  0.4856882E-05  0.2430628E+04  0.7818609E-02  0.8428125E-01
        2   -1    0    0  501    0  0.00000000000E+00  0.00000000000E+00  0.10310633468E+04  0.10310633468E+04  0.25500000920E-02 0. -1.
       -2   -1    0    0    0  501  0.00000000000E+00  0.00000000000E+00 -0.14324905424E+04  0.14324905424E+04  0.25500000920E-02 0.  1.
    10030    2    1    2    0    0  0.00000000000E+00  0.00000000000E+00 -0.40142719568E+03  0.24635538892E+04  0.24306283080E+04 0.  0.
        1    1    3    3  502    0  0.31061795481E+03 -0.58867338893E+03  0.82990314733E+03  0.10638416737E+04  0.50400001928E-02 0. -1.
       -1    1    3    3    0  502 -0.31061795481E+03  0.58867338893E+03 -0.12313303430E+04  0.13997122155E+04  0.50400001928E-02 0.  1.
</event>
<event>
 5   0  0.4756705E-05  0.2323399E+04  0.7818609E-02  0.8468752E-01
        2   -1    0    0  501    0  0.00000000000E+00  0.00000000000E+00  0.12570214023E+04  0.12570214023E+04  0.25500000920E-02 0. -1.
       -2   -1    0    0    0  501  0.00000000000E+00  0.00000000000E+00 -0.10736057517E+04  0.10736057517E+04  0.25500000920E-02 0.  1.
    10030    2    1    2    0    0  0.00000000000E+00  0.00000000000E+00  0.18341565062E+03  0.23306271540E+04  0.23233987239E+04 0.  0.
        3    1    3    3  502    0 -0.19069776542E+03 -0.11344811365E+04 -0.70450018373E+02  0.11525520822E+04  0.10100000352E+00 0.  1.
       -3    1    3    3    0  502  0.19069776542E+03  0.11344811365E+04  0.25386566899E+03  0.11780750719E+04  0.10100000352E+00 0. -1.
</event>
<event>
 5   0  0.4713971E-05  0.2443483E+04  0.7818609E-02  0.8423401E-01
        2   -1    0    0  501    0  0.00000000000E+00  0.00000000000E+00  0.23536394231E+04  0.23536394231E+04  0.25500000920E-02 0.  1.
       -2   -1    0    0    0  501  0.00000000000E+00  0.00000000000E+00 -0.63418878981E+03  0.63418878982E+03  0.25500000920E-02 0. -1.
    10030    2    1    2    0    0  0.00000000000E+00  0.00000000000E+00  0.17194506333E+04  0.29878282129E+04  0.24434825454E+04 0.  0.
        5    1    3    3  502    0 -0.11115481068E+04  0.36705395208E+03  0.43199562377E+03  0.12477620392E+04  0.46999998093E+01 0. -1.
       -5    1    3    3    0  502  0.11115481068E+04 -0.36705395208E+03  0.12874550095E+04  0.17400661737E+04  0.46999998093E+01 0.  1.
</event>
<event>
 5   0  0.2149920E-05  0.2418822E+04  0.7818609E-02  0.8432490E-01
       -1   -1    0    0    0  501  0.00000000000E+00  0.00000000000E+00  0.65551194867E+03  0.65551194869E+03  0.50400001928E-02 0.  1.
        1   -1    0    0  501    0  0.00000000000E+00  0.00000000000E+00 -0.22313471744E+04  0.22313471744E+04  0.50400001928E-02 0. -1.
    10030    2    1    2    0    0  0.00000000000E+00  0.00000000000E+00 -0.15758352257E+04  0.28868591231E+04  0.24188218078E+04 0.  0.
        5    1    3    3  502    0  0.58192694963E+03  0.50284853821E+03  0.32604325607E+03  0.83535736180E+03  0.46999998093E+01 0. -1.
       -5    1    3    3    0  502 -0.58192694963E+03 -0.50284853821E+03 -0.19018784818E+04  0.20515017613E+04  0.46999998093E+01 0.  1.
</event>
<event>
 5   0  0.4756705E-05  0.2414943E+04  0.7818609E-02  0.8433930E-01
        2   -1    0    0  501    0  0.00000000000E+00  0.00000000000E+00  0.16317295721E+04  0.16317295721E+04  0.25500000920E-02 0.  1.
       -2   -1    0    0    0  501  0.00000000000E+00  0.00000000000E+00 -0.89352294690E+03  0.89352294690E+03  0.25500000920E-02 0. -1.
    10030    2    1    2    0    0  0.00000000000E+00  0.00000000000E+00  0.73820662518E+03  0.25252525190E+04  0.24149433250E+04 0.  0.
        3    1    3    3  502    0 -0.45234269481E+03 -0.11174228281E+04  0.44109665203E+03  0.12836720598E+04  0.10100000352E+00 0.  1.
       -3    1    3    3    0  502  0.45234269481E+03  0.11174228281E+04  0.29710997315E+03  0.12415804592E+04  0.10100000352E+00 0. -1.
</event>
<event>
 5   0  0.4664127E-05  0.2465620E+04  0.7818609E-02  0.8415337E-01
       -2   -1    0    0    0  501  0.00000000000E+00  0.00000000000E+00  0.87361583820E+03  0.87361583820E+03  0.25500000920E-02 0. -1.
        2   -1    0    0  501    0  0.00000000000E+00  0.00000000000E+00 -0.17396896635E+04  0.17396896635E+04  0.25500000920E-02 0.  1.
    10030    2    1    2    0    0  0.00000000000E+00  0.00000000000E+00 -0.86607382529E+03  0.26133055017E+04  0.24656199574E+04 0.  0.
        4    1    3    3  502    0 -0.39245179591E+03  0.24295889557E+03  0.77857589497E+03  0.90511296211E+03  0.12699999809E+01 0. -1.
       -4    1    3    3    0  502  0.39245179591E+03 -0.24295889557E+03 -0.16446497203E+04  0.17081925396E+04  0.12699999809E+01 0.  1.
</event>
<event>
 5   0  0.4713971E-05  0.2389071E+04  0.7818609E-02  0.8443606E-01
        2   -1    0    0  501    0  0.00000000000E+00  0.00000000000E+00  0.16953984466E+04  0.16953984466E+04  0.25500000920E-02 0. -1.
       -2   -1    0    0    0  501  0.00000000000E+00  0.00000000000E+00 -0.84164025143E+03  0.84164025144E+03  0.25500000920E-02 0.  1.
    10030    2    1    2    0    0  0.00000000000E+00  0.00000000000E+00  0.85375819516E+03  0.25370386980E+04  0.23890714304E+04 0.  0.
        5    1    3    3  502    0  0.46341238743E+03 -0.10454928107E+04  0.60415747037E+02  0.11451979787E+04  0.46999998093E+01 0.  1.
       -5    1    3    3    0  502 -0.46341238743E+03  0.10454928107E+04  0.79334244812E+03  0.13918407193E+04  0.46999998093E+01 0. -1.
</event>
<event>
 5   0  0.2149920E-05  0.2403804E+04  0.7818609E-02  0.8438081E-01
        1   -1    0    0  501    0  0.00000000000E+00  0.00000000000E+00  0.14669536142E+04  0.14669536142E+04  0.50400001928E-02 0. -1.
       -1   -1    0    0    0  501  0.00000000000E+00  0.00000000000E+00 -0.98474022344E+03  0.98474022345E+03  0.50400001928E-02 0.  1.
    10030    2    1    2    0    0  0.00000000000E+00  0.00000000000E+00  0.48221339076E+03  0.24516938377E+04  0.24038038438E+04 0.  0.
        5    1    3    3  502    0 -0.83981111996E+03 -0.65509793539E+01  0.11180150614E+04  0.13983223520E+04  0.46999998093E+01 0. -1.
       -5    1    3    3    0  502  0.83981111996E+03  0.65509793539E+01 -0.63580167061E+03  0.10533714857E+04  0.46999998093E+01 0.  1.
</event>
<event>
 5   0  0.4756705E-05  0.2364103E+04  0.7818609E-02  0.8453067E-01
        2   -1    0    0  501    0  0.00000000000E+00  0.00000000000E+00  0.15923359946E+04  0.15923359946E+04  0.25500000920E-02 0. -1.
       -2   -1    0    0    0  501  0.00000000000E+00  0.00000000000E+00 -0.87748138471E+03  0.87748138472E+03  0.25500000920E-02 0.  1.
    10030    2    1    2    0    0  0.00000000000E+00  0.00000000000E+00  0.71485460992E+03  0.24698173793E+04  0.23641025303E+04 0.  0.
        3    1    3    3  502    0  0.37861701880E+02 -0.11615840098E+04  0.58279151857E+03  0.13001372561E+04  0.10100000352E+00 0. -1.
       -3    1    3    3    0  502 -0.37861701880E+02  0.11615840098E+04  0.13206309135E+03  0.11696801232E+04  0.10100000352E+00 0.  1.
</event>
<event>
 5   0  0.4856882E-05  0.2422800E+04  0.7818609E-02  0.8431017E-01
       -2   -1    0    0    0  501  0.00000000000E+00  0.00000000000E+00  0.98886165964E+03  0.98886165964E+03  0.25500000920E-02 0. -1.
        2   -1    0    0  501    0  0.00000000000E+00  0.00000000000E+00 -0.14840195899E+04  0.14840195899E+04  0.25500000920E-02 0.  1.
    10030    2    1    2    0    0  0.00000000000E+00  0.00000000000E+00 -0.49515793027E+03  0.24728812496E+04  0.24228000946E+04 0.  0.
        1    1    3    3  502    0 -0.22234930693E+03  0.60487893659E+03 -0.12945366243E+04  0.14460784259E+04  0.50400001928E-02 0.  1.
       -1    1    3    3    0  502  0.22234930693E+03 -0.60487893659E+03  0.79937869401E+03  0.10268028237E+04  0.50400001928E-02 0. -1.
</event>
<event>
 5   0  0.4664127E-05  0.2358003E+04  0.7818609E-02  0.8455396E-01
       -2   -1    0    0    0  501  0.00000000000E+00  0.00000000000E+00  0.11918473569E+04  0.11918473570E+04  0.25500000920E-02 0. -1.
        2   -1    0    0  501    0  0.00000000000E+00  0.00000000000E+00 -0.11662939198E+04  0.11662939198E+04  0.25500000920E-02 0.  1.
    10030    2    1    2    0    0  0.00000000000E+00  0.00000000000E+00  0.25553437128E+02  0.23581412768E+04  0.23580028208E+04 0.  0.
        4    1    3    3  502    0  0.71683064366E+03  0.31320402935E+03 -0.86937471739E+03  0.11695114141E+04  0.12699999809E+01 0.  1.
       -4    1    3    3    0  502 -0.71683064366E+03 -0.31320402935E+03  0.89492815451E+03  0.11886298626E+04  0.12699999809E+01 0. -1.
</event>
<event>
 5   0  0.4856882E-05  0.2396987E+04  0.7818609E-02  0.8440632E-01
       -2   -1    0    0    0  501  0.00000000000E+00  0.00000000000E+00  0.14938184358E+04  0.14938184358E+04  0.25500000920E-02 0.  1.
        2   -1    0    0  501    0  0.00000000000E+00  0.00000000000E+00 -0.96155383277E+03  0.96155383277E+03  0.25500000920E-02 0. -1.
    10030    2    1    2    0    0  0.00000000000E+00  0.00000000000E+00  0.53226460305E+03  0.24553722686E+04  0.23969871443E+04 0.  0.
        1    1    3    3  502    0  0.92086138645E+02 -0.31182340952E+03 -0.91551355966E+03  0.97153423697E+03  0.50400001928E-02 0. -1.
       -1    1    3    3    0  502 -0.92086138645E+02  0.31182340952E+03  0.14477781627E+04  0.14838380316E+04  0.50400001928E-02 0.  1.
</event>
<event>
 5   0  0.4756705E-05  0.2482813E+04  0.7818609E-02  0.8409134E-01
        2   -1    0    0  501    0  0.00000000000E+00  0.00000000000E+00  0.10575994322E+04  0.10575994322E+04  0.25500000920E-02 0. -1.
       -2   -1    0    0    0  501  0.00000000000E+00  0.00000000000E+00 -0.14571587348E+04  0.14571587348E+04  0.25500000920E-02 0.  1.
    10030    2    1    2    0    0  0.00000000000E+00  0.00000000000E+00 -0.39955930262E+03  0.25147581670E+04  0.24828131227E+04 0.  0.
        3    1    3    3  502    0  0.13127741405E+03  0.78036638080E+03 -0.11685824829E+04  0.14113080731E+04  0.10100000352E+00 0.  1.
       -3    1    3    3    0  502 -0.13127741405E+03 -0.78036638080E+03  0.76902318024E+03  0.11034500939E+04  0.10100000352E+00 0. -1.
</event>
<event>
 5   0  0.4914005E-05  0.2386588E+04  0.7818609E-02  0.8444542E-01
        2   -1    0    0  501    0  0.00000000000E+00  0.00000000000E+00  0.80388726164E+03  0.80388726164E+03  0.25500000920E-02 0. -1.
       -2   -1    0    0    0  501  0.00000000000E+00  0.00000000000E+00 -0.17713314824E+04  0.17713314824E+04  0.25500000920E-02 0.  1.
    10030    2    1    2    0    0  0.00000000000E+00  0.00000000000E+00 -0.96744422073E+03  0.25752187440E+04  0.23865882048E+04 0.  0.
        2    1    3    3  502    0 -0.68760350206E+03 -0.93433397851E+03 -0.18203069260E+03  0.11742715753E+04  0.25500000920E-02 0. -1.
       -2    1    3    3    0  502  0.68760350206E+03  0.93433397851E+03 -0.78541352813E+03  0.14009471687E+04  0.25500000920E-02 0.  1.
</event>
<event>
 5   0  0.4856882E-05  0.2446337E+04  0.7818609E-02  0.8422357E-01
        2   -1    0    0  501    0  0.00000000000E+00  0.00000000000E+00  0.19589780882E+04  0.19589780882E+04  0.25500000920E-02 0.  1.
       -2   -1    0    0    0  501  0.00000000000E+00  0.00000000000E+00 -0.76373559505E+03  0.76373559506E+03  0.25500000920E-02 0. -1.
    10030    2    1    2    0    0  0.00000000000E+00  0.00000000000E+00  0.11952424931E+04  0.27227136832E+04  0.24463370952E+04 0.  0.
        1    1    3    3  502    0  0.38891475066E+03  0.64141290499E+03 -0.47769764120E+03  0.88930322973E+03  0.50400001928E-02 0. -1.
       -1    1    3    3    0  502 -0.38891475066E+03 -0.64141290499E+03  0.16729401343E+04  0.18334104535E+04  0.50400001928E-02 0.  1.
</event>
<event>
 5   0  0.4914005E-05  0.2289189E+04  0.7818609E-02  0.8482196E-01
       -2   -1    0    0    0  501  0.00000000000E+00  0.00000000000E+00  0.10311502312E+04  0.10311502312E+04  0.25500000920E-02 0. -1.
        2   -1    0    0  501    0  0.00000000000E+00  0.00000000000E+00 -0.12705192021E+04  0.12705192021E+04  0.25500000920E-02 0.  1.
    10030    2    1    2    0    0  0.00000000000E+00  0.00000000000E+00 -0.23936897086E+03  0.23016694333E+04  0.22891886501E+04 0.  0.
        2    1    3    3  502    0 -0.59524179924E+03  0.21094177375E+03  0.84013362181E+03  0.10510155727E+04  0.25500000920E-02 0. -1.
       -2    1    3    3    0  502  0.59524179924E+03 -0.21094177375E+03 -0.10795025927E+04  0.12506538606E+04  0.25500000920E-02 0.  1.
</event>
<event>
 5   0  0.2090039E-05  0.2439289E+04  0.7818609E-02  0.8424939E-01
       -1   -1    0    0    0  501  0.00000000000E+00  0.00000000000E+00  0.89141266306E+03  0.89141266308E+03  0.50400001928E-02 0.  1.
        1   -1    0    0  501    0  0.00000000000E+00  0.00000000000E+00 -0.16687367547E+04  0.16687367547E+04  0.50400001928E-02 0. -1.
    10030    2    1    2    0    0  0.00000000000E+00  0.00000000000E+00 -0.77732409160E+03  0.25601494177E+04  0.24392893018E+04 0.  0.
        1    1    3    3  502    0  0.72816421880E+03  0.35532953529E+03  0.56812614181E+03  0.98957037204E+03  0.50400001928E-02 0.  1.
       -1    1    3    3    0  502 -0.72816421880E+03 -0.35532953529E+03 -0.13454502334E+04  0.15705790457E+04  0.50400001928E-02 0. -1.
</event>
<event>
 5   0  0.2139556E-05  0.2389694E+04  0.7818609E-02  0.8443372E-01
        1   -1    0    0  501    0  0.00000000000E+00  0.00000000000E+00  0.17197952286E+04  0.17197952286E+04  0.50400001928E-02 0. -1.
       -1   -1    0    0    0  501  0.00000000000E+00  0.00000000000E+00 -0.83013345757E+03  0.83013345758E+03  0.50400001928E-02 0.  1.
    10030    2    1    2    0    0  0.00000000000E+00  0.00000000000E+00  0.88966177101E+03  0.25499286862E+04  0.23896941724E+04 0.  0.
        2    1    3    3  502    0  0.12917654776E+03  0.16383210151E+03  0.17002087545E+04  0.17129615719E+04  0.25500000920E-02 0. -1.
       -2    1    3    3    0  502 -0.12917654776E+03 -0.16383210151E+03 -0.81054698346E+03  0.83696711428E+03  0.25500000920E-02 0.  1.
</event>
<event>
 5   0  0.2057599E-05  0.2413711E+04  0.7818609E-02  0.8434388E-01
        1   -1    0    0  501    0  0.00000000000E+00  0.00000000000E+00  0.15869781632E+04  0.15869781632E+04  0.50400001928E-02 0. -1.
       -1   -1    0    0    0  501  0.00000000000E+00  0.00000000000E+00 -0.91778205591E+03  0.91778205593E+03  0.50400001928E-02 0.  1.
    10030    2    1    2    0    0  0.00000000000E+00  0.00000000000E+00  0.66919610725E+03  0.25047602191E+04  0.24137109034E+04 0.  0.
        4    1    3    3  502    0  0.89472037362E+03 -0.59556696752E+03 -0.23499104117E+03  0.11002031458E+04  0.12699999809E+01 0.  1.
       -4    1    3    3    0  502 -0.89472037362E+03  0.59556696752E+03  0.90418714842E+03  0.14045570733E+04  0.12699999809E+01 0. -1.
</event>
<event>
 5   0  0.2149920E-05  0.2589443E+04  0.7818609E-02  0.8371796E-01
       -1   -1    0    0    0  501  0.00000000000E+00  0.00000000000E+00  0.16516818305E+04  0.16516818305E+04  0.50400001928E-02 0. -1.
        1   -1    0    0  501    0  0.00000000000E+00  0.00000000000E+00 -0.10149070421E+04  0.10149070421E+04  0.50400001928E-02 0.  1.
    10030    2    1    2    0    0  0.00000000000E+00  0.00000000000E+00  0.63677478840E+03  0.26665888726E+04  0.25894428135E+04 0.  0.
        5    1    3    3  502    0 -0.64780171266E+03 -0.65159010304E+03 -0.62096444406E+03  0.11089795544E+04  0.46999998093E+01 0.  1.
       -5    1    3    3    0  502  0.64780171266E+03  0.65159010304E+03  0.12577392325E+04  0.15576093182E+04  0.46999998093E+01 0. -1.
</event>
<event>
 5   0  0.4756705E-05  0.2426546E+04  0.7818609E-02  0.8429631E-01
        2   -1    0    0  501    0  0.00000000000E+00  0.00000000000E+00  0.20888700387E+04  0.20888700387E+04  0.25500000920E-02 0. -1.
       -2   -1    0    0    0  501  0.00000000000E+00  0.00000000000E+00 -0.70470225407E+03  0.70470225407E+03  0.25500000920E-02 0.  1.
    10030    2    1    2    0    0  0.00000000000E+00  0.00000000000E+00  0.13841677846E+04  0.27935722927E+04  0.24265460430E+04 0.  0.
        3    1    3    3  502    0  0.59709012125E+03  0.14915292365E+02  0.19078939651E+04  0.19991994576E+04  0.10100000352E+00 0. -1.
       -3    1    3    3    0  502 -0.59709012125E+03 -0.14915292365E+02 -0.52372618054E+03  0.79437283515E+03  0.10100000352E+00 0.  1.
</event>
<event>
 5   0  0.4756705E-05  0.2422906E+04  0.7818609E-02  0.8430977E-01
        2   -1    0    0  501    0  0.00000000000E+00  0.00000000000E+00  0.20692739963E+04  0.20692739963E+04  0.25500000920E-02 0.  1.
       -2   -1    0    0    0  501  0.00000000000E+00  0.00000000000E+00 -0.70924341111E+03  0.70924341111E+03  0.25500000920E-02 0. -1.
    10030    2    1    2    0    0  0.00000000000E+00  0.00000000000E+00  0.13600305852E+04  0.27785174074E+04  0.24229064758E+04 0.  0.
        3    1    3    3  502    0 -0.83211748270E+03  0.88038039938E+03  0.66695092248E+03  0.13828639470E+04  0.10100000352E+00 0.  1.
       -3    1    3    3    0  502  0.83211748270E+03 -0.88038039938E+03  0.69307966274E+03  0.13956534605E+04  0.10100000352E+00 0. -1.
</event>
<event>
 5   0  0.2065692E-05  0.2435518E+04  0.7818609E-02  0.8426325E-01
       -1   -1    0    0    0  501  0.00000000000E+00  0.00000000000E+00  0.11556253450E+04  0.11556253450E+04  0.50400001928E-02 0. -1.
        1   -1    0    0  501    0  0.00000000000E+00  0.00000000000E+00 -0.12832332450E+04  0.12832332450E+04  0.50400001928E-02 0.  1.
    10030    2    1    2    0    0  0.00000000000E+00  0.00000000000E+00 -0.12760789997E+03  0.24388585900E+04  0.24355179009E+04 0.  0.
        3    1    3    3  502    0  0.74748645127E+03 -0.21859738088E+03 -0.10012589998E+04  0.12684795641E+04  0.10100000352E+00 0.  1.
       -3    1    3    3    0  502 -0.74748645127E+03  0.21859738088E+03  0.87365109980E+03  0.11703790258E+04  0.10100000352E+00 0. -1.
</event>
<event>
 5   0  0.2057599E-05  0.2182357E+04  0.7818609E-02  0.8525808E-01
        1   -1    0    0  501    0  0.00000000000E+00  0.00000000000E+00  0.49919572806E+03  0.49919572808E+03  0.50400001928E-02 0. -1.
       -1   -1    0    0    0  501  0.00000000000E+00  0.00000000000E+00 -0.23851774634E+04  0.23851774634E+04  0.50400001928E-02 0.  1.
    10030    2    1    2    0    0  0.00000000000E+00  0.00000000000E+00 -0.18859817353E+04  0.28843731915E+04  0.21823568915E+04 0.  0.
        4    1    3    3  502    0  0.10018452071E+04 -0.11404783337E+03 -0.39172584640E+03  0.10817354015E+04  0.12699999809E+01 0. -1.
       -4    1    3    3    0  502 -0.10018452071E+04  0.11404783337E+03 -0.14942558889E+04  0.18026377899E+04  0.12699999809E+01 0.  1.
</event>
<event>
 5   0  0.2149920E-05  0.2348076E+04  0.7818609E-02  0.8459203E-01
        1   -1    0    0  501    0  0.00000000000E+00  0.00000000000E+00  0.19136644935E+04  0.19136644935E+04  0.50400001928E-02 0.  1.
       -1   -1    0    0    0  501  0.00000000000E+00  0.00000000000E+00 -0.72027518195E+03  0.72027518196E+03  0.50400001928E-02 0. -1.
    10030    2    1    2    0    0  0.00000000000E+00  0.00000000000E+00  0.11933893116E+04  0.26339396755E+04  0.23480758431E+04 0.  0.
        5    1    3    3  502    0  0.27576668061E+03  0.25237477301E+03 -0.65172244316E+03  0.75133515897E+03  0.46999998093E+01 0. -1.
       -5    1    3    3    0  502 -0.27576668061E+03 -0.25237477301E+03  0.18451117547E+04  0.18826045165E+04  0.46999998093E+01 0.  1.
</event>
<event>
 5   0  0.4664127E-05  0.2490614E+04  0.7818609E-02  0.8406337E-01
       -2   -1    0    0    0  501  0.00000000000E+00  0.00000000000E+00  0.10204217937E+04  0.10204217937E+04  0.25500000920E-02 0. -1.
        2   -1    0    0  501    0  0.00000000000E+00  0.00000000000E+00 -0.15197537582E+04  0.15197537582E+04  0.25500000920E-02 0.  1.
    10030    2    1    2    0    0  0.00000000000E+00  0.00000000000E+00 -0.49933196449E+03  0.25401755520E+04  0.24906142664E+04 0.  0.
        4    1    3    3  502    0 -0.65148798613E+03 -0.74687331302E+03  0.51934878537E+03  0.11189196198E+04  0.12699999809E+01 0. -1.
       -4    1    3    3    0  502  0.65148798613E+03  0.74687331302E+03 -0.10186807499E+04  0.14212559322E+04  0.12699999809E+01 0.  1.
</event>
<event>
 5   0  0.4664127E-05  0.2366421E+04  0.7818609E-02  0.8452183E-01
        2   -1    0    0  501    0  0.00000000000E+00  0.00000000000E+00  0.13651636968E+04  0.13651636968E+04  0.25500000920E-02 0.  1.
       -2   -1    0    0    0  501  0.00000000000E+00  0.00000000000E+00 -0.10255087806E+04  0.10255087806E+04  0.25500000920E-02 0. -1.
    10030    2    1    2    0    0  0.00000000000E+00  0.00000000000E+00  0.33965491618E+03  0.23906724774E+04  0.23664212288E+04 0.  0.
        4    1    3    3  502    0 -0.46384572474E+03  0.10502087026E+04  0.45893244423E+03  0.12364108446E+04  0.12699999809E+01 0.  1.
       -4    1    3    3    0  502  0.46384572474E+03 -0.10502087026E+04 -0.11927752805E+03  0.11542616328E+04  0.12699999809E+01 0. -1.
</event>
<event>
 5   0  0.4756705E-05  0.2373282E+04  0.7818609E-02  0.8449575E-01
        2   -1    0    0  501    0  0.00000000000E+00  0.00000000000E+00  0.13746907201E+04  0.13746907201E+04  0.25500000920E-02 0. -1.
       -2   -1    0    0    0  501  0.00000000000E+00  0.00000000000E+00 -0.10243152592E+04  0.10243152592E+04  0.25500000920E-02 0.  1.
    10030    2    1    2    0    0  0.00000000000E+00  0.00000000000E+00  0.35037546090E+03  0.23990059793E+04  0.23732818469E+04 0.  0.
        3    1    3    3  502    0  0.82462216887E+03 -0.38719191451E+03  0.94382257658E+03  0.13117623132E+04  0.10100000352E+00 0. -1.
       -3    1    3    3    0  502 -0.82462216887E+03  0.38719191451E+03 -0.59344711568E+03  0.10872436661E+04  0.10100000352E+00 0.  1.
</event>
<event>
 5   0  0.2090039E-05  0.2420743E+04  0.7818609E-02  0.8431778E-01
       -1   -1    0    0    0  501  0.00000000000E+00  0.00000000000E+00  0.68756120466E+03  0.68756120468E+03  0.50400001928E-02 0.  1.
        1   -1    0    0  501    0  0.00000000000E+00  0.00000000000E+00 -0.21307190567E+04  0.21307190567E+04  0.50400001928E-02 0. -1.
    10030    2    1    2    0    0  0.00000000000E+00  0.00000000000E+00 -0.14431578520E+04  0.28182802614E+04  0.24207434903E+04 0.  0.
        1    1    3    3  502    0  0.12002673253E+04  0.28115142016E+02 -0.54285054244E+03  0.13176186189E+04  0.50400001928E-02 0.  1.
       -1    1    3    3    0  502 -0.12002673253E+04 -0.28115142016E+02 -0.90030730958E+03  0.15006616425E+04  0.50400001928E-02 0. -1.
</event>
<event>
 5   0  0.4664127E-05  0.2396619E+04  0.7818609E-02  0.8440770E-01
       -2   -1    0    0    0  501  0.00000000000E+00  0.00000000000E+00  0.76526718674E+03  0.76526718675E+03  0.25500000920E-02 0.  1.
        2   -1    0    0  501    0  0.00000000000E+00  0.00000000000E+00 -0.18763977495E+04  0.18763977495E+04  0.25500000920E-02 0. -1.
    10030    2    1    2    0    0  0.00000000000E+00  0.00000000000E+00 -0.11111305628E+04  0.26416649363E+04  0.23966189743E+04 0.  0.
        4    1    3    3  502    0  0.88800587460E+03  0.70392800265E+03 -0.98512327903E+03  0.15015120892E+04  0.12699999809E+01 0. -1.
       -4    1    3    3    0  502 -0.88800587460E+03 -0.70392800265E+03 -0.12600728376E+03  0.11401528471E+04  0.12699999809E+01 0.  1.
</event>
<event>
 5   0  0.2057599E-05  0.2399645E+04  0.7818609E-02  0.8439636E-01
        1   -1    0    0  501    0  0.00000000000E+00  0.00000000000E+00  0.25106749190E+04  0.25106749190E+04  0.50400001928E-02 0.  1.
       -1   -1    0    0    0  501  0.00000000000E+00  0.00000000000E+00 -0.57338152307E+03  0.57338152309E+03  0.50400001928E-02 0. -1.
    10030    2    1    2    0    0  0.00000000000E+00  0.00000000000E+00  0.19372933959E+04  0.30840564421E+04  0.23996454813E+04 0.  0.
        4    1    3    3  502    0 -0.50520179076E+03  0.24464966815E+03 -0.39421932455E+03  0.68592477595E+03  0.12699999809E+01 0. -1.
       -4    1    3    3    0  502  0.50520179076E+03 -0.24464966815E+03  0.23315127205E+04  0.23981316661E+04  0.12699999809E+01 0.  1.
</event>
<event>
 5   0  0.4856882E-05  0.2024547E+04  0.7818609E-02  0.8595229E-01
        2   -1    0    0  501    0  0.00000000000E+00  0.00000000000E+00  0.13132014867E+04  0.13132014867E+04  0.25500000920E-02 0.  1.
       -2   -1    0    0    0  501  0.00000000000E+00  0.00000000000E+00 -0.78030489552E+03  0.78030489552E+03  0.25500000920E-02 0. -1.
    10030    2    1    2    0    0  0.00000000000E+00  0.00000000000E+00  0.53289659113E+03  0.20935063822E+04  0.20245469111E+04 0.  0.
        1    1    3    3  502    0  0.48920659837E+03  0.64606745771E+03 -0.36082011127E+03  0.88708365362E+03  0.50400001928E-02 0. -1.
       -1    1    3    3    0  502 -0.48920659837E+03 -0.64606745771E+03  0.89371670240E+03  0.12064227286E+04  0.50400001928E-02 0.  1.
</event>
<event>
 5   0  0.4713971E-05  0.2374328E+04  0.7818609E-02  0.8449178E-01
        2   -1    0    0  501    0  0.00000000000E+00  0.00000000000E+00  0.69339913824E+03  0.69339913824E+03  0.25500000920E-02 0. -1.
       -2   -1    0    0    0  501  0.00000000000E+00  0.00000000000E+00 -0.20325358217E+04  0.20325358217E+04  0.25500000920E-02 0.  1.
    10030    2    1    2    0    0  0.00000000000E+00  0.00000000000E+00 -0.13391366834E+04  0.27259349599E+04  0.23743281889E+04 0.  0.
        5    1    3    3  502    0  0.83251277496E+02 -0.85087017326E+03  0.27607175124E+03  0.89841445267E+03  0.46999998093E+01 0. -1.
       -5    1    3    3    0  502 -0.83251277496E+02  0.85087017326E+03 -0.16152084347E+04  0.18275205072E+04  0.46999998093E+01 0.  1.
</event>
<event>
 5   0  0.2090039E-05  0.2384346E+04  0.7818609E-02  0.8445388E-01
       -1   -1    0    0    0  501  0.00000000000E+00  0.00000000000E+00  0.78150889689E+03  0.78150889691E+03  0.50400001928E-02 0.  1.
        1   -1    0    0  501    0  0.00000000000E+00  0.00000000000E+00 -0.18186310215E+04  0.18186310215E+04  0.50400001928E-02 0. -1.
    10030    2    1    2    0    0  0.00000000000E+00  0.00000000000E+00 -0.10371221246E+04  0.26001399184E+04  0.23843458839E+04 0.  0.
        1    1    3    3  502    0  0.71056509843E+03  0.94099736675E+03 -0.71024656783E+03  0.13765278749E+04  0.50400001928E-02 0. -1.
       -1    1    3    3    0  502 -0.71056509843E+03 -0.94099736675E+03 -0.32687555680E+03  0.12236120435E+04  0.50400001928E-02 0.  1.
</event>
<event>
 5   0  0.2090039E-05  0.2413606E+04  0.7818609E-02  0.8434427E-01
       -1   -1    0    0    0  501  0.00000000000E+00  0.00000000000E+00  0.87186858308E+03  0.87186858310E+03  0.50400001928E-02 0. -1.
        1   -1    0    0  501    0  0.00000000000E+00  0.00000000000E+00 -0.16704050189E+04  0.16704050190E+04  0.50400001928E-02 0.  1.
    10030    2    1    2    0    0  0.00000000000E+00  0.00000000000E+00 -0.79853643587E+03  0.25422736021E+04  0.24136061461E+04 0.  0.
        1    1    3    3  502    0  0.14512193613E+03 -0.11175289665E+04 -0.85407622179E+03  0.14139934794E+04  0.50400001928E-02 0.  1.
       -1    1    3    3    0  502 -0.14512193613E+03  0.11175289665E+04  0.55539785920E+02  0.11282801226E+04  0.50400001928E-02 0. -1.
</event>
<event>
 5   0  0.2057599E-05  0.2322040E+04  0.7818609E-02  0.8469281E-01
        1   -1    0    0  501    0  0.00000000000E+00  0.00000000000E+00  0.15323381136E+04  0.15323381136E+04  0.50400001928E-02 0.  1.
       -1   -1    0    0    0  501  0.00000000000E+00  0.00000000000E+00 -0.87968048121E+03  0.87968048122E+03  0.50400001928E-02 0. -1.
    10030    2    1    2    0    0  0.00000000000E+00  0.00000000000E+00  0.65265763243E+03  0.24120185949E+04  0.23220404210E+04 0.  0.
        4    1    3    3  502    0  0.41243738269E+03  0.10845637707E+04  0.28499821208E+03  0.11948258288E+04  0.12699999809E+01 0. -1.
       -4    1    3    3    0  502 -0.41243738269E+03 -0.10845637707E+04  0.36765942035E+03  0.12171927660E+04  0.12699999809E+01 0.  1.
</event>
<event>
 5   0  0.4664127E-05  0.2366806E+04  0.7818609E-02  0.8452036E-01
       -2   -1    0    0    0  501  0.00000000000E+00  0.00000000000E+00  0.13897911591E+04  0.13897911591E+04  0.25500000920E-02 0. -1.
        2   -1    0    0  501    0  0.00000000000E+00  0.00000000000E+00 -0.10076644017E+04  0.10076644017E+04  0.25500000920E-02 0.  1.
    10030    2    1    2    0    0  0.00000000000E+00  0.00000000000E+00  0.38212675749E+03  0.23974555608E+04  0.23668063519E+04 0.  0.
        4    1    3    3  502    0 -0.72152371008E+03  0.35025885491E+03  0.10724830565E+04  0.13392159083E+04  0.12699999809E+01 0. -1.
       -4    1    3    3    0  502  0.72152371008E+03 -0.35025885491E+03 -0.69035629901E+03  0.10582396525E+04  0.12699999809E+01 0.  1.
</event>
<event>
 5   0  0.2090039E-05  0.2404427E+04  0.7818609E-02  0.8437848E-01
        1   -1    0    0  501    0  0.00000000000E+00  0.00000000000E+00  0.10062739010E+04  0.10062739010E+04  0.50400001928E-02 0.  1.
       -1   -1    0    0    0  501  0.00000000000E+00  0.00000000000E+00 -0.14363060843E+04  0.14363060843E+04  0.50400001928E-02 0. -1.
    10030    2    1    2    0    0  0.00000000000E+00  0.00000000000E+00 -0.43003218334E+03  0.24425799853E+04  0.24044270224E+04 0.  0.
        1    1    3    3  502    0  0.38649225597E+03 -0.33551193318E+03  0.89007476662E+03  0.10267315187E+04  0.50400001928E-02 0.  1.
       -1    1    3    3    0  502 -0.38649225597E+03  0.33551193318E+03 -0.13201069500E+04  0.14158484667E+04  0.50400001928E-02 0. -1.
</event>
<event>
 5   0  0.4856882E-05  0.2391120E+04  0.7818609E-02  0.8442836E-01
        2   -1    0    0  501    0  0.00000000000E+00  0.00000000000E+00  0.11575120240E+04  0.11575120240E+04  0.25500000920E-02 0.  1.
       -2   -1    0    0    0  501  0.00000000000E+00  0.00000000000E+00 -0.12348583691E+04  0.12348583691E+04  0.25500000920E-02 0. -1.
    10030    2    1    2    0    0  0.00000000000E+00  0.00000000000E+00 -0.77346345063E+02  0.23923703931E+04  0.23911197462E+04 0.  0.
        1    1    3    3  502    0 -0.10452739610E+04 -0.46018131454E+03 -0.39240994893E+03  0.12076216559E+04  0.50400001928E-02 0. -1.
       -1    1    3    3    0  502  0.10452739610E+04  0.46018131454E+03  0.31506360387E+03  0.11847487372E+04  0.50400001928E-02 0.  1.
</event>
<event>
 5   0  0.1672125E-05  0.2407214E+04  0.7818609E-02  0.8436808E-01
       -3   -1    0    0    0  501  0.00000000000E+00  0.00000000000E+00  0.94332073669E+03  0.94332074209E+03  0.10100000352E+00 0. -1.
        3   -1    0    0  501    0  0.00000000000E+00  0.00000000000E+00 -0.15357127854E+04  0.15357127887E+04  0.10100000352E+00 0.  1.
    10030    2    1    2    0    0  0.00000000000E+00  0.00000000000E+00 -0.59239204867E+03  0.24790335308E+04  0.24072139305E+04 0.  0.
        5    1    3    3  502    0 -0.95159678799E+03 -0.72933736677E+03 -0.18731465831E+03  0.12134983777E+04  0.46999998093E+01 0.  1.
       -5    1    3    3    0  502  0.95159678799E+03  0.72933736677E+03 -0.40507739036E+03  0.12655351531E+04  0.46999998093E+01 0. -1.
</event>
<event>
 5   0  0.2149920E-05  0.2378366E+04  0.7818609E-02  0.8447648E-01
       -1   -1    0    0    0  501  0.00000000000E+00  0.00000000000E+00  0.77031361489E+03  0.77031361490E+03  0.50400001928E-02 0.  1.
        1   -1    0    0  501    0  0.00000000000E+00  0.00000000000E+00 -0.18358182045E+04  0.18358182045E+04  0.50400001928E-02 0. -1.
    10030    2    1    2    0    0  0.00000000000E+00  0.00000000000E+00 -0.10655045896E+04  0.26061318194E+04  0.23783656215E+04 0.  0.
        5    1    3    3  502    0  0.37846637498E+03 -0.66456002959E+03  0.46509087893E+03  0.89510247769E+03  0.46999998093E+01 0.  1.
       -5    1    3    3    0  502 -0.37846637498E+03  0.66456002959E+03 -0.15305954686E+04  0.17110293417E+04  0.46999998093E+01 0. -1.
</event>
<event>
 5   0  0.4756705E-05  0.2419782E+04  0.7818609E-02  0.8432135E-01
       -2   -1    0    0    0  501  0.00000000000E+00  0.00000000000E+00  0.79814104384E+03  0.79814104385E+03  0.25500000920E-02 0. -1.
        2   -1    0    0  501    0  0.00000000000E+00  0.00000000000E+00 -0.18340563436E+04  0.18340563436E+04  0.25500000920E-02 0.  1.
    10030    2    1    2    0    0  0.00000000000E+00  0.00000000000E+00 -0.10359152997E+04  0.26321973874E+04  0.24197815146E+04 0.  0.
        3    1    3    3  502    0 -0.56088389170E+03 -0.32888258653E+03  0.59194423323E+03  0.87929089678E+03  0.10100000352E+00 0. -1.
       -3    1    3    3    0  502  0.56088389170E+03  0.32888258653E+03 -0.16278595330E+04  0.17529064907E+04  0.10100000352E+00 0.  1.
</event>
<event>
 5   0  0.2090039E-05  0.2378631E+04  0.7818609E-02  0.8447547E-01
        1   -1    0    0  501    0  0.00000000000E+00  0.00000000000E+00  0.18301131181E+04  0.18301131181E+04  0.50400001928E-02 0.  1.
       -1   -1    0    0    0  501  0.00000000000E+00  0.00000000000E+00 -0.77288770013E+03  0.77288770015E+03  0.50400001928E-02 0. -1.
    10030    2    1    2    0    0  0.00000000000E+00  0.00000000000E+00  0.10572254179E+04  0.26030008182E+04  0.23786314711E+04 0.  0.
        1    1    3    3  502    0 -0.10677929357E+03  0.39929849816E+03  0.17489865237E+04  0.17971630333E+04  0.50400001928E-02 0.  1.
       -1    1    3    3    0  502  0.10677929357E+03 -0.39929849816E+03 -0.69176110575E+03  0.80583778493E+03  0.50400001928E-02 0. -1.
</event>
<event>
 5   0  0.2149920E-05  0.2386805E+04  0.7818609E-02  0.8444460E-01
        1   -1    0    0  501    0  0.00000000000E+00  0.00000000000E+00  0.13366890237E+04  0.13366890237E+04  0.50400001928E-02 0.  1.
       -1   -1    0    0    0  501  0.00000000000E+00  0.00000000000E+00 -0.10654759020E+04  0.10654759020E+04  0.50400001928E-02 0. -1.
    10030    2    1    2    0    0  0.00000000000E+00  0.00000000000E+00  0.27121312167E+03  0.24021649257E+04  0.23868053488E+04 0.  0.
        5    1    3    3  502    0  0.47982339889E+03  0.38814150249E+03  0.11636019297E+04  0.13171468638E+04  0.46999998093E+01 0.  1.
       -5    1    3    3    0  502 -0.47982339889E+03 -0.38814150249E+03 -0.89238880799E+03  0.10850180619E+04  0.46999998093E+01 0. -1.
</event>
<event>
 5   0  0.4713971E-05  0.2406545E+04  0.7818609E-02  0.8437057E-01
        2   -1    0    0  501    0  0.00000000000E+00  0.00000000000E+00  0.23144398313E+04  0.23144398313E+04  0.25500000920E-02 0. -1.
       -2   -1    0    0    0  501  0.00000000000E+00  0.00000000000E+00 -0.62557890311E+03  0.62557890311E+03  0.25500000920E-02 0.  1.
    10030    2    1    2    0    0  0.00000000000E+00  0.00000000000E+00  0.16888609281E+04  0.29400187344E+04  0.24065450180E+04 0.  0.
        5    1    3    3  502    0 -0.11183046842E+04 -0.44267093498E+03  0.88813365710E+03  0.14951141783E+04  0.46999998093E+01 0.  1.
       -5    1    3    3    0  502  0.11183046842E+04  0.44267093498E+03  0.80072727105E+03  0.14449045560E+04  0.46999998093E+01 0. -1.
</event>
<event>
 5   0  0.2090039E-05  0.2502868E+04  0.7818609E-02  0.8401965E-01
       -1   -1    0    0    0  501  0.00000000000E+00  0.00000000000E+00  0.17433795071E+04  0.17433795071E+04  0.50400001928E-02 0. -1.
        1   -1    0    0  501    0  0.00000000000E+00  0.00000000000E+00 -0.89830507965E+03  0.89830507967E+03  0.50400001928E-02 0.  1.
    10030    2    1    2    0    0  0.00000000000E+00  0.00000000000E+00  0.84507442741E+03  0.26416845867E+04  0.25028676889E+04 0.  0.
        1    1    3    3  502    0 -0.14079654409E+03  0.90552259889E+03  0.13220319947E+04  0.16085905131E+04  0.50400001928E-02 0. -1.
       -1    1    3    3    0  502  0.14079654409E+03 -0.90552259889E+03 -0.47695756727E+03  0.10330940736E+04  0.50400001928E-02 0.  1.
</event>
<event>
 5   0  0.2149920E-05  0.2424165E+04  0.7818609E-02  0.8430512E-01
        1   -1    0    0  501    0  0.00000000000E+00  0.00000000000E+00  0.50123898890E+03  0.50123898892E+03  0.50400001928E-02 0. -1.
       -1   -1    0    0    0  501  0.00000000000E+00  0.00000000000E+00 -0.29310253384E+04  0.29310253384E+04  0.50400001928E-02 0.  1.
    10030    2    1    2    0    0  0.00000000000E+00  0.00000000000E+00 -0.24297863495E+04  0.34322643273E+04  0.24241651570E+04 0.  0.
        5    1    3    3  502    0 -0.92862680291E+03  0.56006552283E+02 -0.11485775585E+03  0.93738938924E+03  0.46999998093E+01 0. -1.
       -5    1    3    3    0  502  0.92862680291E+03 -0.56006552283E+02 -0.23149285936E+04  0.24948749381E+04  0.46999998093E+01 0.  1.
</event>
<event>
 5   0  0.2065692E-05  0.2421520E+04  0.7818609E-02  0.8431490E-01
        1   -1    0    0  501    0  0.00000000000E+00  0.00000000000E+00  0.20478329748E+04  0.20478329748E+04  0.50400001928E-02 0.  1.
       -1   -1    0    0    0  501  0.00000000000E+00  0.00000000000E+00 -0.71584950503E+03  0.71584950505E+03  0.50400001928E-02 0. -1.
    10030    2    1    2    0    0  0.00000000000E+00  0.00000000000E+00  0.13319834698E+04  0.27636824798E+04  0.24215203666E+04 0.  0.
        3    1    3    3  502    0 -0.34585562259E+03 -0.69419067483E+03  0.17271087493E+04  0.18932568360E+04  0.10100000352E+00 0.  1.
       -3    1    3    3    0  502  0.34585562259E+03  0.69419067483E+03 -0.39512527959E+03  0.87042564386E+03  0.10100000352E+00 0. -1.
</event>
<event>
 5   0  0.4664127E-05  0.2369990E+04  0.7818609E-02  0.8450825E-01
       -2   -1    0    0    0  501  0.00000000000E+00  0.00000000000E+00  0.10618392509E+04  0.10618392509E+04  0.25500000920E-02 0. -1.
        2   -1    0    0  501    0  0.00000000000E+00  0.00000000000E+00 -0.13224343318E+04  0.13224343318E+04  0.25500000920E-02 0.  1.
    10030    2    1    2    0    0  0.00000000000E+00  0.00000000000E+00 -0.26059508094E+03  0.23842735827E+04  0.23699896035E+04 0.  0.
        4    1    3    3  502    0  0.10222081866E+04  0.21434473082E+03  0.43286002066E+03  0.11305850922E+04  0.12699999809E+01 0. -1.
       -4    1    3    3    0  502 -0.10222081866E+04 -0.21434473082E+03 -0.69345510160E+03  0.12536884905E+04  0.12699999809E+01 0.  1.
</event>
<event>
 5   0  0.2139556E-05  0.2412607E+04  0.7818609E-02  0.8434799E-01
        1   -1    0    0  501    0  0.00000000000E+00  0.00000000000E+00  0.18573764453E+04  0.18573764453E+04  0.50400001928E-02 0. -1.
       -1   -1    0    0    0  501  0.00000000000E+00  0.00000000000E+00 -0.78345364216E+03  0.78345364217E+03  0.50400001928E-02 0.  1.
    10030    2    1    2    0    0  0.00000000000E+00  0.00000000000E+00  0.10739228032E+04  0.26408300875E+04  0.24126071715E+04 0.  0.
        2    1    3    3  502    0  0.97335918230E+02 -0.94343489281E+03  0.13528758098E+04  0.16522156744E+04  0.25500000920E-02 0. -1.
       -2    1    3    3    0  502 -0.97335918230E+02  0.94343489281E+03 -0.27895300662E+03  0.98861441313E+03  0.25500000920E-02 0.  1.
</event>
<event>
 5   0  0.1672125E-05  0.2398329E+04  0.7818609E-02  0.8440129E-01
       -3   -1    0    0    0  501  0.00000000000E+00  0.00000000000E+00  0.71451217499E+03  0.71451218213E+03  0.10100000352E+00 0. -1.
        3   -1    0    0  501    0  0.00000000000E+00  0.00000000000E+00 -0.20125562440E+04  0.20125562465E+04  0.10100000352E+00 0.  1.
    10030    2    1    2    0    0  0.00000000000E+00  0.00000000000E+00 -0.12980440690E+04  0.27270684287E+04  0.23983293789E+04 0.  0.
        1    1    3    3  502    0  0.75647822587E+03  0.23440029117E+03 -0.16728859647E+04  0.18508782384E+04  0.50400001928E-02 0. -1.
       -1    1    3    3    0  502 -0.75647822587E+03 -0.23440029117E+03  0.37484189564E+03  0.87619019024E+03  0.50400001928E-02 0.  1.
</event>
<event>
 5   0  0.4856882E-05  0.2443224E+04  0.7818609E-02  0.8423496E-01
       -2   -1    0    0    0  501  0.00000000000E+00  0.00000000000E+00  0.90880093264E+03  0.90880093265E+03  0.25500000920E-02 0.  1.
        2   -1    0    0  501    0  0.00000000000E+00  0.00000000000E+00 -0.16420928154E+04  0.16420928154E+04  0.25500000920E-02 0. -1.
    10030    2    1    2    0    0  0.00000000000E+00  0.00000000000E+00 -0.73329188278E+03  0.25508937481E+04  0.24432236755E+04 0.  0.
        1    1    3    3  502    0  0.10289767069E+04  0.98685616448E+02  0.31304494309E+03  0.10800597440E+04  0.50400001928E-02 0.  1.
       -1    1    3    3    0  502 -0.10289767069E+04 -0.98685616448E+02 -0.10463368259E+04  0.14708340040E+04  0.50400001928E-02 0. -1.
</event>
<event>
 5   0  0.4664127E-05  0.2380659E+04  0.7818609E-02  0.8446780E-01
       -2   -1    0    0    0  501  0.00000000000E+00  0.00000000000E+00  0.62484529522E+03  0.62484529522E+03  0.25500000920E-02 0. -1.
        2   -1    0    0  501    0  0.00000000000E+00  0.00000000000E+00 -0.22675757286E+04  0.22675757286E+04  0.25500000920E-02 0.  1.
    10030    2    1    2    0    0  0.00000000000E+00  0.00000000000E+00 -0.16427304334E+04  0.28924210238E+04  0.23806587538E+04 0.  0.
        4    1    3    3  502    0  0.11756584574E+03 -0.20988240613E+03  0.59500145135E+03  0.64179489909E+03  0.12699999809E+01 0. -1.
       -4    1    3    3    0  502 -0.11756584574E+03  0.20988240613E+03 -0.22377318847E+04  0.22506261247E+04  0.12699999809E+01 0.  1.
</event>
<event>
 5   0  0.4664127E-05  0.2325175E+04  0.7818609E-02  0.8468061E-01
        2   -1    0    0  501    0  0.00000000000E+00  0.00000000000E+00  0.13069390388E+04  0.13069390388E+04  0.25500000920E-02 0.  1.
       -2   -1    0    0    0  501  0.00000000000E+00  0.00000000000E+00 -0.10341796445E+04  0.10341796445E+04  0.25500000920E-02 0. -1.
    10030    2    1    2    0    0  0.00000000000E+00  0.00000000000E+00  0.27275939436E+03  0.23411186833E+04  0.23251750476E+04 0.  0.
        4    1    3    3  502    0  0.68508062324E+02 -0.10868482637E+04 -0.27344402978E+03  0.11228115395E+04  0.12699999809E+01 0. -1.
       -4    1    3    3    0  502 -0.68508062324E+02  0.10868482637E+04  0.54620342414E+03  0.12183071437E+04  0.12699999809E+01 0.  1.
</event>
<event>
 5   0  0.4664127E-05  0.2371798E+04  0.7818609E-02  0.8450138E-01
       -2   -1    0    0    0  501  0.00000000000E+00  0.00000000000E+00  0.16139934159E+04  0.16139934159E+04  0.25500000920E-02 0. -1.
        2   -1    0    0  501    0  0.00000000000E+00  0.00000000000E+00 -0.87135235221E+03  0.87135235221E+03  0.25500000920E-02 0.  1.
    10030    2    1    2    0    0  0.00000000000E+00  0.00000000000E+00  0.74264106373E+03  0.24853457682E+04  0.23717984395E+04 0.  0.
        4    1    3    3  502    0 -0.24534709025E+03 -0.35370390999E+03 -0.78659377443E+03  0.89667888874E+03  0.12699999809E+01 0.  1.
       -4    1    3    3    0  502  0.24534709025E+03  0.35370390999E+03  0.15292348382E+04  0.15886668794E+04  0.12699999809E+01 0. -1.
</event>
<event>
 5   0  0.4756705E-05  0.2402740E+04  0.7818609E-02  0.8438478E-01
       -2   -1    0    0    0  501  0.00000000000E+00  0.00000000000E+00  0.14683854285E+04  0.14683854285E+04  0.25500000920E-02 0.  1.
        2   -1    0    0  501    0  0.00000000000E+00  0.00000000000E+00 -0.98290945160E+03  0.98290945160E+03  0.25500000920E-02 0. -1.
    10030    2    1    2    0    0  0.00000000000E+00  0.00000000000E+00  0.48547597691E+03  0.24512948801E+04  0.24027400328E+04 0.  0.
        3    1    3    3  502    0 -0.43785177815E+03  0.76942582601E+03  0.10712824239E+04  0.13897396602E+04  0.10100000352E+00 0.  1.
       -3    1    3    3    0  502  0.43785177815E+03 -0.76942582601E+03 -0.58580644695E+03  0.10615552199E+04  0.10100000352E+00 0. -1.
</event>
<event>
 5   0  0.2065692E-05  0.2432430E+04  0.7818609E-02  0.8427461E-01
       -1   -1    0    0    0  501  0.00000000000E+00  0.00000000000E+00  0.18452071788E+04  0.18452071788E+04  0.50400001928E-02 0.  1.
        1   -1    0    0  501    0  0.00000000000E+00  0.00000000000E+00 -0.80163267007E+03  0.80163267009E+03  0.50400001928E-02 0. -1.
    10030    2    1    2    0    0  0.00000000000E+00  0.00000000000E+00  0.10435745087E+04  0.26468398489E+04  0.24324295325E+04 0.  0.
        3    1    3    3  502    0 -0.10118087353E+03  0.80784770896E+03 -0.46135955785E+03  0.93579278788E+03  0.10100000352E+00 0. -1.
       -3    1    3    3    0  502  0.10118087353E+03 -0.80784770896E+03  0.15049340666E+04  0.17110470610E+04  0.10100000352E+00 0.  1.
</event>
<event>
 5   0  0.2057599E-05  0.1789157E+04  0.7818609E-02  0.8712087E-01
       -1   -1    0    0    0  501  0.00000000000E+00  0.00000000000E+00  0.31787032402E+03  0.31787032406E+03  0.50400001928E-02 0.  1.
        1   -1    0    0  501    0  0.00000000000E+00  0.00000000000E+00 -0.25176024777E+04  0.25176024777E+04  0.50400001928E-02 0. -1.
    10030    2    1    2    0    0  0.00000000000E+00  0.00000000000E+00 -0.21997321537E+04  0.28354728018E+04  0.17891574726E+04 0.  0.
        4    1    3    3  502    0  0.38303764184E+03  0.80031236422E+03 -0.91881049841E+03  0.12772752484E+04  0.12699999809E+01 0. -1.
       -4    1    3    3    0  502 -0.38303764184E+03 -0.80031236422E+03 -0.12809216553E+04  0.15581975534E+04  0.12699999809E+01 0.  1.
</event>
<event>
 5   0  0.4756705E-05  0.2420264E+04  0.7818609E-02  0.8431956E-01
       -2   -1    0    0    0  501  0.00000000000E+00  0.00000000000E+00  0.77416542840E+03  0.77416542841E+03  0.25500000920E-02 0.  1.
        2   -1    0    0  501    0  0.00000000000E+00  0.00000000000E+00 -0.18916107440E+04  0.18916107440E+04  0.25500000920E-02 0. -1.
    10030    2    1    2    0    0  0.00000000000E+00  0.00000000000E+00 -0.11174453156E+04  0.26657761724E+04  0.24202641525E+04 0.  0.
        3    1    3    3  502    0  0.47367247764E+03 -0.95214853909E+03 -0.11947670952E+04  0.15995064484E+04  0.10100000352E+00 0. -1.
       -3    1    3    3    0  502 -0.47367247764E+03  0.95214853909E+03  0.77321779570E+02  0.10662697240E+04  0.10100000352E+00 0.  1.
</event>
<event>
 5   0  0.4914005E-05  0.2340078E+04  0.7818609E-02  0.8462285E-01
        2   -1    0    0  501    0  0.00000000000E+00  0.00000000000E+00  0.13729993808E+04  0.13729993808E+04  0.25500000920E-02 0. -1.
       -2   -1    0    0    0  501  0.00000000000E+00  0.00000000000E+00 -0.99708046597E+03  0.99708046597E+03  0.25500000920E-02 0.  1.
    10030    2    1    2    0    0  0.00000000000E+00  0.00000000000E+00  0.37591891485E+03  0.23700798468E+04  0.23400776589E+04 0.  0.
        2    1    3    3  502    0 -0.89081783197E+03 -0.14422930971E+03 -0.56632526088E+03  0.10654026491E+04  0.25500000920E-02 0.  1.
       -2    1    3    3    0  502  0.89081783197E+03  0.14422930971E+03  0.94224417573E+03  0.13046771977E+04  0.25500000920E-02 0. -1.
</event>
<event>
 5   0  0.2090039E-05  0.2444181E+04  0.7818609E-02  0.8423146E-01
       -1   -1    0    0    0  501  0.00000000000E+00  0.00000000000E+00  0.19684475388E+04  0.19684475388E+04  0.50400001928E-02 0. -1.
        1   -1    0    0  501    0  0.00000000000E+00  0.00000000000E+00 -0.75872260115E+03  0.75872260117E+03  0.50400001928E-02 0.  1.
    10030    2    1    2    0    0  0.00000000000E+00  0.00000000000E+00  0.12097249377E+04  0.27271701400E+04  0.24441813655E+04 0.  0.
        1    1    3    3  502    0  0.41623998990E+03  0.44360045423E+03 -0.57779577412E+03  0.83897857470E+03  0.50400001928E-02 0.  1.
       -1    1    3    3    0  502 -0.41623998990E+03 -0.44360045423E+03  0.17875207118E+04  0.18881915653E+04  0.50400001928E-02 0. -1.
</event>
<event>
 5   0  0.4856882E-05  0.2404495E+04  0.7818609E-02  0.8437823E-01
        2   -1    0    0  501    0  0.00000000000E+00  0.00000000000E+00  0.14398422139E+04  0.14398422139E+04  0.25500000920E-02 0. -1.
       -2   -1    0    0    0  501  0.00000000000E+00  0.00000000000E+00 -0.10038594898E+04  0.10038594898E+04  0.25500000920E-02 0.  1.
    10030    2    1    2    0    0  0.00000000000E+00  0.00000000000E+00  0.43598272410E+03  0.24437017037E+04  0.24044951821E+04 0.  0.
        1    1    3    3  502    0 -0.41593560849E+03 -0.77526812880E+03 -0.61473204439E+03  0.10732840204E+04  0.50400001928E-02 0.  1.
       -1    1    3    3    0  502  0.41593560849E+03  0.77526812880E+03  0.10507147685E+04  0.13704176833E+04  0.50400001928E-02 0. -1.
</event>
<event>
 5   0  0.2139556E-05  0.2432935E+04  0.7818609E-02  0.8427275E-01
       -1   -1    0    0    0  501  0.00000000000E+00  0.00000000000E+00  0.64014458106E+03  0.64014458108E+03  0.50400001928E-02 0. -1.
        1   -1    0    0  501    0  0.00000000000E+00  0.00000000000E+00 -0.23116546882E+04  0.23116546882E+04  0.50400001928E-02 0.  1.
    10030    2    1    2    0    0  0.00000000000E+00  0.00000000000E+00 -0.16715101072E+04  0.29517992693E+04  0.24329350357E+04 0.  0.
        2    1    3    3  502    0  0.11516712812E+03 -0.10182238229E+04 -0.16311159799E+04  0.19262872477E+04  0.25500000920E-02 0.  1.
       -2    1    3    3    0  502 -0.11516712812E+03  0.10182238229E+04 -0.40394127248E+02  0.10255120216E+04  0.25500000920E-02 0. -1.
</event>
<event>
 5   0  0.4713971E-05  0.2419692E+04  0.7818609E-02  0.8432168E-01
        2   -1    0    0  501    0  0.00000000000E+00  0.00000000000E+00  0.13135826259E+04  0.13135826259E+04  0.25500000920E-02 0. -1.
       -2   -1    0    0    0  501  0.00000000000E+00  0.00000000000E+00 -0.11143018672E+04  0.11143018672E+04  0.25500000920E-02 0.  1.
    10030    2    1    2    0    0  0.00000000000E+00  0.00000000000E+00  0.19928075871E+03  0.24278844931E+04  0.24196921893E+04 0.  0.
        5    1    3    3  502    0 -0.29293808770E+03 -0.40968194064E+03  0.12033890127E+04  0.13045379342E+04  0.46999998093E+01 0. -1.
       -5    1    3    3    0  502  0.29293808770E+03  0.40968194064E+03 -0.10041082540E+04  0.11233465590E+04  0.46999998093E+01 0.  1.
</event>
<event>
 5   0  0.2139556E-05  0.2370185E+04  0.7818609E-02  0.8450751E-01
       -1   -1    0    0    0  501  0.00000000000E+00  0.00000000000E+00  0.55639981379E+03  0.55639981381E+03  0.50400001928E-02 0.  1.
        1   -1    0    0  501    0  0.00000000000E+00  0.00000000000E+00 -0.25241645220E+04  0.25241645220E+04  0.50400001928E-02 0. -1.
    10030    2    1    2    0    0  0.00000000000E+00  0.00000000000E+00 -0.19677647082E+04  0.30805643358E+04  0.23701853683E+04 0.  0.
        2    1    3    3  502    0  0.43051106203E+03 -0.56212856672E+03  0.25126800116E+03  0.75130813151E+03  0.25500000920E-02 0.  1.
       -2    1    3    3    0  502 -0.43051106203E+03  0.56212856672E+03 -0.22190327094E+04  0.23292562043E+04  0.25500000920E-02 0. -1.
</event>
<event>
 5   0  0.2065692E-05  0.2431013E+04  0.7818609E-02  0.8427983E-01
        1   -1    0    0  501    0  0.00000000000E+00  0.00000000000E+00  0.17279303164E+04  0.17279303164E+04  0.50400001928E-02 0. -1.
       -1   -1    0    0    0  501  0.00000000000E+00  0.00000000000E+00 -0.85504385348E+03  0.85504385349E+03  0.50400001928E-02 0.  1.
    10030    2    1    2    0    0  0.00000000000E+00  0.00000000000E+00  0.87288646288E+03  0.25829741699E+04  0.24310131191E+04 0.  0.
        3    1    3    3  502    0 -0.59899391497E+03 -0.34401046763E+03 -0.62623572122E+03  0.93236693461E+03  0.10100000352E+00 0.  1.
       -3    1    3    3    0  502  0.59899391497E+03  0.34401046763E+03  0.14991221841E+04  0.16506072353E+04  0.10100000352E+00 0. -1.
</event>
<event>
 5   0  0.2149920E-05  0.2695873E+04  0.7818609E-02  0.8336345E-01
        1   -1    0    0  501    0  0.00000000000E+00  0.00000000000E+00  0.11948386570E+04  0.11948386570E+04  0.50400001928E-02 0.  1.
       -1   -1    0    0    0  501  0.00000000000E+00  0.00000000000E+00 -0.15206506631E+04  0.15206506631E+04  0.50400001928E-02 0. -1.
    10030    2    1    2    0    0  0.00000000000E+00  0.00000000000E+00 -0.32581200610E+03  0.27154893201E+04  0.26958725460E+04 0.  0.
        5    1    3    3  502    0 -0.10511921409E+04  0.54060133928E+03 -0.81542797672E+03  0.14360360721E+04  0.46999998093E+01 0. -1.
       -5    1    3    3    0  502  0.10511921409E+04 -0.54060133928E+03  0.48961597062E+03  0.12794532480E+04  0.46999998093E+01 0.  1.
</event>
<event>
 5   0  0.4856882E-05  0.2391689E+04  0.7818609E-02  0.8442622E-01
        2   -1    0    0  501    0  0.00000000000E+00  0.00000000000E+00  0.82245750160E+03  0.82245750160E+03  0.25500000920E-02 0. -1.
       -2   -1    0    0    0  501  0.00000000000E+00  0.00000000000E+00 -0.17387454161E+04  0.17387454161E+04  0.25500000920E-02 0.  1.
    10030    2    1    2    0    0  0.00000000000E+00  0.00000000000E+00 -0.91628791455E+03  0.25612029177E+04  0.23916891193E+04 0.  0.
        1    1    3    3  502    0  0.34883298923E+03 -0.96715123799E+03  0.19586095054E+03  0.10466267164E+04  0.50400001928E-02 0. -1.
       -1    1    3    3    0  502 -0.34883298923E+03  0.96715123799E+03 -0.11121488651E+04  0.15145762013E+04  0.50400001928E-02 0.  1.
</event>
<event>
 5   0  0.2065692E-05  0.2363279E+04  0.7818609E-02  0.8453381E-01
       -1   -1    0    0    0  501  0.00000000000E+00  0.00000000000E+00  0.11570993331E+04  0.11570993331E+04  0.50400001928E-02 0. -1.
        1   -1    0    0  501    0  0.00000000000E+00  0.00000000000E+00 -0.12067004706E+04  0.12067004706E+04  0.50400001928E-02 0.  1.
    10030    2    1    2    0    0  0.00000000000E+00  0.00000000000E+00 -0.49601137531E+02  0.23637998038E+04  0.23632793401E+04 0.  0.
        3    1    3    3  502    0  0.52933682496E+03 -0.43611803429E+03 -0.98723692546E+03  0.12020953254E+04  0.10100000352E+00 0.  1.
       -3    1    3    3    0  502 -0.52933682496E+03  0.43611803429E+03  0.93763578793E+03  0.11617044784E+04  0.10100000352E+00 0. -1.
</event>
<event>
 5   0  0.4914005E-05  0.2362580E+04  0.7818609E-02  0.8453647E-01
       -2   -1    0    0    0  501  0.00000000000E+00  0.00000000000E+00  0.90165934704E+03  0.90165934704E+03  0.25500000920E-02 0. -1.
        2   -1    0    0  501    0  0.00000000000E+00  0.00000000000E+00 -0.15476428216E+04  0.15476428216E+04  0.25500000920E-02 0.  1.
    10030    2    1    2    0    0  0.00000000000E+00  0.00000000000E+00 -0.64598347456E+03  0.24493021686E+04  0.23625804672E+04 0.  0.
        2    1    3    3  502    0 -0.10544552247E+04  0.53115817418E+03 -0.36235640757E+03  0.12350331951E+04  0.25500000920E-02 0. -1.
       -2    1    3    3    0  502  0.10544552247E+04 -0.53115817418E+03 -0.28362706698E+03  0.12142689735E+04  0.25500000920E-02 0.  1.
</event>
<event>
 5   0  0.2057599E-05  0.2381321E+04  0.7818609E-02  0.8446530E-01
        1   -1    0    0  501    0  0.00000000000E+00  0.00000000000E+00  0.14706088392E+04  0.14706088392E+04  0.50400001928E-02 0.  1.
       -1   -1    0    0    0  501  0.00000000000E+00  0.00000000000E+00 -0.96400396472E+03  0.96400396473E+03  0.50400001928E-02 0. -1.
    10030    2    1    2    0    0  0.00000000000E+00  0.00000000000E+00  0.50660487451E+03  0.24346128040E+04  0.23813212732E+04 0.  0.
        4    1    3    3  502    0 -0.51657496251E+03  0.10697835372E+04  0.33499448667E+03  0.12343052407E+04  0.12699999809E+01 0.  1.
       -4    1    3    3    0  502  0.51657496251E+03 -0.10697835372E+04  0.17161038784E+03  0.12003075632E+04  0.12699999809E+01 0. -1.
</event>
<event>
 5   0  0.2149920E-05  0.2328873E+04  0.7818609E-02  0.8466623E-01
        1   -1    0    0  501    0  0.00000000000E+00  0.00000000000E+00  0.19350878904E+04  0.19350878905E+04  0.50400001928E-02 0. -1.
       -1   -1    0    0    0  501  0.00000000000E+00  0.00000000000E+00 -0.70069789901E+03  0.70069789903E+03  0.50400001928E-02 0.  1.
    10030    2    1    2    0    0  0.00000000000E+00  0.00000000000E+00  0.12343899914E+04  0.26357857895E+04  0.23288727052E+04 0.  0.
        5    1    3    3  502    0  0.28099041498E+03 -0.34388225202E+03 -0.60108184338E+03  0.74735004449E+03  0.46999998093E+01 0.  1.
       -5    1    3    3    0  502 -0.28099041498E+03  0.34388225202E+03  0.18354718348E+04  0.18884357450E+04  0.46999998093E+01 0. -1.
</event>
<event>
 5   0  0.4713971E-05  0.2405765E+04  0.7818609E-02  0.8437349E-01
        2   -1    0    0  501    0  0.00000000000E+00  0.00000000000E+00  0.22289078586E+04  0.22289078586E+04  0.25500000920E-02 0.  1.
       -2   -1    0    0    0  501  0.00000000000E+00  0.00000000000E+00 -0.64916354705E+03  0.64916354706E+03  0.25500000920E-02 0. -1.
    10030    2    1    2    0    0  0.00000000000E+00  0.00000000000E+00  0.15797443115E+04  0.28780714056E+04  0.24057645201E+04 0.  0.
        5    1    3    3  502    0  0.52812145955E+03  0.68346351552E+03  0.17914088626E+04  0.19887690806E+04  0.46999998093E+01 0. -1.
       -5    1    3    3    0  502 -0.52812145955E+03 -0.68346351552E+03 -0.21166455107E+03  0.88930232500E+03  0.46999998093E+01 0.  1.
</event>
<event>
 5   0  0.2149920E-05  0.2386000E+04  0.7818609E-02  0.8444764E-01
        1   -1    0    0  501    0  0.00000000000E+00  0.00000000000E+00  0.21188464706E+04  0.21188464706E+04  0.50400001928E-02 0. -1.
       -1   -1    0    0    0  501  0.00000000000E+00  0.00000000000E+00 -0.67170947654E+03  0.67170947656E+03  0.50400001928E-02 0.  1.
    10030    2    1    2    0    0  0.00000000000E+00  0.00000000000E+00  0.14471369941E+04  0.27905559472E+04  0.23860002126E+04 0.  0.
        5    1    3    3  502    0  0.12926598986E+03  0.11268629113E+04  0.29115378907E+03  0.11710347287E+04  0.46999998093E+01 0.  1.
       -5    1    3    3    0  502 -0.12926598986E+03 -0.11268629113E+04  0.11559832050E+04  0.16195212185E+04  0.46999998093E+01 0. -1.
</event>
<event>
 5   0  0.2139556E-05  0.2382665E+04  0.7818609E-02  0.8446022E-01
       -1   -1    0    0    0  501  0.00000000000E+00  0.00000000000E+00  0.13880724671E+04  0.13880724671E+04  0.50400001928E-02 0.  1.
        1   -1    0    0  501    0  0.00000000000E+00  0.00000000000E+00 -0.10224774760E+04  0.10224774760E+04  0.50400001928E-02 0. -1.
    10030    2    1    2    0    0  0.00000000000E+00  0.00000000000E+00  0.36559499112E+03  0.24105499432E+04  0.23826647542E+04 0.  0.
        2    1    3    3  502    0 -0.18006128431E+02  0.11792836426E+04  0.35280792389E+03  0.12310595280E+04  0.25500000920E-02 0.  1.
       -2    1    3    3    0  502  0.18006128431E+02 -0.11792836426E+04  0.12787067224E+02  0.11794904151E+04  0.25500000920E-02 0. -1.
</event>
<event>
 5   0  0.4856882E-05  0.2408744E+04  0.7818609E-02  0.8436237E-01
       -2   -1    0    0    0  501  0.00000000000E+00  0.00000000000E+00  0.15736787172E+04  0.15736787172E+04  0.25500000920E-02 0. -1.
        2   -1    0    0  501    0  0.00000000000E+00  0.00000000000E+00 -0.92173297830E+03  0.92173297831E+03  0.25500000920E-02 0.  1.
    10030    2    1    2    0    0  0.00000000000E+00  0.00000000000E+00  0.65194573887E+03  0.24954116955E+04  0.24087437148E+04 0.  0.
        1    1    3    3  502    0 -0.66889180836E+03 -0.34644726608E+03 -0.64755655345E+03  0.99336370449E+03  0.50400001928E-02 0.  1.
       -1    1    3    3    0  502  0.66889180836E+03  0.34644726608E+03  0.12995022923E+04  0.15020479910E+04  0.50400001928E-02 0. -1.
</event>
<event>
 5   0  0.2057599E-05  0.2327729E+04  0.7818609E-02  0.8467067E-01
       -1   -1    0    0    0  501  0.00000000000E+00  0.00000000000E+00  0.13523273636E+04  0.13523273636E+04  0.50400001928E-02 0. -1.
        1   -1    0    0  501    0  0.00000000000E+00  0.00000000000E+00 -0.10016665899E+04  0.10016665899E+04  0.50400001928E-02 0.  1.
    10030    2    1    2    0    0  0.00000000000E+00  0.00000000000E+00  0.35066077365E+03  0.23539939535E+04  0.23277294849E+04 0.  0.
        4    1    3    3  502    0 -0.10027077209E+04  0.46355357378E+03 -0.19523952271E+03  0.11217953349E+04  0.12699999809E+01 0.  1.
       -4    1    3    3    0  502  0.10027077209E+04 -0.46355357378E+03  0.54590029636E+03  0.12321986186E+04  0.12699999809E+01 0. -1.
</event>
<event>
 5   0  0.4856882E-05  0.2398309E+04  0.7818609E-02  0.8440137E-01
       -2   -1    0    0    0  501  0.00000000000E+00  0.00000000000E+00  0.82302783610E+03  0.82302783610E+03  0.25500000920E-02 0.  1.
        2   -1    0    0  501    0  0.00000000000E+00  0.00000000000E+00 -0.17471728951E+04  0.17471728951E+04  0.25500000920E-02 0. -1.
    10030    2    1    2    0    0  0.00000000000E+00  0.00000000000E+00 -0.92414505901E+03  0.25702007312E+04  0.23983093438E+04 0.  0.
        1    1    3    3  502    0 -0.78585830706E+03  0.17825836964E+03  0.48961954643E+03  0.94290859864E+03  0.50400001928E-02 0.  1.
       -1    1    3    3    0  502  0.78585830706E+03 -0.17825836964E+03 -0.14137646054E+04  0.16272921326E+04  0.50400001928E-02 0. -1.
</event>
<event>
 5   0  0.4856882E-05  0.2416436E+04  0.7818609E-02  0.8433376E-01
        2   -1    0    0  501    0  0.00000000000E+00  0.00000000000E+00  0.14783538700E+04  0.14783538700E+04  0.25500000920E-02 0. -1.
       -2   -1    0    0    0  501  0.00000000000E+00  0.00000000000E+00 -0.98744308112E+03  0.98744308112E+03  0.25500000920E-02 0.  1.
    10030    2    1    2    0    0  0.00000000000E+00  0.00000000000E+00  0.49091078885E+03  0.24657969511E+04  0.24164356398E+04 0.  0.
        1    1    3    3  502    0  0.44631713677E+03 -0.10776858982E+04  0.56682426381E+03  0.12968791878E+04  0.50400001928E-02 0.  1.
       -1    1    3    3    0  502 -0.44631713677E+03  0.10776858982E+04 -0.75913474963E+02  0.11689177633E+04  0.50400001928E-02 0. -1.
</event>
<event>
 5   0  0.2057599E-05  0.2309191E+04  0.7818609E-02  0.8474306E-01
        1   -1    0    0  501    0  0.00000000000E+00  0.00000000000E+00  0.23881592532E+04  0.23881592532E+04  0.50400001928E-02 0.  1.
       -1   -1    0    0    0  501  0.00000000000E+00  0.00000000000E+00 -0.55820865476E+03  0.55820865478E+03  0.50400001928E-02 0. -1.
    10030    2    1    2    0    0  0.00000000000E+00  0.00000000000E+00  0.18299505984E+04  0.29463679079E+04  0.23091913425E+04 0.  0.
        4    1    3    3  502    0  0.80062846558E+03 -0.72147042561E+03  0.14434694468E+04  0.18014247616E+04  0.12699999809E+01 0.  1.
       -4    1    3    3    0  502 -0.80062846558E+03  0.72147042561E+03  0.38648115159E+03  0.11449431463E+04  0.12699999809E+01 0. -1.
</event>
<event>
 5   0  0.2065692E-05  0.2364440E+04  0.7818609E-02  0.8452938E-01
        1   -1    0    0  501    0  0.00000000000E+00  0.00000000000E+00  0.12525460777E+04  0.12525460777E+04  0.50400001928E-02 0.  1.
       -1   -1    0    0    0  501  0.00000000000E+00  0.00000000000E+00 -0.11158420293E+04  0.11158420293E+04  0.50400001928E-02 0. -1.
    10030    2    1    2    0    0  0.00000000000E+00  0.00000000000E+00  0.13670404847E+03  0.23683881070E+04  0.23644395168E+04 0.  0.
        3    1    3    3  502    0  0.58886343422E+03  0.56440219832E+03 -0.78884199294E+03  0.11347165662E+04  0.10100000352E+00 0. -1.
       -3    1    3    3    0  502 -0.58886343422E+03 -0.56440219832E+03  0.92554604141E+03  0.12336715408E+04  0.10100000352E+00 0.  1.
</event>
<event>
 5   0  0.4664127E-05  0.2299600E+04  0.7818609E-02  0.8478079E-01
       -2   -1    0    0    0  501  0.00000000000E+00  0.00000000000E+00  0.11695272266E+04  0.11695272266E+04  0.25500000920E-02 0. -1.
        2   -1    0    0  501    0  0.00000000000E+00  0.00000000000E+00 -0.11304056920E+04  0.11304056920E+04  0.25500000920E-02 0.  1.
    10030    2    1    2    0    0  0.00000000000E+00  0.00000000000E+00  0.39121534560E+02  0.22999329186E+04  0.22996001687E+04 0.  0.
        4    1    3    3  502    0 -0.26609687139E+03  0.73149032768E+03  0.86594144102E+03  0.11643632752E+04  0.12699999809E+01 0. -1.
       -4    1    3    3    0  502  0.26609687139E+03 -0.73149032768E+03 -0.82681990646E+03  0.11355696434E+04  0.12699999809E+01 0.  1.
</event>
<event>
 5   0  0.2057599E-05  0.2407807E+04  0.7818609E-02  0.8436587E-01
       -1   -1    0    0    0  501  0.00000000000E+00  0.00000000000E+00  0.94536037476E+03  0.94536037477E+03  0.50400001928E-02 0. -1.
        1   -1    0    0  501    0  0.00000000000E+00  0.00000000000E+00 -0.15331546768E+04  0.15331546768E+04  0.50400001928E-02 0.  1.
    10030    2    1    2    0    0  0.00000000000E+00  0.00000000000E+00 -0.58779430207E+03  0.24785150516E+04  0.24078070354E+04 0.  0.
        4    1    3    3  502    0  0.41134320483E+03  0.33781762920E+03  0.81765533335E+03  0.97564637027E+03  0.12699999809E+01 0. -1.
       -4    1    3    3    0  502 -0.41134320483E+03 -0.33781762920E+03 -0.14054496354E+04  0.15028686813E+04  0.12699999809E+01 0.  1.
</event>
<event>
 5   0  0.2090039E-05  0.2407534E+04  0.7818609E-02  0.8436688E-01
        1   -1    0    0  501    0  0.00000000000E+00  0.00000000000E+00  0.13327640079E+04  0.13327640079E+04  0.50400001928E-02 0.  1.
       -1   -1    0    0    0  501  0.00000000000E+00  0.00000000000E+00 -0.10872557628E+04  0.10872557628E+04  0.50400001928E-02 0. -1.
    10030    2    1    2    0    0  0.00000000000E+00  0.00000000000E+00  0.24550824511E+03  0.24200197708E+04  0.24075342973E+04 0.  0.
        1    1    3    3  502    0  0.25067366428E+03 -0.18853801784E+03  0.12909651348E+04  0.13285235599E+04  0.50400001928E-02 0.  1.
       -1    1    3    3    0  502 -0.25067366428E+03  0.18853801784E+03 -0.10454568897E+04  0.10914962108E+04  0.50400001928E-02 0. -1.
</event>
<event>
 5   0  0.2149920E-05  0.2392818E+04  0.7818609E-02  0.8442197E-01
       -1   -1    0    0    0  501  0.00000000000E+00  0.00000000000E+00  0.10922452946E+04  0.10922452946E+04  0.50400001928E-02 0.  1.
        1   -1    0    0  501    0  0.00000000000E+00  0.00000000000E+00 -0.13105064411E+04  0.13105064411E+04  0.50400001928E-02 0. -1.
    10030    2    1    2    0    0  0.00000000000E+00  0.00000000000E+00 -0.21826114646E+03  0.24027517357E+04  0.23928179988E+04 0.  0.
        5    1    3    3  502    0  0.85854581276E+02  0.79466647197E+03  0.78479358623E+03  0.11201735909E+04  0.46999998093E+01 0.  1.
       -5    1    3    3    0  502 -0.85854581276E+02 -0.79466647197E+03 -0.10030547327E+04  0.12825781448E+04  0.46999998093E+01 0. -1.
</event>
<event>
 5   0  0.4664127E-05  0.2352483E+04  0.7818609E-02  0.8457510E-01
        2   -1    0    0  501    0  0.00000000000E+00  0.00000000000E+00  0.12776273957E+04  0.12776273957E+04  0.25500000920E-02 0. -1.
       -2   -1    0    0    0  501  0.00000000000E+00  0.00000000000E+00 -0.10829013529E+04  0.10829013529E+04  0.25500000920E-02 0.  1.
    10030    2    1    2    0    0  0.00000000000E+00  0.00000000000E+00  0.19472604280E+03  0.23605287485E+04  0.23524833136E+04 0.  0.
        4    1    3    3  502    0  0.84506410296E+03  0.65556420793E+03  0.58857276963E+03  0.12207855204E+04  0.12699999809E+01 0. -1.
       -4    1    3    3    0  502 -0.84506410296E+03 -0.65556420793E+03 -0.39384672684E+03  0.11397432281E+04  0.12699999809E+01 0.  1.
</event>
<event>
 5   0  0.4914005E-05  0.2404435E+04  0.7818609E-02  0.8437845E-01
       -2   -1    0    0    0  501  0.00000000000E+00  0.00000000000E+00  0.71369674660E+03  0.71369674660E+03  0.25500000920E-02 0.  1.
        2   -1    0    0  501    0  0.00000000000E+00  0.00000000000E+00 -0.20251282235E+04  0.20251282235E+04  0.25500000920E-02 0. -1.
    10030    2    1    2    0    0  0.00000000000E+00  0.00000000000E+00 -0.13114314769E+04  0.27388249701E+04  0.24044354219E+04 0.  0.
        2    1    3    3  502    0 -0.30572993327E+03  0.11626933235E+04 -0.65465450887E+03  0.13689043365E+04  0.25500000920E-02 0. -1.
       -2    1    3    3    0  502  0.30572993327E+03 -0.11626933235E+04 -0.65677696806E+03  0.13699206336E+04  0.25500000920E-02 0.  1.
</event>
<event>
 5   0  0.2149920E-05  0.2431162E+04  0.7818609E-02  0.8427928E-01
        1   -1    0    0  501    0  0.00000000000E+00  0.00000000000E+00  0.23253791883E+04  0.23253791883E+04  0.50400001928E-02 0.  1.
       -1   -1    0    0    0  501  0.00000000000E+00  0.00000000000E+00 -0.63543937584E+03  0.63543937586E+03  0.50400001928E-02 0. -1.
    10030    2    1    2    0    0  0.00000000000E+00  0.00000000000E+00  0.16899398125E+04  0.29608185642E+04  0.24311622735E+04 0.  0.
        5    1    3    3  502    0  0.39503391343E+03 -0.83218211197E+03  0.18108779609E+04  0.20317184695E+04  0.46999998093E+01 0.  1.
       -5    1    3    3    0  502 -0.39503391343E+03  0.83218211197E+03 -0.12093814835E+03  0.92910009470E+03  0.46999998093E+01 0. -1.
</event>
<event>
 5   0  0.2090039E-05  0.2368410E+04  0.7818609E-02  0.8451426E-01
       -1   -1    0    0    0  501  0.00000000000E+00  0.00000000000E+00  0.12982825592E+04  0.12982825592E+04  0.50400001928E-02 0. -1.
        1   -1    0    0  501    0  0.00000000000E+00  0.00000000000E+00 -0.10801513558E+04  0.10801513558E+04  0.50400001928E-02 0.  1.
    10030    2    1    2    0    0  0.00000000000E+00  0.00000000000E+00  0.21813120338E+03  0.23784339150E+04  0.23684101558E+04 0.  0.
        1    1    3    3  502    0  0.41472392692E+03  0.46739665712E+03 -0.90111724214E+03  0.10965709529E+04  0.50400001928E-02 0.  1.
       -1    1    3    3    0  502 -0.41472392692E+03 -0.46739665712E+03  0.11192484455E+04  0.12818629620E+04  0.50400001928E-02 0. -1.
</event>
<event>
 5   0  0.4756705E-05  0.2390555E+04  0.7818609E-02  0.8443048E-01
       -2   -1    0    0    0  501  0.00000000000E+00  0.00000000000E+00  0.70489968414E+03  0.70489968414E+03  0.25500000920E-02 0. -1.
        2   -1    0    0  501    0  0.00000000000E+00  0.00000000000E+00 -0.20267961644E+04  0.20267961644E+04  0.25500000920E-02 0.  1.
    10030    2    1    2    0    0  0.00000000000E+00  0.00000000000E+00 -0.13218964803E+04  0.27316958485E+04  0.23905547273E+04 0.  0.
        3    1    3    3  502    0  0.21134073572E+03 -0.11277207461E+04 -0.10438289945E+04  0.15511279663E+04  0.10100000352E+00 0. -1.
       -3    1    3    3    0  502 -0.21134073572E+03  0.11277207461E+04 -0.27806748573E+03  0.11805678823E+04  0.10100000352E+00 0.  1.
</event>
<event>
 5   0  0.4664127E-05  0.2411247E+04  0.7818609E-02  0.8435305E-01
        2   -1    0    0  501    0  0.00000000000E+00  0.00000000000E+00  0.18092551787E+04  0.18092551787E+04  0.25500000920E-02 0.  1.
       -2   -1    0    0    0  501  0.00000000000E+00  0.00000000000E+00 -0.80338448811E+03  0.80338448811E+03  0.25500000920E-02 0. -1.
    10030    2    1    2    0    0  0.00000000000E+00  0.00000000000E+00  0.10058706906E+04  0.26126396668E+04  0.24112466034E+04 0.  0.
        4    1    3    3  502    0 -0.35157434101E+02 -0.28336777828E+02 -0.80246718418E+03  0.80373765168E+03  0.12699999809E+01 0. -1.
       -4    1    3    3    0  502  0.35157434101E+02  0.28336777828E+02  0.18083378747E+04  0.18089020151E+04  0.12699999809E+01 0.  1.
</event>
<event>
 5   0  0.4664127E-05  0.2314525E+04  0.7818609E-02  0.8472216E-01
       -2   -1    0    0    0  501  0.00000000000E+00  0.00000000000E+00  0.80576942056E+03  0.80576942056E+03  0.25500000920E-02 0. -1.
        2   -1    0    0  501    0  0.00000000000E+00  0.00000000000E+00 -0.16620847044E+04  0.16620847044E+04  0.25500000920E-02 0.  1.
    10030    2    1    2    0    0  0.00000000000E+00  0.00000000000E+00 -0.85631528385E+03  0.24678541250E+04  0.23145254626E+04 0.  0.
        4    1    3    3  502    0 -0.11311383678E+04 -0.67549972332E+02 -0.67871056431E+03  0.13208658709E+04  0.12699999809E+01 0.  1.
       -4    1    3    3    0  502  0.11311383678E+04  0.67549972332E+02 -0.17760471955E+03  0.11469882541E+04  0.12699999809E+01 0. -1.
</event>
<event>
 5   0  0.2065692E-05  0.2387294E+04  0.7818609E-02  0.8444276E-01
        1   -1    0    0  501    0  0.00000000000E+00  0.00000000000E+00  0.19006373034E+04  0.19006373034E+04  0.50400001928E-02 0. -1.
       -1   -1    0    0    0  501  0.00000000000E+00  0.00000000000E+00 -0.74963959011E+03  0.74963959012E+03  0.50400001928E-02 0.  1.
    10030    2    1    2    0    0  0.00000000000E+00  0.00000000000E+00  0.11509977133E+04  0.26502768936E+04  0.23872938396E+04 0.  0.
        3    1    3    3  502    0  0.33923334636E+03 -0.11440744609E+04  0.54395540874E+03  0.13114393361E+04  0.10100000352E+00 0. -1.
       -3    1    3    3    0  502 -0.33923334636E+03  0.11440744609E+04  0.60704230460E+03  0.13388375574E+04  0.10100000352E+00 0.  1.
</event>
<event>
 5   0  0.2065692E-05  0.2428474E+04  0.7818609E-02  0.8428919E-01
        1   -1    0    0  501    0  0.00000000000E+00  0.00000000000E+00  0.13979007793E+04  0.13979007793E+04  0.50400001928E-02 0. -1.
       -1   -1    0    0    0  501  0.00000000000E+00  0.00000000000E+00 -0.10547042838E+04  0.10547042838E+04  0.50400001928E-02 0.  1.
    10030    2    1    2    0    0  0.00000000000E+00  0.00000000000E+00  0.34319649546E+03  0.24526050631E+04  0.24284743691E+04 0.  0.
        3    1    3    3  502    0  0.28548932698E+03  0.11801643221E+04  0.16256808775E+03  0.12250389285E+04  0.10100000352E+00 0.  1.
       -3    1    3    3    0  502 -0.28548932698E+03 -0.11801643221E+04  0.18062840770E+03  0.12275661346E+04  0.10100000352E+00 0. -1.
</event>
<event>
 5   0  0.2090039E-05  0.2390053E+04  0.7818609E-02  0.8443237E-01
        1   -1    0    0  501    0  0.00000000000E+00  0.00000000000E+00  0.17919151225E+04  0.17919151225E+04  0.50400001928E-02 0.  1.
       -1   -1    0    0    0  501  0.00000000000E+00  0.00000000000E+00 -0.79696215775E+03  0.79696215777E+03  0.50400001928E-02 0. -1.
    10030    2    1    2    0    0  0.00000000000E+00  0.00000000000E+00  0.99495296473E+03  0.25888772803E+04  0.23900531731E+04 0.  0.
        1    1    3    3  502    0  0.15602411384E+02  0.11544449582E+04  0.83151658027E+03  0.14228163691E+04  0.50400001928E-02 0.  1.
       -1    1    3    3    0  502 -0.15602411384E+02 -0.11544449582E+04  0.16343638446E+03  0.11660609112E+04  0.50400001928E-02 0. -1.
</event>
<event>
 5   0  0.2139556E-05  0.2396131E+04  0.7818609E-02  0.8440953E-01
       -1   -1    0    0    0  501  0.00000000000E+00  0.00000000000E+00  0.13004660074E+04  0.13004660074E+04  0.50400001928E-02 0.  1.
        1   -1    0    0  501    0  0.00000000000E+00  0.00000000000E+00 -0.11037285368E+04  0.11037285368E+04  0.50400001928E-02 0. -1.
    10030    2    1    2    0    0  0.00000000000E+00  0.00000000000E+00  0.19673747059E+03  0.24041945441E+04  0.23961314183E+04 0.  0.
        2    1    3    3  502    0  0.50283090103E+03 -0.41768769776E+03 -0.90903152866E+03  0.11196607736E+04  0.25500000920E-02 0. -1.
       -2    1    3    3    0  502 -0.50283090103E+03  0.41768769776E+03  0.11057689992E+04  0.12845337705E+04  0.25500000920E-02 0.  1.
</event>
<event>
 5   0  0.4756705E-05  0.2421245E+04  0.7818609E-02  0.8431593E-01
       -2   -1    0    0    0  501  0.00000000000E+00  0.00000000000E+00  0.18829722902E+04  0.18829722902E+04  0.25500000920E-02 0.  1.
        2   -1    0    0  501    0  0.00000000000E+00  0.00000000000E+00 -0.77834724798E+03  0.77834724798E+03  0.25500000920E-02 0. -1.
    10030    2    1    2    0    0  0.00000000000E+00  0.00000000000E+00  0.11046250422E+04  0.26613195382E+04  0.24212445561E+04 0.  0.
        3    1    3    3  502    0  0.21377959170E+03 -0.11592710418E+04  0.24930631365E+03  0.12048919912E+04  0.10100000352E+00 0. -1.
       -3    1    3    3    0  502 -0.21377959170E+03  0.11592710418E+04  0.85531872859E+03  0.14564275470E+04  0.10100000352E+00 0.  1.
</event>
<event>
 5   0  0.4756705E-05  0.2450996E+04  0.7818609E-02  0.8420654E-01
       -2   -1    0    0    0  501  0.00000000000E+00  0.00000000000E+00  0.86181458487E+03  0.86181458488E+03  0.25500000920E-02 0. -1.
        2   -1    0    0  501    0  0.00000000000E+00  0.00000000000E+00 -0.17426545628E+04  0.17426545628E+04  0.25500000920E-02 0.  1.
    10030    2    1    2    0    0  0.00000000000E+00  0.00000000000E+00 -0.88083997792E+03  0.26044691477E+04  0.24509958128E+04 0.  0.
        3    1    3    3  502    0  0.71777986726E+03  0.27059611424E+03 -0.14559919384E+04  0.16457043263E+04  0.10100000352E+00 0.  1.
       -3    1    3    3    0  502 -0.71777986726E+03 -0.27059611424E+03  0.57515196043E+03  0.95876482136E+03  0.10100000352E+00 0. -1.
</event>
<event>
 5   0  0.2065692E-05  0.2439815E+04  0.7818609E-02  0.8424746E-01
       -1   -1    0    0    0  501  0.00000000000E+00  0.00000000000E+00  0.11800073160E+04  0.11800073160E+04  0.50400001928E-02 0.  1.
        1   -1    0    0  501    0  0.00000000000E+00  0.00000000000E+00 -0.12611571291E+04  0.12611571291E+04  0.50400001928E-02 0. -1.
    10030    2    1    2    0    0  0.00000000000E+00  0.00000000000E+00 -0.81149813108E+02  0.24411644450E+04  0.24398152708E+04 0.  0.
        3    1    3    3  502    0  0.26257390447E+03  0.94765692413E+03 -0.76289927195E+03  0.12445939139E+04  0.10100000352E+00 0. -1.
       -3    1    3    3    0  502 -0.26257390447E+03 -0.94765692413E+03  0.68174945884E+03  0.11965705311E+04  0.10100000352E+00 0.  1.
</event>
<event>
 5   0  0.4914005E-05  0.2435627E+04  0.7818609E-02  0.8426285E-01
       -2   -1    0    0    0  501  0.00000000000E+00  0.00000000000E+00  0.75500652043E+03  0.75500652043E+03  0.25500000920E-02 0. -1.
        2   -1    0    0  501    0  0.00000000000E+00  0.00000000000E+00 -0.19643135218E+04  0.19643135218E+04  0.25500000920E-02 0.  1.
    10030    2    1    2    0    0  0.00000000000E+00  0.00000000000E+00 -0.12093070013E+04  0.27193200422E+04  0.24356268327E+04 0.  0.
        2    1    3    3  502    0 -0.93378184264E+03  0.78173900498E+03 -0.60717869737E+03  0.13607829996E+04  0.25500000920E-02 0. -1.
       -2    1    3    3    0  502  0.93378184264E+03 -0.78173900498E+03 -0.60212830395E+03  0.13585370426E+04  0.25500000920E-02 0.  1.
</event>
<event>
 5   0  0.4856882E-05  0.2415761E+04  0.7818609E-02  0.8433626E-01
       -2   -1    0    0    0  501  0.00000000000E+00  0.00000000000E+00  0.16531141525E+04  0.16531141525E+04  0.25500000920E-02 0. -1.
        2   -1    0    0  501    0  0.00000000000E+00  0.00000000000E+00 -0.88256203979E+03  0.88256203979E+03  0.25500000920E-02 0.  1.
    10030    2    1    2    0    0  0.00000000000E+00  0.00000000000E+00  0.77055211267E+03  0.25356761923E+04  0.24157614107E+04 0.  0.
        1    1    3    3  502    0  0.10047368989E+04  0.46246334232E+03  0.89476416297E+03  0.14226635183E+04  0.50400001928E-02 0. -1.
       -1    1    3    3    0  502 -0.10047368989E+04 -0.46246334232E+03 -0.12421205030E+03  0.11130126740E+04  0.50400001928E-02 0.  1.
</event>
<event>
 5   0  0.4664127E-05  0.2402189E+04  0.7818609E-02  0.8438684E-01
       -2   -1    0    0    0  501  0.00000000000E+00  0.00000000000E+00  0.75110322602E+03  0.75110322602E+03  0.25500000920E-02 0.  1.
        2   -1    0    0  501    0  0.00000000000E+00  0.00000000000E+00 -0.19206792462E+04  0.19206792462E+04  0.25500000920E-02 0. -1.
    10030    2    1    2    0    0  0.00000000000E+00  0.00000000000E+00 -0.11695760202E+04  0.26717824722E+04  0.24021893164E+04 0.  0.
        4    1    3    3  502    0 -0.38640009510E+03  0.95892013185E+03  0.95213656827E+02  0.10382196810E+04  0.12699999809E+01 0.  1.
       -4    1    3    3    0  502  0.38640009510E+03 -0.95892013185E+03 -0.12647896770E+04  0.16335627912E+04  0.12699999809E+01 0. -1.
</event>
<event>
 5   0  0.2149920E-05  0.2389917E+04  0.7818609E-02  0.8443288E-01
        1   -1    0    0  501    0  0.00000000000E+00  0.00000000000E+00  0.11463560880E+04  0.11463560880E+04  0.50400001928E-02 0. -1.
       -1   -1    0    0    0  501  0.00000000000E+00  0.00000000000E+00 -0.12456219930E+04  0.12456219930E+04  0.50400001928E-02 0.  1.
    10030    2    1    2    0    0  0.00000000000E+00  0.00000000000E+00 -0.99265904952E+02  0.23919780810E+04  0.23899174505E+04 0.  0.
        5    1    3    3  502    0  0.11531304572E+03 -0.31027142081E+03  0.10995463998E+04  0.11482986669E+04  0.46999998093E+01 0. -1.
       -5    1    3    3    0  502 -0.11531304572E+03  0.31027142081E+03 -0.11988123048E+04  0.12436794141E+04  0.46999998093E+01 0.  1.
</event>
<event>
 5   0  0.4856882E-05  0.2385297E+04  0.7818609E-02  0.8445029E-01
       -2   -1    0    0    0  501  0.00000000000E+00  0.00000000000E+00  0.57676171042E+03  0.57676171043E+03  0.25500000920E-02 0.  1.
        2   -1    0    0  501    0  0.00000000000E+00  0.00000000000E+00 -0.24662008184E+04  0.24662008184E+04  0.25500000920E-02 0. -1.
    10030    2    1    2    0    0  0.00000000000E+00  0.00000000000E+00 -0.18894391080E+04  0.30429625288E+04  0.23852967969E+04 0.  0.
        1    1    3    3  502    0  0.36123478389E+03 -0.10956359980E+04 -0.55882554827E+03  0.12818716015E+04  0.50400001928E-02 0.  1.
       -1    1    3    3    0  502 -0.36123478389E+03  0.10956359980E+04 -0.13306135597E+04  0.17610909274E+04  0.50400001928E-02 0. -1.
</event>
<event>
 5   0  0.4756705E-05  0.2375149E+04  0.7818609E-02  0.8448866E-01
        2   -1    0    0  501    0  0.00000000000E+00  0.00000000000E+00  0.17480756708E+04  0.17480756708E+04  0.25500000920E-02 0.  1.
       -2   -1    0    0    0  501  0.00000000000E+00  0.00000000000E+00 -0.80679176002E+03  0.80679176002E+03  0.25500000920E-02 0. -1.
    10030    2    1    2    0    0  0.00000000000E+00  0.00000000000E+00  0.94128391082E+03  0.25548674309E+04  0.23751488771E+04 0.  0.
        3    1    3    3  502    0  0.49289244662E+03 -0.10286283679E+04  0.82628550584E+03  0.14084626479E+04  0.10100000352E+00 0.  1.
       -3    1    3    3    0  502 -0.49289244662E+03  0.10286283679E+04  0.11499840499E+03  0.11464047830E+04  0.10100000352E+00 0. -1.
</event>
<event>
 5   0  0.2057599E-05  0.2412019E+04  0.7818609E-02  0.8435017E-01
        1   -1    0    0  501    0  0.00000000000E+00  0.00000000000E+00  0.20853651740E+04  0.20853651740E+04  0.50400001928E-02 0. -1.
       -1   -1    0    0    0  501  0.00000000000E+00  0.00000000000E+00 -0.69746015396E+03  0.69746015398E+03  0.50400001928E-02 0.  1.
    10030    2    1    2    0    0  0.00000000000E+00  0.00000000000E+00  0.13879050200E+04  0.27828253280E+04  0.24120191669E+04 0.  0.
        4    1    3    3  502    0  0.93907789835E+03 -0.75638822969E+03  0.71888619928E+03  0.14038480807E+04  0.12699999809E+01 0.  1.
       -4    1    3    3    0  502 -0.93907789835E+03  0.75638822969E+03  0.66901882075E+03  0.13789772473E+04  0.12699999809E+01 0. -1.
</event>
<event>
 5   0  0.4713971E-05  0.2413430E+04  0.7818609E-02  0.8434493E-01
       -2   -1    0    0    0  501  0.00000000000E+00  0.00000000000E+00  0.10292021928E+04  0.10292021928E+04  0.25500000920E-02 0. -1.
        2   -1    0    0  501    0  0.00000000000E+00  0.00000000000E+00 -0.14148440650E+04  0.14148440650E+04  0.25500000920E-02 0.  1.
    10030    2    1    2    0    0  0.00000000000E+00  0.00000000000E+00 -0.38564187226E+03  0.24440462578E+04  0.24134296047E+04 0.  0.
        5    1    3    3  502    0 -0.65875603043E+03  0.26639935421E+03  0.79485183453E+03  0.10661799343E+04  0.46999998093E+01 0. -1.
       -5    1    3    3    0  502  0.65875603043E+03 -0.26639935421E+03 -0.11804937068E+04  0.13778663235E+04  0.46999998093E+01 0.  1.
</event>
<event>
 5   0  0.4914005E-05  0.2393031E+04  0.7818609E-02  0.8442117E-01
        2   -1    0    0  501    0  0.00000000000E+00  0.00000000000E+00  0.13645316150E+04  0.13645316150E+04  0.25500000920E-02 0.  1.
       -2   -1    0    0    0  501  0.00000000000E+00  0.00000000000E+00 -0.10491873783E+04  0.10491873783E+04  0.25500000920E-02 0. -1.
    10030    2    1    2    0    0  0.00000000000E+00  0.00000000000E+00  0.31534423670E+03  0.24137189934E+04  0.23930310051E+04 0.  0.
        2    1    3    3  502    0 -0.13979415872E+03  0.82140179284E+03  0.10238193594E+04  0.13200187092E+04  0.25500000920E-02 0.  1.
       -2    1    3    3    0  502  0.13979415872E+03 -0.82140179284E+03 -0.70847512267E+03  0.10937002841E+04  0.25500000920E-02 0. -1.
</event>
<event>
 5   0  0.4914005E-05  0.2418800E+04  0.7818609E-02  0.8432498E-01
       -2   -1    0    0    0  501  0.00000000000E+00  0.00000000000E+00  0.95550283759E+03  0.95550283760E+03  0.25500000920E-02 0.  1.
        2   -1    0    0  501    0  0.00000000000E+00  0.00000000000E+00 -0.15307632283E+04  0.15307632283E+04  0.25500000920E-02 0. -1.
    10030    2    1    2    0    0  0.00000000000E+00  0.00000000000E+00 -0.57526039071E+03  0.24862660659E+04  0.24188002053E+04 0.  0.
        2    1    3    3  502    0 -0.12525998969E+03  0.10492535084E+04  0.31701656795E+03  0.11032327471E+04  0.25500000920E-02 0.  1.
       -2    1    3    3    0  502  0.12525998969E+03 -0.10492535084E+04 -0.89227695866E+03  0.13830333188E+04  0.25500000920E-02 0. -1.
</event>
<event>
 5   0  0.2065692E-05  0.2385998E+04  0.7818609E-02  0.8444764E-01
       -1   -1    0    0    0  501  0.00000000000E+00  0.00000000000E+00  0.15662381291E+04  0.15662381291E+04  0.50400001928E-02 0. -1.
        1   -1    0    0  501    0  0.00000000000E+00  0.00000000000E+00 -0.90870418586E+03  0.90870418587E+03  0.50400001928E-02 0.  1.
    10030    2    1    2    0    0  0.00000000000E+00  0.00000000000E+00  0.65753394326E+03  0.24749423150E+04  0.23859984443E+04 0.  0.
        3    1    3    3  502    0  0.28292358305E+02 -0.96480327904E+03 -0.39851268577E+03  0.10442500638E+04  0.10100000352E+00 0.  1.
       -3    1    3    3    0  502 -0.28292358305E+02  0.96480327904E+03  0.10560466290E+04  0.14306922512E+04  0.10100000352E+00 0. -1.
</event>
<event>
 5   0  0.2139556E-05  0.2464595E+04  0.7818609E-02  0.8415708E-01
        1   -1    0    0  501    0  0.00000000000E+00  0.00000000000E+00  0.17858721324E+04  0.17858721324E+04  0.50400001928E-02 0.  1.
       -1   -1    0    0    0  501  0.00000000000E+00  0.00000000000E+00 -0.85031680893E+03  0.85031680894E+03  0.50400001928E-02 0. -1.
    10030    2    1    2    0    0  0.00000000000E+00  0.00000000000E+00  0.93555532345E+03  0.26361889413E+04  0.24645949710E+04 0.  0.
        2    1    3    3  502    0  0.57567102324E+03  0.42931894007E+03 -0.60336650952E+03  0.93795683489E+03  0.25500000920E-02 0. -1.
       -2    1    3    3    0  502 -0.57567102324E+03 -0.42931894007E+03  0.15389218330E+04  0.16982321064E+04  0.25500000920E-02 0.  1.
</event>
<event>
 5   0  0.4856882E-05  0.2380315E+04  0.7818609E-02  0.8446910E-01
        2   -1    0    0  501    0  0.00000000000E+00  0.00000000000E+00  0.16832200841E+04  0.16832200841E+04  0.25500000920E-02 0. -1.
       -2   -1    0    0    0  501  0.00000000000E+00  0.00000000000E+00 -0.84152657380E+03  0.84152657381E+03  0.25500000920E-02 0.  1.
    10030    2    1    2    0    0  0.00000000000E+00  0.00000000000E+00  0.84169351028E+03  0.25247466579E+04  0.23803146265E+04 0.  0.
        1    1    3    3  502    0  0.10579400962E+04 -0.37495573856E+03  0.84064655982E+03  0.14023251020E+04  0.50400001928E-02 0. -1.
       -1    1    3    3    0  502 -0.10579400962E+04  0.37495573856E+03  0.10469504601E+01  0.11224215559E+04  0.50400001928E-02 0.  1.
</event>
<event>
 5   0  0.1672125E-05  0.2383444E+04  0.7818609E-02  0.8445728E-01
       -4   -1    0    0    0  501  0.00000000000E+00  0.00000000000E+00  0.97088620871E+03  0.97088703935E+03  0.12699999809E+01 0.  1.
        4   -1    0    0  501    0  0.00000000000E+00  0.00000000000E+00 -0.14627874938E+04  0.14627880451E+04  0.12699999809E+01 0. -1.
    10030    2    1    2    0    0  0.00000000000E+00  0.00000000000E+00 -0.49190128507E+03  0.24336750844E+04  0.23834444702E+04 0.  0.
        5    1    3    3  502    0  0.31779151920E+03 -0.25926721794E+03 -0.13884456750E+04  0.14477618666E+04  0.46999998093E+01 0. -1.
       -5    1    3    3    0  502 -0.31779151920E+03  0.25926721794E+03  0.89654438993E+03  0.98591321783E+03  0.46999998093E+01 0.  1.
</event>
<event>
 5   0  0.2149920E-05  0.2201595E+04  0.7818609E-02  0.8517765E-01
       -1   -1    0    0    0  501  0.00000000000E+00  0.00000000000E+00  0.89031713321E+03  0.89031713322E+03  0.50400001928E-02 0.  1.
        1   -1    0    0  501    0  0.00000000000E+00  0.00000000000E+00 -0.13610373827E+04  0.13610373827E+04  0.50400001928E-02 0. -1.
    10030    2    1    2    0    0  0.00000000000E+00  0.00000000000E+00 -0.47072024949E+03  0.22513545159E+04  0.22015947863E+04 0.  0.
        5    1    3    3  502    0  0.78786179486E+03 -0.70823192292E+03 -0.54114050540E+03  0.11896107771E+04  0.46999998093E+01 0.  1.
       -5    1    3    3    0  502 -0.78786179486E+03  0.70823192292E+03  0.70420255910E+02  0.10617437388E+04  0.46999998093E+01 0. -1.
</event>
<event>
 5   0  0.4713971E-05  0.2323320E+04  0.7818609E-02  0.8468783E-01
        2   -1    0    0  501    0  0.00000000000E+00  0.00000000000E+00  0.11689503850E+04  0.11689503850E+04  0.25500000920E-02 0. -1.
       -2   -1    0    0    0  501  0.00000000000E+00  0.00000000000E+00 -0.11544151967E+04  0.11544151967E+04  0.25500000920E-02 0.  1.
    10030    2    1    2    0    0  0.00000000000E+00  0.00000000000E+00  0.14535188312E+02  0.23233655817E+04  0.23233201145E+04 0.  0.
        5    1    3    3  502    0  0.24150912254E+03 -0.76036988717E+03 -0.83710843687E+03  0.11564002969E+04  0.46999998093E+01 0.  1.
       -5    1    3    3    0  502 -0.24150912254E+03  0.76036988717E+03  0.85164362518E+03  0.11669652848E+04  0.46999998093E+01 0. -1.
</event>
<event>
 5   0  0.2139556E-05  0.2404428E+04  0.7818609E-02  0.8437848E-01
        1   -1    0    0  501    0  0.00000000000E+00  0.00000000000E+00  0.13643606317E+04  0.13643606317E+04  0.50400001928E-02 0.  1.
       -1   -1    0    0    0  501  0.00000000000E+00  0.00000000000E+00 -0.10593372285E+04  0.10593372285E+04  0.50400001928E-02 0. -1.
    10030    2    1    2    0    0  0.00000000000E+00  0.00000000000E+00  0.30502340322E+03  0.24236978602E+04  0.24044275911E+04 0.  0.
        2    1    3    3  502    0 -0.33976738865E+03 -0.65968344419E+03 -0.80095166415E+03  0.10918551613E+04  0.25500000920E-02 0. -1.
       -2    1    3    3    0  502  0.33976738865E+03  0.65968344419E+03  0.11059750674E+04  0.13318426989E+04  0.25500000920E-02 0.  1.
</event>
<event>
 5   0  0.2065692E-05  0.2796734E+04  0.7818609E-02  0.8304283E-01
       -1   -1    0    0    0  501  0.00000000000E+00  0.00000000000E+00  0.17436198193E+04  0.17436198193E+04  0.50400001928E-02 0.  1.
        1   -1    0    0  501    0  0.00000000000E+00  0.00000000000E+00 -0.11214772678E+04  0.11214772678E+04  0.50400001928E-02 0. -1.
    10030    2    1    2    0    0  0.00000000000E+00  0.00000000000E+00  0.62214255156E+03  0.28650970871E+04  0.27967338029E+04 0.  0.
        3    1    3    3  502    0 -0.95637143973E+03  0.67359855824E+03  0.10959910168E+04  0.16029902269E+04  0.10100000352E+00 0.  1.
       -3    1    3    3    0  502  0.95637143973E+03 -0.67359855824E+03 -0.47384846524E+03  0.12621068602E+04  0.10100000352E+00 0. -1.
</event>
<event>
 5   0  0.2149920E-05  0.2332610E+04  0.7818609E-02  0.8465173E-01
        1   -1    0    0  501    0  0.00000000000E+00  0.00000000000E+00  0.88406325003E+03  0.88406325004E+03  0.50400001928E-02 0. -1.
       -1   -1    0    0    0  501  0.00000000000E+00  0.00000000000E+00 -0.15386544533E+04  0.15386544533E+04  0.50400001928E-02 0.  1.
    10030    2    1    2    0    0  0.00000000000E+00  0.00000000000E+00 -0.65459120329E+03  0.24227177034E+04  0.23326104319E+04 0.  0.
        5    1    3    3  502    0  0.97318982755E+03  0.51937934631E+03 -0.72059537647E+03  0.13176240482E+04  0.46999998093E+01 0.  1.
       -5    1    3    3    0  502 -0.97318982755E+03 -0.51937934631E+03  0.66004173180E+02  0.11050936552E+04  0.46999998093E+01 0. -1.
</event>
<event>
 5   0  0.4914005E-05  0.2437495E+04  0.7818609E-02  0.8425598E-01
       -2   -1    0    0    0  501  0.00000000000E+00  0.00000000000E+00  0.78308389017E+03  0.78308389017E+03  0.25500000920E-02 0. -1.
        2   -1    0    0  501    0  0.00000000000E+00  0.00000000000E+00 -0.18967897721E+04  0.18967897721E+04  0.25500000920E-02 0.  1.
    10030    2    1    2    0    0  0.00000000000E+00  0.00000000000E+00 -0.11137058820E+04  0.26798736623E+04  0.24374950368E+04 0.  0.
        2    1    3    3  502    0 -0.52995792037E+03  0.62550916834E+03  0.43461082694E+03  0.92790284402E+03  0.25500000920E-02 0. -1.
       -2    1    3    3    0  502  0.52995792037E+03 -0.62550916834E+03 -0.15483167089E+04  0.17519708183E+04  0.25500000920E-02 0.  1.
</event>
<event>
 5   0  0.4856882E-05  0.2409601E+04  0.7818609E-02  0.8435918E-01
        2   -1    0    0  501    0  0.00000000000E+00  0.00000000000E+00  0.63516022436E+03  0.63516022437E+03  0.25500000920E-02 0. -1.
       -2   -1    0    0    0  501  0.00000000000E+00  0.00000000000E+00 -0.22853203350E+04  0.22853203350E+04  0.25500000920E-02 0.  1.
    10030    2    1    2    0    0  0.00000000000E+00  0.00000000000E+00 -0.16501601106E+04  0.29204805594E+04  0.24096012755E+04 0.  0.
        1    1    3    3  502    0  0.74193061549E+03  0.73968331345E+03 -0.15461566564E+04  0.18676704336E+04  0.50400001928E-02 0.  1.
       -1    1    3    3    0  502 -0.74193061549E+03 -0.73968331345E+03 -0.10400345424E+03  0.10528101258E+04  0.50400001928E-02 0. -1.
</event>
<event>
 5   0  0.2065692E-05  0.2487979E+04  0.7818609E-02  0.8407281E-01
        1   -1    0    0  501    0  0.00000000000E+00  0.00000000000E+00  0.13117692720E+04  0.13117692720E+04  0.50400001928E-02 0.  1.
       -1   -1    0    0    0  501  0.00000000000E+00  0.00000000000E+00 -0.11797114978E+04  0.11797114978E+04  0.50400001928E-02 0. -1.
    10030    2    1    2    0    0  0.00000000000E+00  0.00000000000E+00  0.13205777424E+03  0.24914807698E+04  0.24879785310E+04 0.  0.
        3    1    3    3  502    0  0.28639529357E+03 -0.11384818290E+04 -0.34606727146E+03  0.12238977513E+04  0.10100000352E+00 0. -1.
       -3    1    3    3    0  502 -0.28639529357E+03  0.11384818290E+04  0.47812504570E+03  0.12675830185E+04  0.10100000352E+00 0.  1.
</event>
<event>
 5   0  0.4856882E-05  0.2392302E+04  0.7818609E-02  0.8442391E-01
       -2   -1    0    0    0  501  0.00000000000E+00  0.00000000000E+00  0.14596510119E+04  0.14596510119E+04  0.25500000920E-02 0. -1.
        2   -1    0    0  501    0  0.00000000000E+00  0.00000000000E+00 -0.98021874298E+03  0.98021874299E+03  0.25500000920E-02 0.  1.
    10030    2    1    2    0    0  0.00000000000E+00  0.00000000000E+00  0.47943226893E+03  0.24398697549E+04  0.23923020546E+04 0.  0.
        1    1    3    3  502    0 -0.75149157742E+03  0.14037544014E+02  0.11887235643E+04  0.14064140059E+04  0.50400001928E-02 0. -1.
       -1    1    3    3    0  502  0.75149157742E+03 -0.14037544014E+02 -0.70929129535E+03  0.10334557491E+04  0.50400001928E-02 0.  1.
</event>
<event>
 5   0  0.4856882E-05  0.2394569E+04  0.7818609E-02  0.8441540E-01
        2   -1    0    0  501    0  0.00000000000E+00  0.00000000000E+00  0.11462533446E+04  0.11462533446E+04  0.25500000920E-02 0. -1.
       -2   -1    0    0    0  501  0.00000000000E+00  0.00000000000E+00 -0.12505877721E+04  0.12505877721E+04  0.25500000920E-02 0.  1.
    10030    2    1    2    0    0  0.00000000000E+00  0.00000000000E+00 -0.10433442750E+03  0.23968411167E+04  0.23945692026E+04 0.  0.
        1    1    3    3  502    0 -0.60744673962E+02 -0.11917845535E+04 -0.14947096379E+03  0.12026561879E+04  0.50400001928E-02 0. -1.
       -1    1    3    3    0  502  0.60744673962E+02  0.11917845535E+04  0.45136536294E+02  0.11941849288E+04  0.50400001928E-02 0.  1.
</event>
<event>
 5   0  0.4713971E-05  0.2432896E+04  0.7818609E-02  0.8427290E-01
       -2   -1    0    0    0  501  0.00000000000E+00  0.00000000000E+00  0.52510144256E+03  0.52510144257E+03  0.25500000920E-02 0. -1.
        2   -1    0    0  501    0  0.00000000000E+00  0.00000000000E+00 -0.28180183399E+04  0.28180183399E+04  0.25500000920E-02 0.  1.
    10030    2    1    2    0    0  0.00000000000E+00  0.00000000000E+00 -0.22929168973E+04  0.33431197824E+04  0.24328958017E+04 0.  0.
        5    1    3    3  502    0  0.94331019887E+03  0.44957487412E+03 -0.29076838776E+03  0.10846750869E+04  0.46999998093E+01 0. -1.
       -5    1    3    3    0  502 -0.94331019887E+03 -0.44957487412E+03 -0.20021485095E+04  0.22584446956E+04  0.46999998093E+01 0.  1.
</event>
<event>
 5   0  0.4756705E-05  0.2427854E+04  0.7818609E-02  0.8429148E-01
        2   -1    0    0  501    0  0.00000000000E+00  0.00000000000E+00  0.18552952678E+04  0.18552952678E+04  0.25500000920E-02 0. -1.
       -2   -1    0    0    0  501  0.00000000000E+00  0.00000000000E+00 -0.79427741840E+03  0.79427741841E+03  0.25500000920E-02 0.  1.
    10030    2    1    2    0    0  0.00000000000E+00  0.00000000000E+00  0.10610178494E+04  0.26495726862E+04  0.24278543084E+04 0.  0.
        3    1    3    3  502    0 -0.10892790764E+03  0.75309947903E+03  0.15627150981E+04  0.17381319290E+04  0.10100000352E+00 0. -1.
       -3    1    3    3    0  502  0.10892790764E+03 -0.75309947903E+03 -0.50169724873E+03  0.91144075724E+03  0.10100000352E+00 0.  1.
</event>
<event>
 5   0  0.2090039E-05  0.2402366E+04  0.7818609E-02  0.8438618E-01
       -1   -1    0    0    0  501  0.00000000000E+00  0.00000000000E+00  0.99606655544E+03  0.99606655545E+03  0.50400001928E-02 0.  1.
        1   -1    0    0  501    0  0.00000000000E+00  0.00000000000E+00 -0.14485383153E+04  0.14485383153E+04  0.50400001928E-02 0. -1.
    10030    2    1    2    0    0  0.00000000000E+00  0.00000000000E+00 -0.45247175983E+03  0.24446048707E+04  0.24023659756E+04 0.  0.
        1    1    3    3  502    0  0.66608264768E+03  0.41960980857E+03 -0.11494370692E+04  0.13931776847E+04  0.50400001928E-02 0. -1.
       -1    1    3    3    0  502 -0.66608264768E+03 -0.41960980857E+03  0.69696530940E+03  0.10514271860E+04  0.50400001928E-02 0.  1.
</event>
<event>
 5   0  0.2090039E-05  0.2396048E+04  0.7818609E-02  0.8440985E-01
        1   -1    0    0  501    0  0.00000000000E+00  0.00000000000E+00  0.18227651320E+04  0.18227651320E+04  0.50400001928E-02 0.  1.
       -1   -1    0    0    0  501  0.00000000000E+00  0.00000000000E+00 -0.78740878393E+03  0.78740878395E+03  0.50400001928E-02 0. -1.
    10030    2    1    2    0    0  0.00000000000E+00  0.00000000000E+00  0.10353563481E+04  0.26101739159E+04  0.23960478092E+04 0.  0.
        1    1    3    3  502    0  0.48473002643E+03 -0.74865736053E+03 -0.35368571334E+03  0.95945016851E+03  0.50400001928E-02 0. -1.
       -1    1    3    3    0  502 -0.48473002643E+03  0.74865736053E+03  0.13890420614E+04  0.16507237474E+04  0.50400001928E-02 0.  1.
</event>
<event>
 5   0  0.2090039E-05  0.2406471E+04  0.7818609E-02  0.8437085E-01
       -1   -1    0    0    0  501  0.00000000000E+00  0.00000000000E+00  0.26462276287E+04  0.26462276287E+04  0.50400001928E-02 0. -1.
        1   -1    0    0  501    0  0.00000000000E+00  0.00000000000E+00 -0.54710941400E+03  0.54710941402E+03  0.50400001928E-02 0.  1.
    10030    2    1    2    0    0  0.00000000000E+00  0.00000000000E+00  0.20991182147E+04  0.31933370427E+04  0.24064713148E+04 0.  0.
        1    1    3    3  502    0 -0.24476911317E+01  0.10605061808E+04  0.18038351754E+04  0.20924867241E+04  0.50400001928E-02 0. -1.
       -1    1    3    3    0  502  0.24476911317E+01 -0.10605061808E+04  0.29528303929E+03  0.11008503186E+04  0.50400001928E-02 0.  1.
</event>
<event>
 5   0  0.4713971E-05  0.2410843E+04  0.7818609E-02  0.8435455E-01
        2   -1    0    0  501    0  0.00000000000E+00  0.00000000000E+00  0.20789833959E+04  0.20789833959E+04  0.25500000920E-02 0. -1.
       -2   -1    0    0    0  501  0.00000000000E+00  0.00000000000E+00 -0.69891888447E+03  0.69891888448E+03  0.25500000920E-02 0.  1.
    10030    2    1    2    0    0  0.00000000000E+00  0.00000000000E+00  0.13800645114E+04  0.27779022803E+04  0.24108428036E+04 0.  0.
        5    1    3    3  502    0 -0.60348275845E+03  0.82623531153E+03  0.14243735461E+04  0.17537725960E+04  0.46999998093E+01 0. -1.
       -5    1    3    3    0  502  0.60348275845E+03 -0.82623531153E+03 -0.44309034697E+02  0.10241296843E+04  0.46999998093E+01 0.  1.
</event>
<event>
 5   0  0.4856882E-05  0.2448976E+04  0.7818609E-02  0.8421392E-01
       -2   -1    0    0    0  501  0.00000000000E+00  0.00000000000E+00  0.90587048716E+03  0.90587048717E+03  0.25500000920E-02 0.  1.
        2   -1    0    0  501    0  0.00000000000E+00  0.00000000000E+00 -0.16551716876E+04  0.16551716876E+04  0.25500000920E-02 0. -1.
    10030    2    1    2    0    0  0.00000000000E+00  0.00000000000E+00 -0.74930120041E+03  0.25610421747E+04  0.24489762620E+04 0.  0.
        1    1    3    3  502    0 -0.51903478914E+03 -0.29239388582E+03  0.74410761426E+03  0.95319853043E+03  0.50400001928E-02 0.  1.
       -1    1    3    3    0  502  0.51903478914E+03  0.29239388582E+03 -0.14934088147E+04  0.16078436443E+04  0.50400001928E-02 0. -1.
</event>
<event>
 5   0  0.2149920E-05  0.2393637E+04  0.7818609E-02  0.8441890E-01
       -1   -1    0    0    0  501  0.00000000000E+00  0.00000000000E+00  0.87068429175E+03  0.87068429177E+03  0.50400001928E-02 0. -1.
        1   -1    0    0  501    0  0.00000000000E+00  0.00000000000E+00 -0.16451130394E+04  0.16451130394E+04  0.50400001928E-02 0.  1.
    10030    2    1    2    0    0  0.00000000000E+00  0.00000000000E+00 -0.77442874761E+03  0.25157973311E+04  0.23936366320E+04 0.  0.
        5    1    3    3  502    0  0.75870602571E+03  0.35278481370E+03 -0.12866085994E+04  0.15347559208E+04  0.46999998093E+01 0.  1.
       -5    1    3    3    0  502 -0.75870602571E+03 -0.35278481370E+03  0.51217985183E+03  0.98104141036E+03  0.46999998093E+01 0. -1.
</event>
<event>
 5   0  0.2065692E-05  0.2498656E+04  0.7818609E-02  0.8403464E-01
       -1   -1    0    0    0  501  0.00000000000E+00  0.00000000000E+00  0.11204650920E+04  0.11204650920E+04  0.50400001928E-02 0. -1.
        1   -1    0    0  501    0  0.00000000000E+00  0.00000000000E+00 -0.13930117544E+04  0.13930117544E+04  0.50400001928E-02 0.  1.
    10030    2    1    2    0    0  0.00000000000E+00  0.00000000000E+00 -0.27254666240E+03  0.25134768465E+04  0.24986564739E+04 0.  0.
        3    1    3    3  502    0 -0.80526999177E+03 -0.92159182125E+03 -0.38881977842E+03  0.12841230762E+04  0.10100000352E+00 0.  1.
       -3    1    3    3    0  502  0.80526999177E+03  0.92159182125E+03  0.11627311602E+03  0.12293537702E+04  0.10100000352E+00 0. -1.
</event>
<event>
 5   0  0.4856882E-05  0.2314136E+04  0.7818609E-02  0.8472368E-01
        2   -1    0    0  501    0  0.00000000000E+00  0.00000000000E+00  0.14788041960E+04  0.14788041960E+04  0.25500000920E-02 0.  1.
       -2   -1    0    0    0  501  0.00000000000E+00  0.00000000000E+00 -0.90533050015E+03  0.90533050016E+03  0.25500000920E-02 0. -1.
    10030    2    1    2    0    0  0.00000000000E+00  0.00000000000E+00  0.57347369583E+03  0.23841346961E+04  0.23141361605E+04 0.  0.
        1    1    3    3  502    0  0.95491564188E+03  0.64393150277E+02  0.95663288327E+03  0.13532024365E+04  0.50400001928E-02 0.  1.
       -1    1    3    3    0  502 -0.95491564188E+03 -0.64393150277E+02 -0.38315918744E+03  0.10309322596E+04  0.50400001928E-02 0. -1.
</event>
<event>
 5   0  0.2090039E-05  0.2370484E+04  0.7818609E-02  0.8450637E-01
        1   -1    0    0  501    0  0.00000000000E+00  0.00000000000E+00  0.10129688921E+04  0.10129688921E+04  0.50400001928E-02 0.  1.
       -1   -1    0    0    0  501  0.00000000000E+00  0.00000000000E+00 -0.13868135530E+04  0.13868135530E+04  0.50400001928E-02 0. -1.
    10030    2    1    2    0    0  0.00000000000E+00  0.00000000000E+00 -0.37384466087E+03  0.23997824451E+04  0.23704843288E+04 0.  0.
        1    1    3    3  502    0  0.79309629444E+03 -0.60239089139E+03 -0.83745489537E+03  0.13012329615E+04  0.50400001928E-02 0.  1.
       -1    1    3    3    0  502 -0.79309629444E+03  0.60239089139E+03  0.46361023449E+03  0.10985494836E+04  0.50400001928E-02 0. -1.
</event>
<event>
 5   0  0.2139556E-05  0.2202467E+04  0.7818609E-02  0.8517402E-01
        1   -1    0    0  501    0  0.00000000000E+00  0.00000000000E+00  0.11222872216E+04  0.11222872216E+04  0.50400001928E-02 0.  1.
       -1   -1    0    0    0  501  0.00000000000E+00  0.00000000000E+00 -0.10805751978E+04  0.10805751978E+04  0.50400001928E-02 0. -1.
    10030    2    1    2    0    0  0.00000000000E+00  0.00000000000E+00  0.41712023807E+02  0.22028624195E+04  0.22024674677E+04 0.  0.
        2    1    3    3  502    0  0.86607272278E+03 -0.54036603600E+03  0.43401400420E+03  0.11092545109E+04  0.25500000920E-02 0.  1.
       -2    1    3    3    0  502 -0.86607272278E+03  0.54036603600E+03 -0.39230198039E+03  0.10936079086E+04  0.25500000920E-02 0. -1.
</event>
<event>
 5   0  0.2057599E-05  0.2406413E+04  0.7818609E-02  0.8437106E-01
       -1   -1    0    0    0  501  0.00000000000E+00  0.00000000000E+00  0.60842300903E+03  0.60842300905E+03  0.50400001928E-02 0.  1.
        1   -1    0    0  501    0  0.00000000000E+00  0.00000000000E+00 -0.23794404818E+04  0.23794404818E+04  0.50400001928E-02 0. -1.
    10030    2    1    2    0    0  0.00000000000E+00  0.00000000000E+00 -0.17710174728E+04  0.29878634909E+04  0.24064133791E+04 0.  0.
        4    1    3    3  502    0  0.91197180548E+03  0.62406496136E+03 -0.29452243336E+03  0.11436322515E+04  0.12699999809E+01 0.  1.
       -4    1    3    3    0  502 -0.91197180548E+03 -0.62406496136E+03 -0.14764950395E+04  0.18442312394E+04  0.12699999809E+01 0. -1.
</event>
<event>
 5   0  0.2057599E-05  0.2422681E+04  0.7818609E-02  0.8431061E-01
       -1   -1    0    0    0  501  0.00000000000E+00  0.00000000000E+00  0.19633367400E+04  0.19633367400E+04  0.50400001928E-02 0. -1.
        1   -1    0    0  501    0  0.00000000000E+00  0.00000000000E+00 -0.74737328756E+03  0.74737328758E+03  0.50400001928E-02 0.  1.
    10030    2    1    2    0    0  0.00000000000E+00  0.00000000000E+00  0.12159634524E+04  0.27107100276E+04  0.24226806921E+04 0.  0.
        4    1    3    3  502    0  0.30164546127E+03 -0.14065380182E+02  0.19205464210E+04  0.19441419668E+04  0.12699999809E+01 0. -1.
       -4    1    3    3    0  502 -0.30164546127E+03  0.14065380182E+02 -0.70458296856E+03  0.76656806072E+03  0.12699999809E+01 0.  1.
</event>
<event>
 5   0  0.2090039E-05  0.2419409E+04  0.7818609E-02  0.8432273E-01
       -1   -1    0    0    0  501  0.00000000000E+00  0.00000000000E+00  0.61275289203E+03  0.61275289205E+03  0.50400001928E-02 0. -1.
        1   -1    0    0  501    0  0.00000000000E+00  0.00000000000E+00 -0.23882141220E+04  0.23882141220E+04  0.50400001928E-02 0.  1.
    10030    2    1    2    0    0  0.00000000000E+00  0.00000000000E+00 -0.17754612299E+04  0.30009670140E+04  0.24194091097E+04 0.  0.
        1    1    3    3  502    0 -0.98215532177E+03 -0.15078140019E+03 -0.31945027920E+02  0.99417533240E+03  0.50400001928E-02 0. -1.
       -1    1    3    3    0  502  0.98215532177E+03  0.15078140019E+03 -0.17435162020E+04  0.20067916816E+04  0.50400001928E-02 0.  1.
</event>
<event>
 5   0  0.2065692E-05  0.2400145E+04  0.7818609E-02  0.8439449E-01
       -1   -1    0    0    0  501  0.00000000000E+00  0.00000000000E+00  0.13247659991E+04  0.13247659992E+04  0.50400001928E-02 0. -1.
        1   -1    0    0  501    0  0.00000000000E+00  0.00000000000E+00 -0.10871159123E+04  0.10871159124E+04  0.50400001928E-02 0.  1.
    10030    2    1    2    0    0  0.00000000000E+00  0.00000000000E+00  0.23765008680E+03  0.24118819115E+04  0.24001451605E+04 0.  0.
        3    1    3    3  502    0  0.11820780796E+04 -0.12434603286E+03  0.28517506471E+03  0.12223319311E+04  0.10100000352E+00 0. -1.
       -3    1    3    3    0  502 -0.11820780796E+04  0.12434603286E+03 -0.47524977911E+02  0.11895499804E+04  0.10100000352E+00 0.  1.
</event>
<event>
 5   0  0.2057599E-05  0.2386476E+04  0.7818609E-02  0.8444584E-01
        1   -1    0    0  501    0  0.00000000000E+00  0.00000000000E+00  0.15919059893E+04  0.15919059893E+04  0.50400001928E-02 0. -1.
       -1   -1    0    0    0  501  0.00000000000E+00  0.00000000000E+00 -0.89441001824E+03  0.89441001825E+03  0.50400001928E-02 0.  1.
    10030    2    1    2    0    0  0.00000000000E+00  0.00000000000E+00  0.69749597102E+03  0.24863160075E+04  0.23864757823E+04 0.  0.
        4    1    3    3  502    0 -0.50385056443E+03 -0.92316914676E+02  0.14715296191E+04  0.15581363345E+04  0.12699999809E+01 0. -1.
       -4    1    3    3    0  502  0.50385056443E+03  0.92316914676E+02 -0.77403364813E+03  0.92817967299E+03  0.12699999809E+01 0.  1.
</event>
<event>
 5   0  0.4756705E-05  0.2455543E+04  0.7818609E-02  0.8418997E-01
       -2   -1    0    0    0  501  0.00000000000E+00  0.00000000000E+00  0.86825099364E+03  0.86825099365E+03  0.25500000920E-02 0.  1.
        2   -1    0    0  501    0  0.00000000000E+00  0.00000000000E+00 -0.17361602320E+04  0.17361602320E+04  0.25500000920E-02 0. -1.
    10030    2    1    2    0    0  0.00000000000E+00  0.00000000000E+00 -0.86790923831E+03  0.26044112256E+04  0.24555429921E+04 0.  0.
        3    1    3    3  502    0  0.81836888632E+03  0.62973291173E+03  0.27048882455E+03  0.10674527571E+04  0.10100000352E+00 0.  1.
       -3    1    3    3    0  502 -0.81836888632E+03 -0.62973291173E+03 -0.11383980629E+04  0.15369584685E+04  0.10100000352E+00 0. -1.
</event>
<event>
 5   0  0.2139556E-05  0.2424716E+04  0.7818609E-02  0.8430308E-01
       -1   -1    0    0    0  501  0.00000000000E+00  0.00000000000E+00  0.10732792331E+04  0.10732792331E+04  0.50400001928E-02 0.  1.
        1   -1    0    0  501    0  0.00000000000E+00  0.00000000000E+00 -0.13694595054E+04  0.13694595054E+04  0.50400001928E-02 0. -1.
    10030    2    1    2    0    0  0.00000000000E+00  0.00000000000E+00 -0.29618027232E+03  0.24427387386E+04  0.24247164352E+04 0.  0.
        2    1    3    3  502    0 -0.68788701949E+03 -0.95040019286E+03  0.15973517163E+03  0.11840457775E+04  0.25500000920E-02 0. -1.
       -2    1    3    3    0  502  0.68788701949E+03  0.95040019286E+03 -0.45591544396E+03  0.12586929611E+04  0.25500000920E-02 0.  1.
</event>
<event>
 5   0  0.2065692E-05  0.2426554E+04  0.7818609E-02  0.8429629E-01
        1   -1    0    0  501    0  0.00000000000E+00  0.00000000000E+00  0.13807793963E+04  0.13807793963E+04  0.50400001928E-02 0. -1.
       -1   -1    0    0    0  501  0.00000000000E+00  0.00000000000E+00 -0.10660940548E+04  0.10660940548E+04  0.50400001928E-02 0.  1.
    10030    2    1    2    0    0  0.00000000000E+00  0.00000000000E+00  0.31468534149E+03  0.24468734512E+04  0.24265536924E+04 0.  0.
        3    1    3    3  502    0  0.29278477601E+03 -0.82774397621E+03 -0.68702082868E+03  0.11148455698E+04  0.10100000352E+00 0.  1.
       -3    1    3    3    0  502 -0.29278477601E+03  0.82774397621E+03  0.10017061702E+04  0.13320278814E+04  0.10100000352E+00 0. -1.
</event>
<event>
 5   0  0.2139556E-05  0.2156129E+04  0.7818609E-02  0.8536913E-01
        1   -1    0    0  501    0  0.00000000000E+00  0.00000000000E+00  0.12485941221E+04  0.12485941221E+04  0.50400001928E-02 0. -1.
       -1   -1    0    0    0  501  0.00000000000E+00  0.00000000000E+00 -0.93082511270E+03  0.93082511271E+03  0.50400001928E-02 0.  1.
    10030    2    1    2    0    0  0.00000000000E+00  0.00000000000E+00  0.31776900943E+03  0.21794192348E+04  0.21561287202E+04 0.  0.
        2    1    3    3  502    0  0.54762151835E+03  0.60564538725E+02  0.10955360846E+04  0.12262775801E+04  0.25500000920E-02 0. -1.
       -2    1    3    3    0  502 -0.54762151835E+03 -0.60564538725E+02 -0.77776707522E+03  0.95314165474E+03  0.25500000920E-02 0.  1.
</event>
<event>
 5   0  0.4856882E-05  0.2262285E+04  0.7818609E-02  0.8492942E-01
        2   -1    0    0  501    0  0.00000000000E+00  0.00000000000E+00  0.11047775460E+04  0.11047775460E+04  0.25500000920E-02 0. -1.
       -2   -1    0    0    0  501  0.00000000000E+00  0.00000000000E+00 -0.11581362899E+04  0.11581362899E+04  0.25500000920E-02 0.  1.
    10030    2    1    2    0    0  0.00000000000E+00  0.00000000000E+00 -0.53358743913E+02  0.22629138359E+04  0.22622846579E+04 0.  0.
        1    1    3    3  502    0  0.10056336416E+04  0.51743550881E+03 -0.55917317602E+01  0.11309596785E+04  0.50400001928E-02 0.  1.
       -1    1    3    3    0  502 -0.10056336416E+04 -0.51743550881E+03 -0.47767012153E+02  0.11319541574E+04  0.50400001928E-02 0. -1.
</event>
<event>
 5   0  0.2090039E-05  0.2530759E+04  0.7818609E-02  0.8392109E-01
       -1   -1    0    0    0  501  0.00000000000E+00  0.00000000000E+00  0.10229011650E+04  0.10229011650E+04  0.50400001928E-02 0.  1.
        1   -1    0    0  501    0  0.00000000000E+00  0.00000000000E+00 -0.15653366265E+04  0.15653366265E+04  0.50400001928E-02 0. -1.
    10030    2    1    2    0    0  0.00000000000E+00  0.00000000000E+00 -0.54243546150E+03  0.25882377915E+04  0.25307585099E+04 0.  0.
        1    1    3    3  502    0  0.56234612982E+03  0.11190718643E+04 -0.45595719828E+03  0.13328360641E+04  0.50400001928E-02 0. -1.
       -1    1    3    3    0  502 -0.56234612982E+03 -0.11190718643E+04 -0.86478263227E+02  0.12554017274E+04  0.50400001928E-02 0.  1.
</event>
<event>
 5   0  0.4914005E-05  0.2407281E+04  0.7818609E-02  0.8436783E-01
        2   -1    0    0  501    0  0.00000000000E+00  0.00000000000E+00  0.11082437723E+04  0.11082437723E+04  0.25500000920E-02 0.  1.
       -2   -1    0    0    0  501  0.00000000000E+00  0.00000000000E+00 -0.13072489664E+04  0.13072489664E+04  0.25500000920E-02 0. -1.
    10030    2    1    2    0    0  0.00000000000E+00  0.00000000000E+00 -0.19900519416E+03  0.24154927387E+04  0.24072810603E+04 0.  0.
        2    1    3    3  502    0 -0.10279147887E+04  0.43447128178E+03 -0.55201369478E+03  0.12450274000E+04  0.25500000920E-02 0. -1.
       -2    1    3    3    0  502  0.10279147887E+04 -0.43447128178E+03  0.35300850063E+03  0.11704653387E+04  0.25500000920E-02 0.  1.
</event>
<event>
 5   0  0.1672125E-05  0.2438218E+04  0.7818609E-02  0.8425332E-01
       -3   -1    0    0    0  501  0.00000000000E+00  0.00000000000E+00  0.73574719483E+03  0.73574720176E+03  0.10100000352E+00 0. -1.
        3   -1    0    0  501    0  0.00000000000E+00  0.00000000000E+00 -0.20200230479E+04  0.20200230504E+04  0.10100000352E+00 0.  1.
    10030    2    1    2    0    0  0.00000000000E+00  0.00000000000E+00 -0.12842758530E+04  0.27557702522E+04  0.24382176310E+04 0.  0.
        2    1    3    3  502    0 -0.63813797931E+03 -0.41913813602E+03 -0.17163588916E+04  0.18785059762E+04  0.25500000920E-02 0.  1.
       -2    1    3    3    0  502  0.63813797931E+03  0.41913813602E+03  0.43208303857E+03  0.87726427599E+03  0.25500000920E-02 0. -1.
</event>
<event>
 5   0  0.2057599E-05  0.2282188E+04  0.7818609E-02  0.8484977E-01
       -1   -1    0    0    0  501  0.00000000000E+00  0.00000000000E+00  0.82513519216E+03  0.82513519218E+03  0.50400001928E-02 0. -1.
        1   -1    0    0  501    0  0.00000000000E+00  0.00000000000E+00 -0.15780393506E+04  0.15780393506E+04  0.50400001928E-02 0.  1.
    10030    2    1    2    0    0  0.00000000000E+00  0.00000000000E+00 -0.75290415845E+03  0.24031745428E+04  0.22821882506E+04 0.  0.
        4    1    3    3  502    0 -0.29457944090E+03  0.54432344381E+03 -0.13859338680E+04  0.15178535363E+04  0.12699999809E+01 0.  1.
       -4    1    3    3    0  502  0.29457944090E+03 -0.54432344381E+03  0.63302970951E+03  0.88532100647E+03  0.12699999809E+01 0. -1.
</event>
<event>
 5   0  0.2065692E-05  0.2350991E+04  0.7818609E-02  0.8458083E-01
        1   -1    0    0  501    0  0.00000000000E+00  0.00000000000E+00  0.89208404692E+03  0.89208404694E+03  0.50400001928E-02 0.  1.
       -1   -1    0    0    0  501  0.00000000000E+00  0.00000000000E+00 -0.15489456066E+04  0.15489456066E+04  0.50400001928E-02 0. -1.
    10030    2    1    2    0    0  0.00000000000E+00  0.00000000000E+00 -0.65686155964E+03  0.24410296535E+04  0.23509909955E+04 0.  0.
        3    1    3    3  502    0 -0.42826270714E+03 -0.69285071935E+03 -0.12084389176E+04  0.14573179795E+04  0.10100000352E+00 0. -1.
       -3    1    3    3    0  502  0.42826270714E+03  0.69285071935E+03  0.55157735793E+03  0.98371167403E+03  0.10100000352E+00 0.  1.
</event>
<event>
 5   0  0.4756705E-05  0.1900580E+04  0.7818609E-02  0.8654568E-01
        2   -1    0    0  501    0  0.00000000000E+00  0.00000000000E+00  0.12531247396E+04  0.12531247396E+04  0.25500000920E-02 0. -1.
       -2   -1    0    0    0  501  0.00000000000E+00  0.00000000000E+00 -0.72063953057E+03  0.72063953057E+03  0.25500000920E-02 0.  1.
    10030    2    1    2    0    0  0.00000000000E+00  0.00000000000E+00  0.53248520905E+03  0.19737642702E+04  0.19005801473E+04 0.  0.
        3    1    3    3  502    0 -0.51255245447E+03 -0.76518062335E+03  0.50943895932E+03  0.10524920277E+04  0.10100000352E+00 0. -1.
       -3    1    3    3    0  502  0.51255245447E+03  0.76518062335E+03  0.23046249734E+02  0.92127224248E+03  0.10100000352E+00 0.  1.
</event>
<event>
 5   0  0.4664127E-05  0.2420806E+04  0.7818609E-02  0.8431755E-01
        2   -1    0    0  501    0  0.00000000000E+00  0.00000000000E+00  0.14571382875E+04  0.14571382875E+04  0.25500000920E-02 0.  1.
       -2   -1    0    0    0  501  0.00000000000E+00  0.00000000000E+00 -0.10054467770E+04  0.10054467770E+04  0.25500000920E-02 0. -1.
    10030    2    1    2    0    0  0.00000000000E+00  0.00000000000E+00  0.45169151047E+03  0.24625850645E+04  0.24208056467E+04 0.  0.
        4    1    3    3  502    0  0.47615431064E+03  0.37547811602E+03  0.12914776091E+04  0.14267525261E+04  0.12699999809E+01 0.  1.
       -4    1    3    3    0  502 -0.47615431064E+03 -0.37547811602E+03 -0.83978609863E+03  0.10358325383E+04  0.12699999809E+01 0. -1.
</event>
<event>
 5   0  0.2090039E-05  0.2496865E+04  0.7818609E-02  0.8404103E-01
       -1   -1    0    0    0  501  0.00000000000E+00  0.00000000000E+00  0.14161806702E+04  0.14161806702E+04  0.50400001928E-02 0.  1.
        1   -1    0    0  501    0  0.00000000000E+00  0.00000000000E+00 -0.11005546997E+04  0.11005546998E+04  0.50400001928E-02 0. -1.
    10030    2    1    2    0    0  0.00000000000E+00  0.00000000000E+00  0.31562597050E+03  0.25167353700E+04  0.24968654688E+04 0.  0.
        1    1    3    3  502    0  0.94788577177E+03 -0.58689022054E+03 -0.40849141048E+03  0.11873469585E+04  0.50400001928E-02 0.  1.
       -1    1    3    3    0  502 -0.94788577177E+03  0.58689022054E+03  0.72411738097E+03  0.13293884115E+04  0.50400001928E-02 0. -1.
</event>
<event>
 5   0  0.2149920E-05  0.2384945E+04  0.7818609E-02  0.8445161E-01
       -1   -1    0    0    0  501  0.00000000000E+00  0.00000000000E+00  0.68984307983E+03  0.68984307985E+03  0.50400001928E-02 0.  1.
        1   -1    0    0  501    0  0.00000000000E+00  0.00000000000E+00 -0.20613251566E+04  0.20613251566E+04  0.50400001928E-02 0. -1.
    10030    2    1    2    0    0  0.00000000000E+00  0.00000000000E+00 -0.13714820768E+04  0.27511682365E+04  0.23849451940E+04 0.  0.
        5    1    3    3  502    0  0.83431383745E+03  0.56522872694E+03  0.49650530849E+02  0.10089848157E+04  0.46999998093E+01 0.  1.
       -5    1    3    3    0  502 -0.83431383745E+03 -0.56522872694E+03 -0.14211326076E+04  0.17421834208E+04  0.46999998093E+01 0. -1.
</event>
<event>
 5   0  0.4756705E-05  0.2410326E+04  0.7818609E-02  0.8435648E-01
        2   -1    0    0  501    0  0.00000000000E+00  0.00000000000E+00  0.17847149177E+04  0.17847149177E+04  0.25500000920E-02 0. -1.
       -2   -1    0    0    0  501  0.00000000000E+00  0.00000000000E+00 -0.81380949079E+03  0.81380949080E+03  0.25500000920E-02 0.  1.
    10030    2    1    2    0    0  0.00000000000E+00  0.00000000000E+00  0.97090542695E+03  0.25985244085E+04  0.24103260679E+04 0.  0.
        3    1    3    3  502    0  0.75004280437E+03  0.11080113055E+03 -0.52448264383E+03  0.92191276855E+03  0.10100000352E+00 0.  1.
       -3    1    3    3    0  502 -0.75004280437E+03 -0.11080113055E+03  0.14953880708E+04  0.16766116400E+04  0.10100000352E+00 0. -1.
</event>
<event>
 5   0  0.2057599E-05  0.2394735E+04  0.7818609E-02  0.8441477E-01
       -1   -1    0    0    0  501  0.00000000000E+00  0.00000000000E+00  0.10693936859E+04  0.10693936859E+04  0.50400001928E-02 0. -1.
        1   -1    0    0  501    0  0.00000000000E+00  0.00000000000E+00 -0.13406555399E+04  0.13406555399E+04  0.50400001928E-02 0.  1.
    10030    2    1    2    0    0  0.00000000000E+00  0.00000000000E+00 -0.27126185399E+03  0.24100492258E+04  0.23947346988E+04 0.  0.
        4    1    3    3  502    0  0.98970411800E+02  0.83561399470E+03  0.72166237880E+03  0.11085324048E+04  0.12699999809E+01 0. -1.
       -4    1    3    3    0  502 -0.98970411800E+02 -0.83561399470E+03 -0.99292423279E+03  0.13015168211E+04  0.12699999809E+01 0.  1.
</event>
<event>
 5   0  0.4756705E-05  0.2393232E+04  0.7818609E-02  0.8442042E-01
        2   -1    0    0  501    0  0.00000000000E+00  0.00000000000E+00  0.18607789884E+04  0.18607789884E+04  0.25500000920E-02 0.  1.
       -2   -1    0    0    0  501  0.00000000000E+00  0.00000000000E+00 -0.76951108238E+03  0.76951108239E+03  0.25500000920E-02 0. -1.
    10030    2    1    2    0    0  0.00000000000E+00  0.00000000000E+00  0.10912679060E+04  0.26302900707E+04  0.23932321688E+04 0.  0.
        3    1    3    3  502    0 -0.53611894235E+03  0.49198089328E+02 -0.62888661294E+03  0.82785406592E+03  0.10100000352E+00 0. -1.
       -3    1    3    3    0  502  0.53611894235E+03 -0.49198089328E+02  0.17201545189E+04  0.18024360048E+04  0.10100000352E+00 0.  1.
</event>
<event>
 5   0  0.2149920E-05  0.2379187E+04  0.7818609E-02  0.8447337E-01
       -1   -1    0    0    0  501  0.00000000000E+00  0.00000000000E+00  0.15238596906E+04  0.15238596906E+04  0.50400001928E-02 0. -1.
        1   -1    0    0  501    0  0.00000000000E+00  0.00000000000E+00 -0.92865057929E+03  0.92865057930E+03  0.50400001928E-02 0.  1.
    10030    2    1    2    0    0  0.00000000000E+00  0.00000000000E+00  0.59520911134E+03  0.24525102699E+04  0.23791874113E+04 0.  0.
        5    1    3    3  502    0 -0.89781225420E+03 -0.69640828159E+03  0.66068063977E+03  0.13143714605E+04  0.46999998093E+01 0. -1.
       -5    1    3    3    0  502  0.89781225420E+03  0.69640828159E+03 -0.65471528433E+02  0.11381388094E+04  0.46999998093E+01 0.  1.
</event>
<event>
 5   0  0.2139556E-05  0.2409796E+04  0.7818609E-02  0.8435845E-01
        1   -1    0    0  501    0  0.00000000000E+00  0.00000000000E+00  0.11235535712E+04  0.11235535712E+04  0.50400001928E-02 0. -1.
       -1   -1    0    0    0  501  0.00000000000E+00  0.00000000000E+00 -0.12921319908E+04  0.12921319908E+04  0.50400001928E-02 0.  1.
    10030    2    1    2    0    0  0.00000000000E+00  0.00000000000E+00 -0.16857841961E+03  0.24156855620E+04  0.24097962675E+04 0.  0.
        2    1    3    3  502    0 -0.70133087045E+03  0.16227105084E+03 -0.10528713514E+04  0.12754352066E+04  0.25500000920E-02 0.  1.
       -2    1    3    3    0  502  0.70133087045E+03 -0.16227105084E+03  0.88429293175E+03  0.11402503554E+04  0.25500000920E-02 0. -1.
</event>
<event>
 5   0  0.4713971E-05  0.1870690E+04  0.7818609E-02  0.8669585E-01
       -2   -1    0    0    0  501  0.00000000000E+00  0.00000000000E+00  0.55092370732E+03  0.55092370733E+03  0.25500000920E-02 0. -1.
        2   -1    0    0  501    0  0.00000000000E+00  0.00000000000E+00 -0.15880063891E+04  0.15880063891E+04  0.25500000920E-02 0.  1.
    10030    2    1    2    0    0  0.00000000000E+00  0.00000000000E+00 -0.10370826817E+04  0.21389300964E+04  0.18706901049E+04 0.  0.
        5    1    3    3  502    0  0.62811642052E+03  0.63562076234E+03 -0.20269983002E+03  0.91632598038E+03  0.46999998093E+01 0. -1.
       -5    1    3    3    0  502 -0.62811642052E+03 -0.63562076234E+03 -0.83438285172E+03  0.12226041160E+04  0.46999998093E+01 0.  1.
</event>
<event>
 5   0  0.2090039E-05  0.2396083E+04  0.7818609E-02  0.8440972E-01
        1   -1    0    0  501    0  0.00000000000E+00  0.00000000000E+00  0.11882375473E+04  0.11882375473E+04  0.50400001928E-02 0.  1.
       -1   -1    0    0    0  501  0.00000000000E+00  0.00000000000E+00 -0.12079261700E+04  0.12079261701E+04  0.50400001928E-02 0. -1.
    10030    2    1    2    0    0  0.00000000000E+00  0.00000000000E+00 -0.19688622730E+02  0.23961637174E+04  0.23960828280E+04 0.  0.
        1    1    3    3  502    0 -0.53173909484E+03  0.47164534191E+03  0.95460902404E+03  0.11901572091E+04  0.50400001928E-02 0.  1.
       -1    1    3    3    0  502  0.53173909484E+03 -0.47164534191E+03 -0.97429764677E+03  0.12060065083E+04  0.50400001928E-02 0. -1.
</event>
<event>
 5   0  0.2090039E-05  0.2368416E+04  0.7818609E-02  0.8451424E-01
        1   -1    0    0  501    0  0.00000000000E+00  0.00000000000E+00  0.13832458297E+04  0.13832458297E+04  0.50400001928E-02 0.  1.
       -1   -1    0    0    0  501  0.00000000000E+00  0.00000000000E+00 -0.10138098384E+04  0.10138098384E+04  0.50400001928E-02 0. -1.
    10030    2    1    2    0    0  0.00000000000E+00  0.00000000000E+00  0.36943599134E+03  0.23970556681E+04  0.23684156992E+04 0.  0.
        1    1    3    3  502    0  0.46797094102E+03 -0.78677105782E+03  0.94502966649E+03  0.13157076308E+04  0.50400001928E-02 0.  1.
       -1    1    3    3    0  502 -0.46797094102E+03  0.78677105782E+03 -0.57559367514E+03  0.10813480374E+04  0.50400001928E-02 0. -1.
</event>
<event>
 5   0  0.4756705E-05  0.2421657E+04  0.7818609E-02  0.8431440E-01
        2   -1    0    0  501    0  0.00000000000E+00  0.00000000000E+00  0.10180161649E+04  0.10180161649E+04  0.25500000920E-02 0.  1.
       -2   -1    0    0    0  501  0.00000000000E+00  0.00000000000E+00 -0.14401595487E+04  0.14401595487E+04  0.25500000920E-02 0. -1.
    10030    2    1    2    0    0  0.00000000000E+00  0.00000000000E+00 -0.42214338377E+03  0.24581757136E+04  0.24216570365E+04 0.  0.
        3    1    3    3  502    0  0.69550336680E+03 -0.55726365423E+03 -0.10430893843E+04  0.13719705491E+04  0.10100000352E+00 0. -1.
       -3    1    3    3    0  502 -0.69550336680E+03  0.55726365423E+03  0.62094600057E+03  0.10862051645E+04  0.10100000352E+00 0.  1.
</event>
<event>
 5   0  0.2057599E-05  0.2351565E+04  0.7818609E-02  0.8457863E-01
       -1   -1    0    0    0  501  0.00000000000E+00  0.00000000000E+00  0.72769582194E+03  0.72769582196E+03  0.50400001928E-02 0. -1.
        1   -1    0    0  501    0  0.00000000000E+00  0.00000000000E+00 -0.18997831936E+04  0.18997831936E+04  0.50400001928E-02 0.  1.
    10030    2    1    2    0    0  0.00000000000E+00  0.00000000000E+00 -0.11720873716E+04  0.26274790155E+04  0.23515648344E+04 0.  0.
        4    1    3    3  502    0  0.62315945914E+03  0.22097116128E+02 -0.16998208089E+04  0.18105823343E+04  0.12699999809E+01 0.  1.
       -4    1    3    3    0  502 -0.62315945914E+03 -0.22097116128E+02  0.52773343728E+03  0.81689668121E+03  0.12699999809E+01 0. -1.
</event>
<event>
 5   0  0.2090039E-05  0.2411499E+04  0.7818609E-02  0.8435211E-01
        1   -1    0    0  501    0  0.00000000000E+00  0.00000000000E+00  0.76075071849E+03  0.76075071851E+03  0.50400001928E-02 0.  1.
       -1   -1    0    0    0  501  0.00000000000E+00  0.00000000000E+00 -0.19110493866E+04  0.19110493866E+04  0.50400001928E-02 0. -1.
    10030    2    1    2    0    0  0.00000000000E+00  0.00000000000E+00 -0.11502986681E+04  0.26718001051E+04  0.24114992797E+04 0.  0.
        1    1    3    3  502    0 -0.84138028725E+03  0.27346364830E+02  0.38125742586E+03  0.92413518288E+03  0.50400001928E-02 0.  1.
       -1    1    3    3    0  502  0.84138028725E+03 -0.27346364830E+02 -0.15315560940E+04  0.17476649223E+04  0.50400001928E-02 0. -1.
</event>
<event>
 5   0  0.4713971E-05  0.2379407E+04  0.7818609E-02  0.8447254E-01
       -2   -1    0    0    0  501  0.00000000000E+00  0.00000000000E+00  0.13421115186E+04  0.13421115186E+04  0.25500000920E-02 0. -1.
        2   -1    0    0  501    0  0.00000000000E+00  0.00000000000E+00 -0.10546026893E+04  0.10546026893E+04  0.25500000920E-02 0.  1.
    10030    2    1    2    0    0  0.00000000000E+00  0.00000000000E+00  0.28750882933E+03  0.23967142079E+04  0.23794069991E+04 0.  0.
        5    1    3    3  502    0  0.11361271802E+04  0.35093108596E+03  0.18190776152E+03  0.12029339634E+04  0.46999998093E+01 0.  1.
       -5    1    3    3    0  502 -0.11361271802E+04 -0.35093108596E+03  0.10560106780E+03  0.11937802445E+04  0.46999998093E+01 0. -1.
</event>
<event>
 5   0  0.2149920E-05  0.2404629E+04  0.7818609E-02  0.8437773E-01
       -1   -1    0    0    0  501  0.00000000000E+00  0.00000000000E+00  0.14263224409E+04  0.14263224409E+04  0.50400001928E-02 0.  1.
        1   -1    0    0  501    0  0.00000000000E+00  0.00000000000E+00 -0.10134877735E+04  0.10134877735E+04  0.50400001928E-02 0. -1.
    10030    2    1    2    0    0  0.00000000000E+00  0.00000000000E+00  0.41283466739E+03  0.24398102143E+04  0.24046291646E+04 0.  0.
        5    1    3    3  502    0  0.59330139493E+03  0.44212010918E+03 -0.75510855339E+03  0.10572075263E+04  0.46999998093E+01 0. -1.
       -5    1    3    3    0  502 -0.59330139493E+03 -0.44212010918E+03  0.11679432208E+04  0.13826026881E+04  0.46999998093E+01 0.  1.
</event>
<event>
 5   0  0.4756705E-05  0.2407453E+04  0.7818609E-02  0.8436719E-01
       -2   -1    0    0    0  501  0.00000000000E+00  0.00000000000E+00  0.11051859571E+04  0.11051859571E+04  0.25500000920E-02 0.  1.
        2   -1    0    0  501    0  0.00000000000E+00  0.00000000000E+00 -0.13110532076E+04  0.13110532076E+04  0.25500000920E-02 0. -1.
    10030    2    1    2    0    0  0.00000000000E+00  0.00000000000E+00 -0.20586725057E+03  0.24162391647E+04  0.24074530891E+04 0.  0.
        3    1    3    3  502    0  0.36476815791E+03 -0.66054322369E+03 -0.10442180040E+04  0.12883184426E+04  0.10100000352E+00 0. -1.
       -3    1    3    3    0  502 -0.36476815791E+03  0.66054322369E+03  0.83835075346E+03  0.11279207221E+04  0.10100000352E+00 0.  1.
</event>
<event>
 5   0  0.2139556E-05  0.2357617E+04  0.7818609E-02  0.8455544E-01
        1   -1    0    0  501    0  0.00000000000E+00  0.00000000000E+00  0.23256296260E+04  0.23256296260E+04  0.50400001928E-02 0. -1.
       -1   -1    0    0    0  501  0.00000000000E+00  0.00000000000E+00 -0.59751097500E+03  0.59751097503E+03  0.50400001928E-02 0.  1.
    10030    2    1    2    0    0  0.00000000000E+00  0.00000000000E+00  0.17281186510E+04  0.29231406011E+04  0.23576167843E+04 0.  0.
        2    1    3    3  502    0  0.10040493023E+04 -0.57818550995E+03  0.11333590142E+04  0.16207764005E+04  0.25500000920E-02 0. -1.
       -2    1    3    3    0  502 -0.10040493023E+04  0.57818550995E+03  0.59475963686E+03  0.13023642006E+04  0.25500000920E-02 0.  1.
</event>
<event>
 5   0  0.2057599E-05  0.2453434E+04  0.7818609E-02  0.8419765E-01
       -1   -1    0    0    0  501  0.00000000000E+00  0.00000000000E+00  0.61004986717E+03  0.61004986719E+03  0.50400001928E-02 0.  1.
        1   -1    0    0  501    0  0.00000000000E+00  0.00000000000E+00 -0.24667407276E+04  0.24667407276E+04  0.50400001928E-02 0. -1.
    10030    2    1    2    0    0  0.00000000000E+00  0.00000000000E+00 -0.18566908604E+04  0.30767905948E+04  0.24534342080E+04 0.  0.
        4    1    3    3  502    0 -0.97796735082E+03  0.59197318072E+03 -0.14863466137E+04  0.18751213974E+04  0.12699999809E+01 0. -1.
       -4    1    3    3    0  502  0.97796735082E+03 -0.59197318072E+03 -0.37034424668E+03  0.12016691974E+04  0.12699999809E+01 0.  1.
</event>
<event>
 5   0  0.2090039E-05  0.2440916E+04  0.7818609E-02  0.8424342E-01
       -1   -1    0    0    0  501  0.00000000000E+00  0.00000000000E+00  0.69055958263E+03  0.69055958264E+03  0.50400001928E-02 0. -1.
        1   -1    0    0  501    0  0.00000000000E+00  0.00000000000E+00 -0.21569716314E+04  0.21569716314E+04  0.50400001928E-02 0.  1.
    10030    2    1    2    0    0  0.00000000000E+00  0.00000000000E+00 -0.14664120487E+04  0.28475312140E+04  0.24409157540E+04 0.  0.
        1    1    3    3  502    0 -0.92726191394E+03  0.79279074824E+03 -0.77337448217E+03  0.14444514243E+04  0.50400001928E-02 0.  1.
       -1    1    3    3    0  502  0.92726191394E+03 -0.79279074824E+03 -0.69303756657E+03  0.14030797897E+04  0.50400001928E-02 0. -1.
</event>
<event>
 5   0  0.2057599E-05  0.2403773E+04  0.7818609E-02  0.8438092E-01
       -1   -1    0    0    0  501  0.00000000000E+00  0.00000000000E+00  0.78170741212E+03  0.78170741213E+03  0.50400001928E-02 0.  1.
        1   -1    0    0  501    0  0.00000000000E+00  0.00000000000E+00 -0.18479186442E+04  0.18479186442E+04  0.50400001928E-02 0. -1.
    10030    2    1    2    0    0  0.00000000000E+00  0.00000000000E+00 -0.10662112321E+04  0.26296260563E+04  0.24037734512E+04 0.  0.
        4    1    3    3  502    0 -0.68631011820E+03 -0.93869653579E+03 -0.86556311227E+03  0.14496116304E+04  0.12699999809E+01 0. -1.
       -4    1    3    3    0  502  0.68631011820E+03  0.93869653579E+03 -0.20064811980E+03  0.11800144260E+04  0.12699999809E+01 0.  1.
</event>
<event>
 5   0  0.4914005E-05  0.2381843E+04  0.7818609E-02  0.8446333E-01
       -2   -1    0    0    0  501  0.00000000000E+00  0.00000000000E+00  0.14517990264E+04  0.14517990264E+04  0.25500000920E-02 0.  1.
        2   -1    0    0  501    0  0.00000000000E+00  0.00000000000E+00 -0.97692182082E+03  0.97692182083E+03  0.25500000920E-02 0. -1.
    10030    2    1    2    0    0  0.00000000000E+00  0.00000000000E+00  0.47487720555E+03  0.24287208472E+04  0.23818431084E+04 0.  0.
        2    1    3    3  502    0  0.11343903201E+04  0.36235645203E+03  0.22492716513E+03  0.12119141167E+04  0.25500000920E-02 0.  1.
       -2    1    3    3    0  502 -0.11343903201E+04 -0.36235645203E+03  0.24995004041E+03  0.12168067305E+04  0.25500000920E-02 0. -1.
</event>
<event>
 5   0  0.4856882E-05  0.2421037E+04  0.7818609E-02  0.8431669E-01
        2   -1    0    0  501    0  0.00000000000E+00  0.00000000000E+00  0.16267450337E+04  0.16267450337E+04  0.25500000920E-02 0. -1.
       -2   -1    0    0    0  501  0.00000000000E+00  0.00000000000E+00 -0.90078990405E+03  0.90078990405E+03  0.25500000920E-02 0.  1.
    10030    2    1    2    0    0  0.00000000000E+00  0.00000000000E+00  0.72595512967E+03  0.25275349378E+04  0.24210373833E+04 0.  0.
        1    1    3    3  502    0  0.96658510154E+03  0.48248664724E+03 -0.20719245192E+03  0.11000040161E+04  0.50400001928E-02 0.  1.
       -1    1    3    3    0  502 -0.96658510154E+03 -0.48248664724E+03  0.93314758159E+03  0.14275309217E+04  0.50400001928E-02 0. -1.
</event>
<event>
 5   0  0.4756705E-05  0.2370924E+04  0.7818609E-02  0.8450470E-01
        2   -1    0    0  501    0  0.00000000000E+00  0.00000000000E+00  0.10447274141E+04  0.10447274141E+04  0.25500000920E-02 0. -1.
       -2   -1    0    0    0  501  0.00000000000E+00  0.00000000000E+00 -0.13451549216E+04  0.13451549216E+04  0.25500000920E-02 0.  1.
    10030    2    1    2    0    0  0.00000000000E+00  0.00000000000E+00 -0.30042750753E+03  0.23898823358E+04  0.23709240586E+04 0.  0.
        3    1    3    3  502    0  0.65174672581E+02 -0.24282499881E+02  0.10426690303E+04  0.10449861696E+04  0.10100000352E+00 0. -1.
       -3    1    3    3    0  502 -0.65174672581E+02  0.24282499881E+02 -0.13430965378E+04  0.13448961662E+04  0.10100000352E+00 0.  1.
</event>
<event>
 5   0  0.4856882E-05  0.2408573E+04  0.7818609E-02  0.8436301E-01
        2   -1    0    0  501    0  0.00000000000E+00  0.00000000000E+00  0.12004065737E+04  0.12004065737E+04  0.25500000920E-02 0. -1.
       -2   -1    0    0    0  501  0.00000000000E+00  0.00000000000E+00 -0.12081786258E+04  0.12081786259E+04  0.25500000920E-02 0.  1.
    10030    2    1    2    0    0  0.00000000000E+00  0.00000000000E+00 -0.77720521737E+01  0.24085851995E+04  0.24085726600E+04 0.  0.
        1    1    3    3  502    0 -0.18077104531E+03  0.10418486780E+04  0.57246645705E+03  0.12024328185E+04  0.50400001928E-02 0. -1.
       -1    1    3    3    0  502  0.18077104531E+03 -0.10418486780E+04 -0.58023850922E+03  0.12061523810E+04  0.50400001928E-02 0.  1.
</event>
<event>
 5   0  0.4664127E-05  0.2387128E+04  0.7818609E-02  0.8444338E-01
        2   -1    0    0  501    0  0.00000000000E+00  0.00000000000E+00  0.28227552195E+04  0.28227552195E+04  0.25500000920E-02 0. -1.
       -2   -1    0    0    0  501  0.00000000000E+00  0.00000000000E+00 -0.50468234133E+03  0.50468234134E+03  0.25500000920E-02 0.  1.
    10030    2    1    2    0    0  0.00000000000E+00  0.00000000000E+00  0.23180728781E+04  0.33274375608E+04  0.23871277412E+04 0.  0.
        4    1    3    3  502    0  0.38846151232E+03 -0.87714675487E+03  0.21489119973E+04  0.23533196046E+04  0.12699999809E+01 0. -1.
       -4    1    3    3    0  502 -0.38846151232E+03  0.87714675487E+03  0.16916088080E+03  0.97411795622E+03  0.12699999809E+01 0.  1.
</event>
<event>
 5   0  0.2065692E-05  0.2399232E+04  0.7818609E-02  0.8439791E-01
        1   -1    0    0  501    0  0.00000000000E+00  0.00000000000E+00  0.19194990987E+04  0.19194990987E+04  0.50400001928E-02 0. -1.
       -1   -1    0    0    0  501  0.00000000000E+00  0.00000000000E+00 -0.74971552558E+03  0.74971552559E+03  0.50400001928E-02 0.  1.
    10030    2    1    2    0    0  0.00000000000E+00  0.00000000000E+00  0.11697835731E+04  0.26692146243E+04  0.23992317734E+04 0.  0.
        3    1    3    3  502    0  0.14668711176E+03  0.16669345382E+03  0.18964375620E+04  0.19093923780E+04  0.10100000352E+00 0. -1.
       -3    1    3    3    0  502 -0.14668711176E+03 -0.16669345382E+03 -0.72665398886E+03  0.75982224634E+03  0.10100000352E+00 0.  1.
</event>
<event>
 5   0  0.2090039E-05  0.2395824E+04  0.7818609E-02  0.8441069E-01
       -1   -1    0    0    0  501  0.00000000000E+00  0.00000000000E+00  0.12913452956E+04  0.12913452956E+04  0.50400001928E-02 0. -1.
        1   -1    0    0  501    0  0.00000000000E+00  0.00000000000E+00 -0.11112389660E+04  0.11112389660E+04  0.50400001928E-02 0.  1.
    10030    2    1    2    0    0  0.00000000000E+00  0.00000000000E+00  0.18010632963E+03  0.24025842616E+04  0.23958240428E+04 0.  0.
        1    1    3    3  502    0  0.71041089962E+03 -0.88900176461E+03  0.46525514569E+03  0.12294186164E+04  0.50400001928E-02 0. -1.
       -1    1    3    3    0  502 -0.71041089962E+03  0.88900176461E+03 -0.28514881606E+03  0.11731656452E+04  0.50400001928E-02 0.  1.
</event>
<event>
 5   0  0.1672125E-05  0.2308342E+04  0.7818609E-02  0.8474639E-01
       -3   -1    0    0    0  501  0.00000000000E+00  0.00000000000E+00  0.92128313660E+03  0.92128314213E+03  0.10100000352E+00 0.  1.
        3   -1    0    0  501    0  0.00000000000E+00  0.00000000000E+00 -0.14459291918E+04  0.14459291953E+04  0.10100000352E+00 0. -1.
    10030    2    1    2    0    0  0.00000000000E+00  0.00000000000E+00 -0.52464605517E+03  0.23672123374E+04  0.23083415621E+04 0.  0.
        2    1    3    3  502    0  0.48655502335E+03  0.44319697795E+03  0.70998778569E+03  0.96811260081E+03  0.25500000920E-02 0.  1.
       -2    1    3    3    0  502 -0.48655502335E+03 -0.44319697795E+03 -0.12346338409E+04  0.13990997366E+04  0.25500000920E-02 0. -1.
</event>
<event>
 5   0  0.2090039E-05  0.2409865E+04  0.7818609E-02  0.8435820E-01
       -1   -1    0    0    0  501  0.00000000000E+00  0.00000000000E+00  0.66367063956E+03  0.66367063958E+03  0.50400001928E-02 0. -1.
        1   -1    0    0  501    0  0.00000000000E+00  0.00000000000E+00 -0.21876243918E+04  0.21876243918E+04  0.50400001928E-02 0.  1.
    10030    2    1    2    0    0  0.00000000000E+00  0.00000000000E+00 -0.15239537523E+04  0.28512950314E+04  0.24098647923E+04 0.  0.
        1    1    3    3  502    0  0.25542769959E+02  0.30700446022E+03 -0.21402416886E+04  0.21622993912E+04  0.50400001928E-02 0.  1.
       -1    1    3    3    0  502 -0.25542769959E+02 -0.30700446022E+03  0.61628793634E+03  0.68899564018E+03  0.50400001928E-02 0. -1.
</event>
<event>
 5   0  0.2057599E-05  0.2430925E+04  0.7818609E-02  0.8428016E-01
        1   -1    0    0  501    0  0.00000000000E+00  0.00000000000E+00  0.56884076492E+03  0.56884076494E+03  0.50400001928E-02 0. -1.
       -1   -1    0    0    0  501  0.00000000000E+00  0.00000000000E+00 -0.25971225078E+04  0.25971225078E+04  0.50400001928E-02 0.  1.
    10030    2    1    2    0    0  0.00000000000E+00  0.00000000000E+00 -0.20282817428E+04  0.31659632727E+04  0.24309250535E+04 0.  0.
        4    1    3    3  502    0  0.16592189598E+03  0.48493938993E+03 -0.24494984419E+04  0.25025468062E+04  0.12699999809E+01 0.  1.
       -4    1    3    3    0  502 -0.16592189598E+03 -0.48493938993E+03  0.42121669909E+03  0.66341646646E+03  0.12699999809E+01 0. -1.
</event>
<event>
 5   0  0.2065692E-05  0.2429428E+04  0.7818609E-02  0.8428568E-01
        1   -1    0    0  501    0  0.00000000000E+00  0.00000000000E+00  0.19447250859E+04  0.19447250860E+04  0.50400001928E-02 0. -1.
       -1   -1    0    0    0  501  0.00000000000E+00  0.00000000000E+00 -0.75873457016E+03  0.75873457017E+03  0.50400001928E-02 0.  1.
    10030    2    1    2    0    0  0.00000000000E+00  0.00000000000E+00  0.11859905158E+04  0.27034596561E+04  0.24294280415E+04 0.  0.
        3    1    3    3  502    0  0.29214761058E+03 -0.11741075598E+04  0.47287837756E+03  0.12990353184E+04  0.10100000352E+00 0. -1.
       -3    1    3    3    0  502 -0.29214761058E+03  0.11741075598E+04  0.71311213823E+03  0.14044243377E+04  0.10100000352E+00 0.  1.
</event>
<event>
 5   0  0.4664127E-05  0.2469668E+04  0.7818609E-02  0.8413872E-01
        2   -1    0    0  501    0  0.00000000000E+00  0.00000000000E+00  0.21158430239E+04  0.21158430239E+04  0.25500000920E-02 0. -1.
       -2   -1    0    0    0  501  0.00000000000E+00  0.00000000000E+00 -0.72066539638E+03  0.72066539638E+03  0.25500000920E-02 0.  1.
    10030    2    1    2    0    0  0.00000000000E+00  0.00000000000E+00  0.13951776275E+04  0.28365084202E+04  0.24696678736E+04 0.  0.
        4    1    3    3  502    0  0.90051368734E+02  0.72217007767E+02 -0.71445436188E+03  0.72372038339E+03  0.12699999809E+01 0.  1.
       -4    1    3    3    0  502 -0.90051368734E+02 -0.72217007767E+02  0.21096319894E+04  0.21127880369E+04  0.12699999809E+01 0. -1.
</event>
<event>
 5   0  0.2139556E-05  0.2298791E+04  0.7818609E-02  0.8478398E-01
        1   -1    0    0  501    0  0.00000000000E+00  0.00000000000E+00  0.16485936160E+04  0.16485936160E+04  0.50400001928E-02 0.  1.
       -1   -1    0    0    0  501  0.00000000000E+00  0.00000000000E+00 -0.80135575244E+03  0.80135575246E+03  0.50400001928E-02 0. -1.
    10030    2    1    2    0    0  0.00000000000E+00  0.00000000000E+00  0.84723786359E+03  0.24499493685E+04  0.22987909672E+04 0.  0.
        2    1    3    3  502    0 -0.26887110345E+03 -0.10799853489E+04  0.72964106284E+03  0.13308028046E+04  0.25500000920E-02 0.  1.
       -2    1    3    3    0  502  0.26887110345E+03  0.10799853489E+04  0.11759680075E+03  0.11191465639E+04  0.25500000920E-02 0. -1.
</event>
<event>
 5   0  0.2065692E-05  0.2405033E+04  0.7818609E-02  0.8437622E-01
        1   -1    0    0  501    0  0.00000000000E+00  0.00000000000E+00  0.13983674737E+04  0.13983674737E+04  0.50400001928E-02 0.  1.
       -1   -1    0    0    0  501  0.00000000000E+00  0.00000000000E+00 -0.10340959726E+04  0.10340959726E+04  0.50400001928E-02 0. -1.
    10030    2    1    2    0    0  0.00000000000E+00  0.00000000000E+00  0.36427150113E+03  0.24324634463E+04  0.24050331996E+04 0.  0.
        3    1    3    3  502    0 -0.30146847740E+03  0.23952716695E+03  0.13343345039E+04  0.13887782706E+04  0.10100000352E+00 0.  1.
       -3    1    3    3    0  502  0.30146847740E+03 -0.23952716695E+03 -0.97006300272E+03  0.10436851757E+04  0.10100000352E+00 0. -1.
</event>
<event>
 5   0  0.4713971E-05  0.2410691E+04  0.7818609E-02  0.8435512E-01
        2   -1    0    0  501    0  0.00000000000E+00  0.00000000000E+00  0.18100207417E+04  0.18100207417E+04  0.25500000920E-02 0.  1.
       -2   -1    0    0    0  501  0.00000000000E+00  0.00000000000E+00 -0.80267438290E+03  0.80267438290E+03  0.25500000920E-02 0. -1.
    10030    2    1    2    0    0  0.00000000000E+00  0.00000000000E+00  0.10073463588E+04  0.26126951246E+04  0.24106905914E+04 0.  0.
        5    1    3    3  502    0  0.48245189750E+03  0.20501683983E+03  0.16799997778E+04  0.17598900765E+04  0.46999998093E+01 0.  1.
       -5    1    3    3    0  502 -0.48245189750E+03 -0.20501683983E+03 -0.67265341898E+03  0.85280504811E+03  0.46999998093E+01 0. -1.
</event>
<event>
 5   0  0.2139556E-05  0.2398712E+04  0.7818609E-02  0.8439986E-01
       -1   -1    0    0    0  501  0.00000000000E+00  0.00000000000E+00  0.10206130994E+04  0.10206130994E+04  0.50400001928E-02 0. -1.
        1   -1    0    0  501    0  0.00000000000E+00  0.00000000000E+00 -0.14094024125E+04  0.14094024125E+04  0.50400001928E-02 0.  1.
    10030    2    1    2    0    0  0.00000000000E+00  0.00000000000E+00 -0.38878931304E+03  0.24300155119E+04  0.23987117914E+04 0.  0.
        2    1    3    3  502    0 -0.77245435552E+03 -0.55735108262E+03 -0.93269117656E+03  0.13331311982E+04  0.25500000920E-02 0.  1.
       -2    1    3    3    0  502  0.77245435552E+03  0.55735108262E+03  0.54390186352E+03  0.10968843138E+04  0.25500000920E-02 0. -1.
</event>
<event>
 5   0  0.2149920E-05  0.2400674E+04  0.7818609E-02  0.8439251E-01
        1   -1    0    0  501    0  0.00000000000E+00  0.00000000000E+00  0.77792636776E+03  0.77792636778E+03  0.50400001928E-02 0. -1.
       -1   -1    0    0    0  501  0.00000000000E+00  0.00000000000E+00 -0.18521150077E+04  0.18521150077E+04  0.50400001928E-02 0.  1.
    10030    2    1    2    0    0  0.00000000000E+00  0.00000000000E+00 -0.10741886399E+04  0.26300413754E+04  0.24006741558E+04 0.  0.
        5    1    3    3  502    0 -0.26205221347E+03 -0.11657112372E+04 -0.66311965357E+03  0.13664932550E+04  0.46999998093E+01 0. -1.
       -5    1    3    3    0  502  0.26205221347E+03  0.11657112372E+04 -0.41106898633E+03  0.12635481204E+04  0.46999998093E+01 0.  1.
</event>
<event>
 5   0  0.2149920E-05  0.2400259E+04  0.7818609E-02  0.8439407E-01
       -1   -1    0    0    0  501  0.00000000000E+00  0.00000000000E+00  0.10643027460E+04  0.10643027460E+04  0.50400001928E-02 0. -1.
        1   -1    0    0  501    0  0.00000000000E+00  0.00000000000E+00 -0.13532905040E+04  0.13532905040E+04  0.50400001928E-02 0.  1.
    10030    2    1    2    0    0  0.00000000000E+00  0.00000000000E+00 -0.28898775798E+03  0.24175932500E+04  0.24002589857E+04 0.  0.
        5    1    3    3  502    0 -0.25671835543E+03 -0.10789726406E+04 -0.60628332499E+03  0.12639967695E+04  0.46999998093E+01 0. -1.
       -5    1    3    3    0  502  0.25671835543E+03  0.10789726406E+04  0.31729556701E+03  0.11535964806E+04  0.46999998093E+01 0.  1.
</event>
<event>
 5   0  0.4914005E-05  0.2399660E+04  0.7818609E-02  0.8439631E-01
        2   -1    0    0  501    0  0.00000000000E+00  0.00000000000E+00  0.22636848814E+04  0.22636848814E+04  0.25500000920E-02 0.  1.
       -2   -1    0    0    0  501  0.00000000000E+00  0.00000000000E+00 -0.63595072672E+03  0.63595072672E+03  0.25500000920E-02 0. -1.
    10030    2    1    2    0    0  0.00000000000E+00  0.00000000000E+00  0.16277341547E+04  0.28996356082E+04  0.23996600138E+04 0.  0.
        2    1    3    3  502    0 -0.10452874328E+04  0.94512499598E+02  0.11132287373E+03  0.10554388717E+04  0.25500000920E-02 0. -1.
       -2    1    3    3    0  502  0.10452874328E+04 -0.94512499598E+02  0.15164112810E+04  0.18441967365E+04  0.25500000920E-02 0.  1.
</event>
<event>
 5   0  0.4914005E-05  0.2448471E+04  0.7818609E-02  0.8421577E-01
       -2   -1    0    0    0  501  0.00000000000E+00  0.00000000000E+00  0.13973603957E+04  0.13973603957E+04  0.25500000920E-02 0.  1.
        2   -1    0    0  501    0  0.00000000000E+00  0.00000000000E+00 -0.10725596062E+04  0.10725596062E+04  0.25500000920E-02 0. -1.
    10030    2    1    2    0    0  0.00000000000E+00  0.00000000000E+00  0.32480078954E+03  0.24699200019E+04  0.24484708009E+04 0.  0.
        2    1    3    3  502    0  0.40475527790E+02  0.16806276490E+03  0.13849865792E+04  0.13957332072E+04  0.25500000920E-02 0.  1.
       -2    1    3    3    0  502 -0.40475527790E+02 -0.16806276490E+03 -0.10601857896E+04  0.10741867947E+04  0.25500000920E-02 0. -1.
</event>
<event>
 5   0  0.4756705E-05  0.2399627E+04  0.7818609E-02  0.8439643E-01
        2   -1    0    0  501    0  0.00000000000E+00  0.00000000000E+00  0.15093602953E+04  0.15093602953E+04  0.25500000920E-02 0. -1.
       -2   -1    0    0    0  501  0.00000000000E+00  0.00000000000E+00 -0.95375028763E+03  0.95375028764E+03  0.25500000920E-02 0.  1.
    10030    2    1    2    0    0  0.00000000000E+00  0.00000000000E+00  0.55561000766E+03  0.24631105829E+04  0.23996273175E+04 0.  0.
        3    1    3    3  502    0  0.60771025681E+02 -0.23070940397E+03  0.14847668727E+04  0.15038126955E+04  0.10100000352E+00 0. -1.
       -3    1    3    3    0  502 -0.60771025681E+02  0.23070940397E+03 -0.92915686508E+03  0.95929788740E+03  0.10100000352E+00 0.  1.
</event>
<event>
 5   0  0.4664127E-05  0.2407535E+04  0.7818609E-02  0.8436688E-01
        2   -1    0    0  501    0  0.00000000000E+00  0.00000000000E+00  0.14092708908E+04  0.14092708908E+04  0.25500000920E-02 0.  1.
       -2   -1    0    0    0  501  0.00000000000E+00  0.00000000000E+00 -0.10282310308E+04  0.10282310308E+04  0.25500000920E-02 0. -1.
    10030    2    1    2    0    0  0.00000000000E+00  0.00000000000E+00  0.38103986006E+03  0.24375019216E+04  0.24075348892E+04 0.  0.
        4    1    3    3  502    0  0.24008021466E+03  0.56046758561E+03 -0.86032612801E+03  0.10544785837E+04  0.12699999809E+01 0. -1.
       -4    1    3    3    0  502 -0.24008021466E+03 -0.56046758561E+03  0.12413659881E+04  0.13830233379E+04  0.12699999809E+01 0.  1.
</event>
<event>
 5   0  0.2090039E-05  0.1890370E+04  0.7818609E-02  0.8659665E-01
       -1   -1    0    0    0  501  0.00000000000E+00  0.00000000000E+00  0.68105799833E+03  0.68105799835E+03  0.50400001928E-02 0.  1.
        1   -1    0    0  501    0  0.00000000000E+00  0.00000000000E+00 -0.13117447936E+04  0.13117447936E+04  0.50400001928E-02 0. -1.
    10030    2    1    2    0    0  0.00000000000E+00  0.00000000000E+00 -0.63068679528E+03  0.19928027920E+04  0.18903695760E+04 0.  0.
        1    1    3    3  502    0 -0.67713034895E+02  0.20548215245E+03  0.65460380629E+03  0.68943028169E+03  0.50400001928E-02 0.  1.
       -1    1    3    3    0  502  0.67713034895E+02 -0.20548215245E+03 -0.12852906016E+04  0.13033725103E+04  0.50400001928E-02 0. -1.
</event>
<event>
 5   0  0.4664127E-05  0.2432890E+04  0.7818609E-02  0.8427292E-01
        2   -1    0    0  501    0  0.00000000000E+00  0.00000000000E+00  0.13323563281E+04  0.13323563281E+04  0.25500000920E-02 0.  1.
       -2   -1    0    0    0  501  0.00000000000E+00  0.00000000000E+00 -0.11106176199E+04  0.11106176199E+04  0.25500000920E-02 0. -1.
    10030    2    1    2    0    0  0.00000000000E+00  0.00000000000E+00  0.22173870824E+03  0.24429739480E+04  0.24328899802E+04 0.  0.
        4    1    3    3  502    0  0.26374654984E+03 -0.77690532582E+03 -0.79095820373E+03  0.11396317918E+04  0.12699999809E+01 0. -1.
       -4    1    3    3    0  502 -0.26374654984E+03  0.77690532582E+03  0.10126969120E+04  0.13033421563E+04  0.12699999809E+01 0.  1.
</event>
<event>
 5   0  0.2057599E-05  0.2329602E+04  0.7818609E-02  0.8466340E-01
       -1   -1    0    0    0  501  0.00000000000E+00  0.00000000000E+00  0.72556896696E+03  0.72556896697E+03  0.50400001928E-02 0. -1.
        1   -1    0    0  501    0  0.00000000000E+00  0.00000000000E+00 -0.18699273574E+04  0.18699273575E+04  0.50400001928E-02 0.  1.
    10030    2    1    2    0    0  0.00000000000E+00  0.00000000000E+00 -0.11443583905E+04  0.25954963244E+04  0.23296019068E+04 0.  0.
        4    1    3    3  502    0 -0.69107498339E+03 -0.12263890616E+03 -0.16078683561E+04  0.17543851337E+04  0.12699999809E+01 0.  1.
       -4    1    3    3    0  502  0.69107498339E+03  0.12263890616E+03  0.46350996562E+03  0.84111119069E+03  0.12699999809E+01 0. -1.
</event>
<event>
 5   0  0.4856882E-05  0.2346223E+04  0.7818609E-02  0.8459916E-01
       -2   -1    0    0    0  501  0.00000000000E+00  0.00000000000E+00  0.97189635959E+03  0.97189635959E+03  0.25500000920E-02 0.  1.
        2   -1    0    0  501    0  0.00000000000E+00  0.00000000000E+00 -0.14159847781E+04  0.14159847781E+04  0.25500000920E-02 0. -1.
    10030    2    1    2    0    0  0.00000000000E+00  0.00000000000E+00 -0.44408841855E+03  0.23878811377E+04  0.23462228804E+04 0.  0.
        1    1    3    3  502    0 -0.15025274990E+03 -0.22587369060E+03 -0.13836218644E+04  0.14099660551E+04  0.50400001928E-02 0. -1.
       -1    1    3    3    0  502  0.15025274990E+03  0.22587369060E+03  0.93953344583E+03  0.97791508262E+03  0.50400001928E-02 0.  1.
</event>
<event>
 5   0  0.2065692E-05  0.2276932E+04  0.7818609E-02  0.8487072E-01
        1   -1    0    0  501    0  0.00000000000E+00  0.00000000000E+00  0.39126439083E+03  0.39126439086E+03  0.50400001928E-02 0.  1.
       -1   -1    0    0    0  501  0.00000000000E+00  0.00000000000E+00 -0.33126062223E+04  0.33126062224E+04  0.50400001928E-02 0. -1.
    10030    2    1    2    0    0  0.00000000000E+00  0.00000000000E+00 -0.29213418315E+04  0.37038706132E+04  0.22769320198E+04 0.  0.
        3    1    3    3  502    0  0.54043981688E+03 -0.99164301871E+03 -0.16945630502E+04  0.20364122897E+04  0.10100000352E+00 0. -1.
       -3    1    3    3    0  502 -0.54043981688E+03  0.99164301871E+03 -0.12267787813E+04  0.16674583235E+04  0.10100000352E+00 0.  1.
</event>
<event>
 5   0  0.4756705E-05  0.2389350E+04  0.7818609E-02  0.8443501E-01
        2   -1    0    0  501    0  0.00000000000E+00  0.00000000000E+00  0.96000381083E+03  0.96000381083E+03  0.25500000920E-02 0.  1.
       -2   -1    0    0    0  501  0.00000000000E+00  0.00000000000E+00 -0.14867117245E+04  0.14867117245E+04  0.25500000920E-02 0. -1.
    10030    2    1    2    0    0  0.00000000000E+00  0.00000000000E+00 -0.52670791367E+03  0.24467155353E+04  0.23893504734E+04 0.  0.
        3    1    3    3  502    0 -0.72224334095E+02 -0.16983424491E+03 -0.14720264059E+04  0.14835503952E+04  0.10100000352E+00 0. -1.
       -3    1    3    3    0  502  0.72224334095E+02  0.16983424491E+03  0.94531849225E+03  0.96316514014E+03  0.10100000352E+00 0.  1.
</event>
<event>
 5   0  0.2149920E-05  0.2392029E+04  0.7818609E-02  0.8442494E-01
       -1   -1    0    0    0  501  0.00000000000E+00  0.00000000000E+00  0.59550287843E+03  0.59550287845E+03  0.50400001928E-02 0. -1.
        1   -1    0    0  501    0  0.00000000000E+00  0.00000000000E+00 -0.24020880364E+04  0.24020880364E+04  0.50400001928E-02 0.  1.
    10030    2    1    2    0    0  0.00000000000E+00  0.00000000000E+00 -0.18065851580E+04  0.29975909149E+04  0.23920287122E+04 0.  0.
        5    1    3    3  502    0 -0.51865627636E+03 -0.10551250750E+04 -0.11782316319E+04  0.16644954567E+04  0.46999998093E+01 0. -1.
       -5    1    3    3    0  502  0.51865627636E+03  0.10551250750E+04 -0.62835352610E+03  0.13330954582E+04  0.46999998093E+01 0.  1.
</event>
<event>
 5   0  0.4856882E-05  0.2393567E+04  0.7818609E-02  0.8441916E-01
        2   -1    0    0  501    0  0.00000000000E+00  0.00000000000E+00  0.17143665765E+04  0.17143665765E+04  0.25500000920E-02 0. -1.
       -2   -1    0    0    0  501  0.00000000000E+00  0.00000000000E+00 -0.83546368977E+03  0.83546368977E+03  0.25500000920E-02 0.  1.
    10030    2    1    2    0    0  0.00000000000E+00  0.00000000000E+00  0.87890288671E+03  0.25498302662E+04  0.23935672337E+04 0.  0.
        1    1    3    3  502    0 -0.75078554000E+03  0.49992112220E+03 -0.39846850452E+03  0.98609188447E+03  0.50400001928E-02 0.  1.
       -1    1    3    3    0  502  0.75078554000E+03 -0.49992112220E+03  0.12773713912E+04  0.15637383818E+04  0.50400001928E-02 0. -1.
</event>
<event>
 5   0  0.4756705E-05  0.2406591E+04  0.7818609E-02  0.8437040E-01
       -2   -1    0    0    0  501  0.00000000000E+00  0.00000000000E+00  0.16645626440E+04  0.16645626440E+04  0.25500000920E-02 0.  1.
        2   -1    0    0  501    0  0.00000000000E+00  0.00000000000E+00 -0.86985049258E+03  0.86985049259E+03  0.25500000920E-02 0. -1.
    10030    2    1    2    0    0  0.00000000000E+00  0.00000000000E+00  0.79471215142E+03  0.25344131366E+04  0.24065914783E+04 0.  0.
        3    1    3    3  502    0  0.30455857405E+03  0.26635733723E+03  0.15907793198E+04  0.16414265169E+04  0.10100000352E+00 0.  1.
       -3    1    3    3    0  502 -0.30455857405E+03 -0.26635733723E+03 -0.79606716836E+03  0.89298661964E+03  0.10100000352E+00 0. -1.
</event>
<event>
 5   0  0.1672125E-05  0.2386793E+04  0.7818609E-02  0.8444465E-01
       -3   -1    0    0    0  501  0.00000000000E+00  0.00000000000E+00  0.75997184593E+03  0.75997185264E+03  0.10100000352E+00 0.  1.
        3   -1    0    0  501    0  0.00000000000E+00  0.00000000000E+00 -0.18740102962E+04  0.18740102989E+04  0.10100000352E+00 0. -1.
    10030    2    1    2    0    0  0.00000000000E+00  0.00000000000E+00 -0.11140384502E+04  0.26339821515E+04  0.23867928913E+04 0.  0.
        2    1    3    3  502    0  0.55569222409E+03 -0.93640983098E+03 -0.18034138484E+02  0.10890282134E+04  0.25500000920E-02 0.  1.
       -2    1    3    3    0  502 -0.55569222409E+03  0.93640983098E+03 -0.10960043118E+04  0.15449539381E+04  0.25500000920E-02 0. -1.
</event>
<event>
 5   0  0.2057599E-05  0.2391484E+04  0.7818609E-02  0.8442699E-01
       -1   -1    0    0    0  501  0.00000000000E+00  0.00000000000E+00  0.84240675503E+03  0.84240675504E+03  0.50400001928E-02 0.  1.
        1   -1    0    0  501    0  0.00000000000E+00  0.00000000000E+00 -0.16972784249E+04  0.16972784249E+04  0.50400001928E-02 0. -1.
    10030    2    1    2    0    0  0.00000000000E+00  0.00000000000E+00 -0.85487166985E+03  0.25396851799E+04  0.23914838994E+04 0.  0.
        4    1    3    3  502    0  0.48446912067E+03  0.23276151316E+03  0.70689024210E+03  0.88802234103E+03  0.12699999809E+01 0.  1.
       -4    1    3    3    0  502 -0.48446912067E+03 -0.23276151316E+03 -0.15617619119E+04  0.16516628389E+04  0.12699999809E+01 0. -1.
</event>
<event>
 5   0  0.2139556E-05  0.2404484E+04  0.7818609E-02  0.8437827E-01
        1   -1    0    0  501    0  0.00000000000E+00  0.00000000000E+00  0.15269870787E+04  0.15269870787E+04  0.50400001928E-02 0. -1.
       -1   -1    0    0    0  501  0.00000000000E+00  0.00000000000E+00 -0.94656049092E+03  0.94656049093E+03  0.50400001928E-02 0.  1.
    10030    2    1    2    0    0  0.00000000000E+00  0.00000000000E+00  0.58042658778E+03  0.24735475696E+04  0.24044838439E+04 0.  0.
        2    1    3    3  502    0 -0.18043569418E+03 -0.95356439219E+03  0.10202033123E+04  0.14080684956E+04  0.25500000920E-02 0. -1.
       -2    1    3    3    0  502  0.18043569418E+03  0.95356439219E+03 -0.43977672454E+03  0.10654790741E+04  0.25500000920E-02 0.  1.
</event>
<event>
 5   0  0.4664127E-05  0.2405493E+04  0.7818609E-02  0.8437450E-01
        2   -1    0    0  501    0  0.00000000000E+00  0.00000000000E+00  0.12454042173E+04  0.12454042173E+04  0.25500000920E-02 0. -1.
       -2   -1    0    0    0  501  0.00000000000E+00  0.00000000000E+00 -0.11615494852E+04  0.11615494852E+04  0.25500000920E-02 0.  1.
    10030    2    1    2    0    0  0.00000000000E+00  0.00000000000E+00  0.83854732048E+02  0.24069537025E+04  0.24054925712E+04 0.  0.
        4    1    3    3  502    0 -0.53502628944E+03  0.31235007290E+03  0.10734664133E+04  0.12394141567E+04  0.12699999809E+01 0. -1.
       -4    1    3    3    0  502  0.53502628944E+03 -0.31235007290E+03 -0.98961168126E+03  0.11675395458E+04  0.12699999809E+01 0.  1.
</event>
<event>
 5   0  0.4856882E-05  0.2745248E+04  0.7818609E-02  0.8320471E-01
        2   -1    0    0  501    0  0.00000000000E+00  0.00000000000E+00  0.12454464975E+04  0.12454464975E+04  0.25500000920E-02 0.  1.
       -2   -1    0    0    0  501  0.00000000000E+00  0.00000000000E+00 -0.15127882773E+04  0.15127882773E+04  0.25500000920E-02 0. -1.
    10030    2    1    2    0    0  0.00000000000E+00  0.00000000000E+00 -0.26734177981E+03  0.27582347748E+04  0.27452481574E+04 0.  0.
        1    1    3    3  502    0  0.97320617351E+03 -0.36880615848E+03 -0.10328618877E+04  0.14662714339E+04  0.50400001928E-02 0. -1.
       -1    1    3    3    0  502 -0.97320617351E+03  0.36880615848E+03  0.76552010787E+03  0.12919633409E+04  0.50400001928E-02 0.  1.
</event>
<event>
 5   0  0.2090039E-05  0.2349909E+04  0.7818609E-02  0.8458499E-01
        1   -1    0    0  501    0  0.00000000000E+00  0.00000000000E+00  0.16224403213E+04  0.16224403213E+04  0.50400001928E-02 0. -1.
       -1   -1    0    0    0  501  0.00000000000E+00  0.00000000000E+00 -0.85088960250E+03  0.85088960251E+03  0.50400001928E-02 0.  1.
    10030    2    1    2    0    0  0.00000000000E+00  0.00000000000E+00  0.77155071876E+03  0.24733299238E+04  0.23499085940E+04 0.  0.
        1    1    3    3  502    0  0.87440826871E+03 -0.39413700342E+03  0.11000831925E+04  0.14594919761E+04  0.50400001928E-02 0.  1.
       -1    1    3    3    0  502 -0.87440826871E+03  0.39413700342E+03 -0.32853247373E+03  0.10138379477E+04  0.50400001928E-02 0. -1.
</event>
<event>
 5   0  0.4713971E-05  0.2386510E+04  0.7818609E-02  0.8444571E-01
        2   -1    0    0  501    0  0.00000000000E+00  0.00000000000E+00  0.14630164051E+04  0.14630164051E+04  0.25500000920E-02 0. -1.
       -2   -1    0    0    0  501  0.00000000000E+00  0.00000000000E+00 -0.97323438223E+03  0.97323438223E+03  0.25500000920E-02 0.  1.
    10030    2    1    2    0    0  0.00000000000E+00  0.00000000000E+00  0.48978202289E+03  0.24362507874E+04  0.23865103119E+04 0.  0.
        5    1    3    3  502    0  0.11118765482E+04  0.35767398446E+03  0.49418489197E+03  0.12682432476E+04  0.46999998093E+01 0. -1.
       -5    1    3    3    0  502 -0.11118765482E+04 -0.35767398446E+03 -0.44028690729E+01  0.11680075397E+04  0.46999998093E+01 0.  1.
</event>
<event>
 5   0  0.2057599E-05  0.2414099E+04  0.7818609E-02  0.8434244E-01
       -1   -1    0    0    0  501  0.00000000000E+00  0.00000000000E+00  0.11838816992E+04  0.11838816992E+04  0.50400001928E-02 0.  1.
        1   -1    0    0  501    0  0.00000000000E+00  0.00000000000E+00 -0.12306710014E+04  0.12306710014E+04  0.50400001928E-02 0. -1.
    10030    2    1    2    0    0  0.00000000000E+00  0.00000000000E+00 -0.46789302266E+02  0.24145527006E+04  0.24140993155E+04 0.  0.
        4    1    3    3  502    0  0.59213473823E+03 -0.61862825295E+03 -0.87422638299E+03  0.12237638029E+04  0.12699999809E+01 0. -1.
       -4    1    3    3    0  502 -0.59213473823E+03  0.61862825295E+03  0.82743708072E+03  0.11907888978E+04  0.12699999809E+01 0.  1.
</event>
<event>
 5   0  0.2065692E-05  0.2395957E+04  0.7818609E-02  0.8441019E-01
        1   -1    0    0  501    0  0.00000000000E+00  0.00000000000E+00  0.49597424872E+03  0.49597424875E+03  0.50400001928E-02 0.  1.
       -1   -1    0    0    0  501  0.00000000000E+00  0.00000000000E+00 -0.28936036035E+04  0.28936036035E+04  0.50400001928E-02 0. -1.
    10030    2    1    2    0    0  0.00000000000E+00  0.00000000000E+00 -0.23976293548E+04  0.33895778522E+04  0.23959573230E+04 0.  0.
        3    1    3    3  502    0 -0.48970494355E+03 -0.34564811412E+03 -0.26662071783E+04  0.27327539732E+04  0.10100000352E+00 0. -1.
       -3    1    3    3    0  502  0.48970494355E+03  0.34564811412E+03  0.26857782352E+03  0.65682387900E+03  0.10100000352E+00 0.  1.
</event>
<event>
 5   0  0.2139556E-05  0.2410909E+04  0.7818609E-02  0.8435431E-01
       -1   -1    0    0    0  501  0.00000000000E+00  0.00000000000E+00  0.75137224104E+03  0.75137224105E+03  0.50400001928E-02 0. -1.
        1   -1    0    0  501    0  0.00000000000E+00  0.00000000000E+00 -0.19339550222E+04  0.19339550222E+04  0.50400001928E-02 0.  1.
    10030    2    1    2    0    0  0.00000000000E+00  0.00000000000E+00 -0.11825827811E+04  0.26853272632E+04  0.24109086412E+04 0.  0.
        2    1    3    3  502    0 -0.10500300529E+04 -0.36848232170E+03 -0.75099535111E+02  0.11153395328E+04  0.25500000920E-02 0. -1.
       -2    1    3    3    0  502  0.10500300529E+04  0.36848232170E+03 -0.11074832460E+04  0.15699877304E+04  0.25500000920E-02 0.  1.
</event>
<event>
 5   0  0.4664127E-05  0.2368484E+04  0.7818609E-02  0.8451398E-01
        2   -1    0    0  501    0  0.00000000000E+00  0.00000000000E+00  0.85931236872E+03  0.85931236872E+03  0.25500000920E-02 0. -1.
       -2   -1    0    0    0  501  0.00000000000E+00  0.00000000000E+00 -0.16320360838E+04  0.16320360838E+04  0.25500000920E-02 0.  1.
    10030    2    1    2    0    0  0.00000000000E+00  0.00000000000E+00 -0.77272371507E+03  0.24913484525E+04  0.23684837285E+04 0.  0.
        4    1    3    3  502    0 -0.11704727530E+04 -0.17367226296E+03 -0.33637112954E+03  0.12301689600E+04  0.12699999809E+01 0.  1.
       -4    1    3    3    0  502  0.11704727530E+04  0.17367226296E+03 -0.43635258553E+03  0.12611794925E+04  0.12699999809E+01 0. -1.
</event>
<event>
 5   0  0.2090039E-05  0.2452272E+04  0.7818609E-02  0.8420189E-01
       -1   -1    0    0    0  501  0.00000000000E+00  0.00000000000E+00  0.87998300465E+03  0.87998300466E+03  0.50400001928E-02 0.  1.
        1   -1    0    0  501    0  0.00000000000E+00  0.00000000000E+00 -0.17084528197E+04  0.17084528197E+04  0.50400001928E-02 0. -1.
    10030    2    1    2    0    0  0.00000000000E+00  0.00000000000E+00 -0.82846981508E+03  0.25884358244E+04  0.24522719634E+04 0.  0.
        1    1    3    3  502    0  0.90326230836E+02 -0.59400439249E+03 -0.15424181713E+04  0.16553108051E+04  0.50400001928E-02 0. -1.
       -1    1    3    3    0  502 -0.90326230836E+02  0.59400439249E+03  0.71394835622E+03  0.93312501930E+03  0.50400001928E-02 0.  1.
</event>
<event>
 5   0  0.2065692E-05  0.2421672E+04  0.7818609E-02  0.8431434E-01
       -1   -1    0    0    0  501  0.00000000000E+00  0.00000000000E+00  0.62233795638E+03  0.62233795640E+03  0.50400001928E-02 0. -1.
        1   -1    0    0  501    0  0.00000000000E+00  0.00000000000E+00 -0.23558320812E+04  0.23558320812E+04  0.50400001928E-02 0.  1.
    10030    2    1    2    0    0  0.00000000000E+00  0.00000000000E+00 -0.17334941248E+04  0.29781700376E+04  0.24216719208E+04 0.  0.
        3    1    3    3  502    0 -0.39004755312E+03 -0.13486111413E+03  0.53317230103E+03  0.67423833070E+03  0.10100000352E+00 0. -1.
       -3    1    3    3    0  502  0.39004755312E+03  0.13486111413E+03 -0.22666664258E+04  0.23039317069E+04  0.10100000352E+00 0.  1.
</event>
<event>
 5   0  0.4914005E-05  0.2387865E+04  0.7818609E-02  0.8444061E-01
       -2   -1    0    0    0  501  0.00000000000E+00  0.00000000000E+00  0.14333489771E+04  0.14333489771E+04  0.25500000920E-02 0.  1.
        2   -1    0    0  501    0  0.00000000000E+00  0.00000000000E+00 -0.99450663391E+03  0.99450663392E+03  0.25500000920E-02 0. -1.
    10030    2    1    2    0    0  0.00000000000E+00  0.00000000000E+00  0.43884234317E+03  0.24278556110E+04  0.23878652110E+04 0.  0.
        2    1    3    3  502    0 -0.35602663080E+03  0.86059828251E+03 -0.54014469407E+03  0.10766339472E+04  0.25500000920E-02 0. -1.
       -2    1    3    3    0  502  0.35602663080E+03 -0.86059828251E+03  0.97898703723E+03  0.13512216638E+04  0.25500000920E-02 0.  1.
</event>
<event>
 5   0  0.4664127E-05  0.2391764E+04  0.7818609E-02  0.8442593E-01
       -2   -1    0    0    0  501  0.00000000000E+00  0.00000000000E+00  0.76073264584E+03  0.76073264584E+03  0.25500000920E-02 0.  1.
        2   -1    0    0  501    0  0.00000000000E+00  0.00000000000E+00 -0.18799431073E+04  0.18799431073E+04  0.25500000920E-02 0. -1.
    10030    2    1    2    0    0  0.00000000000E+00  0.00000000000E+00 -0.11192104615E+04  0.26406757532E+04  0.23917642811E+04 0.  0.
        4    1    3    3  502    0  0.37712940745E+01  0.11131144355E+04 -0.10422424493E+04  0.15248963588E+04  0.12699999809E+01 0.  1.
       -4    1    3    3    0  502 -0.37712940745E+01 -0.11131144355E+04 -0.76968012200E+02  0.11157793944E+04  0.12699999809E+01 0. -1.
</event>
<event>
 5   0  0.2149920E-05  0.2403504E+04  0.7818609E-02  0.8438193E-01
       -1   -1    0    0    0  501  0.00000000000E+00  0.00000000000E+00  0.64469761888E+03  0.64469761890E+03  0.50400001928E-02 0.  1.
        1   -1    0    0  501    0  0.00000000000E+00  0.00000000000E+00 -0.22401323705E+04  0.22401323705E+04  0.50400001928E-02 0. -1.
    10030    2    1    2    0    0  0.00000000000E+00  0.00000000000E+00 -0.15954347516E+04  0.28848299894E+04  0.24035041129E+04 0.  0.
        5    1    3    3  502    0 -0.24336431197E+03  0.95154742975E+02  0.61017554935E+03  0.66378980444E+03  0.46999998093E+01 0.  1.
       -5    1    3    3    0  502  0.24336431197E+03 -0.95154742975E+02 -0.22056103009E+04  0.22210401849E+04  0.46999998093E+01 0. -1.
</event>
<event>
 5   0  0.4664127E-05  0.2398034E+04  0.7818609E-02  0.8440240E-01
        2   -1    0    0  501    0  0.00000000000E+00  0.00000000000E+00  0.11761379685E+04  0.11761379685E+04  0.25500000920E-02 0. -1.
       -2   -1    0    0    0  501  0.00000000000E+00  0.00000000000E+00 -0.12223406581E+04  0.12223406581E+04  0.25500000920E-02 0.  1.
    10030    2    1    2    0    0  0.00000000000E+00  0.00000000000E+00 -0.46202689622E+02  0.23984786266E+04  0.23980335764E+04 0.  0.
        4    1    3    3  502    0 -0.30427210905E+03 -0.56195570742E+03  0.99161338797E+03  0.11796925267E+04  0.12699999809E+01 0. -1.
       -4    1    3    3    0  502  0.30427210905E+03  0.56195570742E+03 -0.10378160776E+04  0.12187860999E+04  0.12699999809E+01 0.  1.
</event>
<event>
 5   0  0.2139556E-05  0.2337280E+04  0.7818609E-02  0.8463365E-01
        1   -1    0    0  501    0  0.00000000000E+00  0.00000000000E+00  0.16973582205E+04  0.16973582206E+04  0.50400001928E-02 0.  1.
       -1   -1    0    0    0  501  0.00000000000E+00  0.00000000000E+00 -0.80461502447E+03  0.80461502449E+03  0.50400001928E-02 0. -1.
    10030    2    1    2    0    0  0.00000000000E+00  0.00000000000E+00  0.89274319608E+03  0.25019732450E+04  0.23372804078E+04 0.  0.
        2    1    3    3  502    0 -0.65780408750E+03 -0.94886990004E+03  0.63982546531E+03  0.13200139889E+04  0.25500000920E-02 0.  1.
       -2    1    3    3    0  502  0.65780408750E+03  0.94886990004E+03  0.25291773077E+03  0.11819592562E+04  0.25500000920E-02 0. -1.
</event>
<event>
 5   0  0.4713971E-05  0.1837477E+04  0.7818609E-02  0.8686620E-01
        2   -1    0    0  501    0  0.00000000000E+00  0.00000000000E+00  0.12655500772E+04  0.12655500772E+04  0.25500000920E-02 0.  1.
       -2   -1    0    0    0  501  0.00000000000E+00  0.00000000000E+00 -0.66696729054E+03  0.66696729055E+03  0.25500000920E-02 0. -1.
    10030    2    1    2    0    0  0.00000000000E+00  0.00000000000E+00  0.59858278662E+03  0.19325173677E+04  0.18374770812E+04 0.  0.
        5    1    3    3  502    0  0.41963466271E+03  0.47748846386E+03 -0.39831905071E+03  0.75017907157E+03  0.46999998093E+01 0. -1.
       -5    1    3    3    0  502 -0.41963466271E+03 -0.47748846386E+03  0.99690183733E+03  0.11823382961E+04  0.46999998093E+01 0.  1.
</event>
<event>
 5   0  0.2057599E-05  0.2388864E+04  0.7818609E-02  0.8443684E-01
        1   -1    0    0  501    0  0.00000000000E+00  0.00000000000E+00  0.26542147384E+04  0.26542147384E+04  0.50400001928E-02 0. -1.
       -1   -1    0    0    0  501  0.00000000000E+00  0.00000000000E+00 -0.53751040906E+03  0.53751040908E+03  0.50400001928E-02 0.  1.
    10030    2    1    2    0    0  0.00000000000E+00  0.00000000000E+00  0.21167043293E+04  0.31917251475E+04  0.23888642069E+04 0.  0.
        4    1    3    3  502    0  0.35462150813E+03 -0.10577754502E+04  0.16283784900E+04  0.19738954979E+04  0.12699999809E+01 0.  1.
       -4    1    3    3    0  502 -0.35462150813E+03  0.10577754502E+04  0.48832583934E+03  0.12178296496E+04  0.12699999809E+01 0. -1.
</event>
<event>
 5   0  0.4756705E-05  0.2420616E+04  0.7818609E-02  0.8431826E-01
        2   -1    0    0  501    0  0.00000000000E+00  0.00000000000E+00  0.12983025944E+04  0.12983025944E+04  0.25500000920E-02 0.  1.
       -2   -1    0    0    0  501  0.00000000000E+00  0.00000000000E+00 -0.11282769975E+04  0.11282769975E+04  0.25500000920E-02 0. -1.
    10030    2    1    2    0    0  0.00000000000E+00  0.00000000000E+00  0.17002559690E+03  0.24265795919E+04  0.24206155854E+04 0.  0.
        3    1    3    3  502    0 -0.74379361622E+03 -0.82837366481E+03  0.56095943628E+03  0.12466384285E+04  0.10100000352E+00 0.  1.
       -3    1    3    3    0  502  0.74379361622E+03  0.82837366481E+03 -0.39093383938E+03  0.11799411634E+04  0.10100000352E+00 0. -1.
</event>
<event>
 5   0  0.1672125E-05  0.2390394E+04  0.7818609E-02  0.8443109E-01
       -4   -1    0    0    0  501  0.00000000000E+00  0.00000000000E+00  0.10418413911E+04  0.10418421652E+04  0.12699999809E+01 0.  1.
        4   -1    0    0  501    0  0.00000000000E+00  0.00000000000E+00 -0.13711241962E+04  0.13711247843E+04  0.12699999809E+01 0. -1.
    10030    2    1    2    0    0  0.00000000000E+00  0.00000000000E+00 -0.32928280504E+03  0.24129669495E+04  0.23903937613E+04 0.  0.
        4    1    3    3  502    0  0.99996479546E+03 -0.65451981145E+03 -0.17773286734E+03  0.12082699867E+04  0.12699999809E+01 0.  1.
       -4    1    3    3    0  502 -0.99996479546E+03  0.65451981145E+03 -0.15154993770E+03  0.12046969628E+04  0.12699999809E+01 0. -1.
</event>
<event>
 5   0  0.4914005E-05  0.2388890E+04  0.7818609E-02  0.8443675E-01
       -2   -1    0    0    0  501  0.00000000000E+00  0.00000000000E+00  0.12378368428E+04  0.12378368428E+04  0.25500000920E-02 0.  1.
        2   -1    0    0  501    0  0.00000000000E+00  0.00000000000E+00 -0.11525738709E+04  0.11525738709E+04  0.25500000920E-02 0. -1.
    10030    2    1    2    0    0  0.00000000000E+00  0.00000000000E+00  0.85262971828E+02  0.23904107137E+04  0.23888896177E+04 0.  0.
        2    1    3    3  502    0  0.25824564663E+03  0.74699040026E+03  0.93875346319E+03  0.12271689113E+04  0.25500000920E-02 0.  1.
       -2    1    3    3    0  502 -0.25824564663E+03 -0.74699040026E+03 -0.85349049136E+03  0.11632418024E+04  0.25500000920E-02 0. -1.
</event>
<event>
 5   0  0.1672125E-05  0.2401810E+04  0.7818609E-02  0.8438826E-01
       -3   -1    0    0    0  501  0.00000000000E+00  0.00000000000E+00  0.10516786690E+04  0.10516786738E+04  0.10100000352E+00 0.  1.
        3   -1    0    0  501    0  0.00000000000E+00  0.00000000000E+00 -0.13713055041E+04  0.13713055078E+04  0.10100000352E+00 0. -1.
    10030    2    1    2    0    0  0.00000000000E+00  0.00000000000E+00 -0.31962683510E+03  0.24229841816E+04  0.24018099489E+04 0.  0.
        1    1    3    3  502    0 -0.10252103582E+04 -0.17642749723E+03  0.44546759110E+03  0.11316467272E+04  0.50400001928E-02 0.  1.
       -1    1    3    3    0  502  0.10252103582E+04  0.17642749723E+03 -0.76509442619E+03  0.12913374545E+04  0.50400001928E-02 0. -1.
</event>
<event>
 5   0  0.4664127E-05  0.2404735E+04  0.7818609E-02  0.8437733E-01
        2   -1    0    0  501    0  0.00000000000E+00  0.00000000000E+00  0.11687329207E+04  0.11687329207E+04  0.25500000920E-02 0. -1.
       -2   -1    0    0    0  501  0.00000000000E+00  0.00000000000E+00 -0.12369703479E+04  0.12369703479E+04  0.25500000920E-02 0.  1.
    10030    2    1    2    0    0  0.00000000000E+00  0.00000000000E+00 -0.68237427237E+02  0.24057032686E+04  0.24047353014E+04 0.  0.
        4    1    3    3  502    0  0.89864441954E+03 -0.28917884774E+03 -0.77906612552E+03  0.12239819605E+04  0.12699999809E+01 0.  1.
       -4    1    3    3    0  502 -0.89864441954E+03  0.28917884774E+03  0.71082869829E+03  0.11817213081E+04  0.12699999809E+01 0. -1.
</event>
<event>
 5   0  0.4713971E-05  0.2455238E+04  0.7818609E-02  0.8419108E-01
        2   -1    0    0  501    0  0.00000000000E+00  0.00000000000E+00  0.22123366575E+04  0.22123366575E+04  0.25500000920E-02 0.  1.
       -2   -1    0    0    0  501  0.00000000000E+00  0.00000000000E+00 -0.68120236663E+03  0.68120236663E+03  0.25500000920E-02 0. -1.
    10030    2    1    2    0    0  0.00000000000E+00  0.00000000000E+00  0.15311342909E+04  0.28935390241E+04  0.24552384543E+04 0.  0.
        5    1    3    3  502    0 -0.73668611872E+03  0.78506514496E+03  0.70349128143E+02  0.10788905455E+04  0.46999998093E+01 0. -1.
       -5    1    3    3    0  502  0.73668611872E+03 -0.78506514496E+03  0.14607851627E+04  0.18146484786E+04  0.46999998093E+01 0.  1.
</event>
<event>
 5   0  0.2057599E-05  0.2425971E+04  0.7818609E-02  0.8429844E-01
        1   -1    0    0  501    0  0.00000000000E+00  0.00000000000E+00  0.11164707082E+04  0.11164707083E+04  0.50400001928E-02 0. -1.
       -1   -1    0    0    0  501  0.00000000000E+00  0.00000000000E+00 -0.13178431903E+04  0.13178431903E+04  0.50400001928E-02 0.  1.
    10030    2    1    2    0    0  0.00000000000E+00  0.00000000000E+00 -0.20137248209E+03  0.24343138986E+04  0.24259705852E+04 0.  0.
        4    1    3    3  502    0  0.12116559414E+04  0.55996379435E+02 -0.10999134512E+03  0.12179266906E+04  0.12699999809E+01 0. -1.
       -4    1    3    3    0  502 -0.12116559414E+04 -0.55996379435E+02 -0.91381136966E+02  0.12163872080E+04  0.12699999809E+01 0.  1.
</event>
<event>
 5   0  0.1672125E-05  0.2413550E+04  0.7818609E-02  0.8434448E-01
        4   -1    0    0  501    0  0.00000000000E+00  0.00000000000E+00  0.11622519465E+04  0.11622526404E+04  0.12699999809E+01 0.  1.
       -4   -1    0    0    0  501  0.00000000000E+00  0.00000000000E+00 -0.12530025170E+04  0.12530031606E+04  0.12699999809E+01 0. -1.
    10030    2    1    2    0    0  0.00000000000E+00  0.00000000000E+00 -0.90750570468E+02  0.24152558009E+04  0.24135502725E+04 0.  0.
        5    1    3    3  502    0 -0.98037056787E+03  0.25714671599E+03  0.61009387504E+03  0.11829993704E+04  0.46999998093E+01 0. -1.
       -5    1    3    3    0  502  0.98037056787E+03 -0.25714671599E+03 -0.70084444551E+03  0.12322564306E+04  0.46999998093E+01 0.  1.
</event>
<event>
 5   0  0.4713971E-05  0.2384469E+04  0.7818609E-02  0.8445341E-01
        2   -1    0    0  501    0  0.00000000000E+00  0.00000000000E+00  0.22887997673E+04  0.22887997673E+04  0.25500000920E-02 0. -1.
       -2   -1    0    0    0  501  0.00000000000E+00  0.00000000000E+00 -0.62103403502E+03  0.62103403502E+03  0.25500000920E-02 0.  1.
    10030    2    1    2    0    0  0.00000000000E+00  0.00000000000E+00  0.16677657323E+04  0.29098338023E+04  0.23844685402E+04 0.  0.
        5    1    3    3  502    0 -0.76942271819E+03 -0.11917776278E+03  0.19356882556E+04  0.20864145732E+04  0.46999998093E+01 0. -1.
       -5    1    3    3    0  502  0.76942271819E+03  0.11917776278E+03 -0.26792252332E+03  0.82341922913E+03  0.46999998093E+01 0.  1.
</event>
<event>
 5   0  0.2065692E-05  0.2349741E+04  0.7818609E-02  0.8458563E-01
        1   -1    0    0  501    0  0.00000000000E+00  0.00000000000E+00  0.14473529740E+04  0.14473529740E+04  0.50400001928E-02 0.  1.
       -1   -1    0    0    0  501  0.00000000000E+00  0.00000000000E+00 -0.95368649305E+03  0.95368649306E+03  0.50400001928E-02 0. -1.
    10030    2    1    2    0    0  0.00000000000E+00  0.00000000000E+00  0.49366648095E+03  0.24010394671E+04  0.23497412470E+04 0.  0.
        3    1    3    3  502    0 -0.15296775659E+03 -0.52383285117E+02 -0.94226327879E+03  0.95603516665E+03  0.10100000352E+00 0. -1.
       -3    1    3    3    0  502  0.15296775659E+03  0.52383285117E+02  0.14359297597E+04  0.14450043004E+04  0.10100000352E+00 0.  1.
</event>
<event>
 5   0  0.4856882E-05  0.2417034E+04  0.7818609E-02  0.8433154E-01
        2   -1    0    0  501    0  0.00000000000E+00  0.00000000000E+00  0.12049099178E+04  0.12049099178E+04  0.25500000920E-02 0.  1.
       -2   -1    0    0    0  501  0.00000000000E+00  0.00000000000E+00 -0.12121344847E+04  0.12121344847E+04  0.25500000920E-02 0. -1.
    10030    2    1    2    0    0  0.00000000000E+00  0.00000000000E+00 -0.72245668743E+01  0.24170444025E+04  0.24170336053E+04 0.  0.
        1    1    3    3  502    0 -0.19274452582E+03  0.10969134436E+04 -0.47280869659E+03  0.12099246334E+04  0.50400001928E-02 0. -1.
       -1    1    3    3    0  502  0.19274452582E+03 -0.10969134436E+04  0.46558412972E+03  0.12071197690E+04  0.50400001928E-02 0.  1.
</event>
<event>
 5   0  0.2090039E-05  0.2399467E+04  0.7818609E-02  0.8439703E-01
       -1   -1    0    0    0  501  0.00000000000E+00  0.00000000000E+00  0.70007028920E+03  0.70007028922E+03  0.50400001928E-02 0. -1.
        1   -1    0    0  501    0  0.00000000000E+00  0.00000000000E+00 -0.20560230359E+04  0.20560230359E+04  0.50400001928E-02 0.  1.
    10030    2    1    2    0    0  0.00000000000E+00  0.00000000000E+00 -0.13559527467E+04  0.27560933251E+04  0.23994671420E+04 0.  0.
        1    1    3    3  502    0 -0.68473785233E+01 -0.69942544176E+02  0.69770402724E+03  0.70123445133E+03  0.50400001928E-02 0. -1.
       -1    1    3    3    0  502  0.68473785233E+01  0.69942544176E+02 -0.20536567739E+04  0.20548588738E+04  0.50400001928E-02 0.  1.
</event>
<event>
 5   0  0.4856882E-05  0.2361802E+04  0.7818609E-02  0.8453944E-01
       -2   -1    0    0    0  501  0.00000000000E+00  0.00000000000E+00  0.18501572655E+04  0.18501572655E+04  0.25500000920E-02 0. -1.
        2   -1    0    0  501    0  0.00000000000E+00  0.00000000000E+00 -0.75373427459E+03  0.75373427460E+03  0.25500000920E-02 0.  1.
    10030    2    1    2    0    0  0.00000000000E+00  0.00000000000E+00  0.10964229909E+04  0.26038915401E+04  0.23618018075E+04 0.  0.
        1    1    3    3  502    0 -0.15367938929E+03 -0.48283756015E+03  0.17242136213E+04  0.17971260601E+04  0.50400001928E-02 0. -1.
       -1    1    3    3    0  502  0.15367938929E+03  0.48283756015E+03 -0.62779063033E+03  0.80676548001E+03  0.50400001928E-02 0.  1.
</event>
<event>
 5   0  0.4856882E-05  0.2413864E+04  0.7818609E-02  0.8434331E-01
       -2   -1    0    0    0  501  0.00000000000E+00  0.00000000000E+00  0.12150568380E+04  0.12150568380E+04  0.25500000920E-02 0. -1.
        2   -1    0    0  501    0  0.00000000000E+00  0.00000000000E+00 -0.11988614171E+04  0.11988614171E+04  0.25500000920E-02 0.  1.
    10030    2    1    2    0    0  0.00000000000E+00  0.00000000000E+00  0.16195420870E+02  0.24139182551E+04  0.24138639254E+04 0.  0.
        1    1    3    3  502    0 -0.14363031196E+03 -0.23690964310E+03 -0.11666324862E+04  0.11990776469E+04  0.50400001928E-02 0.  1.
       -1    1    3    3    0  502  0.14363031196E+03  0.23690964310E+03  0.11828279070E+04  0.12148406082E+04  0.50400001928E-02 0. -1.
</event>
<event>
 5   0  0.4713971E-05  0.2419406E+04  0.7818609E-02  0.8432274E-01
       -2   -1    0    0    0  501  0.00000000000E+00  0.00000000000E+00  0.10578320681E+04  0.10578320681E+04  0.25500000920E-02 0. -1.
        2   -1    0    0  501    0  0.00000000000E+00  0.00000000000E+00 -0.13833780348E+04  0.13833780348E+04  0.25500000920E-02 0.  1.
    10030    2    1    2    0    0  0.00000000000E+00  0.00000000000E+00 -0.32554596667E+03  0.24412101029E+04  0.24194062475E+04 0.  0.
        5    1    3    3  502    0  0.44220658897E+03 -0.24288250512E+03 -0.12721453788E+04  0.13685446772E+04  0.46999998093E+01 0.  1.
       -5    1    3    3    0  502 -0.44220658897E+03  0.24288250512E+03  0.94659941212E+03  0.10726654258E+04  0.46999998093E+01 0. -1.
</event>
<event>
 5   0  0.4756705E-05  0.2398201E+04  0.7818609E-02  0.8440177E-01
       -2   -1    0    0    0  501  0.00000000000E+00  0.00000000000E+00  0.17265864036E+04  0.17265864036E+04  0.25500000920E-02 0. -1.
        2   -1    0    0  501    0  0.00000000000E+00  0.00000000000E+00 -0.83276566318E+03  0.83276566318E+03  0.25500000920E-02 0.  1.
    10030    2    1    2    0    0  0.00000000000E+00  0.00000000000E+00  0.89382074047E+03  0.25593520668E+04  0.23982008852E+04 0.  0.
        3    1    3    3  502    0  0.73400411109E+03 -0.45572102109E+03  0.13342882286E+04  0.15895813195E+04  0.10100000352E+00 0. -1.
       -3    1    3    3    0  502 -0.73400411109E+03  0.45572102109E+03 -0.44046748809E+03  0.96977074735E+03  0.10100000352E+00 0.  1.
</event>
<event>
 5   0  0.2139556E-05  0.2904402E+04  0.7818609E-02  0.8271569E-01
       -1   -1    0    0    0  501  0.00000000000E+00  0.00000000000E+00  0.12744145282E+04  0.12744145282E+04  0.50400001928E-02 0. -1.
        1   -1    0    0  501    0  0.00000000000E+00  0.00000000000E+00 -0.16547897927E+04  0.16547897927E+04  0.50400001928E-02 0.  1.
    10030    2    1    2    0    0  0.00000000000E+00  0.00000000000E+00 -0.38037526449E+03  0.29292043210E+04  0.29044022814E+04 0.  0.
        2    1    3    3  502    0 -0.20001186361E+03 -0.10508494512E+04 -0.11807145092E+04  0.15932281905E+04  0.25500000920E-02 0.  1.
       -2    1    3    3    0  502  0.20001186361E+03  0.10508494512E+04  0.80033924469E+03  0.13359761305E+04  0.25500000920E-02 0. -1.
</event>
<event>
 5   0  0.2065692E-05  0.2415984E+04  0.7818609E-02  0.8433544E-01
       -1   -1    0    0    0  501  0.00000000000E+00  0.00000000000E+00  0.46956522994E+03  0.46956522996E+03  0.50400001928E-02 0. -1.
        1   -1    0    0  501    0  0.00000000000E+00  0.00000000000E+00 -0.31076496547E+04  0.31076496547E+04  0.50400001928E-02 0.  1.
    10030    2    1    2    0    0  0.00000000000E+00  0.00000000000E+00 -0.26380844248E+04  0.35772148847E+04  0.24159836297E+04 0.  0.
        3    1    3    3  502    0  0.91562051329E+03 -0.77486920323E+03 -0.11072477723E+04  0.16324156474E+04  0.10100000352E+00 0.  1.
       -3    1    3    3    0  502 -0.91562051329E+03  0.77486920323E+03 -0.15308366525E+04  0.19447992373E+04  0.10100000352E+00 0. -1.
</event>
<event>
 5   0  0.1672125E-05  0.2345269E+04  0.7818609E-02  0.8460283E-01
       -3   -1    0    0    0  501  0.00000000000E+00  0.00000000000E+00  0.97687041746E+03  0.97687042268E+03  0.10100000352E+00 0. -1.
        3   -1    0    0  501    0  0.00000000000E+00  0.00000000000E+00 -0.14076292472E+04  0.14076292508E+04  0.10100000352E+00 0.  1.
    10030    2    1    2    0    0  0.00000000000E+00  0.00000000000E+00 -0.43075882974E+03  0.23844996735E+04  0.23452687529E+04 0.  0.
        5    1    3    3  502    0 -0.29395461952E+03 -0.10413313447E+04 -0.67490096659E+03  0.12752622054E+04  0.46999998093E+01 0. -1.
       -5    1    3    3    0  502  0.29395461952E+03  0.10413313447E+04  0.24414213685E+03  0.11092374681E+04  0.46999998093E+01 0.  1.
</event>
<event>
 5   0  0.2139556E-05  0.2442404E+04  0.7818609E-02  0.8423797E-01
        1   -1    0    0  501    0  0.00000000000E+00  0.00000000000E+00  0.11076742285E+04  0.11076742285E+04  0.50400001928E-02 0. -1.
       -1   -1    0    0    0  501  0.00000000000E+00  0.00000000000E+00 -0.13463655884E+04  0.13463655884E+04  0.50400001928E-02 0.  1.
    10030    2    1    2    0    0  0.00000000000E+00  0.00000000000E+00 -0.23869135990E+03  0.24540398168E+04  0.24424041143E+04 0.  0.
        2    1    3    3  502    0 -0.14130318437E+03 -0.83434221411E+03 -0.10040179874E+04  0.13130672638E+04  0.25500000920E-02 0.  1.
       -2    1    3    3    0  502  0.14130318437E+03  0.83434221411E+03  0.76532662749E+03  0.11409725531E+04  0.25500000920E-02 0. -1.
</event>
<event>
 5   0  0.2090039E-05  0.1825562E+04  0.7818609E-02  0.8692823E-01
       -1   -1    0    0    0  501  0.00000000000E+00  0.00000000000E+00  0.62507732266E+03  0.62507732268E+03  0.50400001928E-02 0. -1.
        1   -1    0    0  501    0  0.00000000000E+00  0.00000000000E+00 -0.13329052230E+04  0.13329052230E+04  0.50400001928E-02 0.  1.
    10030    2    1    2    0    0  0.00000000000E+00  0.00000000000E+00 -0.70782790030E+03  0.19579825456E+04  0.18255616431E+04 0.  0.
        1    1    3    3  502    0 -0.61013642182E+03 -0.65598170963E+03 -0.54150179311E+03  0.10468059269E+04  0.50400001928E-02 0. -1.
       -1    1    3    3    0  502  0.61013642182E+03  0.65598170963E+03 -0.16632610719E+03  0.91117661876E+03  0.50400001928E-02 0.  1.
</event>
<event>
 5   0  0.4856882E-05  0.2327655E+04  0.7818609E-02  0.8467096E-01
       -2   -1    0    0    0  501  0.00000000000E+00  0.00000000000E+00  0.88512805064E+03  0.88512805064E+03  0.25500000920E-02 0.  1.
        2   -1    0    0  501    0  0.00000000000E+00  0.00000000000E+00 -0.15302808108E+04  0.15302808108E+04  0.25500000920E-02 0. -1.
    10030    2    1    2    0    0  0.00000000000E+00  0.00000000000E+00 -0.64515276013E+03  0.24154088614E+04  0.23276550182E+04 0.  0.
        1    1    3    3  502    0  0.55676655287E+03  0.54080367648E+03  0.57731813557E+03  0.96734370343E+03  0.50400001928E-02 0.  1.
       -1    1    3    3    0  502 -0.55676655287E+03 -0.54080367648E+03 -0.12224708957E+04  0.14480651580E+04  0.50400001928E-02 0. -1.
</event>
<event>
 5   0  0.2065692E-05  0.2410223E+04  0.7818609E-02  0.8435686E-01
       -1   -1    0    0    0  501  0.00000000000E+00  0.00000000000E+00  0.12051808201E+04  0.12051808201E+04  0.50400001928E-02 0. -1.
        1   -1    0    0  501    0  0.00000000000E+00  0.00000000000E+00 -0.12050423787E+04  0.12050423787E+04  0.50400001928E-02 0.  1.
    10030    2    1    2    0    0  0.00000000000E+00  0.00000000000E+00  0.13844138752E+00  0.24102231988E+04  0.24102231948E+04 0.  0.
        3    1    3    3  502    0  0.98955564390E+03 -0.49420526278E+03  0.47843596141E+03  0.12051390764E+04  0.10100000352E+00 0. -1.
       -3    1    3    3    0  502 -0.98955564390E+03  0.49420526278E+03 -0.47829752002E+03  0.12050841224E+04  0.10100000352E+00 0.  1.
</event>
<event>
 5   0  0.4914005E-05  0.2454849E+04  0.7818609E-02  0.8419250E-01
        2   -1    0    0  501    0  0.00000000000E+00  0.00000000000E+00  0.15072617451E+04  0.15072617451E+04  0.25500000920E-02 0.  1.
       -2   -1    0    0    0  501  0.00000000000E+00  0.00000000000E+00 -0.99954201728E+03  0.99954201729E+03  0.25500000920E-02 0. -1.
    10030    2    1    2    0    0  0.00000000000E+00  0.00000000000E+00  0.50771972782E+03  0.25068037624E+04  0.24548494416E+04 0.  0.
        2    1    3    3  502    0  0.63790401639E+03 -0.10486333123E+04  0.25820280128E+03  0.12542814853E+04  0.25500000920E-02 0.  1.
       -2    1    3    3    0  502 -0.63790401639E+03  0.10486333123E+04  0.24951692654E+03  0.12525222771E+04  0.25500000920E-02 0. -1.
</event>
<event>
 5   0  0.2149920E-05  0.2443412E+04  0.7818609E-02  0.8423427E-01
        1   -1    0    0  501    0  0.00000000000E+00  0.00000000000E+00  0.10028654915E+04  0.10028654915E+04  0.50400001928E-02 0. -1.
       -1   -1    0    0    0  501  0.00000000000E+00  0.00000000000E+00 -0.14883007145E+04  0.14883007145E+04  0.50400001928E-02 0.  1.
    10030    2    1    2    0    0  0.00000000000E+00  0.00000000000E+00 -0.48543522300E+03  0.24911662059E+04  0.24434118993E+04 0.  0.
        5    1    3    3  502    0  0.77656743998E+02 -0.54355897101E+03 -0.13554024878E+04  0.14624038152E+04  0.46999998093E+01 0.  1.
       -5    1    3    3    0  502 -0.77656743998E+02  0.54355897101E+03  0.86996726475E+03  0.10287623907E+04  0.46999998093E+01 0. -1.
</event>
<event>
 5   0  0.4664127E-05  0.2427824E+04  0.7818609E-02  0.8429159E-01
        2   -1    0    0  501    0  0.00000000000E+00  0.00000000000E+00  0.14019408275E+04  0.14019408275E+04  0.25500000920E-02 0.  1.
       -2   -1    0    0    0  501  0.00000000000E+00  0.00000000000E+00 -0.10511020252E+04  0.10511020252E+04  0.25500000920E-02 0. -1.
    10030    2    1    2    0    0  0.00000000000E+00  0.00000000000E+00  0.35083880232E+03  0.24530428526E+04  0.24278244112E+04 0.  0.
        4    1    3    3  502    0  0.43933291358E+03 -0.71070144884E+03  0.10651749763E+04  0.13537759421E+04  0.12699999809E+01 0.  1.
       -4    1    3    3    0  502 -0.43933291358E+03  0.71070144884E+03 -0.71433617397E+03  0.10992669106E+04  0.12699999809E+01 0. -1.
</event>
<event>
 5   0  0.4856882E-05  0.2548854E+04  0.7818609E-02  0.8385785E-01
        2   -1    0    0  501    0  0.00000000000E+00  0.00000000000E+00  0.15808417973E+04  0.15808417973E+04  0.25500000920E-02 0.  1.
       -2   -1    0    0    0  501  0.00000000000E+00  0.00000000000E+00 -0.10274048489E+04  0.10274048489E+04  0.25500000920E-02 0. -1.
    10030    2    1    2    0    0  0.00000000000E+00  0.00000000000E+00  0.55343694843E+03  0.26082466462E+04  0.25488542743E+04 0.  0.
        1    1    3    3  502    0  0.11024653866E+03 -0.38537051040E+03  0.15146595826E+04  0.15667987685E+04  0.50400001928E-02 0.  1.
       -1    1    3    3    0  502 -0.11024653866E+03  0.38537051040E+03 -0.96122263418E+03  0.10414478777E+04  0.50400001928E-02 0. -1.
</event>
<event>
 5   0  0.4856882E-05  0.2422653E+04  0.7818609E-02  0.8431071E-01
       -2   -1    0    0    0  501  0.00000000000E+00  0.00000000000E+00  0.96356336040E+03  0.96356336040E+03  0.25500000920E-02 0.  1.
        2   -1    0    0  501    0  0.00000000000E+00  0.00000000000E+00 -0.15227978786E+04  0.15227978786E+04  0.25500000920E-02 0. -1.
    10030    2    1    2    0    0  0.00000000000E+00  0.00000000000E+00 -0.55923451818E+03  0.24863612390E+04  0.24226532902E+04 0.  0.
        1    1    3    3  502    0 -0.31974579319E+03 -0.86482456467E+03  0.52663232391E+03  0.10618382667E+04  0.50400001928E-02 0.  1.
       -1    1    3    3    0  502  0.31974579319E+03  0.86482456467E+03 -0.10858668421E+04  0.14245229723E+04  0.50400001928E-02 0. -1.
</event>
<event>
 5   0  0.2057599E-05  0.2416391E+04  0.7818609E-02  0.8433392E-01
        1   -1    0    0  501    0  0.00000000000E+00  0.00000000000E+00  0.14974157816E+04  0.14974157817E+04  0.50400001928E-02 0.  1.
       -1   -1    0    0    0  501  0.00000000000E+00  0.00000000000E+00 -0.97483722375E+03  0.97483722376E+03  0.50400001928E-02 0. -1.
    10030    2    1    2    0    0  0.00000000000E+00  0.00000000000E+00  0.52257855790E+03  0.24722530054E+04  0.24163912294E+04 0.  0.
        4    1    3    3  502    0 -0.45132879933E+03  0.55064686131E+03  0.12599830038E+04  0.14472278444E+04  0.12699999809E+01 0.  1.
       -4    1    3    3    0  502  0.45132879933E+03 -0.55064686131E+03 -0.73740444587E+03  0.10250251610E+04  0.12699999809E+01 0. -1.
</event>
<event>
 5   0  0.4664127E-05  0.2324623E+04  0.7818609E-02  0.8468275E-01
       -2   -1    0    0    0  501  0.00000000000E+00  0.00000000000E+00  0.77599575480E+03  0.77599575481E+03  0.25500000920E-02 0. -1.
        2   -1    0    0  501    0  0.00000000000E+00  0.00000000000E+00 -0.17409482968E+04  0.17409482968E+04  0.25500000920E-02 0.  1.
    10030    2    1    2    0    0  0.00000000000E+00  0.00000000000E+00 -0.96495254197E+03  0.25169440516E+04  0.23246233997E+04 0.  0.
        4    1    3    3  502    0 -0.68576666914E+03 -0.39421305409E+03 -0.14045717842E+04  0.16119873965E+04  0.12699999809E+01 0.  1.
       -4    1    3    3    0  502  0.68576666914E+03  0.39421305409E+03  0.43961924226E+03  0.90495665509E+03  0.12699999809E+01 0. -1.
</event>
<event>
 5   0  0.4664127E-05  0.2413706E+04  0.7818609E-02  0.8434390E-01
        2   -1    0    0  501    0  0.00000000000E+00  0.00000000000E+00  0.21822048473E+04  0.21822048473E+04  0.25500000920E-02 0.  1.
       -2   -1    0    0    0  501  0.00000000000E+00  0.00000000000E+00 -0.66744176412E+03  0.66744176413E+03  0.25500000920E-02 0. -1.
    10030    2    1    2    0    0  0.00000000000E+00  0.00000000000E+00  0.15147630831E+04  0.28496466114E+04  0.24137064055E+04 0.  0.
        4    1    3    3  502    0 -0.53057048302E+03 -0.94260462165E+03  0.12546874458E+03  0.10889226460E+04  0.12699999809E+01 0. -1.
       -4    1    3    3    0  502  0.53057048302E+03  0.94260462165E+03  0.13892943386E+04  0.17607239654E+04  0.12699999809E+01 0.  1.
</event>
<event>
 5   0  0.2139556E-05  0.2234574E+04  0.7818609E-02  0.8504174E-01
        1   -1    0    0  501    0  0.00000000000E+00  0.00000000000E+00  0.86327916278E+03  0.86327916280E+03  0.50400001928E-02 0. -1.
       -1   -1    0    0    0  501  0.00000000000E+00  0.00000000000E+00 -0.14460326743E+04  0.14460326743E+04  0.50400001928E-02 0.  1.
    10030    2    1    2    0    0  0.00000000000E+00  0.00000000000E+00 -0.58275351155E+03  0.23093118371E+04  0.22345736743E+04 0.  0.
        2    1    3    3  502    0  0.17099113519E+02 -0.30018889828E+03 -0.14034360761E+04  0.14352834473E+04  0.25500000920E-02 0.  1.
       -2    1    3    3    0  502 -0.17099113519E+02  0.30018889828E+03  0.82068256460E+03  0.87402838980E+03  0.25500000920E-02 0. -1.
</event>
<event>
 5   0  0.4856882E-05  0.2497651E+04  0.7818609E-02  0.8403823E-01
       -2   -1    0    0    0  501  0.00000000000E+00  0.00000000000E+00  0.73518308305E+03  0.73518308306E+03  0.25500000920E-02 0. -1.
        2   -1    0    0  501    0  0.00000000000E+00  0.00000000000E+00 -0.21213280734E+04  0.21213280734E+04  0.25500000920E-02 0.  1.
    10030    2    1    2    0    0  0.00000000000E+00  0.00000000000E+00 -0.13861449904E+04  0.28565111565E+04  0.24976505065E+04 0.  0.
        1    1    3    3  502    0  0.62895792478E+03 -0.10460684356E+04 -0.99504989622E+03  0.15747925384E+04  0.50400001928E-02 0. -1.
       -1    1    3    3    0  502 -0.62895792478E+03  0.10460684356E+04 -0.39109509415E+03  0.12817186180E+04  0.50400001928E-02 0.  1.
</event>
<event>
 5   0  0.2149920E-05  0.2375117E+04  0.7818609E-02  0.8448878E-01
        1   -1    0    0  501    0  0.00000000000E+00  0.00000000000E+00  0.10445284822E+04  0.10445284822E+04  0.50400001928E-02 0.  1.
       -1   -1    0    0    0  501  0.00000000000E+00  0.00000000000E+00 -0.13501743685E+04  0.13501743685E+04  0.50400001928E-02 0. -1.
    10030    2    1    2    0    0  0.00000000000E+00  0.00000000000E+00 -0.30564588629E+03  0.23947028507E+04  0.23751173308E+04 0.  0.
        5    1    3    3  502    0 -0.31317735781E+03  0.92448670979E+03 -0.83480121973E+03  0.12843951497E+04  0.46999998093E+01 0. -1.
       -5    1    3    3    0  502  0.31317735781E+03 -0.92448670979E+03  0.52915533344E+03  0.11103077010E+04  0.46999998093E+01 0.  1.
</event>
<event>
 5   0  0.2149920E-05  0.2389281E+04  0.7818609E-02  0.8443527E-01
        1   -1    0    0  501    0  0.00000000000E+00  0.00000000000E+00  0.16664501136E+04  0.16664501136E+04  0.50400001928E-02 0. -1.
       -1   -1    0    0    0  501  0.00000000000E+00  0.00000000000E+00 -0.85641118074E+03  0.85641118076E+03  0.50400001928E-02 0.  1.
    10030    2    1    2    0    0  0.00000000000E+00  0.00000000000E+00  0.81003893284E+03  0.25228612944E+04  0.23892814899E+04 0.  0.
        5    1    3    3  502    0 -0.91846162888E+03  0.47658199994E+03 -0.22538697984E+03  0.10590200881E+04  0.46999998093E+01 0.  1.
       -5    1    3    3    0  502  0.91846162888E+03 -0.47658199994E+03  0.10354259127E+04  0.14638412062E+04  0.46999998093E+01 0. -1.
</event>
<event>
 5   0  0.2149920E-05  0.2350711E+04  0.7818609E-02  0.8458191E-01
       -1   -1    0    0    0  501  0.00000000000E+00  0.00000000000E+00  0.18685566961E+04  0.18685566961E+04  0.50400001928E-02 0. -1.
        1   -1    0    0  501    0  0.00000000000E+00  0.00000000000E+00 -0.73931932401E+03  0.73931932403E+03  0.50400001928E-02 0.  1.
    10030    2    1    2    0    0  0.00000000000E+00  0.00000000000E+00  0.11292373721E+04  0.26078760201E+04  0.23507105934E+04 0.  0.
        5    1    3    3  502    0  0.11305263456E+04 -0.31344620489E+02  0.91956687512E+03  0.14576342583E+04  0.46999998093E+01 0.  1.
       -5    1    3    3    0  502 -0.11305263456E+04  0.31344620489E+02  0.20967049697E+03  0.11502417618E+04  0.46999998093E+01 0. -1.
</event>
<event>
 5   0  0.2139556E-05  0.2382356E+04  0.7818609E-02  0.8446139E-01
       -1   -1    0    0    0  501  0.00000000000E+00  0.00000000000E+00  0.12069833555E+04  0.12069833555E+04  0.50400001928E-02 0. -1.
        1   -1    0    0  501    0  0.00000000000E+00  0.00000000000E+00 -0.11755796362E+04  0.11755796362E+04  0.50400001928E-02 0.  1.
    10030    2    1    2    0    0  0.00000000000E+00  0.00000000000E+00  0.31403719321E+02  0.23825629917E+04  0.23823560221E+04 0.  0.
        2    1    3    3  502    0  0.81444099595E+03 -0.79819019569E+02 -0.84994820034E+03  0.11798716689E+04  0.25500000920E-02 0.  1.
       -2    1    3    3    0  502 -0.81444099595E+03  0.79819019569E+02  0.88135191966E+03  0.12026913229E+04  0.25500000920E-02 0. -1.
</event>
<event>
 5   0  0.4756705E-05  0.2457922E+04  0.7818609E-02  0.8418131E-01
       -2   -1    0    0    0  501  0.00000000000E+00  0.00000000000E+00  0.56657566644E+03  0.56657566645E+03  0.25500000920E-02 0.  1.
        2   -1    0    0  501    0  0.00000000000E+00  0.00000000000E+00 -0.26657422291E+04  0.26657422291E+04  0.25500000920E-02 0. -1.
    10030    2    1    2    0    0  0.00000000000E+00  0.00000000000E+00 -0.20991665627E+04  0.32323178956E+04  0.24579216261E+04 0.  0.
        3    1    3    3  502    0  0.54415343148E+03  0.10279478715E+04 -0.15715895954E+04  0.19551658881E+04  0.10100000352E+00 0. -1.
       -3    1    3    3    0  502 -0.54415343148E+03 -0.10279478715E+04 -0.52757696728E+03  0.12771520074E+04  0.10100000352E+00 0.  1.
</event>
<event>
 5   0  0.4713971E-05  0.2258067E+04  0.7818609E-02  0.8494641E-01
        2   -1    0    0  501    0  0.00000000000E+00  0.00000000000E+00  0.10446220720E+04  0.10446220720E+04  0.25500000920E-02 0. -1.
       -2   -1    0    0    0  501  0.00000000000E+00  0.00000000000E+00 -0.12202661256E+04  0.12202661256E+04  0.25500000920E-02 0.  1.
    10030    2    1    2    0    0  0.00000000000E+00  0.00000000000E+00 -0.17564405361E+03  0.22648881976E+04  0.22580672519E+04 0.  0.
        5    1    3    3  502    0  0.59444954457E+03  0.44331658753E+03 -0.94174261552E+03  0.11986663847E+04  0.46999998093E+01 0.  1.
       -5    1    3    3    0  502 -0.59444954457E+03 -0.44331658753E+03  0.76609856191E+03  0.10662218129E+04  0.46999998093E+01 0. -1.
</event>
<event>
 5   0  0.4914005E-05  0.2413091E+04  0.7818609E-02  0.8434619E-01
       -2   -1    0    0    0  501  0.00000000000E+00  0.00000000000E+00  0.14517647934E+04  0.14517647934E+04  0.25500000920E-02 0.  1.
        2   -1    0    0  501    0  0.00000000000E+00  0.00000000000E+00 -0.10027460793E+04  0.10027460793E+04  0.25500000920E-02 0. -1.
    10030    2    1    2    0    0  0.00000000000E+00  0.00000000000E+00  0.44901871410E+03  0.24545108727E+04  0.24130905118E+04 0.  0.
        2    1    3    3  502    0 -0.24306056335E+03 -0.14655784598E+03 -0.96830622392E+03  0.10090463730E+04  0.25500000920E-02 0. -1.
       -2    1    3    3    0  502  0.24306056335E+03  0.14655784598E+03  0.14173249380E+04  0.14454644996E+04  0.25500000920E-02 0.  1.
</event>
<event>
 5   0  0.2139556E-05  0.1840253E+04  0.7818609E-02  0.8685182E-01
       -1   -1    0    0    0  501  0.00000000000E+00  0.00000000000E+00  0.77978057351E+03  0.77978057353E+03  0.50400001928E-02 0. -1.
        1   -1    0    0  501    0  0.00000000000E+00  0.00000000000E+00 -0.10857316448E+04  0.10857316448E+04  0.50400001928E-02 0.  1.
    10030    2    1    2    0    0  0.00000000000E+00  0.00000000000E+00 -0.30595107131E+03  0.18655122184E+04  0.18402526399E+04 0.  0.
        2    1    3    3  502    0  0.23688747155E+03 -0.32025651579E+03  0.68783837070E+03  0.79485944311E+03  0.25500000920E-02 0. -1.
       -2    1    3    3    0  502 -0.23688747155E+03  0.32025651579E+03 -0.99378944202E+03  0.10706527753E+04  0.25500000920E-02 0.  1.
</event>
<event>
 5   0  0.4856882E-05  0.2386463E+04  0.7818609E-02  0.8444589E-01
       -2   -1    0    0    0  501  0.00000000000E+00  0.00000000000E+00  0.11230790406E+04  0.11230790406E+04  0.25500000920E-02 0.  1.
        2   -1    0    0  501    0  0.00000000000E+00  0.00000000000E+00 -0.12677661512E+04  0.12677661512E+04  0.25500000920E-02 0. -1.
    10030    2    1    2    0    0  0.00000000000E+00  0.00000000000E+00 -0.14468711067E+03  0.23908451918E+04  0.23864631510E+04 0.  0.
        1    1    3    3  502    0 -0.11013590371E+04 -0.99573910556E+02 -0.52137957530E+03  0.12225969711E+04  0.50400001928E-02 0. -1.
       -1    1    3    3    0  502  0.11013590371E+04  0.99573910556E+02  0.37669246463E+03  0.11682482207E+04  0.50400001928E-02 0.  1.
</event>
<event>
 5   0  0.1672125E-05  0.2392503E+04  0.7818609E-02  0.8442316E-01
        4   -1    0    0  501    0  0.00000000000E+00  0.00000000000E+00  0.16445660554E+04  0.16445665458E+04  0.12699999809E+01 0. -1.
       -4   -1    0    0    0  501  0.00000000000E+00  0.00000000000E+00 -0.87014828815E+03  0.87014921495E+03  0.12699999809E+01 0.  1.
    10030    2    1    2    0    0  0.00000000000E+00  0.00000000000E+00  0.77441776727E+03  0.25147157607E+04  0.23925033917E+04 0.  0.
        3    1    3    3  502    0  0.30548894769E+02 -0.11749444670E+04  0.62127310513E+03  0.13294389858E+04  0.10100000352E+00 0. -1.
       -3    1    3    3    0  502 -0.30548894769E+02  0.11749444670E+04  0.15314466214E+03  0.11852767750E+04  0.10100000352E+00 0.  1.
</event>
<event>
 5   0  0.2090039E-05  0.2367482E+04  0.7818609E-02  0.8451779E-01
       -1   -1    0    0    0  501  0.00000000000E+00  0.00000000000E+00  0.10500008242E+04  0.10500008243E+04  0.50400001928E-02 0.  1.
        1   -1    0    0  501    0  0.00000000000E+00  0.00000000000E+00 -0.13345164105E+04  0.13345164105E+04  0.50400001928E-02 0. -1.
    10030    2    1    2    0    0  0.00000000000E+00  0.00000000000E+00 -0.28451558628E+03  0.23845172348E+04  0.23674824866E+04 0.  0.
        1    1    3    3  502    0 -0.31108307912E+03 -0.80259342707E+03  0.67618643072E+03  0.10946035723E+04  0.50400001928E-02 0.  1.
       -1    1    3    3    0  502  0.31108307912E+03  0.80259342707E+03 -0.96070201700E+03  0.12899136625E+04  0.50400001928E-02 0. -1.
</event>
<event>
 5   0  0.2065692E-05  0.2415549E+04  0.7818609E-02  0.8433705E-01
        1   -1    0    0  501    0  0.00000000000E+00  0.00000000000E+00  0.21300247379E+04  0.21300247379E+04  0.50400001928E-02 0. -1.
       -1   -1    0    0    0  501  0.00000000000E+00  0.00000000000E+00 -0.68483649491E+03  0.68483649493E+03  0.50400001928E-02 0.  1.
    10030    2    1    2    0    0  0.00000000000E+00  0.00000000000E+00  0.14451882430E+04  0.28148612328E+04  0.24155485304E+04 0.  0.
        3    1    3    3  502    0 -0.96097573424E+03  0.27756547718E+03  0.15113989769E+04  0.18124138141E+04  0.10100000352E+00 0. -1.
       -3    1    3    3    0  502  0.96097573424E+03 -0.27756547718E+03 -0.66210733883E+02  0.10024474188E+04  0.10100000352E+00 0.  1.
</event>
<event>
 5   0  0.2139556E-05  0.2377739E+04  0.7818609E-02  0.8447885E-01
       -1   -1    0    0    0  501  0.00000000000E+00  0.00000000000E+00  0.11481936410E+04  0.11481936411E+04  0.50400001928E-02 0. -1.
        1   -1    0    0  501    0  0.00000000000E+00  0.00000000000E+00 -0.12309860154E+04  0.12309860154E+04  0.50400001928E-02 0.  1.
    10030    2    1    2    0    0  0.00000000000E+00  0.00000000000E+00 -0.82792374329E+02  0.23791796564E+04  0.23777386863E+04 0.  0.
        2    1    3    3  502    0  0.67875795705E+02  0.22299932945E+03 -0.12078961902E+04  0.12301825193E+04  0.25500000920E-02 0.  1.
       -2    1    3    3    0  502 -0.67875795705E+02 -0.22299932945E+03  0.11251038159E+04  0.11489971371E+04  0.25500000920E-02 0. -1.
</event>
<event>
 5   0  0.2065692E-05  0.2430468E+04  0.7818609E-02  0.8428184E-01
       -1   -1    0    0    0  501  0.00000000000E+00  0.00000000000E+00  0.18535023038E+04  0.18535023038E+04  0.50400001928E-02 0. -1.
        1   -1    0    0  501    0  0.00000000000E+00  0.00000000000E+00 -0.79675859154E+03  0.79675859155E+03  0.50400001928E-02 0.  1.
    10030    2    1    2    0    0  0.00000000000E+00  0.00000000000E+00  0.10567437123E+04  0.26502608954E+04  0.24304681730E+04 0.  0.
        3    1    3    3  502    0  0.10299349924E+04  0.39258698334E+03 -0.29673028327E+02  0.11026201190E+04  0.10100000352E+00 0.  1.
       -3    1    3    3    0  502 -0.10299349924E+04 -0.39258698334E+03  0.10864167406E+04  0.15476407764E+04  0.10100000352E+00 0. -1.
</event>
<event>
 5   0  0.2057599E-05  0.2362795E+04  0.7818609E-02  0.8453565E-01
        1   -1    0    0  501    0  0.00000000000E+00  0.00000000000E+00  0.11429419327E+04  0.11429419327E+04  0.50400001928E-02 0. -1.
       -1   -1    0    0    0  501  0.00000000000E+00  0.00000000000E+00 -0.12211471275E+04  0.12211471275E+04  0.50400001928E-02 0.  1.
    10030    2    1    2    0    0  0.00000000000E+00  0.00000000000E+00 -0.78205194873E+02  0.23640890602E+04  0.23627951735E+04 0.  0.
        4    1    3    3  502    0  0.40966382353E+03  0.41473116879E+03 -0.10672217444E+04  0.12160552024E+04  0.12699999809E+01 0.  1.
       -4    1    3    3    0  502 -0.40966382353E+03 -0.41473116879E+03  0.98901654949E+03  0.11480338578E+04  0.12699999809E+01 0. -1.
</event>
<event>
 5   0  0.2139556E-05  0.2446797E+04  0.7818609E-02  0.8422189E-01
       -1   -1    0    0    0  501  0.00000000000E+00  0.00000000000E+00  0.94087278779E+03  0.94087278780E+03  0.50400001928E-02 0. -1.
        1   -1    0    0  501    0  0.00000000000E+00  0.00000000000E+00 -0.15907605432E+04  0.15907605432E+04  0.50400001928E-02 0.  1.
    10030    2    1    2    0    0  0.00000000000E+00  0.00000000000E+00 -0.64988775536E+03  0.25316333310E+04  0.24467965236E+04 0.  0.
        2    1    3    3  502    0 -0.57560458795E+03  0.18552282856E+03  0.77539720979E+03  0.98335151118E+03  0.25500000920E-02 0.  1.
       -2    1    3    3    0  502  0.57560458795E+03 -0.18552282856E+03 -0.14252849652E+04  0.15482818198E+04  0.25500000920E-02 0. -1.
</event>
<event>
 5   0  0.4914005E-05  0.2371238E+04  0.7818609E-02  0.8450351E-01
        2   -1    0    0  501    0  0.00000000000E+00  0.00000000000E+00  0.98863553481E+03  0.98863553481E+03  0.25500000920E-02 0.  1.
       -2   -1    0    0    0  501  0.00000000000E+00  0.00000000000E+00 -0.14218512233E+04  0.14218512233E+04  0.25500000920E-02 0. -1.
    10030    2    1    2    0    0  0.00000000000E+00  0.00000000000E+00 -0.43321568848E+03  0.24104867581E+04  0.23712381952E+04 0.  0.
        2    1    3    3  502    0 -0.69329047562E+03  0.20550368913E+03  0.73852326847E+03  0.10335860235E+04  0.25500000920E-02 0.  1.
       -2    1    3    3    0  502  0.69329047562E+03 -0.20550368913E+03 -0.11717389570E+04  0.13769007346E+04  0.25500000920E-02 0. -1.
</event>
<event>
 5   0  0.2139556E-05  0.2393131E+04  0.7818609E-02  0.8442080E-01
       -1   -1    0    0    0  501  0.00000000000E+00  0.00000000000E+00  0.62659652704E+03  0.62659652706E+03  0.50400001928E-02 0. -1.
        1   -1    0    0  501    0  0.00000000000E+00  0.00000000000E+00 -0.22849927000E+04  0.22849927000E+04  0.50400001928E-02 0.  1.
    10030    2    1    2    0    0  0.00000000000E+00  0.00000000000E+00 -0.16583961730E+04  0.29115892271E+04  0.23931305775E+04 0.  0.
        2    1    3    3  502    0 -0.30171162930E+03  0.59438833571E+03  0.37978243978E+03  0.76717801223E+03  0.25500000920E-02 0. -1.
       -2    1    3    3    0  502  0.30171162930E+03 -0.59438833571E+03 -0.20381786128E+04  0.21444112149E+04  0.25500000920E-02 0.  1.
</event>
<event>
 5   0  0.2149920E-05  0.2383866E+04  0.7818609E-02  0.8445569E-01
       -1   -1    0    0    0  501  0.00000000000E+00  0.00000000000E+00  0.71498319837E+03  0.71498319839E+03  0.50400001928E-02 0.  1.
        1   -1    0    0  501    0  0.00000000000E+00  0.00000000000E+00 -0.19870452913E+04  0.19870452913E+04  0.50400001928E-02 0. -1.
    10030    2    1    2    0    0  0.00000000000E+00  0.00000000000E+00 -0.12720620929E+04  0.27020284897E+04  0.23838657661E+04 0.  0.
        5    1    3    3  502    0  0.96252497968E+03  0.34605096506E+03  0.57586859262E+02  0.10244725195E+04  0.46999998093E+01 0.  1.
       -5    1    3    3    0  502 -0.96252497968E+03 -0.34605096506E+03 -0.13296489522E+04  0.16775559702E+04  0.46999998093E+01 0. -1.
</event>
<event>
 5   0  0.1672125E-05  0.2354500E+04  0.7818609E-02  0.8456737E-01
        3   -1    0    0  501    0  0.00000000000E+00  0.00000000000E+00  0.94336684821E+03  0.94336685361E+03  0.10100000352E+00 0.  1.
       -3   -1    0    0    0  501  0.00000000000E+00  0.00000000000E+00 -0.14691185576E+04  0.14691185611E+04  0.10100000352E+00 0. -1.
    10030    2    1    2    0    0  0.00000000000E+00  0.00000000000E+00 -0.52575170941E+03  0.24124854147E+04  0.23545001627E+04 0.  0.
        3    1    3    3  502    0 -0.18959742123E+03  0.58380386795E+03 -0.12921770045E+04  0.14305577791E+04  0.10100000352E+00 0. -1.
       -3    1    3    3    0  502  0.18959742123E+03 -0.58380386795E+03  0.76642529506E+03  0.98192763556E+03  0.10100000352E+00 0.  1.
</event>
<event>
 5   0  0.4756705E-05  0.2474376E+04  0.7818609E-02  0.8412172E-01
       -2   -1    0    0    0  501  0.00000000000E+00  0.00000000000E+00  0.11416436255E+04  0.11416436255E+04  0.25500000920E-02 0. -1.
        2   -1    0    0  501    0  0.00000000000E+00  0.00000000000E+00 -0.13407282952E+04  0.13407282952E+04  0.25500000920E-02 0.  1.
    10030    2    1    2    0    0  0.00000000000E+00  0.00000000000E+00 -0.19908466965E+03  0.24823719207E+04  0.24743758096E+04 0.  0.
        3    1    3    3  502    0  0.11807516433E+04  0.28863385627E+03  0.13174542058E+03  0.12226368276E+04  0.10100000352E+00 0.  1.
       -3    1    3    3    0  502 -0.11807516433E+04 -0.28863385627E+03 -0.33083009023E+03  0.12597350931E+04  0.10100000352E+00 0. -1.
</event>
<event>
 5   0  0.4756705E-05  0.2440254E+04  0.7818609E-02  0.8424585E-01
        2   -1    0    0  501    0  0.00000000000E+00  0.00000000000E+00  0.10138101279E+04  0.10138101279E+04  0.25500000920E-02 0. -1.
       -2   -1    0    0    0  501  0.00000000000E+00  0.00000000000E+00 -0.14684311761E+04  0.14684311761E+04  0.25500000920E-02 0.  1.
    10030    2    1    2    0    0  0.00000000000E+00  0.00000000000E+00 -0.45462104817E+03  0.24822413040E+04  0.24402544117E+04 0.  0.
        3    1    3    3  502    0  0.31450524092E+03 -0.58715614134E+03 -0.12671739053E+04  0.14315710242E+04  0.10100000352E+00 0.  1.
       -3    1    3    3    0  502 -0.31450524092E+03  0.58715614134E+03  0.81255285715E+03  0.10506702797E+04  0.10100000352E+00 0. -1.
</event>
<event>
 5   0  0.4664127E-05  0.2413809E+04  0.7818609E-02  0.8434352E-01
        2   -1    0    0  501    0  0.00000000000E+00  0.00000000000E+00  0.11333265899E+04  0.11333265899E+04  0.25500000920E-02 0. -1.
       -2   -1    0    0    0  501  0.00000000000E+00  0.00000000000E+00 -0.12852587237E+04  0.12852587237E+04  0.25500000920E-02 0.  1.
    10030    2    1    2    0    0  0.00000000000E+00  0.00000000000E+00 -0.15193213374E+03  0.24185853136E+04  0.24138085148E+04 0.  0.
        4    1    3    3  502    0  0.96595403038E+03  0.89061771932E+02  0.64351976516E+03  0.11640955670E+04  0.12699999809E+01 0. -1.
       -4    1    3    3    0  502 -0.96595403038E+03 -0.89061771932E+02 -0.79545189890E+03  0.12544897466E+04  0.12699999809E+01 0.  1.
</event>
<event>
 5   0  0.4756705E-05  0.2417025E+04  0.7818609E-02  0.8433157E-01
        2   -1    0    0  501    0  0.00000000000E+00  0.00000000000E+00  0.12055779943E+04  0.12055779943E+04  0.25500000920E-02 0. -1.
       -2   -1    0    0    0  501  0.00000000000E+00  0.00000000000E+00 -0.12114546258E+04  0.12114546258E+04  0.25500000920E-02 0.  1.
    10030    2    1    2    0    0  0.00000000000E+00  0.00000000000E+00 -0.58766315223E+01  0.24170326201E+04  0.24170254761E+04 0.  0.
        3    1    3    3  502    0 -0.54826496509E+03  0.10607188654E+04 -0.18944367756E+03  0.12089697683E+04  0.10100000352E+00 0.  1.
       -3    1    3    3    0  502  0.54826496509E+03 -0.10607188654E+04  0.18356704603E+03  0.12080628518E+04  0.10100000352E+00 0. -1.
</event>
<event>
 5   0  0.4856882E-05  0.2354373E+04  0.7818609E-02  0.8456786E-01
        2   -1    0    0  501    0  0.00000000000E+00  0.00000000000E+00  0.14679995134E+04  0.14679995135E+04  0.25500000920E-02 0. -1.
       -2   -1    0    0    0  501  0.00000000000E+00  0.00000000000E+00 -0.94398406653E+03  0.94398406653E+03  0.25500000920E-02 0.  1.
    10030    2    1    2    0    0  0.00000000000E+00  0.00000000000E+00  0.52401544692E+03  0.24119835800E+04  0.23543730804E+04 0.  0.
        1    1    3    3  502    0  0.35746008902E+03 -0.71487035538E+02  0.14087182744E+04  0.14551203690E+04  0.50400001928E-02 0. -1.
       -1    1    3    3    0  502 -0.35746008902E+03  0.71487035538E+02 -0.88470282752E+03  0.95686321098E+03  0.50400001928E-02 0.  1.
</event>
<event>
 5   0  0.4756705E-05  0.2241346E+04  0.7818609E-02  0.8501414E-01
        2   -1    0    0  501    0  0.00000000000E+00  0.00000000000E+00  0.12207345190E+04  0.12207345190E+04  0.25500000920E-02 0.  1.
       -2   -1    0    0    0  501  0.00000000000E+00  0.00000000000E+00 -0.10288131570E+04  0.10288131570E+04  0.25500000920E-02 0. -1.
    10030    2    1    2    0    0  0.00000000000E+00  0.00000000000E+00  0.19192136207E+03  0.22495476760E+04  0.22413457871E+04 0.  0.
        3    1    3    3  502    0 -0.11258311388E+03 -0.58751767738E+03  0.10470865339E+04  0.12059196484E+04  0.10100000352E+00 0.  1.
       -3    1    3    3    0  502  0.11258311388E+03  0.58751767738E+03 -0.85516517179E+03  0.10436280276E+04  0.10100000352E+00 0. -1.
</event>
<event>
 5   0  0.4713971E-05  0.2378060E+04  0.7818609E-02  0.8447764E-01
       -2   -1    0    0    0  501  0.00000000000E+00  0.00000000000E+00  0.11913887455E+04  0.11913887455E+04  0.25500000920E-02 0. -1.
        2   -1    0    0  501    0  0.00000000000E+00  0.00000000000E+00 -0.11866756529E+04  0.11866756529E+04  0.25500000920E-02 0.  1.
    10030    2    1    2    0    0  0.00000000000E+00  0.00000000000E+00  0.47130926133E+01  0.23780643985E+04  0.23780597280E+04 0.  0.
        5    1    3    3  502    0  0.11288556169E+04 -0.56541344245E+02 -0.36677559155E+03  0.11883006152E+04  0.46999998093E+01 0.  1.
       -5    1    3    3    0  502 -0.11288556169E+04  0.56541344245E+02  0.37148868416E+03  0.11897637833E+04  0.46999998093E+01 0. -1.
</event>
<event>
 5   0  0.2065692E-05  0.2390311E+04  0.7818609E-02  0.8443140E-01
        1   -1    0    0  501    0  0.00000000000E+00  0.00000000000E+00  0.13414767452E+04  0.13414767452E+04  0.50400001928E-02 0.  1.
       -1   -1    0    0    0  501  0.00000000000E+00  0.00000000000E+00 -0.10647938927E+04  0.10647938927E+04  0.50400001928E-02 0. -1.
    10030    2    1    2    0    0  0.00000000000E+00  0.00000000000E+00  0.27668285246E+03  0.24062706380E+04  0.23903106455E+04 0.  0.
        3    1    3    3  502    0 -0.23659031075E+03 -0.34031052485E+03  0.12668123746E+04  0.13328915301E+04  0.10100000352E+00 0.  1.
       -3    1    3    3    0  502  0.23659031075E+03  0.34031052485E+03 -0.99012952209E+03  0.10733791079E+04  0.10100000352E+00 0. -1.
</event>
<event>
 5   0  0.2090039E-05  0.2412554E+04  0.7818609E-02  0.8434818E-01
        1   -1    0    0  501    0  0.00000000000E+00  0.00000000000E+00  0.10351298174E+04  0.10351298174E+04  0.50400001928E-02 0. -1.
       -1   -1    0    0    0  501  0.00000000000E+00  0.00000000000E+00 -0.14057216554E+04  0.14057216555E+04  0.50400001928E-02 0.  1.
    10030    2    1    2    0    0  0.00000000000E+00  0.00000000000E+00 -0.37059183803E+03  0.24408514729E+04  0.24125541657E+04 0.  0.
        1    1    3    3  502    0 -0.59072830146E+03 -0.92864594350E+03  0.31421680747E+03  0.11445852597E+04  0.50400001928E-02 0.  1.
       -1    1    3    3    0  502  0.59072830146E+03  0.92864594350E+03 -0.68480864550E+03  0.12962662132E+04  0.50400001928E-02 0. -1.
</event>
<event>
 5   0  0.2065692E-05  0.2402439E+04  0.7818609E-02  0.8438591E-01
        1   -1    0    0  501    0  0.00000000000E+00  0.00000000000E+00  0.24210713483E+04  0.24210713483E+04  0.50400001928E-02 0.  1.
       -1   -1    0    0    0  501  0.00000000000E+00  0.00000000000E+00 -0.59598744789E+03  0.59598744791E+03  0.50400001928E-02 0. -1.
    10030    2    1    2    0    0  0.00000000000E+00  0.00000000000E+00  0.18250839004E+04  0.30170587962E+04  0.24024388725E+04 0.  0.
        3    1    3    3  502    0  0.98101382820E+03 -0.68294779698E+02  0.46222141907E+02  0.98447387200E+03  0.10100000352E+00 0. -1.
       -3    1    3    3    0  502 -0.98101382820E+03  0.68294779698E+02  0.17788617585E+04  0.20325849242E+04  0.10100000352E+00 0.  1.
</event>
<event>
 5   0  0.2090039E-05  0.2389312E+04  0.7818609E-02  0.8443516E-01
        1   -1    0    0  501    0  0.00000000000E+00  0.00000000000E+00  0.23942227505E+04  0.23942227505E+04  0.50400001928E-02 0. -1.
       -1   -1    0    0    0  501  0.00000000000E+00  0.00000000000E+00 -0.59610258424E+03  0.59610258427E+03  0.50400001928E-02 0.  1.
    10030    2    1    2    0    0  0.00000000000E+00  0.00000000000E+00  0.17981201663E+04  0.29903253348E+04  0.23893115066E+04 0.  0.
        1    1    3    3  502    0  0.10013851583E+04 -0.13987823022E+03  0.10271672652E+03  0.10163114093E+04  0.50400001928E-02 0.  1.
       -1    1    3    3    0  502 -0.10013851583E+04  0.13987823022E+03  0.16954034397E+04  0.19740139255E+04  0.50400001928E-02 0. -1.
</event>
<event>
 5   0  0.2057599E-05  0.2093838E+04  0.7818609E-02  0.8563963E-01
        1   -1    0    0  501    0  0.00000000000E+00  0.00000000000E+00  0.14529410136E+04  0.14529410136E+04  0.50400001928E-02 0.  1.
       -1   -1    0    0    0  501  0.00000000000E+00  0.00000000000E+00 -0.75435912649E+03  0.75435912651E+03  0.50400001928E-02 0. -1.
    10030    2    1    2    0    0  0.00000000000E+00  0.00000000000E+00  0.69858188712E+03  0.22073001401E+04  0.20938379249E+04 0.  0.
        4    1    3    3  502    0  0.27041644995E+03  0.82718258831E+03 -0.26420844899E+03  0.90948546345E+03  0.12699999809E+01 0. -1.
       -4    1    3    3    0  502 -0.27041644995E+03 -0.82718258831E+03  0.96279033611E+03  0.12978146767E+04  0.12699999809E+01 0.  1.
</event>
<event>
 5   0  0.4664127E-05  0.2411494E+04  0.7818609E-02  0.8435213E-01
       -2   -1    0    0    0  501  0.00000000000E+00  0.00000000000E+00  0.17333174406E+04  0.17333174406E+04  0.25500000920E-02 0. -1.
        2   -1    0    0  501    0  0.00000000000E+00  0.00000000000E+00 -0.83875341231E+03  0.83875341231E+03  0.25500000920E-02 0.  1.
    10030    2    1    2    0    0  0.00000000000E+00  0.00000000000E+00  0.89456402830E+03  0.25720708529E+04  0.24114940746E+04 0.  0.
        4    1    3    3  502    0  0.68205281659E+03  0.42452311964E+03 -0.51170368884E+03  0.95250102457E+03  0.12699999809E+01 0.  1.
       -4    1    3    3    0  502 -0.68205281659E+03 -0.42452311964E+03  0.14062677171E+04  0.16195698284E+04  0.12699999809E+01 0. -1.
</event>
<event>
 5   0  0.4713971E-05  0.2354073E+04  0.7818609E-02  0.8456901E-01
       -2   -1    0    0    0  501  0.00000000000E+00  0.00000000000E+00  0.60118180017E+03  0.60118180018E+03  0.25500000920E-02 0. -1.
        2   -1    0    0  501    0  0.00000000000E+00  0.00000000000E+00 -0.23044857703E+04  0.23044857703E+04  0.25500000920E-02 0.  1.
    10030    2    1    2    0    0  0.00000000000E+00  0.00000000000E+00 -0.17033039701E+04  0.29056675704E+04  0.23540729843E+04 0.  0.
        5    1    3    3  502    0  0.53417286787E+02  0.65098388656E+03  0.35694308250E+03  0.74435467435E+03  0.46999998093E+01 0. -1.
       -5    1    3    3    0  502 -0.53417286787E+02 -0.65098388656E+03 -0.20602470526E+04  0.21613128961E+04  0.46999998093E+01 0.  1.
</event>
<event>
 5   0  0.2090039E-05  0.2399169E+04  0.7818609E-02  0.8439815E-01
       -1   -1    0    0    0  501  0.00000000000E+00  0.00000000000E+00  0.89779082743E+03  0.89779082744E+03  0.50400001928E-02 0. -1.
        1   -1    0    0  501    0  0.00000000000E+00  0.00000000000E+00 -0.16028264569E+04  0.16028264569E+04  0.50400001928E-02 0.  1.
    10030    2    1    2    0    0  0.00000000000E+00  0.00000000000E+00 -0.70503562950E+03  0.25006172844E+04  0.23991689320E+04 0.  0.
        1    1    3    3  502    0 -0.10022086455E+04  0.57615979394E+03 -0.68640803898E+03  0.13444471999E+04  0.50400001928E-02 0.  1.
       -1    1    3    3    0  502  0.10022086455E+04 -0.57615979394E+03 -0.18627590516E+02  0.11561700845E+04  0.50400001928E-02 0. -1.
</event>
<event>
 5   0  0.4756705E-05  0.2464210E+04  0.7818609E-02  0.8415848E-01
        2   -1    0    0  501    0  0.00000000000E+00  0.00000000000E+00  0.18169222180E+04  0.18169222180E+04  0.25500000920E-02 0.  1.
       -2   -1    0    0    0  501  0.00000000000E+00  0.00000000000E+00 -0.83552414396E+03  0.83552414396E+03  0.25500000920E-02 0. -1.
    10030    2    1    2    0    0  0.00000000000E+00  0.00000000000E+00  0.98139807402E+03  0.26524463619E+04  0.24642097158E+04 0.  0.
        3    1    3    3  502    0  0.29921730300E+03 -0.47401720020E+03  0.16717177238E+04  0.17631969427E+04  0.10100000352E+00 0.  1.
       -3    1    3    3    0  502 -0.29921730300E+03  0.47401720020E+03 -0.69031964979E+03  0.88924941922E+03  0.10100000352E+00 0. -1.
</event>
<event>
 5   0  0.4856882E-05  0.2412313E+04  0.7818609E-02  0.8434908E-01
       -2   -1    0    0    0  501  0.00000000000E+00  0.00000000000E+00  0.82203947655E+03  0.82203947655E+03  0.25500000920E-02 0.  1.
        2   -1    0    0  501    0  0.00000000000E+00  0.00000000000E+00 -0.17697611915E+04  0.17697611915E+04  0.25500000920E-02 0. -1.
    10030    2    1    2    0    0  0.00000000000E+00  0.00000000000E+00 -0.94772171490E+03  0.25918006680E+04  0.24123130505E+04 0.  0.
        1    1    3    3  502    0 -0.10137430283E+04 -0.10096816966E+03  0.21989526531E+03  0.10422204309E+04  0.50400001928E-02 0.  1.
       -1    1    3    3    0  502  0.10137430283E+04  0.10096816966E+03 -0.11676169802E+04  0.15495802371E+04  0.50400001928E-02 0. -1.
</event>
<event>
 5   0  0.4914005E-05  0.2432150E+04  0.7818609E-02  0.8427564E-01
       -2   -1    0    0    0  501  0.00000000000E+00  0.00000000000E+00  0.12157420515E+04  0.12157420515E+04  0.25500000920E-02 0.  1.
        2   -1    0    0  501    0  0.00000000000E+00  0.00000000000E+00 -0.12164077438E+04  0.12164077438E+04  0.25500000920E-02 0. -1.
    10030    2    1    2    0    0  0.00000000000E+00  0.00000000000E+00 -0.66569227731E+00  0.24321497952E+04  0.24321497041E+04 0.  0.
        2    1    3    3  502    0  0.10175239268E+04  0.54276508538E+03  0.38552875800E+03  0.12159692853E+04  0.25500000920E-02 0.  1.
       -2    1    3    3    0  502 -0.10175239268E+04 -0.54276508538E+03 -0.38619445028E+03  0.12161805100E+04  0.25500000920E-02 0. -1.
</event>
<event>
 5   0  0.2139556E-05  0.2388771E+04  0.7818609E-02  0.8443720E-01
        1   -1    0    0  501    0  0.00000000000E+00  0.00000000000E+00  0.12750348065E+04  0.12750348065E+04  0.50400001928E-02 0. -1.
       -1   -1    0    0    0  501  0.00000000000E+00  0.00000000000E+00 -0.11188370065E+04  0.11188370065E+04  0.50400001928E-02 0.  1.
    10030    2    1    2    0    0  0.00000000000E+00  0.00000000000E+00  0.15619780000E+03  0.23938718130E+04  0.23887705006E+04 0.  0.
        2    1    3    3  502    0 -0.10646012459E+03  0.10297625069E+04 -0.51883375375E+03  0.11579866333E+04  0.25500000920E-02 0.  1.
       -2    1    3    3    0  502  0.10646012459E+03 -0.10297625069E+04  0.67503155375E+03  0.12358851797E+04  0.25500000920E-02 0. -1.
</event>
<event>
 5   0  0.2057599E-05  0.2422653E+04  0.7818609E-02  0.8431071E-01
       -1   -1    0    0    0  501  0.00000000000E+00  0.00000000000E+00  0.12030023606E+04  0.12030023607E+04  0.50400001928E-02 0. -1.
        1   -1    0    0  501    0  0.00000000000E+00  0.00000000000E+00 -0.12197080013E+04  0.12197080013E+04  0.50400001928E-02 0.  1.
    10030    2    1    2    0    0  0.00000000000E+00  0.00000000000E+00 -0.16705640636E+02  0.24227103619E+04  0.24226527649E+04 0.  0.
        4    1    3    3  502    0 -0.78433297078E+03  0.92175727231E+03 -0.58307124453E+02  0.12116996376E+04  0.12699999809E+01 0.  1.
       -4    1    3    3    0  502  0.78433297078E+03 -0.92175727231E+03  0.41601483817E+02  0.12110107243E+04  0.12699999809E+01 0. -1.
</event>
<event>
 5   0  0.4713971E-05  0.2577033E+04  0.7818609E-02  0.8376045E-01
        2   -1    0    0  501    0  0.00000000000E+00  0.00000000000E+00  0.12155929949E+04  0.12155929949E+04  0.25500000920E-02 0.  1.
       -2   -1    0    0    0  501  0.00000000000E+00  0.00000000000E+00 -0.13658142531E+04  0.13658142531E+04  0.25500000920E-02 0. -1.
    10030    2    1    2    0    0  0.00000000000E+00  0.00000000000E+00 -0.15022125821E+03  0.25814072479E+04  0.25770325868E+04 0.  0.
        5    1    3    3  502    0 -0.16914692080E+03  0.68258119698E+03 -0.11566306265E+04  0.13536411147E+04  0.46999998093E+01 0. -1.
       -5    1    3    3    0  502  0.16914692080E+03 -0.68258119698E+03  0.10064093683E+04  0.12277661332E+04  0.46999998093E+01 0.  1.
</event>
<event>
 5   0  0.1672125E-05  0.2390707E+04  0.7818609E-02  0.8442991E-01
        4   -1    0    0  501    0  0.00000000000E+00  0.00000000000E+00  0.91751432232E+03  0.91751520127E+03  0.12699999809E+01 0. -1.
       -4   -1    0    0    0  501  0.00000000000E+00  0.00000000000E+00 -0.15573253109E+04  0.15573258287E+04  0.12699999809E+01 0.  1.
    10030    2    1    2    0    0  0.00000000000E+00  0.00000000000E+00 -0.63981098853E+03  0.24748410300E+04  0.23907070131E+04 0.  0.
        2    1    3    3  502    0  0.10963114050E+04  0.92883488369E+02 -0.80362271590E+03  0.13624740396E+04  0.25500000920E-02 0.  1.
       -2    1    3    3    0  502 -0.10963114050E+04 -0.92883488369E+02  0.16381172737E+03  0.11123669903E+04  0.25500000920E-02 0. -1.
</event>
<event>
 5   0  0.2149920E-05  0.2378354E+04  0.7818609E-02  0.8447652E-01
       -1   -1    0    0    0  501  0.00000000000E+00  0.00000000000E+00  0.93365068279E+03  0.93365068281E+03  0.50400001928E-02 0.  1.
        1   -1    0    0  501    0  0.00000000000E+00  0.00000000000E+00 -0.15146365771E+04  0.15146365771E+04  0.50400001928E-02 0. -1.
    10030    2    1    2    0    0  0.00000000000E+00  0.00000000000E+00 -0.58098589432E+03  0.24482872599E+04  0.23783536107E+04 0.  0.
        5    1    3    3  502    0  0.11112270888E+04 -0.20180993586E+03 -0.67368373287E+03  0.13150759503E+04  0.46999998093E+01 0. -1.
       -5    1    3    3    0  502 -0.11112270888E+04  0.20180993586E+03  0.92697838548E+02  0.11332113097E+04  0.46999998093E+01 0.  1.
</event>
<event>
 5   0  0.2057599E-05  0.2347296E+04  0.7818609E-02  0.8459503E-01
        1   -1    0    0  501    0  0.00000000000E+00  0.00000000000E+00  0.10876030876E+04  0.10876030876E+04  0.50400001928E-02 0.  1.
       -1   -1    0    0    0  501  0.00000000000E+00  0.00000000000E+00 -0.12665001743E+04  0.12665001744E+04  0.50400001928E-02 0. -1.
    10030    2    1    2    0    0  0.00000000000E+00  0.00000000000E+00 -0.17889708675E+03  0.23541032620E+04  0.23472958911E+04 0.  0.
        4    1    3    3  502    0 -0.74124453741E+03 -0.42393744207E+03  0.71804577275E+03  0.11156871263E+04  0.12699999809E+01 0.  1.
       -4    1    3    3    0  502  0.74124453741E+03  0.42393744207E+03 -0.89694285951E+03  0.12384161357E+04  0.12699999809E+01 0. -1.
</event>
<event>
 5   0  0.2065692E-05  0.2440640E+04  0.7818609E-02  0.8424443E-01
       -1   -1    0    0    0  501  0.00000000000E+00  0.00000000000E+00  0.77159451425E+03  0.77159451426E+03  0.50400001928E-02 0. -1.
        1   -1    0    0  501    0  0.00000000000E+00  0.00000000000E+00 -0.19300046540E+04  0.19300046540E+04  0.50400001928E-02 0.  1.
    10030    2    1    2    0    0  0.00000000000E+00  0.00000000000E+00 -0.11584101397E+04  0.27015991683E+04  0.24406400829E+04 0.  0.
        3    1    3    3  502    0  0.22069382482E+03 -0.64753761292E+03 -0.16977830235E+04  0.18304310775E+04  0.10100000352E+00 0.  1.
       -3    1    3    3    0  502 -0.22069382482E+03  0.64753761292E+03  0.53937288374E+03  0.87116809076E+03  0.10100000352E+00 0. -1.
</event>
<event>
 5   0  0.2149920E-05  0.2275137E+04  0.7818609E-02  0.8487789E-01
        1   -1    0    0  501    0  0.00000000000E+00  0.00000000000E+00  0.25884390233E+04  0.25884390233E+04  0.50400001928E-02 0. -1.
       -1   -1    0    0    0  501  0.00000000000E+00  0.00000000000E+00 -0.49993940023E+03  0.49993940026E+03  0.50400001928E-02 0.  1.
    10030    2    1    2    0    0  0.00000000000E+00  0.00000000000E+00  0.20884996230E+04  0.30883784235E+04  0.22751374929E+04 0.  0.
        5    1    3    3  502    0 -0.80204088235E+03  0.73817960037E+03  0.60258517263E+03  0.12455158287E+04  0.46999998093E+01 0. -1.
       -5    1    3    3    0  502  0.80204088235E+03 -0.73817960037E+03  0.14859144504E+04  0.18428625948E+04  0.46999998093E+01 0.  1.
</event>
<event>
 5   0  0.2090039E-05  0.2437615E+04  0.7818609E-02  0.8425554E-01
       -1   -1    0    0    0  501  0.00000000000E+00  0.00000000000E+00  0.11107177818E+04  0.11107177818E+04  0.50400001928E-02 0. -1.
        1   -1    0    0  501    0  0.00000000000E+00  0.00000000000E+00 -0.13374157668E+04  0.13374157668E+04  0.50400001928E-02 0.  1.
    10030    2    1    2    0    0  0.00000000000E+00  0.00000000000E+00 -0.22669798506E+03  0.24481335486E+04  0.24376147964E+04 0.  0.
        1    1    3    3  502    0 -0.63084288362E+03  0.12386664825E+03 -0.11532812512E+04  0.13203648491E+04  0.50400001928E-02 0.  1.
       -1    1    3    3    0  502  0.63084288362E+03 -0.12386664825E+03  0.92658326617E+03  0.11277686995E+04  0.50400001928E-02 0. -1.
</event>
<event>
 5   0  0.1672125E-05  0.2452656E+04  0.7818609E-02  0.8420049E-01
       -3   -1    0    0    0  501  0.00000000000E+00  0.00000000000E+00  0.58329305855E+03  0.58329306730E+03  0.10100000352E+00 0.  1.
        3   -1    0    0  501    0  0.00000000000E+00  0.00000000000E+00 -0.25782582754E+04  0.25782582774E+04  0.10100000352E+00 0. -1.
    10030    2    1    2    0    0  0.00000000000E+00  0.00000000000E+00 -0.19949652169E+04  0.31615513447E+04  0.24526558439E+04 0.  0.
        3    1    3    3  502    0  0.10143663046E+04  0.82063367340E+02 -0.18795108064E+04  0.21373428077E+04  0.10100000352E+00 0. -1.
       -3    1    3    3    0  502 -0.10143663046E+04 -0.82063367340E+02 -0.11545441044E+03  0.10242085370E+04  0.10100000352E+00 0.  1.
</event>
<event>
 5   0  0.4856882E-05  0.2424574E+04  0.7818609E-02  0.8430360E-01
        2   -1    0    0  501    0  0.00000000000E+00  0.00000000000E+00  0.16459025904E+04  0.16459025904E+04  0.25500000920E-02 0. -1.
       -2   -1    0    0    0  501  0.00000000000E+00  0.00000000000E+00 -0.89290827873E+03  0.89290827874E+03  0.25500000920E-02 0.  1.
    10030    2    1    2    0    0  0.00000000000E+00  0.00000000000E+00  0.75299431168E+03  0.25388108691E+04  0.24245742298E+04 0.  0.
        1    1    3    3  502    0  0.11917166830E+04  0.28859335377E+02  0.14561211313E+03  0.12009264762E+04  0.50400001928E-02 0.  1.
       -1    1    3    3    0  502 -0.11917166830E+04 -0.28859335377E+02  0.60738219854E+03  0.13378843929E+04  0.50400001928E-02 0. -1.
</event>
<event>
 5   0  0.2090039E-05  0.2411262E+04  0.7818609E-02  0.8435299E-01
        1   -1    0    0  501    0  0.00000000000E+00  0.00000000000E+00  0.14714173384E+04  0.14714173385E+04  0.50400001928E-02 0.  1.
       -1   -1    0    0    0  501  0.00000000000E+00  0.00000000000E+00 -0.98785473330E+03  0.98785473332E+03  0.50400001928E-02 0. -1.
    10030    2    1    2    0    0  0.00000000000E+00  0.00000000000E+00  0.48356260514E+03  0.24592720718E+04  0.24112623934E+04 0.  0.
        1    1    3    3  502    0 -0.97477765229E+03 -0.35474407225E+02 -0.48091491006E+03  0.10875334734E+04  0.50400001928E-02 0. -1.
       -1    1    3    3    0  502  0.97477765229E+03  0.35474407225E+02  0.96447751520E+03  0.13717385984E+04  0.50400001928E-02 0.  1.
</event>
<event>
 5   0  0.4664127E-05  0.2468992E+04  0.7818609E-02  0.8414116E-01
        2   -1    0    0  501    0  0.00000000000E+00  0.00000000000E+00  0.10128823775E+04  0.10128823775E+04  0.25500000920E-02 0. -1.
       -2   -1    0    0    0  501  0.00000000000E+00  0.00000000000E+00 -0.15045972576E+04  0.15045972576E+04  0.25500000920E-02 0.  1.
    10030    2    1    2    0    0  0.00000000000E+00  0.00000000000E+00 -0.49171488013E+03  0.25174796351E+04  0.24689917355E+04 0.  0.
        4    1    3    3  502    0 -0.79681627634E+03  0.93039033000E+02  0.71086910810E+03  0.10718717002E+04  0.12699999809E+01 0. -1.
       -4    1    3    3    0  502  0.79681627634E+03 -0.93039033000E+02 -0.12025839882E+04  0.14456079349E+04  0.12699999809E+01 0.  1.
</event>
<event>
 5   0  0.4713971E-05  0.2393003E+04  0.7818609E-02  0.8442128E-01
       -2   -1    0    0    0  501  0.00000000000E+00  0.00000000000E+00  0.10028663532E+04  0.10028663532E+04  0.25500000920E-02 0. -1.
        2   -1    0    0  501    0  0.00000000000E+00  0.00000000000E+00 -0.14275246011E+04  0.14275246011E+04  0.25500000920E-02 0.  1.
    10030    2    1    2    0    0  0.00000000000E+00  0.00000000000E+00 -0.42465824791E+03  0.24303909543E+04  0.23930034607E+04 0.  0.
        5    1    3    3  502    0  0.30123333319E+03 -0.69603032954E+03 -0.11522034002E+04  0.13794181767E+04  0.46999998093E+01 0.  1.
       -5    1    3    3    0  502 -0.30123333319E+03  0.69603032954E+03  0.72754515229E+03  0.10509727776E+04  0.46999998093E+01 0. -1.
</event>
<event>
 5   0  0.2139556E-05  0.2362107E+04  0.7818609E-02  0.8453828E-01
       -1   -1    0    0    0  501  0.00000000000E+00  0.00000000000E+00  0.63536196891E+03  0.63536196893E+03  0.50400001928E-02 0.  1.
        1   -1    0    0  501    0  0.00000000000E+00  0.00000000000E+00 -0.21954219782E+04  0.21954219782E+04  0.50400001928E-02 0. -1.
    10030    2    1    2    0    0  0.00000000000E+00  0.00000000000E+00 -0.15600600093E+04  0.28307839472E+04  0.23621072209E+04 0.  0.
        2    1    3    3  502    0 -0.32852804478E+02 -0.80815207766E+03 -0.18114317505E+04  0.19838029322E+04  0.25500000920E-02 0. -1.
       -2    1    3    3    0  502  0.32852804478E+02  0.80815207766E+03  0.25137174115E+03  0.84698101492E+03  0.25500000920E-02 0.  1.
</event>
<event>
 5   0  0.2090039E-05  0.2386204E+04  0.7818609E-02  0.8444687E-01
       -1   -1    0    0    0  501  0.00000000000E+00  0.00000000000E+00  0.56245458204E+03  0.56245458206E+03  0.50400001928E-02 0. -1.
        1   -1    0    0  501    0  0.00000000000E+00  0.00000000000E+00 -0.25308575629E+04  0.25308575629E+04  0.50400001928E-02 0.  1.
    10030    2    1    2    0    0  0.00000000000E+00  0.00000000000E+00 -0.19684029809E+04  0.30933121450E+04  0.23862040422E+04 0.  0.
        1    1    3    3  502    0  0.34046930104E+02 -0.10741659873E+04 -0.16559223844E+04  0.19740999734E+04  0.50400001928E-02 0.  1.
       -1    1    3    3    0  502 -0.34046930104E+02  0.10741659873E+04 -0.31248059647E+03  0.11192121716E+04  0.50400001928E-02 0. -1.
</event>
<event>
 5   0  0.4914005E-05  0.2416723E+04  0.7818609E-02  0.8433269E-01
       -2   -1    0    0    0  501  0.00000000000E+00  0.00000000000E+00  0.97499613466E+03  0.97499613466E+03  0.25500000920E-02 0. -1.
        2   -1    0    0  501    0  0.00000000000E+00  0.00000000000E+00 -0.14975832437E+04  0.14975832437E+04  0.25500000920E-02 0.  1.
    10030    2    1    2    0    0  0.00000000000E+00  0.00000000000E+00 -0.52258710907E+03  0.24725793784E+04  0.24167232973E+04 0.  0.
        2    1    3    3  502    0  0.46341062972E+03 -0.11092755533E+04 -0.13642266858E+03  0.12098978508E+04  0.25500000920E-02 0. -1.
       -2    1    3    3    0  502 -0.46341062972E+03  0.11092755533E+04 -0.38616444049E+03  0.12626815276E+04  0.25500000920E-02 0.  1.
</event>
<event>
 5   0  0.2065692E-05  0.2383829E+04  0.7818609E-02  0.8445583E-01
       -1   -1    0    0    0  501  0.00000000000E+00  0.00000000000E+00  0.63789768069E+03  0.63789768071E+03  0.50400001928E-02 0.  1.
        1   -1    0    0  501    0  0.00000000000E+00  0.00000000000E+00 -0.22270978150E+04  0.22270978150E+04  0.50400001928E-02 0. -1.
    10030    2    1    2    0    0  0.00000000000E+00  0.00000000000E+00 -0.15892001343E+04  0.28649954957E+04  0.23838292983E+04 0.  0.
        3    1    3    3  502    0  0.99910315926E+03  0.59726305268E+03 -0.11027282422E+04  0.16034150627E+04  0.10100000352E+00 0. -1.
       -3    1    3    3    0  502 -0.99910315926E+03 -0.59726305268E+03 -0.48647189212E+03  0.12615804330E+04  0.10100000352E+00 0.  1.
</event>
<event>
 5   0  0.2065692E-05  0.2409163E+04  0.7818609E-02  0.8436081E-01
        1   -1    0    0  501    0  0.00000000000E+00  0.00000000000E+00  0.15043135054E+04  0.15043135054E+04  0.50400001928E-02 0. -1.
       -1   -1    0    0    0  501  0.00000000000E+00  0.00000000000E+00 -0.96457056560E+03  0.96457056561E+03  0.50400001928E-02 0.  1.
    10030    2    1    2    0    0  0.00000000000E+00  0.00000000000E+00  0.53974293978E+03  0.24688840710E+04  0.24091629490E+04 0.  0.
        3    1    3    3  502    0  0.13312789504E+03  0.12626224209E+03  0.14899092510E+04  0.15011644735E+04  0.10100000352E+00 0. -1.
       -3    1    3    3    0  502 -0.13312789504E+03 -0.12626224209E+03 -0.95016631120E+03  0.96771959748E+03  0.10100000352E+00 0.  1.
</event>
<event>
 5   0  0.4914005E-05  0.2425054E+04  0.7818609E-02  0.8430183E-01
        2   -1    0    0  501    0  0.00000000000E+00  0.00000000000E+00  0.18149828209E+04  0.18149828209E+04  0.25500000920E-02 0.  1.
       -2   -1    0    0    0  501  0.00000000000E+00  0.00000000000E+00 -0.81004738152E+03  0.81004738152E+03  0.25500000920E-02 0. -1.
    10030    2    1    2    0    0  0.00000000000E+00  0.00000000000E+00  0.10049354393E+04  0.26250302024E+04  0.24250542934E+04 0.  0.
        2    1    3    3  502    0  0.92988193351E+03  0.77795336081E+03  0.48279667358E+03  0.13049844711E+04  0.25500000920E-02 0.  1.
       -2    1    3    3    0  502 -0.92988193351E+03 -0.77795336081E+03  0.52213876576E+03  0.13200457312E+04  0.25500000920E-02 0. -1.
</event>
<event>
 5   0  0.2149920E-05  0.2343358E+04  0.7818609E-02  0.8461019E-01
        1   -1    0    0  501    0  0.00000000000E+00  0.00000000000E+00  0.11441604335E+04  0.11441604335E+04  0.50400001928E-02 0.  1.
       -1   -1    0    0    0  501  0.00000000000E+00  0.00000000000E+00 -0.11998594377E+04  0.11998594377E+04  0.50400001928E-02 0. -1.
    10030    2    1    2    0    0  0.00000000000E+00  0.00000000000E+00 -0.55699004228E+02  0.23440198712E+04  0.23433580130E+04 0.  0.
        5    1    3    3  502    0  0.38870829127E+03 -0.97619320701E+00 -0.11334736405E+04  0.11982819669E+04  0.46999998093E+01 0. -1.
       -5    1    3    3    0  502 -0.38870829127E+03  0.97619320701E+00  0.10777746362E+04  0.11457379042E+04  0.46999998093E+01 0.  1.
</event>
<event>
 5   0  0.4756705E-05  0.2412338E+04  0.7818609E-02  0.8434899E-01
        2   -1    0    0  501    0  0.00000000000E+00  0.00000000000E+00  0.75166716529E+03  0.75166716529E+03  0.25500000920E-02 0.  1.
       -2   -1    0    0    0  501  0.00000000000E+00  0.00000000000E+00 -0.19354891607E+04  0.19354891607E+04  0.25500000920E-02 0. -1.
    10030    2    1    2    0    0  0.00000000000E+00  0.00000000000E+00 -0.11838219954E+04  0.26871563260E+04  0.24123379953E+04 0.  0.
        3    1    3    3  502    0  0.35734530909E+03 -0.79508232841E+03 -0.15205452474E+04  0.17526863492E+04  0.10100000352E+00 0. -1.
       -3    1    3    3    0  502 -0.35734530909E+03  0.79508232841E+03  0.33672325204E+03  0.93446997680E+03  0.10100000352E+00 0.  1.
</event>
<event>
 5   0  0.4756705E-05  0.2397267E+04  0.7818609E-02  0.8440527E-01
        2   -1    0    0  501    0  0.00000000000E+00  0.00000000000E+00  0.19391568209E+04  0.19391568209E+04  0.25500000920E-02 0.  1.
       -2   -1    0    0    0  501  0.00000000000E+00  0.00000000000E+00 -0.74090081274E+03  0.74090081275E+03  0.25500000920E-02 0. -1.
    10030    2    1    2    0    0  0.00000000000E+00  0.00000000000E+00  0.11982560081E+04  0.26800576336E+04  0.23972674983E+04 0.  0.
        3    1    3    3  502    0 -0.78195448314E+02 -0.24422725280E+03  0.19081298103E+04  0.19252846185E+04  0.10100000352E+00 0.  1.
       -3    1    3    3    0  502  0.78195448314E+02  0.24422725280E+03 -0.70987380216E+03  0.75477301511E+03  0.10100000352E+00 0. -1.
</event>
<event>
 5   0  0.4914005E-05  0.2409139E+04  0.7818609E-02  0.8436090E-01
       -2   -1    0    0    0  501  0.00000000000E+00  0.00000000000E+00  0.78667669017E+03  0.78667669018E+03  0.25500000920E-02 0.  1.
        2   -1    0    0  501    0  0.00000000000E+00  0.00000000000E+00 -0.18444523076E+04  0.18444523076E+04  0.25500000920E-02 0. -1.
    10030    2    1    2    0    0  0.00000000000E+00  0.00000000000E+00 -0.10577756174E+04  0.26311289978E+04  0.24091389636E+04 0.  0.
        2    1    3    3  502    0 -0.30323570308E+03 -0.10725662477E+04 -0.30030477511E+02  0.11150121421E+04  0.25500000920E-02 0.  1.
       -2    1    3    3    0  502  0.30323570308E+03  0.10725662477E+04 -0.10277451399E+04  0.15161168557E+04  0.25500000920E-02 0. -1.
</event>
<event>
 5   0  0.2057599E-05  0.2362476E+04  0.7818609E-02  0.8453687E-01
        1   -1    0    0  501    0  0.00000000000E+00  0.00000000000E+00  0.13732619888E+04  0.13732619889E+04  0.50400001928E-02 0.  1.
       -1   -1    0    0    0  501  0.00000000000E+00  0.00000000000E+00 -0.10160652178E+04  0.10160652178E+04  0.50400001928E-02 0. -1.
    10030    2    1    2    0    0  0.00000000000E+00  0.00000000000E+00  0.35719677105E+03  0.23893272067E+04  0.23624764480E+04 0.  0.
        4    1    3    3  502    0 -0.67205624693E+03  0.12020297115E+03 -0.79631483661E+03  0.10489171965E+04  0.12699999809E+01 0. -1.
       -4    1    3    3    0  502  0.67205624693E+03 -0.12020297115E+03  0.11535116077E+04  0.13404100101E+04  0.12699999809E+01 0.  1.
</event>
<event>
 5   0  0.4856882E-05  0.2396613E+04  0.7818609E-02  0.8440773E-01
        2   -1    0    0  501    0  0.00000000000E+00  0.00000000000E+00  0.99106143365E+03  0.99106143365E+03  0.25500000920E-02 0.  1.
       -2   -1    0    0    0  501  0.00000000000E+00  0.00000000000E+00 -0.14488895286E+04  0.14488895286E+04  0.25500000920E-02 0. -1.
    10030    2    1    2    0    0  0.00000000000E+00  0.00000000000E+00 -0.45782809493E+03  0.24399509622E+04  0.23966130546E+04 0.  0.
        1    1    3    3  502    0  0.11502199017E+03 -0.26886070451E+03 -0.14120046193E+04  0.14419685093E+04  0.50400001928E-02 0. -1.
       -1    1    3    3    0  502 -0.11502199017E+03  0.26886070451E+03  0.95417652441E+03  0.99798245296E+03  0.50400001928E-02 0.  1.
</event>
<event>
 5   0  0.4914005E-05  0.2325085E+04  0.7818609E-02  0.8468096E-01
       -2   -1    0    0    0  501  0.00000000000E+00  0.00000000000E+00  0.10418106176E+04  0.10418106176E+04  0.25500000920E-02 0.  1.
        2   -1    0    0  501    0  0.00000000000E+00  0.00000000000E+00 -0.12972652438E+04  0.12972652438E+04  0.25500000920E-02 0. -1.
    10030    2    1    2    0    0  0.00000000000E+00  0.00000000000E+00 -0.25545462622E+03  0.23390758615E+04  0.23250846908E+04 0.  0.
        2    1    3    3  502    0  0.10235361222E+04  0.38256263511E+03  0.27155435119E+03  0.11259316715E+04  0.25500000920E-02 0.  1.
       -2    1    3    3    0  502 -0.10235361222E+04 -0.38256263511E+03 -0.52700897741E+03  0.12131441899E+04  0.25500000920E-02 0. -1.
</event>
<event>
 5   0  0.4856882E-05  0.2364654E+04  0.7818609E-02  0.8452856E-01
       -2   -1    0    0    0  501  0.00000000000E+00  0.00000000000E+00  0.12068105251E+04  0.12068105251E+04  0.25500000920E-02 0.  1.
        2   -1    0    0  501    0  0.00000000000E+00  0.00000000000E+00 -0.11583398502E+04  0.11583398502E+04  0.25500000920E-02 0. -1.
    10030    2    1    2    0    0  0.00000000000E+00  0.00000000000E+00  0.48470674903E+02  0.23651503754E+04  0.23646536516E+04 0.  0.
        1    1    3    3  502    0 -0.12939231314E+03 -0.27347199895E+03 -0.11189690677E+04  0.11591467031E+04  0.50400001928E-02 0. -1.
       -1    1    3    3    0  502  0.12939231314E+03  0.27347199895E+03  0.11674397426E+04  0.12060036723E+04  0.50400001928E-02 0.  1.
</event>
<event>
 5   0  0.4756705E-05  0.2389899E+04  0.7818609E-02  0.8443295E-01
       -2   -1    0    0    0  501  0.00000000000E+00  0.00000000000E+00  0.93483606087E+03  0.93483606087E+03  0.25500000920E-02 0. -1.
        2   -1    0    0  501    0  0.00000000000E+00  0.00000000000E+00 -0.15274382061E+04  0.15274382061E+04  0.25500000920E-02 0.  1.
    10030    2    1    2    0    0  0.00000000000E+00  0.00000000000E+00 -0.59260214528E+03  0.24622742670E+04  0.23898990069E+04 0.  0.
        3    1    3    3  502    0 -0.39661967591E+03 -0.11140027238E+04 -0.47354303946E+03  0.12737944326E+04  0.10100000352E+00 0.  1.
       -3    1    3    3    0  502  0.39661967591E+03  0.11140027238E+04 -0.11905910582E+03  0.11884798345E+04  0.10100000352E+00 0. -1.
</event>
<event>
 5   0  0.2139556E-05  0.2431515E+04  0.7818609E-02  0.8427798E-01
       -1   -1    0    0    0  501  0.00000000000E+00  0.00000000000E+00  0.81918698478E+03  0.81918698479E+03  0.50400001928E-02 0. -1.
        1   -1    0    0  501    0  0.00000000000E+00  0.00000000000E+00 -0.18043093489E+04  0.18043093489E+04  0.50400001928E-02 0.  1.
    10030    2    1    2    0    0  0.00000000000E+00  0.00000000000E+00 -0.98512236417E+03  0.26234963337E+04  0.24315153589E+04 0.  0.
        2    1    3    3  502    0  0.64622017295E+03  0.98311146230E+03 -0.16183353447E+03  0.11875599994E+04  0.25500000920E-02 0.  1.
       -2    1    3    3    0  502 -0.64622017295E+03 -0.98311146230E+03 -0.82328882970E+03  0.14359363344E+04  0.25500000920E-02 0. -1.
</event>
<event>
 5   0  0.4856882E-05  0.2398613E+04  0.7818609E-02  0.8440023E-01
       -2   -1    0    0    0  501  0.00000000000E+00  0.00000000000E+00  0.14423598149E+04  0.14423598149E+04  0.25500000920E-02 0. -1.
        2   -1    0    0  501    0  0.00000000000E+00  0.00000000000E+00 -0.99720993088E+03  0.99720993089E+03  0.25500000920E-02 0.  1.
    10030    2    1    2    0    0  0.00000000000E+00  0.00000000000E+00  0.44514988401E+03  0.24395697458E+04  0.23986125417E+04 0.  0.
        1    1    3    3  502    0 -0.26174954092E+03 -0.10846783979E+04 -0.22458613187E+03  0.11381910998E+04  0.50400001928E-02 0. -1.
       -1    1    3    3    0  502  0.26174954092E+03  0.10846783979E+04  0.66973601588E+03  0.13013786459E+04  0.50400001928E-02 0.  1.
</event>
<event>
 5   0  0.4664127E-05  0.2402804E+04  0.7818609E-02  0.8438454E-01
       -2   -1    0    0    0  501  0.00000000000E+00  0.00000000000E+00  0.87280123788E+03  0.87280123788E+03  0.25500000920E-02 0. -1.
        2   -1    0    0  501    0  0.00000000000E+00  0.00000000000E+00 -0.16537178405E+04  0.16537178405E+04  0.25500000920E-02 0.  1.
    10030    2    1    2    0    0  0.00000000000E+00  0.00000000000E+00 -0.78091660266E+03  0.25265190784E+04  0.24028041771E+04 0.  0.
        4    1    3    3  502    0  0.27884891063E+03 -0.10817897877E+04  0.74270133419E+02  0.11196175800E+04  0.12699999809E+01 0. -1.
       -4    1    3    3    0  502 -0.27884891063E+03  0.10817897877E+04 -0.85518673608E+03  0.14069014984E+04  0.12699999809E+01 0.  1.
</event>
<event>
 5   0  0.2090039E-05  0.2402351E+04  0.7818609E-02  0.8438624E-01
       -1   -1    0    0    0  501  0.00000000000E+00  0.00000000000E+00  0.18004019472E+04  0.18004019472E+04  0.50400001928E-02 0.  1.
        1   -1    0    0  501    0  0.00000000000E+00  0.00000000000E+00 -0.80138888392E+03  0.80138888393E+03  0.50400001928E-02 0. -1.
    10030    2    1    2    0    0  0.00000000000E+00  0.00000000000E+00  0.99901306325E+03  0.26017908311E+04  0.24023506048E+04 0.  0.
        1    1    3    3  502    0 -0.48024155821E+03  0.68585159130E+03 -0.43327243453E+03  0.94273504341E+03  0.50400001928E-02 0. -1.
       -1    1    3    3    0  502  0.48024155821E+03 -0.68585159130E+03  0.14322854978E+04  0.16590557877E+04  0.50400001928E-02 0.  1.
</event>
<event>
 5   0  0.2139556E-05  0.2082964E+04  0.7818609E-02  0.8568785E-01
       -1   -1    0    0    0  501  0.00000000000E+00  0.00000000000E+00  0.76536964839E+03  0.76536964841E+03  0.50400001928E-02 0.  1.
        1   -1    0    0  501    0  0.00000000000E+00  0.00000000000E+00 -0.14172042800E+04  0.14172042800E+04  0.50400001928E-02 0. -1.
    10030    2    1    2    0    0  0.00000000000E+00  0.00000000000E+00 -0.65183463159E+03  0.21825739284E+04  0.20829643698E+04 0.  0.
        2    1    3    3  502    0  0.40947945294E+03  0.40212228713E+03 -0.12365632701E+04  0.13632551035E+04  0.25500000920E-02 0. -1.
       -2    1    3    3    0  502 -0.40947945294E+03 -0.40212228713E+03  0.58472863850E+03  0.81931882493E+03  0.25500000920E-02 0.  1.
</event>
<event>
 5   0  0.2149920E-05  0.2434884E+04  0.7818609E-02  0.8426558E-01
        1   -1    0    0  501    0  0.00000000000E+00  0.00000000000E+00  0.13265407429E+04  0.13265407429E+04  0.50400001928E-02 0. -1.
       -1   -1    0    0    0  501  0.00000000000E+00  0.00000000000E+00 -0.11173158111E+04  0.11173158111E+04  0.50400001928E-02 0.  1.
    10030    2    1    2    0    0  0.00000000000E+00  0.00000000000E+00  0.20922493178E+03  0.24438565540E+04  0.24348839366E+04 0.  0.
        5    1    3    3  502    0  0.66066128703E+02 -0.11811406990E+04  0.39322169344E+03  0.12466368655E+04  0.46999998093E+01 0. -1.
       -5    1    3    3    0  502 -0.66066128703E+02  0.11811406990E+04 -0.18399676167E+03  0.11972196885E+04  0.46999998093E+01 0.  1.
</event>
<event>
 5   0  0.1672125E-05  0.2416267E+04  0.7818609E-02  0.8433438E-01
        3   -1    0    0  501    0  0.00000000000E+00  0.00000000000E+00  0.10427476801E+04  0.10427476850E+04  0.10100000352E+00 0.  1.
       -3   -1    0    0    0  501  0.00000000000E+00  0.00000000000E+00 -0.13997504570E+04  0.13997504606E+04  0.10100000352E+00 0. -1.
    10030    2    1    2    0    0  0.00000000000E+00  0.00000000000E+00 -0.35700277688E+03  0.24424981456E+04  0.24162669986E+04 0.  0.
        1    1    3    3  502    0  0.13036397386E+03 -0.61080922925E+03  0.86689380971E+03  0.10684510085E+04  0.50400001928E-02 0.  1.
       -1    1    3    3    0  502 -0.13036397386E+03  0.61080922925E+03 -0.12238965866E+04  0.13740471371E+04  0.50400001928E-02 0. -1.
</event>
<event>
 5   0  0.2065692E-05  0.2412337E+04  0.7818609E-02  0.8434899E-01
        1   -1    0    0  501    0  0.00000000000E+00  0.00000000000E+00  0.20915283187E+04  0.20915283188E+04  0.50400001928E-02 0.  1.
       -1   -1    0    0    0  501  0.00000000000E+00  0.00000000000E+00 -0.69558840225E+03  0.69558840227E+03  0.50400001928E-02 0. -1.
    10030    2    1    2    0    0  0.00000000000E+00  0.00000000000E+00  0.13959399165E+04  0.27871167210E+04  0.24123373243E+04 0.  0.
        3    1    3    3  502    0  0.74724664978E+02  0.49171891234E+03  0.19675368170E+04  0.20294266187E+04  0.10100000352E+00 0.  1.
       -3    1    3    3    0  502 -0.74724664978E+02 -0.49171891234E+03 -0.57159690048E+03  0.75769010232E+03  0.10100000352E+00 0. -1.
</event>
<event>
 5   0  0.4664127E-05  0.2327726E+04  0.7818609E-02  0.8467069E-01
       -2   -1    0    0    0  501  0.00000000000E+00  0.00000000000E+00  0.13953372742E+04  0.13953372742E+04  0.25500000920E-02 0. -1.
        2   -1    0    0  501    0  0.00000000000E+00  0.00000000000E+00 -0.97078860755E+03  0.97078860755E+03  0.25500000920E-02 0.  1.
    10030    2    1    2    0    0  0.00000000000E+00  0.00000000000E+00  0.42454866665E+03  0.23661258817E+04  0.23277263838E+04 0.  0.
        4    1    3    3  502    0 -0.10150740079E+03  0.86612990185E+03  0.99576253513E+03  0.13236424738E+04  0.12699999809E+01 0. -1.
       -4    1    3    3    0  502  0.10150740079E+03 -0.86612990185E+03 -0.57121386848E+03  0.10424834079E+04  0.12699999809E+01 0.  1.
</event>
<event>
 5   0  0.2090039E-05  0.2413107E+04  0.7818609E-02  0.8434613E-01
       -1   -1    0    0    0  501  0.00000000000E+00  0.00000000000E+00  0.18469308376E+04  0.18469308376E+04  0.50400001928E-02 0.  1.
        1   -1    0    0  501    0  0.00000000000E+00  0.00000000000E+00 -0.78821086484E+03  0.78821086485E+03  0.50400001928E-02 0. -1.
    10030    2    1    2    0    0  0.00000000000E+00  0.00000000000E+00  0.10587199727E+04  0.26351417024E+04  0.24131066722E+04 0.  0.
        1    1    3    3  502    0  0.10951383207E+04 -0.13330630672E+03 -0.41328471603E+01  0.11032296195E+04  0.50400001928E-02 0. -1.
       -1    1    3    3    0  502 -0.10951383207E+04  0.13330630672E+03  0.10628528199E+04  0.15319120829E+04  0.50400001928E-02 0.  1.
</event>
<event>
 5   0  0.4713971E-05  0.2193960E+04  0.7818609E-02  0.8520946E-01
        2   -1    0    0  501    0  0.00000000000E+00  0.00000000000E+00  0.16186119933E+04  0.16186119934E+04  0.25500000920E-02 0.  1.
       -2   -1    0    0    0  501  0.00000000000E+00  0.00000000000E+00 -0.74345515500E+03  0.74345515501E+03  0.25500000920E-02 0. -1.
    10030    2    1    2    0    0  0.00000000000E+00  0.00000000000E+00  0.87515683834E+03  0.23620671484E+04  0.21939602826E+04 0.  0.
        5    1    3    3  502    0  0.10902893455E+04 -0.76489535659E+02  0.53835532029E+03  0.12183718836E+04  0.46999998093E+01 0.  1.
       -5    1    3    3    0  502 -0.10902893455E+04  0.76489535659E+02  0.33680151806E+03  0.11436952647E+04  0.46999998093E+01 0. -1.
</event>
<event>
 5   0  0.4713971E-05  0.2393743E+04  0.7818609E-02  0.8441850E-01
        2   -1    0    0  501    0  0.00000000000E+00  0.00000000000E+00  0.99490456012E+03  0.99490456012E+03  0.25500000920E-02 0. -1.
       -2   -1    0    0    0  501  0.00000000000E+00  0.00000000000E+00 -0.14398384761E+04  0.14398384761E+04  0.25500000920E-02 0.  1.
    10030    2    1    2    0    0  0.00000000000E+00  0.00000000000E+00 -0.44493391599E+03  0.24347430362E+04  0.23937433995E+04 0.  0.
        5    1    3    3  502    0 -0.77201141374E+03 -0.54259086107E+03  0.52639979675E+03  0.10805208473E+04  0.46999998093E+01 0. -1.
       -5    1    3    3    0  502  0.77201141374E+03  0.54259086107E+03 -0.97133371273E+03  0.13542221889E+04  0.46999998093E+01 0.  1.
</event>
<event>
 5   0  0.4713971E-05  0.2376661E+04  0.7818609E-02  0.8448293E-01
       -2   -1    0    0    0  501  0.00000000000E+00  0.00000000000E+00  0.65783460881E+03  0.65783460881E+03  0.25500000920E-02 0.  1.
        2   -1    0    0  501    0  0.00000000000E+00  0.00000000000E+00 -0.21466332609E+04  0.21466332609E+04  0.25500000920E-02 0. -1.
    10030    2    1    2    0    0  0.00000000000E+00  0.00000000000E+00 -0.14887986520E+04  0.28044678697E+04  0.23766612307E+04 0.  0.
        5    1    3    3  502    0 -0.43817408124E+03  0.46515187436E+03 -0.19266098867E+04  0.20298301744E+04  0.46999998093E+01 0. -1.
       -5    1    3    3    0  502  0.43817408124E+03 -0.46515187436E+03  0.43781123462E+03  0.77463769522E+03  0.46999998093E+01 0.  1.
</event>
<event>
 5   0  0.4914005E-05  0.2428172E+04  0.7818609E-02  0.8429031E-01
        2   -1    0    0  501    0  0.00000000000E+00  0.00000000000E+00  0.19005656961E+04  0.19005656961E+04  0.25500000920E-02 0.  1.
       -2   -1    0    0    0  501  0.00000000000E+00  0.00000000000E+00 -0.77556120005E+03  0.77556120005E+03  0.25500000920E-02 0. -1.
    10030    2    1    2    0    0  0.00000000000E+00  0.00000000000E+00  0.11250044961E+04  0.26761268962E+04  0.24281721620E+04 0.  0.
        2    1    3    3  502    0 -0.85380442575E+03 -0.47609095903E+03  0.13559953229E+04  0.16716362985E+04  0.25500000920E-02 0.  1.
       -2    1    3    3    0  502  0.85380442575E+03  0.47609095903E+03 -0.23099082685E+03  0.10044905977E+04  0.25500000920E-02 0. -1.
</event>
<event>
 5   0  0.2057599E-05  0.2410098E+04  0.7818609E-02  0.8435733E-01
        1   -1    0    0  501    0  0.00000000000E+00  0.00000000000E+00  0.21009990566E+04  0.21009990566E+04  0.50400001928E-02 0. -1.
       -1   -1    0    0    0  501  0.00000000000E+00  0.00000000000E+00 -0.69116812718E+03  0.69116812720E+03  0.50400001928E-02 0.  1.
    10030    2    1    2    0    0  0.00000000000E+00  0.00000000000E+00  0.14098309295E+04  0.27921671838E+04  0.24100984073E+04 0.  0.
        4    1    3    3  502    0 -0.10949825894E+04 -0.28402319548E+03  0.22376216091E+03  0.11531379641E+04  0.12699999809E+01 0. -1.
       -4    1    3    3    0  502  0.10949825894E+04  0.28402319548E+03  0.11860687685E+04  0.16390292198E+04  0.12699999809E+01 0.  1.
</event>
<event>
 5   0  0.4856882E-05  0.2389010E+04  0.7818609E-02  0.8443629E-01
        2   -1    0    0  501    0  0.00000000000E+00  0.00000000000E+00  0.10653359952E+04  0.10653359953E+04  0.25500000920E-02 0.  1.
       -2   -1    0    0    0  501  0.00000000000E+00  0.00000000000E+00 -0.13393354889E+04  0.13393354889E+04  0.25500000920E-02 0. -1.
    10030    2    1    2    0    0  0.00000000000E+00  0.00000000000E+00 -0.27399949365E+03  0.24046714842E+04  0.23890100929E+04 0.  0.
        1    1    3    3  502    0 -0.70803872059E+03  0.14485467393E+03 -0.10943079956E+04  0.13114159126E+04  0.50400001928E-02 0. -1.
       -1    1    3    3    0  502  0.70803872059E+03 -0.14485467393E+03  0.82030850196E+03  0.10932555716E+04  0.50400001928E-02 0.  1.
</event>
<event>
 5   0  0.4713971E-05  0.1801535E+04  0.7818609E-02  0.8705484E-01
        2   -1    0    0  501    0  0.00000000000E+00  0.00000000000E+00  0.91745888035E+03  0.91745888035E+03  0.25500000920E-02 0.  1.
       -2   -1    0    0    0  501  0.00000000000E+00  0.00000000000E+00 -0.88437938544E+03  0.88437938544E+03  0.25500000920E-02 0. -1.
    10030    2    1    2    0    0  0.00000000000E+00  0.00000000000E+00  0.33079494910E+02  0.18018382658E+04  0.18015345911E+04 0.  0.
        5    1    3    3  502    0 -0.28835561610E+03  0.77553197472E+03  0.37263462802E+03  0.90745658912E+03  0.46999998093E+01 0.  1.
       -5    1    3    3    0  502  0.28835561610E+03 -0.77553197472E+03 -0.33955513311E+03  0.89438167667E+03  0.46999998093E+01 0. -1.
</event>
<event>
 5   0  0.4664127E-05  0.2418344E+04  0.7818609E-02  0.8432667E-01
        2   -1    0    0  501    0  0.00000000000E+00  0.00000000000E+00  0.11712474796E+04  0.11712474796E+04  0.25500000920E-02 0.  1.
       -2   -1    0    0    0  501  0.00000000000E+00  0.00000000000E+00 -0.12483249060E+04  0.12483249060E+04  0.25500000920E-02 0. -1.
    10030    2    1    2    0    0  0.00000000000E+00  0.00000000000E+00 -0.77077426332E+02  0.24195723856E+04  0.24183443923E+04 0.  0.
        4    1    3    3  502    0 -0.65269470839E+03  0.96082080515E+03 -0.37472836261E+03  0.12204957848E+04  0.12699999809E+01 0. -1.
       -4    1    3    3    0  502  0.65269470839E+03 -0.96082080515E+03  0.29765093628E+03  0.11990766009E+04  0.12699999809E+01 0.  1.
</event>
<event>
 5   0  0.4756705E-05  0.2423260E+04  0.7818609E-02  0.8430846E-01
       -2   -1    0    0    0  501  0.00000000000E+00  0.00000000000E+00  0.85805996141E+03  0.85805996142E+03  0.25500000920E-02 0. -1.
        2   -1    0    0  501    0  0.00000000000E+00  0.00000000000E+00 -0.17108919282E+04  0.17108919282E+04  0.25500000920E-02 0.  1.
    10030    2    1    2    0    0  0.00000000000E+00  0.00000000000E+00 -0.85283196681E+03  0.25689518896E+04  0.24232604993E+04 0.  0.
        3    1    3    3  502    0 -0.11033748718E+04  0.48740230239E+03 -0.54752415000E+03  0.13246810247E+04  0.10100000352E+00 0.  1.
       -3    1    3    3    0  502  0.11033748718E+04 -0.48740230239E+03 -0.30530781680E+03  0.12442708649E+04  0.10100000352E+00 0. -1.
</event>
<event>
 5   0  0.4713971E-05  0.2383000E+04  0.7818609E-02  0.8445896E-01
       -2   -1    0    0    0  501  0.00000000000E+00  0.00000000000E+00  0.15636187088E+04  0.15636187088E+04  0.25500000920E-02 0. -1.
        2   -1    0    0  501    0  0.00000000000E+00  0.00000000000E+00 -0.90793986523E+03  0.90793986523E+03  0.25500000920E-02 0.  1.
    10030    2    1    2    0    0  0.00000000000E+00  0.00000000000E+00  0.65567884353E+03  0.24715585740E+04  0.23829995885E+04 0.  0.
        5    1    3    3  502    0  0.10815228125E+04  0.49381235997E+03  0.40889373850E+03  0.12572821562E+04  0.46999998093E+01 0.  1.
       -5    1    3    3    0  502 -0.10815228125E+04 -0.49381235997E+03  0.24678510502E+03  0.12142764178E+04  0.46999998093E+01 0. -1.
</event>
<event>
 5   0  0.2057599E-05  0.2419894E+04  0.7818609E-02  0.8432093E-01
       -1   -1    0    0    0  501  0.00000000000E+00  0.00000000000E+00  0.90698399761E+03  0.90698399762E+03  0.50400001928E-02 0.  1.
        1   -1    0    0  501    0  0.00000000000E+00  0.00000000000E+00 -0.16141102833E+04  0.16141102833E+04  0.50400001928E-02 0. -1.
    10030    2    1    2    0    0  0.00000000000E+00  0.00000000000E+00 -0.70712628572E+03  0.25210942810E+04  0.24198943757E+04 0.  0.
        4    1    3    3  502    0  0.10552939188E+04  0.55178996217E+03 -0.57665172651E+03  0.13231198902E+04  0.12699999809E+01 0.  1.
       -4    1    3    3    0  502 -0.10552939188E+04 -0.55178996217E+03 -0.13047455922E+03  0.11979743907E+04  0.12699999809E+01 0. -1.
</event>
<event>
 5   0  0.2065692E-05  0.2392723E+04  0.7818609E-02  0.8442233E-01
       -1   -1    0    0    0  501  0.00000000000E+00  0.00000000000E+00  0.88511310948E+03  0.88511310949E+03  0.50400001928E-02 0. -1.
        1   -1    0    0  501    0  0.00000000000E+00  0.00000000000E+00 -0.16170604804E+04  0.16170604804E+04  0.50400001928E-02 0.  1.
    10030    2    1    2    0    0  0.00000000000E+00  0.00000000000E+00 -0.73194737089E+03  0.25021735899E+04  0.23927234943E+04 0.  0.
        3    1    3    3  502    0 -0.50296188524E+03 -0.10741869915E+04 -0.52943460320E+03  0.12989031373E+04  0.10100000352E+00 0.  1.
       -3    1    3    3    0  502  0.50296188524E+03  0.10741869915E+04 -0.20251276770E+03  0.12032704526E+04  0.10100000352E+00 0. -1.
</event>
<event>
 5   0  0.2149920E-05  0.2376554E+04  0.7818609E-02  0.8448334E-01
        1   -1    0    0  501    0  0.00000000000E+00  0.00000000000E+00  0.16557525682E+04  0.16557525682E+04  0.50400001928E-02 0. -1.
       -1   -1    0    0    0  501  0.00000000000E+00  0.00000000000E+00 -0.85278588252E+03  0.85278588254E+03  0.50400001928E-02 0.  1.
    10030    2    1    2    0    0  0.00000000000E+00  0.00000000000E+00  0.80296668569E+03  0.25085384508E+04  0.23765541569E+04 0.  0.
        5    1    3    3  502    0  0.20983665091E+03 -0.45051462667E+03 -0.73780407829E+03  0.88959080304E+03  0.46999998093E+01 0.  1.
       -5    1    3    3    0  502 -0.20983665091E+03  0.45051462667E+03  0.15407707640E+04  0.16189476477E+04  0.46999998093E+01 0. -1.
</event>
<event>
 5   0  0.4856882E-05  0.2263141E+04  0.7818609E-02  0.8492597E-01
       -2   -1    0    0    0  501  0.00000000000E+00  0.00000000000E+00  0.66113994459E+03  0.66113994460E+03  0.25500000920E-02 0. -1.
        2   -1    0    0  501    0  0.00000000000E+00  0.00000000000E+00 -0.19367334779E+04  0.19367334779E+04  0.25500000920E-02 0.  1.
    10030    2    1    2    0    0  0.00000000000E+00  0.00000000000E+00 -0.12755935333E+04  0.25978734225E+04  0.22631410599E+04 0.  0.
        1    1    3    3  502    0 -0.72582647036E+03 -0.63909376243E+03  0.36628068858E+02  0.96778433430E+03  0.50400001928E-02 0. -1.
       -1    1    3    3    0  502  0.72582647036E+03  0.63909376243E+03 -0.13122216022E+04  0.16300890882E+04  0.50400001928E-02 0.  1.
</event>
<event>
 5   0  0.4713971E-05  0.2386656E+04  0.7818609E-02  0.8444516E-01
       -2   -1    0    0    0  501  0.00000000000E+00  0.00000000000E+00  0.20907631216E+04  0.20907631216E+04  0.25500000920E-02 0.  1.
        2   -1    0    0  501    0  0.00000000000E+00  0.00000000000E+00 -0.68110638716E+03  0.68110638717E+03  0.25500000920E-02 0. -1.
    10030    2    1    2    0    0  0.00000000000E+00  0.00000000000E+00  0.14096567345E+04  0.27718695088E+04  0.23866563357E+04 0.  0.
        5    1    3    3  502    0 -0.78078803115E+03  0.80233523004E+02 -0.33910592252E+03  0.85503349904E+03  0.46999998093E+01 0. -1.
       -5    1    3    3    0  502  0.78078803115E+03 -0.80233523004E+02  0.17487626570E+04  0.19168360098E+04  0.46999998093E+01 0.  1.
</event>
<event>
 5   0  0.2149920E-05  0.2395046E+04  0.7818609E-02  0.8441360E-01
       -1   -1    0    0    0  501  0.00000000000E+00  0.00000000000E+00  0.13905598262E+04  0.13905598262E+04  0.50400001928E-02 0.  1.
        1   -1    0    0  501    0  0.00000000000E+00  0.00000000000E+00 -0.10312838233E+04  0.10312838233E+04  0.50400001928E-02 0. -1.
    10030    2    1    2    0    0  0.00000000000E+00  0.00000000000E+00  0.35927600288E+03  0.24218436495E+04  0.23950464331E+04 0.  0.
        5    1    3    3  502    0 -0.60128555329E+03 -0.80470519580E+03  0.83880965677E+03  0.13087087144E+04  0.46999998093E+01 0. -1.
       -5    1    3    3    0  502  0.60128555329E+03  0.80470519580E+03 -0.47953365388E+03  0.11131349352E+04  0.46999998093E+01 0.  1.
</event>
<event>
 5   0  0.2090039E-05  0.2334507E+04  0.7818609E-02  0.8464438E-01
       -1   -1    0    0    0  501  0.00000000000E+00  0.00000000000E+00  0.90506902480E+03  0.90506902481E+03  0.50400001928E-02 0.  1.
        1   -1    0    0  501    0  0.00000000000E+00  0.00000000000E+00 -0.15053887780E+04  0.15053887780E+04  0.50400001928E-02 0. -1.
    10030    2    1    2    0    0  0.00000000000E+00  0.00000000000E+00 -0.60031975320E+03  0.24104578028E+04  0.23345070171E+04 0.  0.
        1    1    3    3  502    0  0.71824479130E+03 -0.89600118185E+03 -0.51622129286E+03  0.12590385702E+04  0.50400001928E-02 0. -1.
       -1    1    3    3    0  502 -0.71824479130E+03  0.89600118185E+03 -0.84098460336E+02  0.11514192326E+04  0.50400001928E-02 0.  1.
</event>
<event>
 5   0  0.4664127E-05  0.2437145E+04  0.7818609E-02  0.8425726E-01
        2   -1    0    0  501    0  0.00000000000E+00  0.00000000000E+00  0.14958222596E+04  0.14958222596E+04  0.25500000920E-02 0.  1.
       -2   -1    0    0    0  501  0.00000000000E+00  0.00000000000E+00 -0.99271117906E+03  0.99271117907E+03  0.25500000920E-02 0. -1.
    10030    2    1    2    0    0  0.00000000000E+00  0.00000000000E+00  0.50311108055E+03  0.24885334387E+04  0.24371454442E+04 0.  0.
        4    1    3    3  502    0  0.10859753268E+03 -0.11998617472E+04  0.43832270749E+03  0.12820257584E+04  0.12699999809E+01 0. -1.
       -4    1    3    3    0  502 -0.10859753268E+03  0.11998617472E+04  0.64788373061E+02  0.12065076803E+04  0.12699999809E+01 0.  1.
</event>
<event>
 5   0  0.2090039E-05  0.2418885E+04  0.7818609E-02  0.8432467E-01
        1   -1    0    0  501    0  0.00000000000E+00  0.00000000000E+00  0.10127105961E+04  0.10127105961E+04  0.50400001928E-02 0.  1.
       -1   -1    0    0    0  501  0.00000000000E+00  0.00000000000E+00 -0.14443925187E+04  0.14443925187E+04  0.50400001928E-02 0. -1.
    10030    2    1    2    0    0  0.00000000000E+00  0.00000000000E+00 -0.43168192262E+03  0.24571031148E+04  0.24188853702E+04 0.  0.
        1    1    3    3  502    0 -0.47809592198E+03 -0.65259634528E+03  0.69741548713E+03  0.10681039566E+04  0.50400001928E-02 0.  1.
       -1    1    3    3    0  502  0.47809592198E+03  0.65259634528E+03 -0.11290974097E+04  0.13889991581E+04  0.50400001928E-02 0. -1.
</event>
<event>
 5   0  0.4664127E-05  0.2396592E+04  0.7818609E-02  0.8440781E-01
        2   -1    0    0  501    0  0.00000000000E+00  0.00000000000E+00  0.15186197712E+04  0.15186197712E+04  0.25500000920E-02 0.  1.
       -2   -1    0    0    0  501  0.00000000000E+00  0.00000000000E+00 -0.94553809422E+03  0.94553809423E+03  0.25500000920E-02 0. -1.
    10030    2    1    2    0    0  0.00000000000E+00  0.00000000000E+00  0.57308167699E+03  0.24641578654E+04  0.23965916167E+04 0.  0.
        4    1    3    3  502    0 -0.90774556111E+03 -0.16991157517E+03 -0.49855631080E+03  0.10494912839E+04  0.12699999809E+01 0. -1.
       -4    1    3    3    0  502  0.90774556111E+03  0.16991157517E+03  0.10716379878E+04  0.14146665815E+04  0.12699999809E+01 0.  1.
</event>
<event>
 5   0  0.4856882E-05  0.2339441E+04  0.7818609E-02  0.8462530E-01
       -2   -1    0    0    0  501  0.00000000000E+00  0.00000000000E+00  0.85473383856E+03  0.85473383856E+03  0.25500000920E-02 0. -1.
        2   -1    0    0  501    0  0.00000000000E+00  0.00000000000E+00 -0.16007863450E+04  0.16007863450E+04  0.25500000920E-02 0.  1.
    10030    2    1    2    0    0  0.00000000000E+00  0.00000000000E+00 -0.74605250640E+03  0.24555201835E+04  0.23394411789E+04 0.  0.
        1    1    3    3  502    0  0.11104259861E+04  0.17445678508E+03 -0.71276097577E+03  0.13309805593E+04  0.50400001928E-02 0.  1.
       -1    1    3    3    0  502 -0.11104259861E+04 -0.17445678508E+03 -0.33291530630E+02  0.11245396243E+04  0.50400001928E-02 0. -1.
</event>
<event>
 5   0  0.4713971E-05  0.2396722E+04  0.7818609E-02  0.8440732E-01
        2   -1    0    0  501    0  0.00000000000E+00  0.00000000000E+00  0.96644511570E+03  0.96644511570E+03  0.25500000920E-02 0. -1.
       -2   -1    0    0    0  501  0.00000000000E+00  0.00000000000E+00 -0.14859291679E+04  0.14859291679E+04  0.25500000920E-02 0.  1.
    10030    2    1    2    0    0  0.00000000000E+00  0.00000000000E+00 -0.51948405222E+03  0.24523742836E+04  0.23967219168E+04 0.  0.
        5    1    3    3  502    0  0.71778153395E+03  0.46400951376E+03 -0.11192054186E+04  0.14082464339E+04  0.46999998093E+01 0.  1.
       -5    1    3    3    0  502 -0.71778153395E+03 -0.46400951376E+03  0.59972136642E+03  0.10441278498E+04  0.46999998093E+01 0. -1.
</event>
<event>
 5   0  0.2090039E-05  0.2401336E+04  0.7818609E-02  0.8439004E-01
       -1   -1    0    0    0  501  0.00000000000E+00  0.00000000000E+00  0.12430701125E+04  0.12430701126E+04  0.50400001928E-02 0.  1.
        1   -1    0    0  501    0  0.00000000000E+00  0.00000000000E+00 -0.11597120721E+04  0.11597120722E+04  0.50400001928E-02 0. -1.
    10030    2    1    2    0    0  0.00000000000E+00  0.00000000000E+00  0.83358040403E+02  0.24027821847E+04  0.24013358083E+04 0.  0.
        1    1    3    3  502    0 -0.89466480884E+03  0.64988617983E+03  0.50974945942E+03  0.12176295325E+04  0.50400001928E-02 0.  1.
       -1    1    3    3    0  502  0.89466480884E+03 -0.64988617983E+03 -0.42639141902E+03  0.11851526523E+04  0.50400001928E-02 0. -1.
</event>
<event>
 5   0  0.1672125E-05  0.2390471E+04  0.7818609E-02  0.8443080E-01
        3   -1    0    0  501    0  0.00000000000E+00  0.00000000000E+00  0.10119898098E+04  0.10119898148E+04  0.10100000352E+00 0. -1.
       -3   -1    0    0    0  501  0.00000000000E+00  0.00000000000E+00 -0.14116623345E+04  0.14116623381E+04  0.10100000352E+00 0.  1.
    10030    2    1    2    0    0  0.00000000000E+00  0.00000000000E+00 -0.39967252474E+03  0.24236521529E+04  0.23904710062E+04 0.  0.
        4    1    3    3  502    0 -0.48045322712E+03 -0.10743279908E+04  0.11796246955E+02  0.11769268030E+04  0.12699999809E+01 0.  1.
       -4    1    3    3    0  502  0.48045322712E+03  0.10743279908E+04 -0.41146877169E+03  0.12467253499E+04  0.12699999809E+01 0. -1.
</event>
<event>
 5   0  0.4664127E-05  0.2415868E+04  0.7818609E-02  0.8433587E-01
        2   -1    0    0  501    0  0.00000000000E+00  0.00000000000E+00  0.17349973814E+04  0.17349973814E+04  0.25500000920E-02 0. -1.
       -2   -1    0    0    0  501  0.00000000000E+00  0.00000000000E+00 -0.84098374083E+03  0.84098374083E+03  0.25500000920E-02 0.  1.
    10030    2    1    2    0    0  0.00000000000E+00  0.00000000000E+00  0.89401364055E+03  0.25759811222E+04  0.24158680329E+04 0.  0.
        4    1    3    3  502    0  0.56055088241E+03  0.40454319190E+03 -0.60921463703E+03  0.92142095307E+03  0.12699999809E+01 0.  1.
       -4    1    3    3    0  502 -0.56055088241E+03 -0.40454319190E+03  0.15032282776E+04  0.16545601691E+04  0.12699999809E+01 0. -1.
</event>
<event>
 5   0  0.2057599E-05  0.2430619E+04  0.7818609E-02  0.8428129E-01
       -1   -1    0    0    0  501  0.00000000000E+00  0.00000000000E+00  0.11913330453E+04  0.11913330453E+04  0.50400001928E-02 0. -1.
        1   -1    0    0  501    0  0.00000000000E+00  0.00000000000E+00 -0.12397680842E+04  0.12397680843E+04  0.50400001928E-02 0.  1.
    10030    2    1    2    0    0  0.00000000000E+00  0.00000000000E+00 -0.48435038945E+02  0.24311011296E+04  0.24306185939E+04 0.  0.
        4    1    3    3  502    0 -0.28444528142E+03  0.58695162198E+02 -0.12045453662E+04  0.12390663390E+04  0.12699999809E+01 0.  1.
       -4    1    3    3    0  502  0.28444528142E+03 -0.58695162198E+02  0.11561103273E+04  0.11920347906E+04  0.12699999809E+01 0. -1.
</event>
<event>
 5   0  0.4664127E-05  0.2406471E+04  0.7818609E-02  0.8437085E-01
        2   -1    0    0  501    0  0.00000000000E+00  0.00000000000E+00  0.56492259470E+03  0.56492259470E+03  0.25500000920E-02 0. -1.
       -2   -1    0    0    0  501  0.00000000000E+00  0.00000000000E+00 -0.25627865689E+04  0.25627865689E+04  0.25500000920E-02 0.  1.
    10030    2    1    2    0    0  0.00000000000E+00  0.00000000000E+00 -0.19978639742E+04  0.31277091636E+04  0.24064713073E+04 0.  0.
        4    1    3    3  502    0  0.20628310069E+03 -0.71738675185E+03  0.22760781275E+03  0.78038669817E+03  0.12699999809E+01 0. -1.
       -4    1    3    3    0  502 -0.20628310069E+03  0.71738675185E+03 -0.22254717870E+04  0.23473224655E+04  0.12699999809E+01 0.  1.
</event>
<event>
 5   0  0.2139556E-05  0.2497263E+04  0.7818609E-02  0.8403961E-01
       -1   -1    0    0    0  501  0.00000000000E+00  0.00000000000E+00  0.15025559669E+04  0.15025559669E+04  0.50400001928E-02 0. -1.
        1   -1    0    0  501    0  0.00000000000E+00  0.00000000000E+00 -0.10376185881E+04  0.10376185881E+04  0.50400001928E-02 0.  1.
    10030    2    1    2    0    0  0.00000000000E+00  0.00000000000E+00  0.46493737878E+03  0.25401745550E+04  0.24972625019E+04 0.  0.
        2    1    3    3  502    0 -0.10827528942E+03 -0.94365772567E+03 -0.59193123212E+03  0.11191943643E+04  0.25500000920E-02 0. -1.
       -2    1    3    3    0  502  0.10827528942E+03  0.94365772567E+03  0.10568686109E+04  0.14209801906E+04  0.25500000920E-02 0.  1.
</event>
<event>
 5   0  0.4856882E-05  0.2137676E+04  0.7818609E-02  0.8544826E-01
        2   -1    0    0  501    0  0.00000000000E+00  0.00000000000E+00  0.93112440846E+03  0.93112440847E+03  0.25500000920E-02 0. -1.
       -2   -1    0    0    0  501  0.00000000000E+00  0.00000000000E+00 -0.12269198383E+04  0.12269198383E+04  0.25500000920E-02 0.  1.
    10030    2    1    2    0    0  0.00000000000E+00  0.00000000000E+00 -0.29579542979E+03  0.21580442467E+04  0.21376763166E+04 0.  0.
        1    1    3    3  502    0  0.39180847442E+03 -0.94555633230E+03  0.16297194447E+03  0.10364123276E+04  0.50400001928E-02 0. -1.
       -1    1    3    3    0  502 -0.39180847442E+03  0.94555633230E+03 -0.45876737426E+03  0.11216319191E+04  0.50400001928E-02 0.  1.
</event>
<event>
 5   0  0.2065692E-05  0.2232191E+04  0.7818609E-02  0.8505148E-01
       -1   -1    0    0    0  501  0.00000000000E+00  0.00000000000E+00  0.85909185662E+03  0.85909185663E+03  0.50400001928E-02 0. -1.
        1   -1    0    0  501    0  0.00000000000E+00  0.00000000000E+00 -0.14499834315E+04  0.14499834315E+04  0.50400001928E-02 0.  1.
    10030    2    1    2    0    0  0.00000000000E+00  0.00000000000E+00 -0.59089157489E+03  0.23090752881E+04  0.22321908147E+04 0.  0.
        3    1    3    3  502    0 -0.59460703667E+03 -0.61929365318E+03 -0.10331619782E+04  0.13433189645E+04  0.10100000352E+00 0.  1.
       -3    1    3    3    0  502  0.59460703667E+03  0.61929365318E+03  0.44227040328E+03  0.96575632369E+03  0.10100000352E+00 0. -1.
</event>
<event>
 5   0  0.2090039E-05  0.2326495E+04  0.7818609E-02  0.8467547E-01
        1   -1    0    0  501    0  0.00000000000E+00  0.00000000000E+00  0.21121409286E+04  0.21121409286E+04  0.50400001928E-02 0. -1.
       -1   -1    0    0    0  501  0.00000000000E+00  0.00000000000E+00 -0.64065089480E+03  0.64065089482E+03  0.50400001928E-02 0.  1.
    10030    2    1    2    0    0  0.00000000000E+00  0.00000000000E+00  0.14714900338E+04  0.27527918234E+04  0.23264951974E+04 0.  0.
        1    1    3    3  502    0  0.76846134183E+03  0.68954000656E+02  0.17658108504E+04  0.19270120518E+04  0.50400001928E-02 0. -1.
       -1    1    3    3    0  502 -0.76846134183E+03 -0.68954000656E+02 -0.29432081666E+03  0.82577977164E+03  0.50400001928E-02 0.  1.
</event>
<event>
 5   0  0.2065692E-05  0.2392490E+04  0.7818609E-02  0.8442320E-01
        1   -1    0    0  501    0  0.00000000000E+00  0.00000000000E+00  0.20910721990E+04  0.20910721991E+04  0.50400001928E-02 0.  1.
       -1   -1    0    0    0  501  0.00000000000E+00  0.00000000000E+00 -0.68433915525E+03  0.68433915527E+03  0.50400001928E-02 0. -1.
    10030    2    1    2    0    0  0.00000000000E+00  0.00000000000E+00  0.14067330438E+04  0.27754113543E+04  0.23924904032E+04 0.  0.
        3    1    3    3  502    0  0.28438694517E+03  0.57851388708E+03  0.18723437981E+04  0.19802084639E+04  0.10100000352E+00 0.  1.
       -3    1    3    3    0  502 -0.28438694517E+03 -0.57851388708E+03 -0.46561075432E+03  0.79520289038E+03  0.10100000352E+00 0. -1.
</event>
<event>
 5   0  0.4756705E-05  0.2409994E+04  0.7818609E-02  0.8435771E-01
       -2   -1    0    0    0  501  0.00000000000E+00  0.00000000000E+00  0.71516299284E+03  0.71516299284E+03  0.25500000920E-02 0. -1.
        2   -1    0    0  501    0  0.00000000000E+00  0.00000000000E+00 -0.20303319724E+04  0.20303319724E+04  0.25500000920E-02 0.  1.
    10030    2    1    2    0    0  0.00000000000E+00  0.00000000000E+00 -0.13151689795E+04  0.27454949652E+04  0.24099944314E+04 0.  0.
        3    1    3    3  502    0 -0.95737362651E+03 -0.40316974807E+03  0.38089175657E+02  0.10395003136E+04  0.10100000352E+00 0. -1.
       -3    1    3    3    0  502  0.95737362651E+03  0.40316974807E+03 -0.13532581552E+04  0.17059946516E+04  0.10100000352E+00 0.  1.
</event>
<event>
 5   0  0.4914005E-05  0.2421178E+04  0.7818609E-02  0.8431617E-01
       -2   -1    0    0    0  501  0.00000000000E+00  0.00000000000E+00  0.76592808422E+03  0.76592808422E+03  0.25500000920E-02 0. -1.
        2   -1    0    0  501    0  0.00000000000E+00  0.00000000000E+00 -0.19133990429E+04  0.19133990429E+04  0.25500000920E-02 0.  1.
    10030    2    1    2    0    0  0.00000000000E+00  0.00000000000E+00 -0.11474709587E+04  0.26793271272E+04  0.24211782779E+04 0.  0.
        2    1    3    3  502    0 -0.24250802431E+03 -0.11831775582E+04 -0.66503532811E+03  0.13787643975E+04  0.25500000920E-02 0. -1.
       -2    1    3    3    0  502  0.24250802431E+03  0.11831775582E+04 -0.48243563061E+03  0.13005627297E+04  0.25500000920E-02 0.  1.
</event>
<event>
 5   0  0.2057599E-05  0.2416061E+04  0.7818609E-02  0.8433515E-01
        1   -1    0    0  501    0  0.00000000000E+00  0.00000000000E+00  0.10436652030E+04  0.10436652030E+04  0.50400001928E-02 0.  1.
       -1   -1    0    0    0  501  0.00000000000E+00  0.00000000000E+00 -0.13982815100E+04  0.13982815100E+04  0.50400001928E-02 0. -1.
    10030    2    1    2    0    0  0.00000000000E+00  0.00000000000E+00 -0.35461630704E+03  0.24419467130E+04  0.24160610555E+04 0.  0.
        4    1    3    3  502    0  0.82410861640E+03 -0.85689973084E+03  0.39239489837E+02  0.11895265910E+04  0.12699999809E+01 0.  1.
       -4    1    3    3    0  502 -0.82410861640E+03  0.85689973084E+03 -0.39385579687E+03  0.12524201220E+04  0.12699999809E+01 0. -1.
</event>
<event>
 5   0  0.4856882E-05  0.2394902E+04  0.7818609E-02  0.8441415E-01
       -2   -1    0    0    0  501  0.00000000000E+00  0.00000000000E+00  0.10982163498E+04  0.10982163498E+04  0.25500000920E-02 0.  1.
        2   -1    0    0  501    0  0.00000000000E+00  0.00000000000E+00 -0.13056527382E+04  0.13056527382E+04  0.25500000920E-02 0. -1.
    10030    2    1    2    0    0  0.00000000000E+00  0.00000000000E+00 -0.20743638839E+03  0.24038690879E+04  0.23949022395E+04 0.  0.
        1    1    3    3  502    0  0.68140672920E+03  0.13094891854E+03 -0.10832955628E+04  0.12864649340E+04  0.50400001928E-02 0. -1.
       -1    1    3    3    0  502 -0.68140672920E+03 -0.13094891854E+03  0.87585917441E+03  0.11174041540E+04  0.50400001928E-02 0.  1.
</event>
<event>
 5   0  0.4713971E-05  0.2439639E+04  0.7818609E-02  0.8424810E-01
       -2   -1    0    0    0  501  0.00000000000E+00  0.00000000000E+00  0.90194624684E+03  0.90194624684E+03  0.25500000920E-02 0. -1.
        2   -1    0    0  501    0  0.00000000000E+00  0.00000000000E+00 -0.16497215876E+04  0.16497215876E+04  0.25500000920E-02 0.  1.
    10030    2    1    2    0    0  0.00000000000E+00  0.00000000000E+00 -0.74777534078E+03  0.25516678345E+04  0.24396394769E+04 0.  0.
        5    1    3    3  502    0 -0.10026952438E+03 -0.93764744190E+03 -0.11831766458E+04  0.15129989319E+04  0.46999998093E+01 0.  1.
       -5    1    3    3    0  502  0.10026952438E+03  0.93764744190E+03  0.43540130498E+03  0.10386689026E+04  0.46999998093E+01 0. -1.
</event>
<event>
 5   0  0.2057599E-05  0.2403986E+04  0.7818609E-02  0.8438013E-01
        1   -1    0    0  501    0  0.00000000000E+00  0.00000000000E+00  0.15770106980E+04  0.15770106980E+04  0.50400001928E-02 0.  1.
       -1   -1    0    0    0  501  0.00000000000E+00  0.00000000000E+00 -0.91615552124E+03  0.91615552125E+03  0.50400001928E-02 0. -1.
    10030    2    1    2    0    0  0.00000000000E+00  0.00000000000E+00  0.66085517674E+03  0.24931662192E+04  0.24039859051E+04 0.  0.
        4    1    3    3  502    0  0.10858182748E+04  0.24418871845E+03  0.80131523239E+03  0.13713997122E+04  0.12699999809E+01 0. -1.
       -4    1    3    3    0  502 -0.10858182748E+04 -0.24418871845E+03 -0.14046005565E+03  0.11217665070E+04  0.12699999809E+01 0.  1.
</event>
<event>
 5   0  0.4856882E-05  0.2297810E+04  0.7818609E-02  0.8478785E-01
        2   -1    0    0  501    0  0.00000000000E+00  0.00000000000E+00  0.17567430505E+04  0.17567430505E+04  0.25500000920E-02 0.  1.
       -2   -1    0    0    0  501  0.00000000000E+00  0.00000000000E+00 -0.75138076685E+03  0.75138076686E+03  0.25500000920E-02 0. -1.
    10030    2    1    2    0    0  0.00000000000E+00  0.00000000000E+00  0.10053622836E+04  0.25081238173E+04  0.22978102101E+04 0.  0.
        1    1    3    3  502    0 -0.36010173088E+03 -0.89363578947E+03  0.11858457020E+04  0.15279032069E+04  0.50400001928E-02 0.  1.
       -1    1    3    3    0  502  0.36010173088E+03  0.89363578947E+03 -0.18048341832E+03  0.98022061044E+03  0.50400001928E-02 0. -1.
</event>
<event>
 5   0  0.2090039E-05  0.2420496E+04  0.7818609E-02  0.8431870E-01
       -1   -1    0    0    0  501  0.00000000000E+00  0.00000000000E+00  0.10189327791E+04  0.10189327791E+04  0.50400001928E-02 0. -1.
        1   -1    0    0  501    0  0.00000000000E+00  0.00000000000E+00 -0.14374851613E+04  0.14374851613E+04  0.50400001928E-02 0.  1.
    10030    2    1    2    0    0  0.00000000000E+00  0.00000000000E+00 -0.41855238221E+03  0.24564179405E+04  0.24204964370E+04 0.  0.
        1    1    3    3  502    0  0.72165612799E+03 -0.58807430732E+03  0.57555834119E+03  0.10944799505E+04  0.50400001928E-02 0. -1.
       -1    1    3    3    0  502 -0.72165612799E+03  0.58807430732E+03 -0.99411072340E+03  0.13619379899E+04  0.50400001928E-02 0.  1.
</event>
<event>
 5   0  0.4856882E-05  0.2333655E+04  0.7818609E-02  0.8464769E-01
        2   -1    0    0  501    0  0.00000000000E+00  0.00000000000E+00  0.93317972250E+03  0.93317972250E+03  0.25500000920E-02 0.  1.
       -2   -1    0    0    0  501  0.00000000000E+00  0.00000000000E+00 -0.14589752446E+04  0.14589752446E+04  0.25500000920E-02 0. -1.
    10030    2    1    2    0    0  0.00000000000E+00  0.00000000000E+00 -0.52579552213E+03  0.23921549671E+04  0.23336547422E+04 0.  0.
        1    1    3    3  502    0 -0.26835564993E+03 -0.93314550627E+03 -0.92619745998E+03  0.13418707187E+04  0.50400001928E-02 0. -1.
       -1    1    3    3    0  502  0.26835564993E+03  0.93314550627E+03  0.40040193785E+03  0.10502842485E+04  0.50400001928E-02 0.  1.
</event>
<event>
 5   0  0.2057599E-05  0.2471311E+04  0.7818609E-02  0.8413278E-01
        1   -1    0    0  501    0  0.00000000000E+00  0.00000000000E+00  0.17564292130E+04  0.17564292130E+04  0.50400001928E-02 0. -1.
       -1   -1    0    0    0  501  0.00000000000E+00  0.00000000000E+00 -0.86928882048E+03  0.86928882050E+03  0.50400001928E-02 0.  1.
    10030    2    1    2    0    0  0.00000000000E+00  0.00000000000E+00  0.88714039250E+03  0.26257180335E+04  0.24713108091E+04 0.  0.
        4    1    3    3  502    0 -0.33566017237E+03 -0.42160188214E+03  0.16249918253E+04  0.17120210114E+04  0.12699999809E+01 0. -1.
       -4    1    3    3    0  502  0.33566017237E+03  0.42160188214E+03 -0.73785143281E+03  0.91369702207E+03  0.12699999809E+01 0.  1.
</event>
<event>
 5   0  0.4914005E-05  0.2368939E+04  0.7818609E-02  0.8451225E-01
        2   -1    0    0  501    0  0.00000000000E+00  0.00000000000E+00  0.13252492613E+04  0.13252492613E+04  0.25500000920E-02 0. -1.
       -2   -1    0    0    0  501  0.00000000000E+00  0.00000000000E+00 -0.10586447427E+04  0.10586447427E+04  0.25500000920E-02 0.  1.
    10030    2    1    2    0    0  0.00000000000E+00  0.00000000000E+00  0.26660451862E+03  0.23838940039E+04  0.23689391408E+04 0.  0.
        2    1    3    3  502    0 -0.10236774903E+03 -0.11288464481E+04 -0.21266264559E+03  0.11532557654E+04  0.25500000920E-02 0.  1.
       -2    1    3    3    0  502  0.10236774903E+03  0.11288464481E+04  0.47926716421E+03  0.12306382386E+04  0.25500000920E-02 0. -1.
</event>
<event>
 5   0  0.4914005E-05  0.2246128E+04  0.7818609E-02  0.8499470E-01
        2   -1    0    0  501    0  0.00000000000E+00  0.00000000000E+00  0.12080855806E+04  0.12080855807E+04  0.25500000920E-02 0. -1.
       -2   -1    0    0    0  501  0.00000000000E+00  0.00000000000E+00 -0.10440262735E+04  0.10440262735E+04  0.25500000920E-02 0.  1.
    10030    2    1    2    0    0  0.00000000000E+00  0.00000000000E+00  0.16405930719E+03  0.22521118541E+04  0.22461283016E+04 0.  0.
        2    1    3    3  502    0 -0.89401312199E+03 -0.13636941462E+03 -0.58563989580E+03  0.10774182879E+04  0.25500000920E-02 0.  1.
       -2    1    3    3    0  502  0.89401312199E+03  0.13636941462E+03  0.74969920300E+03  0.11746935662E+04  0.25500000920E-02 0. -1.
</event>
<event>
 5   0  0.2057599E-05  0.2402424E+04  0.7818609E-02  0.8438597E-01
        1   -1    0    0  501    0  0.00000000000E+00  0.00000000000E+00  0.11278177467E+04  0.11278177467E+04  0.50400001928E-02 0.  1.
       -1   -1    0    0    0  501  0.00000000000E+00  0.00000000000E+00 -0.12793824038E+04  0.12793824038E+04  0.50400001928E-02 0. -1.
    10030    2    1    2    0    0  0.00000000000E+00  0.00000000000E+00 -0.15156465704E+03  0.24072001505E+04  0.24024239258E+04 0.  0.
        4    1    3    3  502    0  0.81571120465E+03  0.77955217980E+03 -0.48869649627E+03  0.12295984096E+04  0.12699999809E+01 0. -1.
       -4    1    3    3    0  502 -0.81571120465E+03 -0.77955217980E+03  0.33713183922E+03  0.11776017410E+04  0.12699999809E+01 0.  1.
</event>
<event>
 5   0  0.2149920E-05  0.2162844E+04  0.7818609E-02  0.8534054E-01
       -1   -1    0    0    0  501  0.00000000000E+00  0.00000000000E+00  0.19296082326E+04  0.19296082326E+04  0.50400001928E-02 0. -1.
        1   -1    0    0  501    0  0.00000000000E+00  0.00000000000E+00 -0.60606809284E+03  0.60606809286E+03  0.50400001928E-02 0.  1.
    10030    2    1    2    0    0  0.00000000000E+00  0.00000000000E+00  0.13235401397E+04  0.25356763254E+04  0.21628444063E+04 0.  0.
        5    1    3    3  502    0 -0.98286436486E+03 -0.44579694245E+03  0.58144175397E+03  0.12259094081E+04  0.46999998093E+01 0.  1.
       -5    1    3    3    0  502  0.98286436486E+03  0.44579694245E+03  0.74209838574E+03  0.13097669173E+04  0.46999998093E+01 0. -1.
</event>
<event>
 5   0  0.2139556E-05  0.2371739E+04  0.7818609E-02  0.8450160E-01
       -1   -1    0    0    0  501  0.00000000000E+00  0.00000000000E+00  0.59035277401E+03  0.59035277403E+03  0.50400001928E-02 0. -1.
        1   -1    0    0  501    0  0.00000000000E+00  0.00000000000E+00 -0.23821122433E+04  0.23821122433E+04  0.50400001928E-02 0.  1.
    10030    2    1    2    0    0  0.00000000000E+00  0.00000000000E+00 -0.17917594693E+04  0.29724650174E+04  0.23717390842E+04 0.  0.
        2    1    3    3  502    0  0.22200731655E+03  0.84523144037E+03 -0.19005290742E+04  0.20918207854E+04  0.25500000920E-02 0.  1.
       -2    1    3    3    0  502 -0.22200731655E+03 -0.84523144037E+03  0.10876960484E+03  0.88064423198E+03  0.25500000920E-02 0. -1.
</event>
<event>
 5   0  0.4756705E-05  0.2397270E+04  0.7818609E-02  0.8440526E-01
       -2   -1    0    0    0  501  0.00000000000E+00  0.00000000000E+00  0.14223092121E+04  0.14223092121E+04  0.25500000920E-02 0.  1.
        2   -1    0    0  501    0  0.00000000000E+00  0.00000000000E+00 -0.10101360278E+04  0.10101360278E+04  0.25500000920E-02 0. -1.
    10030    2    1    2    0    0  0.00000000000E+00  0.00000000000E+00  0.41217318429E+03  0.24324452398E+04  0.23972699287E+04 0.  0.
        3    1    3    3  502    0  0.34862184077E+03 -0.11267019059E+04 -0.10900229667E+02  0.11794546188E+04  0.10100000352E+00 0.  1.
       -3    1    3    3    0  502 -0.34862184077E+03  0.11267019059E+04  0.42307341396E+03  0.12529906210E+04  0.10100000352E+00 0. -1.
</event>
<event>
 5   0  0.2139556E-05  0.2396671E+04  0.7818609E-02  0.8440751E-01
        1   -1    0    0  501    0  0.00000000000E+00  0.00000000000E+00  0.12387533581E+04  0.12387533581E+04  0.50400001928E-02 0.  1.
       -1   -1    0    0    0  501  0.00000000000E+00  0.00000000000E+00 -0.11592361742E+04  0.11592361742E+04  0.50400001928E-02 0. -1.
    10030    2    1    2    0    0  0.00000000000E+00  0.00000000000E+00  0.79517183897E+02  0.23979895324E+04  0.23966707773E+04 0.  0.
        2    1    3    3  502    0 -0.21073373215E+03 -0.10256860357E+04 -0.54328595760E+03  0.11796610452E+04  0.25500000920E-02 0. -1.
       -2    1    3    3    0  502  0.21073373215E+03  0.10256860357E+04  0.62280314150E+03  0.12183284872E+04  0.25500000920E-02 0.  1.
</event>
<event>
 5   0  0.2090039E-05  0.2414105E+04  0.7818609E-02  0.8434242E-01
       -1   -1    0    0    0  501  0.00000000000E+00  0.00000000000E+00  0.10276648739E+04  0.10276648739E+04  0.50400001928E-02 0.  1.
        1   -1    0    0  501    0  0.00000000000E+00  0.00000000000E+00 -0.14177533843E+04  0.14177533843E+04  0.50400001928E-02 0. -1.
    10030    2    1    2    0    0  0.00000000000E+00  0.00000000000E+00 -0.39008851039E+03  0.24454182582E+04  0.24141046811E+04 0.  0.
        1    1    3    3  502    0  0.21540365021E+03  0.82245698002E+03  0.67289000578E+03  0.10842578920E+04  0.50400001928E-02 0.  1.
       -1    1    3    3    0  502 -0.21540365021E+03 -0.82245698002E+03 -0.10629785162E+04  0.13611603661E+04  0.50400001928E-02 0. -1.
</event>
<event>
 5   0  0.4856882E-05  0.2487039E+04  0.7818609E-02  0.8407618E-01
        2   -1    0    0  501    0  0.00000000000E+00  0.00000000000E+00  0.23846346393E+04  0.23846346393E+04  0.25500000920E-02 0. -1.
       -2   -1    0    0    0  501  0.00000000000E+00  0.00000000000E+00 -0.64846026377E+03  0.64846026378E+03  0.25500000920E-02 0.  1.
    10030    2    1    2    0    0  0.00000000000E+00  0.00000000000E+00  0.17361743755E+04  0.30330949030E+04  0.24870390485E+04 0.  0.
        1    1    3    3  502    0  0.49257083273E+03 -0.84792644212E+03  0.18006608310E+04  0.20503620912E+04  0.50400001928E-02 0. -1.
       -1    1    3    3    0  502 -0.49257083273E+03  0.84792644212E+03 -0.64486455561E+02  0.98273281184E+03  0.50400001928E-02 0.  1.
</event>
<event>
 5   0  0.2149920E-05  0.2426395E+04  0.7818609E-02  0.8429687E-01
       -1   -1    0    0    0  501  0.00000000000E+00  0.00000000000E+00  0.75759378632E+03  0.75759378634E+03  0.50400001928E-02 0. -1.
        1   -1    0    0  501    0  0.00000000000E+00  0.00000000000E+00 -0.19427931828E+04  0.19427931828E+04  0.50400001928E-02 0.  1.
    10030    2    1    2    0    0  0.00000000000E+00  0.00000000000E+00 -0.11851993965E+04  0.27003869691E+04  0.24263948924E+04 0.  0.
        5    1    3    3  502    0  0.61558019130E+03 -0.10192626697E+04 -0.33400264951E+03  0.12366952824E+04  0.46999998093E+01 0. -1.
       -5    1    3    3    0  502 -0.61558019130E+03  0.10192626697E+04 -0.85119674696E+03  0.14636916867E+04  0.46999998093E+01 0.  1.
</event>
<event>
 5   0  0.2149920E-05  0.2245530E+04  0.7818609E-02  0.8499713E-01
        1   -1    0    0  501    0  0.00000000000E+00  0.00000000000E+00  0.13923251297E+04  0.13923251297E+04  0.50400001928E-02 0.  1.
       -1   -1    0    0    0  501  0.00000000000E+00  0.00000000000E+00 -0.90539307472E+03  0.90539307474E+03  0.50400001928E-02 0. -1.
    10030    2    1    2    0    0  0.00000000000E+00  0.00000000000E+00  0.48693205494E+03  0.22977182044E+04  0.22455302538E+04 0.  0.
        5    1    3    3  502    0  0.29427516262E+03  0.94542483020E+03 -0.29813047260E+03  0.10340840631E+04  0.46999998093E+01 0. -1.
       -5    1    3    3    0  502 -0.29427516262E+03 -0.94542483020E+03  0.78506252754E+03  0.12636341413E+04  0.46999998093E+01 0.  1.
</event>
<event>
 5   0  0.4914005E-05  0.2397732E+04  0.7818609E-02  0.8440353E-01
       -2   -1    0    0    0  501  0.00000000000E+00  0.00000000000E+00  0.80650119133E+03  0.80650119134E+03  0.25500000920E-02 0. -1.
        2   -1    0    0  501    0  0.00000000000E+00  0.00000000000E+00 -0.17821176842E+04  0.17821176842E+04  0.25500000920E-02 0.  1.
    10030    2    1    2    0    0  0.00000000000E+00  0.00000000000E+00 -0.97561649288E+03  0.25886188755E+04  0.23977322915E+04 0.  0.
        2    1    3    3  502    0 -0.33209523808E+03 -0.56448806945E+02 -0.17299742716E+04  0.17624655161E+04  0.25500000920E-02 0.  1.
       -2    1    3    3    0  502  0.33209523808E+03  0.56448806945E+02  0.75435777875E+03  0.82615335945E+03  0.25500000920E-02 0. -1.
</event>
<event>
 5   0  0.4914005E-05  0.2564373E+04  0.7818609E-02  0.8380405E-01
        2   -1    0    0  501    0  0.00000000000E+00  0.00000000000E+00  0.22649325032E+04  0.22649325032E+04  0.25500000920E-02 0.  1.
       -2   -1    0    0    0  501  0.00000000000E+00  0.00000000000E+00 -0.72585017280E+03  0.72585017281E+03  0.25500000920E-02 0. -1.
    10030    2    1    2    0    0  0.00000000000E+00  0.00000000000E+00  0.15390823304E+04  0.29907826760E+04  0.25643725539E+04 0.  0.
        2    1    3    3  502    0  0.72195124430E+03  0.18935097950E+03 -0.44637987768E+03  0.86966797560E+03  0.25500000920E-02 0. -1.
       -2    1    3    3    0  502 -0.72195124430E+03 -0.18935097950E+03  0.19854622081E+04  0.21211147004E+04  0.25500000920E-02 0.  1.
</event>
<event>
 5   0  0.2065692E-05  0.2124476E+04  0.7818609E-02  0.8550537E-01
       -1   -1    0    0    0  501  0.00000000000E+00  0.00000000000E+00  0.74239578781E+03  0.74239578782E+03  0.50400001928E-02 0. -1.
        1   -1    0    0  501    0  0.00000000000E+00  0.00000000000E+00 -0.15198762083E+04  0.15198762083E+04  0.50400001928E-02 0.  1.
    10030    2    1    2    0    0  0.00000000000E+00  0.00000000000E+00 -0.77748042048E+03  0.22622719961E+04  0.21244761190E+04 0.  0.
        3    1    3    3  502    0 -0.32343463452E+03  0.12554730733E+03  0.68035997682E+03  0.76371578316E+03  0.10100000352E+00 0. -1.
       -3    1    3    3    0  502  0.32343463452E+03 -0.12554730733E+03 -0.14578403973E+04  0.14985562130E+04  0.10100000352E+00 0.  1.
</event>
<event>
 5   0  0.4713971E-05  0.2379270E+04  0.7818609E-02  0.8447305E-01
        2   -1    0    0  501    0  0.00000000000E+00  0.00000000000E+00  0.21155999465E+04  0.21155999465E+04  0.25500000920E-02 0.  1.
       -2   -1    0    0    0  501  0.00000000000E+00  0.00000000000E+00 -0.66895065022E+03  0.66895065023E+03  0.25500000920E-02 0. -1.
    10030    2    1    2    0    0  0.00000000000E+00  0.00000000000E+00  0.14466492963E+04  0.27845505968E+04  0.23792704427E+04 0.  0.
        5    1    3    3  502    0  0.30493477768E+03 -0.17617115359E+03 -0.60653591725E+03  0.70137679096E+03  0.46999998093E+01 0. -1.
       -5    1    3    3    0  502 -0.30493477768E+03  0.17617115359E+03  0.20531852135E+04  0.20831738058E+04  0.46999998093E+01 0.  1.
</event>
<event>
 5   0  0.2057599E-05  0.2519380E+04  0.7818609E-02  0.8396114E-01
        1   -1    0    0  501    0  0.00000000000E+00  0.00000000000E+00  0.20374720425E+04  0.20374720425E+04  0.50400001928E-02 0.  1.
       -1   -1    0    0    0  501  0.00000000000E+00  0.00000000000E+00 -0.77881776795E+03  0.77881776796E+03  0.50400001928E-02 0. -1.
    10030    2    1    2    0    0  0.00000000000E+00  0.00000000000E+00  0.12586542746E+04  0.28162898105E+04  0.25193804226E+04 0.  0.
        4    1    3    3  502    0  0.10618615708E+04 -0.39639309492E+03  0.14875159800E+02  0.11335344567E+04  0.12699999809E+01 0. -1.
       -4    1    3    3    0  502 -0.10618615708E+04  0.39639309492E+03  0.12437791148E+04  0.16827553538E+04  0.12699999809E+01 0.  1.
</event>
<event>
 5   0  0.4914005E-05  0.2425257E+04  0.7818609E-02  0.8430108E-01
       -2   -1    0    0    0  501  0.00000000000E+00  0.00000000000E+00  0.21450195020E+04  0.21450195020E+04  0.25500000920E-02 0. -1.
        2   -1    0    0  501    0  0.00000000000E+00  0.00000000000E+00 -0.68552652081E+03  0.68552652082E+03  0.25500000920E-02 0.  1.
    10030    2    1    2    0    0  0.00000000000E+00  0.00000000000E+00  0.14594929811E+04  0.28305460228E+04  0.24252568988E+04 0.  0.
        2    1    3    3  502    0 -0.67710367505E+03  0.86788547250E+02  0.18994616487E+04  0.20184043682E+04  0.25500000920E-02 0. -1.
       -2    1    3    3    0  502  0.67710367505E+03 -0.86788547250E+02 -0.43996866754E+03  0.81214165459E+03  0.25500000920E-02 0.  1.
</event>
<event>
 5   0  0.2065692E-05  0.2407603E+04  0.7818609E-02  0.8436663E-01
       -1   -1    0    0    0  501  0.00000000000E+00  0.00000000000E+00  0.10330899499E+04  0.10330899499E+04  0.50400001928E-02 0. -1.
        1   -1    0    0  501    0  0.00000000000E+00  0.00000000000E+00 -0.14027220379E+04  0.14027220379E+04  0.50400001928E-02 0.  1.
    10030    2    1    2    0    0  0.00000000000E+00  0.00000000000E+00 -0.36963208800E+03  0.24358119879E+04  0.24076029905E+04 0.  0.
        3    1    3    3  502    0 -0.29934770578E+03  0.11559714781E+03  0.98902216889E+03  0.10397771926E+04  0.10100000352E+00 0. -1.
       -3    1    3    3    0  502  0.29934770578E+03 -0.11559714781E+03 -0.13586542569E+04  0.13960347952E+04  0.10100000352E+00 0.  1.
</event>
<event>
 5   0  0.2149920E-05  0.2144598E+04  0.7818609E-02  0.8541848E-01
        1   -1    0    0  501    0  0.00000000000E+00  0.00000000000E+00  0.17936790337E+04  0.17936790337E+04  0.50400001928E-02 0. -1.
       -1   -1    0    0    0  501  0.00000000000E+00  0.00000000000E+00 -0.64104315535E+03  0.64104315537E+03  0.50400001928E-02 0.  1.
    10030    2    1    2    0    0  0.00000000000E+00  0.00000000000E+00  0.11526358783E+04  0.24347221891E+04  0.21445984869E+04 0.  0.
        5    1    3    3  502    0 -0.21583046014E+03  0.43121632452E+03 -0.51099057270E+03  0.70261209885E+03  0.46999998093E+01 0.  1.
       -5    1    3    3    0  502  0.21583046014E+03 -0.43121632452E+03  0.16636264510E+04  0.17321100902E+04  0.46999998093E+01 0. -1.
</event>
<event>
 5   0  0.2139556E-05  0.2398249E+04  0.7818609E-02  0.8440159E-01
       -1   -1    0    0    0  501  0.00000000000E+00  0.00000000000E+00  0.73295722648E+03  0.73295722650E+03  0.50400001928E-02 0.  1.
        1   -1    0    0  501    0  0.00000000000E+00  0.00000000000E+00 -0.19617789794E+04  0.19617789794E+04  0.50400001928E-02 0. -1.
    10030    2    1    2    0    0  0.00000000000E+00  0.00000000000E+00 -0.12288217529E+04  0.26947362059E+04  0.23982494280E+04 0.  0.
        2    1    3    3  502    0  0.88034947915E+03 -0.65328656190E+03 -0.11603840700E+04  0.15963363453E+04  0.25500000920E-02 0. -1.
       -2    1    3    3    0  502 -0.88034947915E+03  0.65328656190E+03 -0.68437682947E+02  0.10983998606E+04  0.25500000920E-02 0.  1.
</event>
<event>
 5   0  0.2149920E-05  0.2409548E+04  0.7818609E-02  0.8435938E-01
       -1   -1    0    0    0  501  0.00000000000E+00  0.00000000000E+00  0.27247927994E+04  0.27247927994E+04  0.50400001928E-02 0. -1.
        1   -1    0    0  501    0  0.00000000000E+00  0.00000000000E+00 -0.53269369712E+03  0.53269369714E+03  0.50400001928E-02 0.  1.
    10030    2    1    2    0    0  0.00000000000E+00  0.00000000000E+00  0.21920991023E+04  0.32574864965E+04  0.24095476341E+04 0.  0.
        5    1    3    3  502    0  0.95931641270E+03 -0.72380088065E+03  0.12114154320E+04  0.17063777816E+04  0.46999998093E+01 0.  1.
       -5    1    3    3    0  502 -0.95931641270E+03  0.72380088065E+03  0.98068367023E+03  0.15511087149E+04  0.46999998093E+01 0. -1.
</event>
<event>
 5   0  0.4914005E-05  0.2387898E+04  0.7818609E-02  0.8444048E-01
        2   -1    0    0  501    0  0.00000000000E+00  0.00000000000E+00  0.76542093602E+03  0.76542093603E+03  0.25500000920E-02 0. -1.
       -2   -1    0    0    0  501  0.00000000000E+00  0.00000000000E+00 -0.18623924842E+04  0.18623924842E+04  0.25500000920E-02 0.  1.
    10030    2    1    2    0    0  0.00000000000E+00  0.00000000000E+00 -0.10969715481E+04  0.26278134202E+04  0.23878979865E+04 0.  0.
        2    1    3    3  502    0  0.41213726205E+03 -0.45688556011E+03  0.57750279819E+03  0.84386670733E+03  0.25500000920E-02 0. -1.
       -2    1    3    3    0  502 -0.41213726205E+03  0.45688556011E+03 -0.16744743463E+04  0.17839467129E+04  0.25500000920E-02 0.  1.
</event>
<event>
 5   0  0.4914005E-05  0.2359912E+04  0.7818609E-02  0.8454666E-01
        2   -1    0    0  501    0  0.00000000000E+00  0.00000000000E+00  0.11422774546E+04  0.11422774546E+04  0.25500000920E-02 0. -1.
       -2   -1    0    0    0  501  0.00000000000E+00  0.00000000000E+00 -0.12188773777E+04  0.12188773777E+04  0.25500000920E-02 0.  1.
    10030    2    1    2    0    0  0.00000000000E+00  0.00000000000E+00 -0.76599923131E+02  0.23611548323E+04  0.23599119886E+04 0.  0.
        2    1    3    3  502    0  0.10307480927E+04  0.40070343922E+03 -0.44996685677E+03  0.11939325982E+04  0.25500000920E-02 0. -1.
       -2    1    3    3    0  502 -0.10307480927E+04 -0.40070343922E+03  0.37336693364E+03  0.11672222342E+04  0.25500000920E-02 0.  1.
</event>
<event>
 5   0  0.2057599E-05  0.2463508E+04  0.7818609E-02  0.8416102E-01
        1   -1    0    0  501    0  0.00000000000E+00  0.00000000000E+00  0.13430642795E+04  0.13430642795E+04  0.50400001928E-02 0. -1.
       -1   -1    0    0    0  501  0.00000000000E+00  0.00000000000E+00 -0.11296690030E+04  0.11296690030E+04  0.50400001928E-02 0.  1.
    10030    2    1    2    0    0  0.00000000000E+00  0.00000000000E+00  0.21339527651E+03  0.24727332825E+04  0.24635081372E+04 0.  0.
        4    1    3    3  502    0 -0.66397144019E+03 -0.63812049283E+03  0.92778329537E+03  0.13072258002E+04  0.12699999809E+01 0. -1.
       -4    1    3    3    0  502  0.66397144019E+03  0.63812049283E+03 -0.71438801886E+03  0.11655074822E+04  0.12699999809E+01 0.  1.
</event>
<event>
 5   0  0.4664127E-05  0.2433939E+04  0.7818609E-02  0.8426906E-01
       -2   -1    0    0    0  501  0.00000000000E+00  0.00000000000E+00  0.12760165707E+04  0.12760165707E+04  0.25500000920E-02 0. -1.
        2   -1    0    0  501    0  0.00000000000E+00  0.00000000000E+00 -0.11606544925E+04  0.11606544925E+04  0.25500000920E-02 0.  1.
    10030    2    1    2    0    0  0.00000000000E+00  0.00000000000E+00  0.11536207822E+03  0.24366710632E+04  0.24339386724E+04 0.  0.
        4    1    3    3  502    0 -0.51734970606E+03  0.87257941748E+03 -0.61535873649E+03  0.11864710471E+04  0.12699999809E+01 0.  1.
       -4    1    3    3    0  502  0.51734970606E+03 -0.87257941748E+03  0.73072081471E+03  0.12502000160E+04  0.12699999809E+01 0. -1.
</event>
<event>
 5   0  0.1672125E-05  0.2321093E+04  0.7818609E-02  0.8469651E-01
        3   -1    0    0  501    0  0.00000000000E+00  0.00000000000E+00  0.17207713355E+04  0.17207713385E+04  0.10100000352E+00 0. -1.
       -3   -1    0    0    0  501  0.00000000000E+00  0.00000000000E+00 -0.78271202716E+03  0.78271203368E+03  0.10100000352E+00 0.  1.
    10030    2    1    2    0    0  0.00000000000E+00  0.00000000000E+00  0.93805930834E+03  0.25034833721E+04  0.23210932184E+04 0.  0.
        4    1    3    3  502    0 -0.10573700384E+04 -0.74318736272E+02  0.97872222275E+03  0.14427243240E+04  0.12699999809E+01 0. -1.
       -4    1    3    3    0  502  0.10573700384E+04  0.74318736272E+02 -0.40662914419E+02  0.10607590482E+04  0.12699999809E+01 0.  1.
</event>
<event>
 5   0  0.2149920E-05  0.2364137E+04  0.7818609E-02  0.8453053E-01
        1   -1    0    0  501    0  0.00000000000E+00  0.00000000000E+00  0.25792073419E+04  0.25792073419E+04  0.50400001928E-02 0. -1.
       -1   -1    0    0    0  501  0.00000000000E+00  0.00000000000E+00 -0.54175012608E+03  0.54175012610E+03  0.50400001928E-02 0.  1.
    10030    2    1    2    0    0  0.00000000000E+00  0.00000000000E+00  0.20374572159E+04  0.31209574680E+04  0.23641369696E+04 0.  0.
        5    1    3    3  502    0  0.82686037402E+03  0.84328606060E+03  0.95359469993E+03  0.15179573116E+04  0.46999998093E+01 0. -1.
       -5    1    3    3    0  502 -0.82686037402E+03 -0.84328606060E+03  0.10838625159E+04  0.16030001564E+04  0.46999998093E+01 0.  1.
</event>
<event>
 5   0  0.2065692E-05  0.2474577E+04  0.7818609E-02  0.8412099E-01
        1   -1    0    0  501    0  0.00000000000E+00  0.00000000000E+00  0.20536199275E+04  0.20536199275E+04  0.50400001928E-02 0.  1.
       -1   -1    0    0    0  501  0.00000000000E+00  0.00000000000E+00 -0.74545551165E+03  0.74545551167E+03  0.50400001928E-02 0. -1.
    10030    2    1    2    0    0  0.00000000000E+00  0.00000000000E+00  0.13081644158E+04  0.27990754391E+04  0.24745765648E+04 0.  0.
        3    1    3    3  502    0 -0.10795407709E+04 -0.21757028757E+03  0.12920825620E+04  0.16977109481E+04  0.10100000352E+00 0.  1.
       -3    1    3    3    0  502  0.10795407709E+04  0.21757028757E+03  0.16081853842E+02  0.11013644911E+04  0.10100000352E+00 0. -1.
</event>
<event>
 5   0  0.4914005E-05  0.2469578E+04  0.7818609E-02  0.8413904E-01
        2   -1    0    0  501    0  0.00000000000E+00  0.00000000000E+00  0.19982129531E+04  0.19982129531E+04  0.25500000920E-02 0. -1.
       -2   -1    0    0    0  501  0.00000000000E+00  0.00000000000E+00 -0.76303399971E+03  0.76303399971E+03  0.25500000920E-02 0.  1.
    10030    2    1    2    0    0  0.00000000000E+00  0.00000000000E+00  0.12351789534E+04  0.27612469528E+04  0.24695784433E+04 0.  0.
        2    1    3    3  502    0 -0.48500820462E+02 -0.67593590124E+03  0.17717110507E+04  0.18968926484E+04  0.25500000920E-02 0. -1.
       -2    1    3    3    0  502  0.48500820462E+02  0.67593590124E+03 -0.53653209732E+03  0.86435430446E+03  0.25500000920E-02 0.  1.
</event>
<event>
 5   0  0.2090039E-05  0.2392113E+04  0.7818609E-02  0.8442462E-01
        1   -1    0    0  501    0  0.00000000000E+00  0.00000000000E+00  0.64956727969E+03  0.64956727971E+03  0.50400001928E-02 0.  1.
       -1   -1    0    0    0  501  0.00000000000E+00  0.00000000000E+00 -0.22023145434E+04  0.22023145434E+04  0.50400001928E-02 0. -1.
    10030    2    1    2    0    0  0.00000000000E+00  0.00000000000E+00 -0.15527472637E+04  0.28518818231E+04  0.23921132640E+04 0.  0.
        1    1    3    3  502    0  0.51552765509E+03 -0.30912360145E+03  0.45640301805E+03  0.75473828514E+03  0.50400001928E-02 0.  1.
       -1    1    3    3    0  502 -0.51552765509E+03  0.30912360145E+03 -0.20091502817E+04  0.20971435379E+04  0.50400001928E-02 0. -1.
</event>
<event>
 5   0  0.4914005E-05  0.2134509E+04  0.7818609E-02  0.8546192E-01
        2   -1    0    0  501    0  0.00000000000E+00  0.00000000000E+00  0.16565634348E+04  0.16565634348E+04  0.25500000920E-02 0.  1.
       -2   -1    0    0    0  501  0.00000000000E+00  0.00000000000E+00 -0.68758746420E+03  0.68758746421E+03  0.25500000920E-02 0. -1.
    10030    2    1    2    0    0  0.00000000000E+00  0.00000000000E+00  0.96897597057E+03  0.23441508990E+04  0.21345090784E+04 0.  0.
        2    1    3    3  502    0 -0.77116446158E+03 -0.13361623623E+03 -0.31236881239E+03  0.84268748676E+03  0.25500000920E-02 0. -1.
       -2    1    3    3    0  502  0.77116446158E+03  0.13361623623E+03  0.12813447830E+04  0.15014634122E+04  0.25500000920E-02 0.  1.
</event>
<event>
 5   0  0.4914005E-05  0.2406442E+04  0.7818609E-02  0.8437096E-01
       -2   -1    0    0    0  501  0.00000000000E+00  0.00000000000E+00  0.64199958986E+03  0.64199958987E+03  0.25500000920E-02 0.  1.
        2   -1    0    0  501    0  0.00000000000E+00  0.00000000000E+00 -0.22550494964E+04  0.22550494964E+04  0.25500000920E-02 0. -1.
    10030    2    1    2    0    0  0.00000000000E+00  0.00000000000E+00 -0.16130499066E+04  0.28970490863E+04  0.24064420640E+04 0.  0.
        2    1    3    3  502    0  0.41177293742E+03  0.10827399804E+04 -0.41483506792E+03  0.12304352688E+04  0.25500000920E-02 0.  1.
       -2    1    3    3    0  502 -0.41177293742E+03 -0.10827399804E+04 -0.11982148386E+04  0.16666138175E+04  0.25500000920E-02 0. -1.
</event>
<event>
 5   0  0.2065692E-05  0.2199262E+04  0.7818609E-02  0.8518735E-01
        1   -1    0    0  501    0  0.00000000000E+00  0.00000000000E+00  0.15521128121E+04  0.15521128121E+04  0.50400001928E-02 0.  1.
       -1   -1    0    0    0  501  0.00000000000E+00  0.00000000000E+00 -0.77905990078E+03  0.77905990080E+03  0.50400001928E-02 0. -1.
    10030    2    1    2    0    0  0.00000000000E+00  0.00000000000E+00  0.77305291134E+03  0.23311727129E+04  0.21992624704E+04 0.  0.
        3    1    3    3  502    0 -0.16897122833E+03 -0.10590176690E+04  0.64425436841E+03  0.12510529168E+04  0.10100000352E+00 0. -1.
       -3    1    3    3    0  502  0.16897122833E+03  0.10590176690E+04  0.12879854293E+03  0.10801197961E+04  0.10100000352E+00 0.  1.
</event>
<event>
 5   0  0.2090039E-05  0.2421844E+04  0.7818609E-02  0.8431370E-01
        1   -1    0    0  501    0  0.00000000000E+00  0.00000000000E+00  0.28793301837E+04  0.28793301837E+04  0.50400001928E-02 0.  1.
       -1   -1    0    0    0  501  0.00000000000E+00  0.00000000000E+00 -0.50926172454E+03  0.50926172456E+03  0.50400001928E-02 0. -1.
    10030    2    1    2    0    0  0.00000000000E+00  0.00000000000E+00  0.23700684591E+04  0.33885919082E+04  0.24218444664E+04 0.  0.
        1    1    3    3  502    0  0.79907984373E+03 -0.41602098936E+03  0.52883271809E+02  0.90244041393E+03  0.50400001928E-02 0. -1.
       -1    1    3    3    0  502 -0.79907984373E+03  0.41602098936E+03  0.23171851873E+04  0.24861514943E+04  0.50400001928E-02 0.  1.
</event>
<event>
 5   0  0.2065692E-05  0.2199159E+04  0.7818609E-02  0.8518778E-01
       -1   -1    0    0    0  501  0.00000000000E+00  0.00000000000E+00  0.80149945961E+03  0.80149945962E+03  0.50400001928E-02 0.  1.
        1   -1    0    0  501    0  0.00000000000E+00  0.00000000000E+00 -0.15085165777E+04  0.15085165777E+04  0.50400001928E-02 0. -1.
    10030    2    1    2    0    0  0.00000000000E+00  0.00000000000E+00 -0.70701711808E+03  0.23100160373E+04  0.21991591319E+04 0.  0.
        3    1    3    3  502    0 -0.16156563201E+03 -0.95309033999E+03 -0.90393734948E+03  0.13234754972E+04  0.10100000352E+00 0. -1.
       -3    1    3    3    0  502  0.16156563201E+03  0.95309033999E+03  0.19692023140E+03  0.98654054015E+03  0.10100000352E+00 0.  1.
</event>
<event>
 5   0  0.1672125E-05  0.2420498E+04  0.7818609E-02  0.8431869E-01
        3   -1    0    0  501    0  0.00000000000E+00  0.00000000000E+00  0.84543665331E+03  0.84543665935E+03  0.10100000352E+00 0.  1.
       -3   -1    0    0    0  501  0.00000000000E+00  0.00000000000E+00 -0.17324811491E+04  0.17324811521E+04  0.10100000352E+00 0. -1.
    10030    2    1    2    0    0  0.00000000000E+00  0.00000000000E+00 -0.88704449581E+03  0.25779178114E+04  0.24204983588E+04 0.  0.
        4    1    3    3  502    0 -0.42512874534E+03 -0.41341127981E+03  0.68010741872E+03  0.90232535723E+03  0.12699999809E+01 0.  1.
       -4    1    3    3    0  502  0.42512874534E+03  0.41341127981E+03 -0.15671519145E+04  0.16755924542E+04  0.12699999809E+01 0. -1.
</event>
<event>
 5   0  0.2057599E-05  0.2337745E+04  0.7818609E-02  0.8463186E-01
        1   -1    0    0  501    0  0.00000000000E+00  0.00000000000E+00  0.17201097069E+04  0.17201097069E+04  0.50400001928E-02 0.  1.
       -1   -1    0    0    0  501  0.00000000000E+00  0.00000000000E+00 -0.79428797727E+03  0.79428797729E+03  0.50400001928E-02 0. -1.
    10030    2    1    2    0    0  0.00000000000E+00  0.00000000000E+00  0.92582172963E+03  0.25143976842E+04  0.23377446052E+04 0.  0.
        4    1    3    3  502    0 -0.86410003085E+02  0.55204428380E+03 -0.64133482243E+03  0.85060657607E+03  0.12699999809E+01 0. -1.
       -4    1    3    3    0  502  0.86410003085E+02 -0.55204428380E+03  0.15671565521E+04  0.16637911081E+04  0.12699999809E+01 0.  1.
</event>
<event>
 5   0  0.2057599E-05  0.2379342E+04  0.7818609E-02  0.8447278E-01
        1   -1    0    0  501    0  0.00000000000E+00  0.00000000000E+00  0.99227538928E+03  0.99227538930E+03  0.50400001928E-02 0. -1.
       -1   -1    0    0    0  501  0.00000000000E+00  0.00000000000E+00 -0.14263347841E+04  0.14263347841E+04  0.50400001928E-02 0.  1.
    10030    2    1    2    0    0  0.00000000000E+00  0.00000000000E+00 -0.43405939481E+03  0.24186101734E+04  0.23793418444E+04 0.  0.
        4    1    3    3  502    0  0.60915511147E+03 -0.89477124127E+03 -0.71876447742E+03  0.12993496492E+04  0.12699999809E+01 0.  1.
       -4    1    3    3    0  502 -0.60915511147E+03  0.89477124127E+03  0.28470508261E+03  0.11192605242E+04  0.12699999809E+01 0. -1.
</event>
<event>
 5   0  0.4856882E-05  0.2403068E+04  0.7818609E-02  0.8438356E-01
        2   -1    0    0  501    0  0.00000000000E+00  0.00000000000E+00  0.27480364017E+04  0.27480364017E+04  0.25500000920E-02 0. -1.
       -2   -1    0    0    0  501  0.00000000000E+00  0.00000000000E+00 -0.52535114837E+03  0.52535114837E+03  0.25500000920E-02 0.  1.
    10030    2    1    2    0    0  0.00000000000E+00  0.00000000000E+00  0.22226852533E+04  0.32733875501E+04  0.24030681051E+04 0.  0.
        1    1    3    3  502    0  0.18599602652E+03 -0.52602088565E+03  0.25608808230E+04  0.26209546130E+04  0.50400001928E-02 0. -1.
       -1    1    3    3    0  502 -0.18599602652E+03  0.52602088565E+03 -0.33819556963E+03  0.65243293706E+03  0.50400001928E-02 0.  1.
</event>
<event>
 5   0  0.4756705E-05  0.2246890E+04  0.7818609E-02  0.8499161E-01
       -2   -1    0    0    0  501  0.00000000000E+00  0.00000000000E+00  0.59549747732E+03  0.59549747732E+03  0.25500000920E-02 0. -1.
        2   -1    0    0  501    0  0.00000000000E+00  0.00000000000E+00 -0.21194531128E+04  0.21194531128E+04  0.25500000920E-02 0.  1.
    10030    2    1    2    0    0  0.00000000000E+00  0.00000000000E+00 -0.15239556355E+04  0.27149505902E+04  0.22468902795E+04 0.  0.
        3    1    3    3  502    0 -0.69261647022E+03 -0.77044261491E+03 -0.23691039764E+03  0.10627445339E+04  0.10100000352E+00 0. -1.
       -3    1    3    3    0  502  0.69261647022E+03  0.77044261491E+03 -0.12870452379E+04  0.16522060562E+04  0.10100000352E+00 0.  1.
</event>
<event>
 5   0  0.2149920E-05  0.2413950E+04  0.7818609E-02  0.8434299E-01
       -1   -1    0    0    0  501  0.00000000000E+00  0.00000000000E+00  0.11498157370E+04  0.11498157370E+04  0.50400001928E-02 0.  1.
        1   -1    0    0  501    0  0.00000000000E+00  0.00000000000E+00 -0.12669762226E+04  0.12669762226E+04  0.50400001928E-02 0. -1.
    10030    2    1    2    0    0  0.00000000000E+00  0.00000000000E+00 -0.11716048559E+03  0.24167919596E+04  0.24139504545E+04 0.  0.
        5    1    3    3  502    0 -0.75049272034E+03  0.94515587720E+03 -0.73024759415E+02  0.12090962166E+04  0.46999998093E+01 0. -1.
       -5    1    3    3    0  502  0.75049272034E+03 -0.94515587720E+03 -0.44135726172E+02  0.12076957431E+04  0.46999998093E+01 0.  1.
</event>
<event>
 5   0  0.4914005E-05  0.2428135E+04  0.7818609E-02  0.8429045E-01
        2   -1    0    0  501    0  0.00000000000E+00  0.00000000000E+00  0.92998122326E+03  0.92998122326E+03  0.25500000920E-02 0. -1.
       -2   -1    0    0    0  501  0.00000000000E+00  0.00000000000E+00 -0.15849351785E+04  0.15849351785E+04  0.25500000920E-02 0.  1.
    10030    2    1    2    0    0  0.00000000000E+00  0.00000000000E+00 -0.65495395528E+03  0.25149164018E+04  0.24281350507E+04 0.  0.
        2    1    3    3  502    0  0.91440340223E+02 -0.10022043680E+04  0.37590026626E+03  0.10742792660E+04  0.25500000920E-02 0. -1.
       -2    1    3    3    0  502 -0.91440340223E+02  0.10022043680E+04 -0.10308542215E+04  0.14406371358E+04  0.25500000920E-02 0.  1.
</event>
<event>
 5   0  0.4664127E-05  0.2411319E+04  0.7818609E-02  0.8435278E-01
        2   -1    0    0  501    0  0.00000000000E+00  0.00000000000E+00  0.78023120701E+03  0.78023120702E+03  0.25500000920E-02 0. -1.
       -2   -1    0    0    0  501  0.00000000000E+00  0.00000000000E+00 -0.18630571480E+04  0.18630571480E+04  0.25500000920E-02 0.  1.
    10030    2    1    2    0    0  0.00000000000E+00  0.00000000000E+00 -0.10828259410E+04  0.26432883550E+04  0.24113194125E+04 0.  0.
        4    1    3    3  502    0 -0.18620142714E+03 -0.22296073396E+03  0.74129620719E+03  0.79618097192E+03  0.12699999809E+01 0. -1.
       -4    1    3    3    0  502  0.18620142714E+03  0.22296073396E+03 -0.18241221482E+04  0.18471073831E+04  0.12699999809E+01 0.  1.
</event>
<event>
 5   0  0.2057599E-05  0.2385578E+04  0.7818609E-02  0.8444923E-01
       -1   -1    0    0    0  501  0.00000000000E+00  0.00000000000E+00  0.53355880021E+03  0.53355880024E+03  0.50400001928E-02 0.  1.
        1   -1    0    0  501    0  0.00000000000E+00  0.00000000000E+00 -0.26665215526E+04  0.26665215526E+04  0.50400001928E-02 0. -1.
    10030    2    1    2    0    0  0.00000000000E+00  0.00000000000E+00 -0.21329627524E+04  0.32000803528E+04  0.23855783705E+04 0.  0.
        4    1    3    3  502    0  0.38339448461E+03  0.31642900733E+03 -0.25209412541E+04  0.25694873160E+04  0.12699999809E+01 0. -1.
       -4    1    3    3    0  502 -0.38339448461E+03 -0.31642900733E+03  0.38797850168E+03  0.63059303689E+03  0.12699999809E+01 0.  1.
</event>
<event>
 5   0  0.4713971E-05  0.2388996E+04  0.7818609E-02  0.8443635E-01
        2   -1    0    0  501    0  0.00000000000E+00  0.00000000000E+00  0.16849751715E+04  0.16849751715E+04  0.25500000920E-02 0.  1.
       -2   -1    0    0    0  501  0.00000000000E+00  0.00000000000E+00 -0.84679296874E+03  0.84679296874E+03  0.25500000920E-02 0. -1.
    10030    2    1    2    0    0  0.00000000000E+00  0.00000000000E+00  0.83818220278E+03  0.25317681403E+04  0.23889957118E+04 0.  0.
        5    1    3    3  502    0  0.97053597721E+03 -0.51433927719E+03  0.91652297770E+03  0.14305668225E+04  0.46999998093E+01 0.  1.
       -5    1    3    3    0  502 -0.97053597721E+03  0.51433927719E+03 -0.78340774918E+02  0.11012013177E+04  0.46999998093E+01 0. -1.
</event>
<event>
 5   0  0.4856882E-05  0.2383301E+04  0.7818609E-02  0.8445782E-01
       -2   -1    0    0    0  501  0.00000000000E+00  0.00000000000E+00  0.10430341432E+04  0.10430341432E+04  0.25500000920E-02 0.  1.
        2   -1    0    0  501    0  0.00000000000E+00  0.00000000000E+00 -0.13614428372E+04  0.13614428372E+04  0.25500000920E-02 0. -1.
    10030    2    1    2    0    0  0.00000000000E+00  0.00000000000E+00 -0.31840869398E+03  0.24044769804E+04  0.23833013768E+04 0.  0.
        1    1    3    3  502    0 -0.10351660434E+03 -0.23186999134E+03  0.10154220276E+04  0.10466906297E+04  0.50400001928E-02 0.  1.
       -1    1    3    3    0  502  0.10351660434E+03  0.23186999134E+03 -0.13338307215E+04  0.13577863506E+04  0.50400001928E-02 0. -1.
</event>
<event>
 5   0  0.2057599E-05  0.2446177E+04  0.7818609E-02  0.8422415E-01
       -1   -1    0    0    0  501  0.00000000000E+00  0.00000000000E+00  0.15192567769E+04  0.15192567769E+04  0.50400001928E-02 0.  1.
        1   -1    0    0  501    0  0.00000000000E+00  0.00000000000E+00 -0.98465642514E+03  0.98465642516E+03  0.50400001928E-02 0. -1.
    10030    2    1    2    0    0  0.00000000000E+00  0.00000000000E+00  0.53460035174E+03  0.25039132020E+04  0.24461773826E+04 0.  0.
        4    1    3    3  502    0 -0.72190956800E+03  0.72616226386E+03  0.95202770226E+03  0.13981499979E+04  0.12699999809E+01 0.  1.
       -4    1    3    3    0  502  0.72190956800E+03 -0.72616226386E+03 -0.41742735051E+03  0.11057632042E+04  0.12699999809E+01 0. -1.
</event>
<event>
 5   0  0.2065692E-05  0.2374546E+04  0.7818609E-02  0.8449095E-01
        1   -1    0    0  501    0  0.00000000000E+00  0.00000000000E+00  0.77131809646E+03  0.77131809648E+03  0.50400001928E-02 0.  1.
       -1   -1    0    0    0  501  0.00000000000E+00  0.00000000000E+00 -0.18275439140E+04  0.18275439140E+04  0.50400001928E-02 0. -1.
    10030    2    1    2    0    0  0.00000000000E+00  0.00000000000E+00 -0.10562258176E+04  0.25988620105E+04  0.23745464350E+04 0.  0.
        3    1    3    3  502    0  0.10854800556E+03 -0.97675417335E+03 -0.12572169386E+04  0.15957524324E+04  0.10100000352E+00 0. -1.
       -3    1    3    3    0  502 -0.10854800556E+03  0.97675417335E+03  0.20099112107E+03  0.10031095781E+04  0.10100000352E+00 0.  1.
</event>
<event>
 5   0  0.4664127E-05  0.2407502E+04  0.7818609E-02  0.8436700E-01
        2   -1    0    0  501    0  0.00000000000E+00  0.00000000000E+00  0.14706714972E+04  0.14706714972E+04  0.25500000920E-02 0.  1.
       -2   -1    0    0    0  501  0.00000000000E+00  0.00000000000E+00 -0.98527563729E+03  0.98527563729E+03  0.25500000920E-02 0. -1.
    10030    2    1    2    0    0  0.00000000000E+00  0.00000000000E+00  0.48539585992E+03  0.24559471345E+04  0.24075022714E+04 0.  0.
        4    1    3    3  502    0 -0.11395210541E+04  0.28886412275E+03 -0.21481230336E+02  0.11757609325E+04  0.12699999809E+01 0. -1.
       -4    1    3    3    0  502  0.11395210541E+04 -0.28886412275E+03  0.50687709025E+03  0.12801862020E+04  0.12699999809E+01 0.  1.
</event>
<event>
 5   0  0.4756705E-05  0.2379104E+04  0.7818609E-02  0.8447368E-01
        2   -1    0    0  501    0  0.00000000000E+00  0.00000000000E+00  0.13685451455E+04  0.13685451455E+04  0.25500000920E-02 0.  1.
       -2   -1    0    0    0  501  0.00000000000E+00  0.00000000000E+00 -0.10339695943E+04  0.10339695943E+04  0.25500000920E-02 0. -1.
    10030    2    1    2    0    0  0.00000000000E+00  0.00000000000E+00  0.33457555124E+03  0.24025147398E+04  0.23791040909E+04 0.  0.
        3    1    3    3  502    0 -0.11107431717E+04 -0.55913681335E+02 -0.25895247557E+03  0.11418989133E+04  0.10100000352E+00 0. -1.
       -3    1    3    3    0  502  0.11107431717E+04  0.55913681335E+02  0.59352802681E+03  0.12606158265E+04  0.10100000352E+00 0.  1.
</event>
<event>
 5   0  0.4914005E-05  0.2378636E+04  0.7818609E-02  0.8447545E-01
       -2   -1    0    0    0  501  0.00000000000E+00  0.00000000000E+00  0.71853373526E+03  0.71853373526E+03  0.25500000920E-02 0. -1.
        2   -1    0    0  501    0  0.00000000000E+00  0.00000000000E+00 -0.19685610318E+04  0.19685610318E+04  0.25500000920E-02 0.  1.
    10030    2    1    2    0    0  0.00000000000E+00  0.00000000000E+00 -0.12500272966E+04  0.26870947671E+04  0.23786361734E+04 0.  0.
        2    1    3    3  502    0 -0.87916806223E+03 -0.51859837237E+03  0.64550223946E+02  0.10227646283E+04  0.25500000920E-02 0. -1.
       -2    1    3    3    0  502  0.87916806223E+03  0.51859837237E+03 -0.13145775205E+04  0.16643301388E+04  0.25500000920E-02 0.  1.
</event>
<event>
 5   0  0.4914005E-05  0.2348425E+04  0.7818609E-02  0.8459069E-01
        2   -1    0    0  501    0  0.00000000000E+00  0.00000000000E+00  0.20904161737E+04  0.20904161737E+04  0.25500000920E-02 0. -1.
       -2   -1    0    0    0  501  0.00000000000E+00  0.00000000000E+00 -0.65956942920E+03  0.65956942920E+03  0.25500000920E-02 0.  1.
    10030    2    1    2    0    0  0.00000000000E+00  0.00000000000E+00  0.14308467445E+04  0.27499856029E+04  0.23484246656E+04 0.  0.
        2    1    3    3  502    0  0.61233111353E+03 -0.14188714050E+03  0.18768282148E+04  0.19792840880E+04  0.25500000920E-02 0. -1.
       -2    1    3    3    0  502 -0.61233111353E+03  0.14188714050E+03 -0.44598147027E+03  0.77070151490E+03  0.25500000920E-02 0.  1.
</event>
<event>
 5   0  0.4664127E-05  0.2412496E+04  0.7818609E-02  0.8434840E-01
        2   -1    0    0  501    0  0.00000000000E+00  0.00000000000E+00  0.97208768159E+03  0.97208768160E+03  0.25500000920E-02 0.  1.
       -2   -1    0    0    0  501  0.00000000000E+00  0.00000000000E+00 -0.14968132026E+04  0.14968132026E+04  0.25500000920E-02 0. -1.
    10030    2    1    2    0    0  0.00000000000E+00  0.00000000000E+00 -0.52472552102E+03  0.24689008842E+04  0.24124955344E+04 0.  0.
        4    1    3    3  502    0  0.57180119243E+03  0.47457542666E+03  0.71003916432E+03  0.10277819161E+04  0.12699999809E+01 0.  1.
       -4    1    3    3    0  502 -0.57180119243E+03 -0.47457542666E+03 -0.12347646853E+04  0.14411189681E+04  0.12699999809E+01 0. -1.
</event>
<event>
 5   0  0.4713971E-05  0.2391606E+04  0.7818609E-02  0.8442653E-01
       -2   -1    0    0    0  501  0.00000000000E+00  0.00000000000E+00  0.11493164028E+04  0.11493164028E+04  0.25500000920E-02 0. -1.
        2   -1    0    0  501    0  0.00000000000E+00  0.00000000000E+00 -0.12441695006E+04  0.12441695006E+04  0.25500000920E-02 0.  1.
    10030    2    1    2    0    0  0.00000000000E+00  0.00000000000E+00 -0.94853097800E+02  0.23934859034E+04  0.23916056656E+04 0.  0.
        5    1    3    3  502    0  0.99772642907E+02 -0.11346682337E+04  0.31685926975E+03  0.11823064187E+04  0.46999998093E+01 0. -1.
       -5    1    3    3    0  502 -0.99772642907E+02  0.11346682337E+04 -0.41171236755E+03  0.12111794848E+04  0.46999998093E+01 0.  1.
</event>
<event>
 5   0  0.4713971E-05  0.2255538E+04  0.7818609E-02  0.8495661E-01
        2   -1    0    0  501    0  0.00000000000E+00  0.00000000000E+00  0.16887215080E+04  0.16887215080E+04  0.25500000920E-02 0.  1.
       -2   -1    0    0    0  501  0.00000000000E+00  0.00000000000E+00 -0.75315147720E+03  0.75315147721E+03  0.25500000920E-02 0. -1.
    10030    2    1    2    0    0  0.00000000000E+00  0.00000000000E+00  0.93557003082E+03  0.24418729852E+04  0.22555381605E+04 0.  0.
        5    1    3    3  502    0  0.91227040030E+03 -0.23762339344E+03 -0.20233252476E+03  0.96419017883E+03  0.46999998093E+01 0. -1.
       -5    1    3    3    0  502 -0.91227040030E+03  0.23762339344E+03  0.11379025556E+04  0.14776828064E+04  0.46999998093E+01 0.  1.
</event>
<event>
 5   0  0.4756705E-05  0.2407182E+04  0.7818609E-02  0.8436820E-01
        2   -1    0    0  501    0  0.00000000000E+00  0.00000000000E+00  0.19646033406E+04  0.19646033406E+04  0.25500000920E-02 0.  1.
       -2   -1    0    0    0  501  0.00000000000E+00  0.00000000000E+00 -0.73736577455E+03  0.73736577456E+03  0.25500000920E-02 0. -1.
    10030    2    1    2    0    0  0.00000000000E+00  0.00000000000E+00  0.12272375661E+04  0.27019691152E+04  0.24071819740E+04 0.  0.
        3    1    3    3  502    0 -0.10509588141E+04 -0.14193658534E+03  0.12525063145E+04  0.16411680296E+04  0.10100000352E+00 0. -1.
       -3    1    3    3    0  502  0.10509588141E+04  0.14193658534E+03 -0.25268748467E+02  0.10608010856E+04  0.10100000352E+00 0.  1.
</event>
<event>
 5   0  0.2090039E-05  0.2107577E+04  0.7818609E-02  0.8557913E-01
        1   -1    0    0  501    0  0.00000000000E+00  0.00000000000E+00  0.15678537109E+04  0.15678537109E+04  0.50400001928E-02 0.  1.
       -1   -1    0    0    0  501  0.00000000000E+00  0.00000000000E+00 -0.70827439892E+03  0.70827439894E+03  0.50400001928E-02 0. -1.
    10030    2    1    2    0    0  0.00000000000E+00  0.00000000000E+00  0.85957931199E+03  0.22761281099E+04  0.21075774194E+04 0.  0.
        1    1    3    3  502    0  0.91139876725E+03 -0.52712271200E+03  0.47765793673E+03  0.11561415013E+04  0.50400001928E-02 0. -1.
       -1    1    3    3    0  502 -0.91139876725E+03  0.52712271200E+03  0.38192137526E+03  0.11199866086E+04  0.50400001928E-02 0.  1.
</event>
<event>
 5   0  0.2090039E-05  0.2424438E+04  0.7818609E-02  0.8430411E-01
       -1   -1    0    0    0  501  0.00000000000E+00  0.00000000000E+00  0.92996498133E+03  0.92996498135E+03  0.50400001928E-02 0. -1.
        1   -1    0    0  501    0  0.00000000000E+00  0.00000000000E+00 -0.15801399010E+04  0.15801399010E+04  0.50400001928E-02 0.  1.
    10030    2    1    2    0    0  0.00000000000E+00  0.00000000000E+00 -0.65017491965E+03  0.25101048823E+04  0.24244378924E+04 0.  0.
        1    1    3    3  502    0  0.13348970318E+03 -0.42645219633E+03 -0.14917557820E+04  0.15572463805E+04  0.50400001928E-02 0.  1.
       -1    1    3    3    0  502 -0.13348970318E+03  0.42645219633E+03  0.84158086232E+03  0.95285850181E+03  0.50400001928E-02 0. -1.
</event>
<event>
 5   0  0.4914005E-05  0.2253634E+04  0.7818609E-02  0.8496430E-01
        2   -1    0    0  501    0  0.00000000000E+00  0.00000000000E+00  0.54828979598E+03  0.54828979598E+03  0.25500000920E-02 0. -1.
       -2   -1    0    0    0  501  0.00000000000E+00  0.00000000000E+00 -0.23157773800E+04  0.23157773800E+04  0.25500000920E-02 0.  1.
    10030    2    1    2    0    0  0.00000000000E+00  0.00000000000E+00 -0.17674875840E+04  0.28640671760E+04  0.22536344932E+04 0.  0.
        2    1    3    3  502    0 -0.53565066010E+03  0.40712190552E+02 -0.21425670723E+04  0.22088849611E+04  0.25500000920E-02 0.  1.
       -2    1    3    3    0  502  0.53565066010E+03 -0.40712190552E+02  0.37507948829E+03  0.65518221486E+03  0.25500000920E-02 0. -1.
</event>
<event>
 5   0  0.4664127E-05  0.2450847E+04  0.7818609E-02  0.8420709E-01
       -2   -1    0    0    0  501  0.00000000000E+00  0.00000000000E+00  0.12402865001E+04  0.12402865001E+04  0.25500000920E-02 0. -1.
        2   -1    0    0  501    0  0.00000000000E+00  0.00000000000E+00 -0.12107387635E+04  0.12107387635E+04  0.25500000920E-02 0.  1.
    10030    2    1    2    0    0  0.00000000000E+00  0.00000000000E+00  0.29547736569E+02  0.24510252636E+04  0.24508471544E+04 0.  0.
        4    1    3    3  502    0 -0.28307589697E+03 -0.11863337964E+04 -0.10415277349E+03  0.12240789407E+04  0.12699999809E+01 0. -1.
       -4    1    3    3    0  502  0.28307589697E+03  0.11863337964E+04  0.13370051006E+03  0.12269463229E+04  0.12699999809E+01 0.  1.
</event>
<event>
 5   0  0.2149920E-05  0.2414046E+04  0.7818609E-02  0.8434264E-01
        1   -1    0    0  501    0  0.00000000000E+00  0.00000000000E+00  0.13126493240E+04  0.13126493240E+04  0.50400001928E-02 0.  1.
       -1   -1    0    0    0  501  0.00000000000E+00  0.00000000000E+00 -0.11098961837E+04  0.11098961838E+04  0.50400001928E-02 0. -1.
    10030    2    1    2    0    0  0.00000000000E+00  0.00000000000E+00  0.20275314025E+03  0.24225455077E+04  0.24140459609E+04 0.  0.
        5    1    3    3  502    0 -0.17336488459E+03 -0.22732861570E+03 -0.10754195868E+04  0.11127816768E+04  0.46999998093E+01 0. -1.
       -5    1    3    3    0  502  0.17336488459E+03  0.22732861570E+03  0.12781727270E+04  0.13097638309E+04  0.46999998093E+01 0.  1.
</event>
<event>
 5   0  0.4856882E-05  0.2405303E+04  0.7818609E-02  0.8437521E-01
        2   -1    0    0  501    0  0.00000000000E+00  0.00000000000E+00  0.20490458175E+04  0.20490458175E+04  0.25500000920E-02 0. -1.
       -2   -1    0    0    0  501  0.00000000000E+00  0.00000000000E+00 -0.70587529757E+03  0.70587529757E+03  0.25500000920E-02 0.  1.
    10030    2    1    2    0    0  0.00000000000E+00  0.00000000000E+00  0.13431705199E+04  0.27549211150E+04  0.24053031627E+04 0.  0.
        1    1    3    3  502    0 -0.43229131061E+03  0.45970953369E+03 -0.50102473280E+03  0.80575083959E+03  0.50400001928E-02 0.  1.
       -1    1    3    3    0  502  0.43229131061E+03 -0.45970953369E+03  0.18441952527E+04  0.19491702755E+04  0.50400001928E-02 0. -1.
</event>
<event>
 5   0  0.2149920E-05  0.2438621E+04  0.7818609E-02  0.8425184E-01
       -1   -1    0    0    0  501  0.00000000000E+00  0.00000000000E+00  0.11827670245E+04  0.11827670245E+04  0.50400001928E-02 0.  1.
        1   -1    0    0  501    0  0.00000000000E+00  0.00000000000E+00 -0.12569830181E+04  0.12569830182E+04  0.50400001928E-02 0. -1.
    10030    2    1    2    0    0  0.00000000000E+00  0.00000000000E+00 -0.74215993672E+02  0.24397500426E+04  0.24386209744E+04 0.  0.
        5    1    3    3  502    0 -0.87030602200E+01  0.23922569484E+03  0.11590170824E+04  0.11834894860E+04  0.46999998093E+01 0.  1.
       -5    1    3    3    0  502  0.87030602200E+01 -0.23922569484E+03 -0.12332330760E+04  0.12562605566E+04  0.46999998093E+01 0. -1.
</event>
<event>
 5   0  0.2057599E-05  0.2399980E+04  0.7818609E-02  0.8439511E-01
        1   -1    0    0  501    0  0.00000000000E+00  0.00000000000E+00  0.16565728359E+04  0.16565728359E+04  0.50400001928E-02 0.  1.
       -1   -1    0    0    0  501  0.00000000000E+00  0.00000000000E+00 -0.86925036780E+03  0.86925036781E+03  0.50400001928E-02 0. -1.
    10030    2    1    2    0    0  0.00000000000E+00  0.00000000000E+00  0.78732246813E+03  0.25258232037E+04  0.23999804557E+04 0.  0.
        4    1    3    3  502    0 -0.24220419486E+03  0.61872816067E+03 -0.65797747950E+03  0.93510608234E+03  0.12699999809E+01 0. -1.
       -4    1    3    3    0  502  0.24220419486E+03 -0.61872816067E+03  0.14452999476E+04  0.15907171214E+04  0.12699999809E+01 0.  1.
</event>
<event>
 5   0  0.2090039E-05  0.2362778E+04  0.7818609E-02  0.8453572E-01
        1   -1    0    0  501    0  0.00000000000E+00  0.00000000000E+00  0.15745342566E+04  0.15745342567E+04  0.50400001928E-02 0.  1.
       -1   -1    0    0    0  501  0.00000000000E+00  0.00000000000E+00 -0.88640788735E+03  0.88640788737E+03  0.50400001928E-02 0. -1.
    10030    2    1    2    0    0  0.00000000000E+00  0.00000000000E+00  0.68812636929E+03  0.24609421440E+04  0.23627776739E+04 0.  0.
        1    1    3    3  502    0 -0.92164448156E+03  0.73852374828E+03  0.31398959767E+03  0.12220619234E+04  0.50400001928E-02 0.  1.
       -1    1    3    3    0  502  0.92164448156E+03 -0.73852374828E+03  0.37413677162E+03  0.12388802206E+04  0.50400001928E-02 0. -1.
</event>
<event>
 5   0  0.2090039E-05  0.1868460E+04  0.7818609E-02  0.8670717E-01
       -1   -1    0    0    0  501  0.00000000000E+00  0.00000000000E+00  0.10430321818E+04  0.10430321819E+04  0.50400001928E-02 0. -1.
        1   -1    0    0  501    0  0.00000000000E+00  0.00000000000E+00 -0.83677715158E+03  0.83677715159E+03  0.50400001928E-02 0.  1.
    10030    2    1    2    0    0  0.00000000000E+00  0.00000000000E+00  0.20625503027E+03  0.18798093335E+04  0.18684597915E+04 0.  0.
        1    1    3    3  502    0  0.31957029069E+02  0.51182205981E+03 -0.68251435156E+03  0.85370305887E+03  0.50400001928E-02 0.  1.
       -1    1    3    3    0  502 -0.31957029069E+02 -0.51182205981E+03  0.88876938183E+03  0.10261062746E+04  0.50400001928E-02 0. -1.
</event>
<event>
 5   0  0.2090039E-05  0.2388526E+04  0.7818609E-02  0.8443812E-01
       -1   -1    0    0    0  501  0.00000000000E+00  0.00000000000E+00  0.11552819172E+04  0.11552819172E+04  0.50400001928E-02 0. -1.
        1   -1    0    0  501    0  0.00000000000E+00  0.00000000000E+00 -0.12345588549E+04  0.12345588549E+04  0.50400001928E-02 0.  1.
    10030    2    1    2    0    0  0.00000000000E+00  0.00000000000E+00 -0.79276937751E+02  0.23898407721E+04  0.23885255040E+04 0.  0.
        1    1    3    3  502    0  0.52369442143E+03 -0.15702322961E+03  0.10227142494E+04  0.11596795151E+04  0.50400001928E-02 0. -1.
       -1    1    3    3    0  502 -0.52369442143E+03  0.15702322961E+03 -0.11019911872E+04  0.12301612570E+04  0.50400001928E-02 0.  1.
</event>
<event>
 5   0  0.2139556E-05  0.2115585E+04  0.7818609E-02  0.8554409E-01
       -1   -1    0    0    0  501  0.00000000000E+00  0.00000000000E+00  0.12363785539E+04  0.12363785540E+04  0.50400001928E-02 0.  1.
        1   -1    0    0  501    0  0.00000000000E+00  0.00000000000E+00 -0.90500177647E+03  0.90500177648E+03  0.50400001928E-02 0. -1.
    10030    2    1    2    0    0  0.00000000000E+00  0.00000000000E+00  0.33137677748E+03  0.21413803304E+04  0.21155848248E+04 0.  0.
        2    1    3    3  502    0  0.12119897783E+03 -0.53536178308E+03 -0.74956218682E+03  0.92905592024E+03  0.25500000920E-02 0. -1.
       -2    1    3    3    0  502 -0.12119897783E+03  0.53536178308E+03  0.10809389643E+04  0.12123244102E+04  0.25500000920E-02 0.  1.
</event>
<event>
 5   0  0.2149920E-05  0.2319960E+04  0.7818609E-02  0.8470092E-01
       -1   -1    0    0    0  501  0.00000000000E+00  0.00000000000E+00  0.76375147499E+03  0.76375147501E+03  0.50400001928E-02 0.  1.
        1   -1    0    0  501    0  0.00000000000E+00  0.00000000000E+00 -0.17617695452E+04  0.17617695452E+04  0.50400001928E-02 0. -1.
    10030    2    1    2    0    0  0.00000000000E+00  0.00000000000E+00 -0.99801807022E+03  0.25255210202E+04  0.23199604210E+04 0.  0.
        5    1    3    3  502    0  0.11487544119E+04  0.10328357703E+03 -0.36467408045E+03  0.12096749443E+04  0.46999998093E+01 0.  1.
       -5    1    3    3    0  502 -0.11487544119E+04 -0.10328357703E+03 -0.63334398977E+03  0.13158460759E+04  0.46999998093E+01 0. -1.
</event>
<event>
 5   0  0.4756705E-05  0.2458294E+04  0.7818609E-02  0.8417996E-01
        2   -1    0    0  501    0  0.00000000000E+00  0.00000000000E+00  0.11422727168E+04  0.11422727168E+04  0.25500000920E-02 0. -1.
       -2   -1    0    0    0  501  0.00000000000E+00  0.00000000000E+00 -0.13226287348E+04  0.13226287348E+04  0.25500000920E-02 0.  1.
    10030    2    1    2    0    0  0.00000000000E+00  0.00000000000E+00 -0.18035601803E+03  0.24649014516E+04  0.24582943016E+04 0.  0.
        3    1    3    3  502    0 -0.24525980952E+02  0.11009082473E+04  0.45736863171E+03  0.11923869205E+04  0.10100000352E+00 0. -1.
       -3    1    3    3    0  502  0.24525980952E+02 -0.11009082473E+04 -0.63772464974E+03  0.12725145311E+04  0.10100000352E+00 0.  1.
</event>
<event>
 5   0  0.2065692E-05  0.2449915E+04  0.7818609E-02  0.8421049E-01
       -1   -1    0    0    0  501  0.00000000000E+00  0.00000000000E+00  0.82219591074E+03  0.82219591076E+03  0.50400001928E-02 0.  1.
        1   -1    0    0  501    0  0.00000000000E+00  0.00000000000E+00 -0.18250168381E+04  0.18250168381E+04  0.50400001928E-02 0. -1.
    10030    2    1    2    0    0  0.00000000000E+00  0.00000000000E+00 -0.10028209274E+04  0.26472127489E+04  0.24499154119E+04 0.  0.
        3    1    3    3  502    0  0.51200967449E+03 -0.84566430865E+03  0.28018071811E+03  0.10275228828E+04  0.10100000352E+00 0.  1.
       -3    1    3    3    0  502 -0.51200967449E+03  0.84566430865E+03 -0.12830016455E+04  0.16196898661E+04  0.10100000352E+00 0. -1.
</event>
<event>
 5   0  0.2139556E-05  0.2384274E+04  0.7818609E-02  0.8445415E-01
        1   -1    0    0  501    0  0.00000000000E+00  0.00000000000E+00  0.95154440942E+03  0.95154440944E+03  0.50400001928E-02 0. -1.
       -1   -1    0    0    0  501  0.00000000000E+00  0.00000000000E+00 -0.14935625223E+04  0.14935625223E+04  0.50400001928E-02 0.  1.
    10030    2    1    2    0    0  0.00000000000E+00  0.00000000000E+00 -0.54201811288E+03  0.24451069317E+04  0.23842743703E+04 0.  0.
        2    1    3    3  502    0 -0.10707848527E+04  0.19215775221E+03 -0.77097873921E+03  0.13333840477E+04  0.25500000920E-02 0.  1.
       -2    1    3    3    0  502  0.10707848527E+04 -0.19215775221E+03  0.22896062632E+03  0.11117228840E+04  0.25500000920E-02 0. -1.
</event>
<event>
 5   0  0.4713971E-05  0.2394842E+04  0.7818609E-02  0.8441437E-01
       -2   -1    0    0    0  501  0.00000000000E+00  0.00000000000E+00  0.93908185391E+03  0.93908185391E+03  0.25500000920E-02 0.  1.
        2   -1    0    0  501    0  0.00000000000E+00  0.00000000000E+00 -0.15268280921E+04  0.15268280921E+04  0.25500000920E-02 0. -1.
    10030    2    1    2    0    0  0.00000000000E+00  0.00000000000E+00 -0.58774623824E+03  0.24659099461E+04  0.23948415859E+04 0.  0.
        5    1    3    3  502    0 -0.71505732668E+03 -0.34260055295E+03 -0.12177809849E+04  0.14531671399E+04  0.46999998093E+01 0. -1.
       -5    1    3    3    0  502  0.71505732668E+03  0.34260055295E+03  0.63003474670E+03  0.10127428061E+04  0.46999998093E+01 0.  1.
</event>
<event>
 5   0  0.4756705E-05  0.2301141E+04  0.7818609E-02  0.8477471E-01
       -2   -1    0    0    0  501  0.00000000000E+00  0.00000000000E+00  0.84096443819E+03  0.84096443819E+03  0.25500000920E-02 0.  1.
        2   -1    0    0  501    0  0.00000000000E+00  0.00000000000E+00 -0.15741600414E+04  0.15741600414E+04  0.25500000920E-02 0. -1.
    10030    2    1    2    0    0  0.00000000000E+00  0.00000000000E+00 -0.73319560322E+03  0.24151244796E+04  0.23011411211E+04 0.  0.
        3    1    3    3  502    0 -0.10220514400E+04 -0.37133868918E+02 -0.91981693974E+03  0.13755112806E+04  0.10100000352E+00 0.  1.
       -3    1    3    3    0  502  0.10220514400E+04  0.37133868918E+02  0.18662133653E+03  0.10396131990E+04  0.10100000352E+00 0. -1.
</event>
<event>
 5   0  0.2090039E-05  0.2489870E+04  0.7818609E-02  0.8406603E-01
        1   -1    0    0  501    0  0.00000000000E+00  0.00000000000E+00  0.16315552867E+04  0.16315552867E+04  0.50400001928E-02 0. -1.
       -1   -1    0    0    0  501  0.00000000000E+00  0.00000000000E+00 -0.94992952423E+03  0.94992952425E+03  0.50400001928E-02 0.  1.
    10030    2    1    2    0    0  0.00000000000E+00  0.00000000000E+00  0.68162576246E+03  0.25814848109E+04  0.24898695044E+04 0.  0.
        1    1    3    3  502    0  0.40785649116E+03  0.94590945842E+03 -0.38403298413E+03  0.10993511513E+04  0.50400001928E-02 0.  1.
       -1    1    3    3    0  502 -0.40785649116E+03 -0.94590945842E+03  0.10656587466E+04  0.14821336597E+04  0.50400001928E-02 0. -1.
</event>
<event>
 5   0  0.4664127E-05  0.2451662E+04  0.7818609E-02  0.8420411E-01
        2   -1    0    0  501    0  0.00000000000E+00  0.00000000000E+00  0.13751481699E+04  0.13751481699E+04  0.25500000920E-02 0.  1.
       -2   -1    0    0    0  501  0.00000000000E+00  0.00000000000E+00 -0.10927272243E+04  0.10927272243E+04  0.25500000920E-02 0. -1.
    10030    2    1    2    0    0  0.00000000000E+00  0.00000000000E+00  0.28242094560E+03  0.24678753943E+04  0.24516621649E+04 0.  0.
        4    1    3    3  502    0 -0.10874388728E+04  0.37227748197E+03  0.57011085054E+03  0.12830205846E+04  0.12699999809E+01 0.  1.
       -4    1    3    3    0  502  0.10874388728E+04 -0.37227748197E+03 -0.28768990494E+03  0.11848548097E+04  0.12699999809E+01 0. -1.
</event>
<event>
 5   0  0.4856882E-05  0.2543596E+04  0.7818609E-02  0.8387617E-01
        2   -1    0    0  501    0  0.00000000000E+00  0.00000000000E+00  0.14553272320E+04  0.14553272320E+04  0.25500000920E-02 0. -1.
       -2   -1    0    0    0  501  0.00000000000E+00  0.00000000000E+00 -0.11114136674E+04  0.11114136674E+04  0.25500000920E-02 0.  1.
    10030    2    1    2    0    0  0.00000000000E+00  0.00000000000E+00  0.34391356454E+03  0.25667408994E+04  0.25435963329E+04 0.  0.
        1    1    3    3  502    0  0.58696028735E+03  0.55721905946E+02  0.13090835972E+04  0.14357322780E+04  0.50400001928E-02 0. -1.
       -1    1    3    3    0  502 -0.58696028735E+03 -0.55721905946E+02 -0.96517003265E+03  0.11310086214E+04  0.50400001928E-02 0.  1.
</event>
<event>
 5   0  0.4756705E-05  0.2507679E+04  0.7818609E-02  0.8400255E-01
       -2   -1    0    0    0  501  0.00000000000E+00  0.00000000000E+00  0.94406036612E+03  0.94406036613E+03  0.25500000920E-02 0.  1.
        2   -1    0    0  501    0  0.00000000000E+00  0.00000000000E+00 -0.16652680966E+04  0.16652680966E+04  0.25500000920E-02 0. -1.
    10030    2    1    2    0    0  0.00000000000E+00  0.00000000000E+00 -0.72120773043E+03  0.26093284627E+04  0.25076790935E+04 0.  0.
        3    1    3    3  502    0 -0.31428349600E+03 -0.11968447093E+04 -0.15016291340E+03  0.12464992117E+04  0.10100000352E+00 0.  1.
       -3    1    3    3    0  502  0.31428349600E+03  0.11968447093E+04 -0.57104481704E+03  0.13628292510E+04  0.10100000352E+00 0. -1.
</event>
<event>
 5   0  0.2149920E-05  0.2384822E+04  0.7818609E-02  0.8445208E-01
        1   -1    0    0  501    0  0.00000000000E+00  0.00000000000E+00  0.25408261142E+04  0.25408261142E+04  0.50400001928E-02 0. -1.
       -1   -1    0    0    0  501  0.00000000000E+00  0.00000000000E+00 -0.55959889132E+03  0.55959889134E+03  0.50400001928E-02 0.  1.
    10030    2    1    2    0    0  0.00000000000E+00  0.00000000000E+00  0.19812272229E+04  0.31004250056E+04  0.23848215670E+04 0.  0.
        5    1    3    3  502    0  0.39861422199E+03 -0.98765365678E+03  0.29356935491E+03  0.11047887128E+04  0.46999998093E+01 0.  1.
       -5    1    3    3    0  502 -0.39861422199E+03  0.98765365678E+03  0.16876578680E+04  0.19956362928E+04  0.46999998093E+01 0. -1.
</event>
<event>
 5   0  0.2139556E-05  0.2434329E+04  0.7818609E-02  0.8426762E-01
        1   -1    0    0  501    0  0.00000000000E+00  0.00000000000E+00  0.20646568531E+04  0.20646568531E+04  0.50400001928E-02 0.  1.
       -1   -1    0    0    0  501  0.00000000000E+00  0.00000000000E+00 -0.71754754934E+03  0.71754754936E+03  0.50400001928E-02 0. -1.
    10030    2    1    2    0    0  0.00000000000E+00  0.00000000000E+00  0.13471093038E+04  0.27822044025E+04  0.24343290371E+04 0.  0.
        2    1    3    3  502    0 -0.47646337436E+03 -0.87693072777E+03 -0.12276703778E+03  0.10055329900E+04  0.25500000920E-02 0. -1.
       -2    1    3    3    0  502  0.47646337436E+03  0.87693072777E+03  0.14698763416E+04  0.17766714125E+04  0.25500000920E-02 0.  1.
</event>
<event>
 5   0  0.2090039E-05  0.2388043E+04  0.7818609E-02  0.8443994E-01
       -1   -1    0    0    0  501  0.00000000000E+00  0.00000000000E+00  0.13012917678E+04  0.13012917678E+04  0.50400001928E-02 0. -1.
        1   -1    0    0  501    0  0.00000000000E+00  0.00000000000E+00 -0.10955935338E+04  0.10955935338E+04  0.50400001928E-02 0.  1.
    10030    2    1    2    0    0  0.00000000000E+00  0.00000000000E+00  0.20569823395E+03  0.23968853016E+04  0.23880425845E+04 0.  0.
        1    1    3    3  502    0  0.78926315557E+03  0.12118028785E+02 -0.79634976046E+03  0.11212743270E+04  0.50400001928E-02 0.  1.
       -1    1    3    3    0  502 -0.78926315557E+03 -0.12118028785E+02  0.10020479944E+04  0.12756109746E+04  0.50400001928E-02 0. -1.
</event>
<event>
 5   0  0.4914005E-05  0.2361596E+04  0.7818609E-02  0.8454023E-01
        2   -1    0    0  501    0  0.00000000000E+00  0.00000000000E+00  0.14228705935E+04  0.14228705935E+04  0.25500000920E-02 0. -1.
       -2   -1    0    0    0  501  0.00000000000E+00  0.00000000000E+00 -0.97990899810E+03  0.97990899811E+03  0.25500000920E-02 0.  1.
    10030    2    1    2    0    0  0.00000000000E+00  0.00000000000E+00  0.44296159538E+03  0.24027795916E+04  0.23615958144E+04 0.  0.
        2    1    3    3  502    0  0.82784895114E+03 -0.28829463157E+03  0.10263747065E+04  0.13497750623E+04  0.25500000920E-02 0. -1.
       -2    1    3    3    0  502 -0.82784895114E+03  0.28829463157E+03 -0.58341311116E+03  0.10530045293E+04  0.25500000920E-02 0.  1.
</event>
<event>
 5   0  0.4664127E-05  0.2395261E+04  0.7818609E-02  0.8441280E-01
       -2   -1    0    0    0  501  0.00000000000E+00  0.00000000000E+00  0.12216716945E+04  0.12216716945E+04  0.25500000920E-02 0. -1.
        2   -1    0    0  501    0  0.00000000000E+00  0.00000000000E+00 -0.11740620273E+04  0.11740620273E+04  0.25500000920E-02 0.  1.
    10030    2    1    2    0    0  0.00000000000E+00  0.00000000000E+00  0.47609667126E+02  0.23957337218E+04  0.23952606091E+04 0.  0.
        4    1    3    3  502    0  0.50608403223E+03  0.10570061388E+04 -0.22309146432E+03  0.11929603680E+04  0.12699999809E+01 0.  1.
       -4    1    3    3    0  502 -0.50608403223E+03 -0.10570061388E+04  0.27070113145E+03  0.12027733538E+04  0.12699999809E+01 0. -1.
</event>
<event>
 5   0  0.2139556E-05  0.2389175E+04  0.7818609E-02  0.8443567E-01
       -1   -1    0    0    0  501  0.00000000000E+00  0.00000000000E+00  0.88529094506E+03  0.88529094507E+03  0.50400001928E-02 0.  1.
        1   -1    0    0  501    0  0.00000000000E+00  0.00000000000E+00 -0.16119438185E+04  0.16119438186E+04  0.50400001928E-02 0. -1.
    10030    2    1    2    0    0  0.00000000000E+00  0.00000000000E+00 -0.72665287349E+03  0.24972347636E+04  0.23891749760E+04 0.  0.
        2    1    3    3  502    0 -0.39806586909E+03 -0.10797951244E+04 -0.28485401412E+02  0.11511843315E+04  0.25500000920E-02 0. -1.
       -2    1    3    3    0  502  0.39806586909E+03  0.10797951244E+04 -0.69816747208E+03  0.13460504322E+04  0.25500000920E-02 0.  1.
</event>
<event>
 5   0  0.2149920E-05  0.2502113E+04  0.7818609E-02  0.8402233E-01
       -1   -1    0    0    0  501  0.00000000000E+00  0.00000000000E+00  0.98475304967E+03  0.98475304968E+03  0.50400001928E-02 0. -1.
        1   -1    0    0  501    0  0.00000000000E+00  0.00000000000E+00 -0.15893760251E+04  0.15893760251E+04  0.50400001928E-02 0.  1.
    10030    2    1    2    0    0  0.00000000000E+00  0.00000000000E+00 -0.60462297543E+03  0.25741290748E+04  0.25021134169E+04 0.  0.
        5    1    3    3  502    0 -0.51656182345E+03  0.64906249036E+03 -0.12657494611E+04  0.15133611671E+04  0.46999998093E+01 0.  1.
       -5    1    3    3    0  502  0.51656182345E+03 -0.64906249036E+03  0.66112648569E+03  0.10607679077E+04  0.46999998093E+01 0. -1.
</event>
<event>
 5   0  0.2139556E-05  0.2516908E+04  0.7818609E-02  0.8396987E-01
       -1   -1    0    0    0  501  0.00000000000E+00  0.00000000000E+00  0.90231179865E+03  0.90231179866E+03  0.50400001928E-02 0. -1.
        1   -1    0    0  501    0  0.00000000000E+00  0.00000000000E+00 -0.17551657307E+04  0.17551657307E+04  0.50400001928E-02 0.  1.
    10030    2    1    2    0    0  0.00000000000E+00  0.00000000000E+00 -0.85285393207E+03  0.26574775294E+04  0.25169082204E+04 0.  0.
        2    1    3    3  502    0 -0.65706144870E+03  0.73778820954E+03  0.39662524418E+03  0.10645998186E+04  0.25500000920E-02 0. -1.
       -2    1    3    3    0  502  0.65706144870E+03 -0.73778820954E+03 -0.12494791763E+04  0.15928777107E+04  0.25500000920E-02 0.  1.
</event>
<event>
 5   0  0.1672125E-05  0.2407106E+04  0.7818609E-02  0.8436848E-01
        3   -1    0    0  501    0  0.00000000000E+00  0.00000000000E+00  0.11371238820E+04  0.11371238865E+04  0.10100000352E+00 0.  1.
       -3   -1    0    0    0  501  0.00000000000E+00  0.00000000000E+00 -0.12738624343E+04  0.12738624383E+04  0.10100000352E+00 0. -1.
    10030    2    1    2    0    0  0.00000000000E+00  0.00000000000E+00 -0.13673855233E+03  0.24109863248E+04  0.24071056535E+04 0.  0.
        5    1    3    3  502    0  0.84023890675E+02  0.11066975556E+04  0.39786782079E+03  0.11790506293E+04  0.46999998093E+01 0.  1.
       -5    1    3    3    0  502 -0.84023890675E+02 -0.11066975556E+04 -0.53460637312E+03  0.12319356955E+04  0.46999998093E+01 0. -1.
</event>
<event>
 5   0  0.4914005E-05  0.2396240E+04  0.7818609E-02  0.8440913E-01
       -2   -1    0    0    0  501  0.00000000000E+00  0.00000000000E+00  0.12127180012E+04  0.12127180012E+04  0.25500000920E-02 0.  1.
        2   -1    0    0  501    0  0.00000000000E+00  0.00000000000E+00 -0.11836974625E+04  0.11836974625E+04  0.25500000920E-02 0. -1.
    10030    2    1    2    0    0  0.00000000000E+00  0.00000000000E+00  0.29020538687E+02  0.23964154637E+04  0.23962397382E+04 0.  0.
        2    1    3    3  502    0 -0.49584508581E+03 -0.10784501526E+04  0.17753798975E+03  0.12001819940E+04  0.25500000920E-02 0.  1.
       -2    1    3    3    0  502  0.49584508581E+03  0.10784501526E+04 -0.14851745107E+03  0.11962334697E+04  0.25500000920E-02 0. -1.
</event>
<event>
 5   0  0.4756705E-05  0.2494707E+04  0.7818609E-02  0.8404874E-01
       -2   -1    0    0    0  501  0.00000000000E+00  0.00000000000E+00  0.78985885384E+03  0.78985885385E+03  0.25500000920E-02 0. -1.
        2   -1    0    0  501    0  0.00000000000E+00  0.00000000000E+00 -0.19698339375E+04  0.19698339375E+04  0.25500000920E-02 0.  1.
    10030    2    1    2    0    0  0.00000000000E+00  0.00000000000E+00 -0.11799750837E+04  0.27596927914E+04  0.24947070178E+04 0.  0.
        3    1    3    3  502    0  0.65497655094E+03  0.46357145938E+03  0.46643614425E+03  0.92814625308E+03  0.10100000352E+00 0. -1.
       -3    1    3    3    0  502 -0.65497655094E+03 -0.46357145938E+03 -0.16464112279E+04  0.18315465383E+04  0.10100000352E+00 0.  1.
</event>
<event>
 5   0  0.4914005E-05  0.2490844E+04  0.7818609E-02  0.8406255E-01
       -2   -1    0    0    0  501  0.00000000000E+00  0.00000000000E+00  0.89100238047E+03  0.89100238048E+03  0.25500000920E-02 0. -1.
        2   -1    0    0  501    0  0.00000000000E+00  0.00000000000E+00 -0.17408216377E+04  0.17408216377E+04  0.25500000920E-02 0.  1.
    10030    2    1    2    0    0  0.00000000000E+00  0.00000000000E+00 -0.84981925724E+03  0.26318240182E+04  0.24908442129E+04 0.  0.
        2    1    3    3  502    0  0.88272107197E+03 -0.51965183384E+03  0.32359355974E+03  0.10742193962E+04  0.25500000920E-02 0. -1.
       -2    1    3    3    0  502 -0.88272107197E+03  0.51965183384E+03 -0.11734128170E+04  0.15576046220E+04  0.25500000920E-02 0.  1.
</event>
<event>
 5   0  0.2065692E-05  0.2368824E+04  0.7818609E-02  0.8451269E-01
        1   -1    0    0  501    0  0.00000000000E+00  0.00000000000E+00  0.15841845301E+04  0.15841845301E+04  0.50400001928E-02 0. -1.
       -1   -1    0    0    0  501  0.00000000000E+00  0.00000000000E+00 -0.88552271154E+03  0.88552271155E+03  0.50400001928E-02 0.  1.
    10030    2    1    2    0    0  0.00000000000E+00  0.00000000000E+00  0.69866181860E+03  0.24697072417E+04  0.23688236580E+04 0.  0.
        3    1    3    3  502    0  0.32622804898E+03 -0.11274728706E+04  0.51487457709E+03  0.12816846938E+04  0.10100000352E+00 0. -1.
       -3    1    3    3    0  502 -0.32622804898E+03  0.11274728706E+04  0.18378724151E+03  0.11880225479E+04  0.10100000352E+00 0.  1.
</event>
<event>
 5   0  0.2149920E-05  0.2396801E+04  0.7818609E-02  0.8440702E-01
       -1   -1    0    0    0  501  0.00000000000E+00  0.00000000000E+00  0.92257109797E+03  0.92257109799E+03  0.50400001928E-02 0. -1.
        1   -1    0    0  501    0  0.00000000000E+00  0.00000000000E+00 -0.15566973439E+04  0.15566973439E+04  0.50400001928E-02 0.  1.
    10030    2    1    2    0    0  0.00000000000E+00  0.00000000000E+00 -0.63412624594E+03  0.24792684419E+04  0.23968011831E+04 0.  0.
        5    1    3    3  502    0  0.20152557750E+03 -0.57827905421E+03 -0.13826143596E+04  0.15121718753E+04  0.46999998093E+01 0.  1.
       -5    1    3    3    0  502 -0.20152557750E+03  0.57827905421E+03  0.74848811367E+03  0.96709656665E+03  0.46999998093E+01 0. -1.
</event>
<event>
 5   0  0.4713971E-05  0.2395595E+04  0.7818609E-02  0.8441155E-01
        2   -1    0    0  501    0  0.00000000000E+00  0.00000000000E+00  0.11155283594E+04  0.11155283594E+04  0.25500000920E-02 0.  1.
       -2   -1    0    0    0  501  0.00000000000E+00  0.00000000000E+00 -0.12861338245E+04  0.12861338245E+04  0.25500000920E-02 0. -1.
    10030    2    1    2    0    0  0.00000000000E+00  0.00000000000E+00 -0.17060546512E+03  0.24016621839E+04  0.23955949201E+04 0.  0.
        5    1    3    3  502    0  0.74994030873E+03 -0.75667832921E+03 -0.63415994068E+03  0.12398199389E+04  0.46999998093E+01 0. -1.
       -5    1    3    3    0  502 -0.74994030873E+03  0.75667832921E+03  0.46355447556E+03  0.11618422450E+04  0.46999998093E+01 0.  1.
</event>
<event>
 5   0  0.2149920E-05  0.2370565E+04  0.7818609E-02  0.8450606E-01
        1   -1    0    0  501    0  0.00000000000E+00  0.00000000000E+00  0.44600306604E+03  0.44600306607E+03  0.50400001928E-02 0. -1.
       -1   -1    0    0    0  501  0.00000000000E+00  0.00000000000E+00 -0.31499672803E+04  0.31499672803E+04  0.50400001928E-02 0.  1.
    10030    2    1    2    0    0  0.00000000000E+00  0.00000000000E+00 -0.27039642143E+04  0.35959703464E+04  0.23705653883E+04 0.  0.
        5    1    3    3  502    0  0.11242206708E+04  0.95615413921E+02 -0.19028130287E+04  0.22121785498E+04  0.46999998093E+01 0.  1.
       -5    1    3    3    0  502 -0.11242206708E+04 -0.95615413921E+02 -0.80115118564E+03  0.13837917966E+04  0.46999998093E+01 0. -1.
</event>
<event>
 5   0  0.2139556E-05  0.2373266E+04  0.7818609E-02  0.8449581E-01
        1   -1    0    0  501    0  0.00000000000E+00  0.00000000000E+00  0.15089922191E+04  0.15089922191E+04  0.50400001928E-02 0. -1.
       -1   -1    0    0    0  501  0.00000000000E+00  0.00000000000E+00 -0.93313761021E+03  0.93313761022E+03  0.50400001928E-02 0.  1.
    10030    2    1    2    0    0  0.00000000000E+00  0.00000000000E+00  0.57585460891E+03  0.24421298293E+04  0.23732655925E+04 0.  0.
        2    1    3    3  502    0 -0.99948429609E+03 -0.24533065098E+03  0.89578043709E+03  0.13643967817E+04  0.25500000920E-02 0. -1.
       -2    1    3    3    0  502  0.99948429609E+03  0.24533065098E+03 -0.31992582818E+03  0.10777330476E+04  0.25500000920E-02 0.  1.
</event>
<event>
 5   0  0.4713971E-05  0.2408748E+04  0.7818609E-02  0.8436236E-01
        2   -1    0    0  501    0  0.00000000000E+00  0.00000000000E+00  0.72002072383E+03  0.72002072384E+03  0.25500000920E-02 0.  1.
       -2   -1    0    0    0  501  0.00000000000E+00  0.00000000000E+00 -0.20145490530E+04  0.20145490530E+04  0.25500000920E-02 0. -1.
    10030    2    1    2    0    0  0.00000000000E+00  0.00000000000E+00 -0.12945283292E+04  0.27345697768E+04  0.24087482785E+04 0.  0.
        5    1    3    3  502    0 -0.53152110700E+03 -0.55624095718E+03  0.40466631085E+03  0.86930754211E+03  0.46999998093E+01 0.  1.
       -5    1    3    3    0  502  0.53152110700E+03  0.55624095718E+03 -0.16991946400E+04  0.18652622347E+04  0.46999998093E+01 0. -1.
</event>
<event>
 5   0  0.2090039E-05  0.2457281E+04  0.7818609E-02  0.8418364E-01
       -1   -1    0    0    0  501  0.00000000000E+00  0.00000000000E+00  0.65430162143E+03  0.65430162145E+03  0.50400001928E-02 0. -1.
        1   -1    0    0  501    0  0.00000000000E+00  0.00000000000E+00 -0.23071285655E+04  0.23071285655E+04  0.50400001928E-02 0.  1.
    10030    2    1    2    0    0  0.00000000000E+00  0.00000000000E+00 -0.16528269441E+04  0.29614301870E+04  0.24572813932E+04 0.  0.
        1    1    3    3  502    0  0.70148837925E+03  0.99537112392E+03 -0.62945708868E+03  0.13707902272E+04  0.50400001928E-02 0. -1.
       -1    1    3    3    0  502 -0.70148837925E+03 -0.99537112392E+03 -0.10233698554E+04  0.15906399597E+04  0.50400001928E-02 0.  1.
</event>
<event>
 5   0  0.4756705E-05  0.2433173E+04  0.7818609E-02  0.8427188E-01
       -2   -1    0    0    0  501  0.00000000000E+00  0.00000000000E+00  0.11043897615E+04  0.11043897615E+04  0.25500000920E-02 0.  1.
        2   -1    0    0  501    0  0.00000000000E+00  0.00000000000E+00 -0.13401814729E+04  0.13401814729E+04  0.25500000920E-02 0. -1.
    10030    2    1    2    0    0  0.00000000000E+00  0.00000000000E+00 -0.23579171137E+03  0.24445712344E+04  0.24331729878E+04 0.  0.
        3    1    3    3  502    0  0.21374912091E+03 -0.83539151695E+03 -0.98012066068E+03  0.13054517199E+04  0.10100000352E+00 0. -1.
       -3    1    3    3    0  502 -0.21374912091E+03  0.83539151695E+03  0.74432894931E+03  0.11391195145E+04  0.10100000352E+00 0.  1.
</event>
<event>
 5   0  0.4856882E-05  0.2380397E+04  0.7818609E-02  0.8446879E-01
       -2   -1    0    0    0  501  0.00000000000E+00  0.00000000000E+00  0.45263659692E+03  0.45263659693E+03  0.25500000920E-02 0.  1.
        2   -1    0    0  501    0  0.00000000000E+00  0.00000000000E+00 -0.31296029697E+04  0.31296029697E+04  0.25500000920E-02 0. -1.
    10030    2    1    2    0    0  0.00000000000E+00  0.00000000000E+00 -0.26769663728E+04  0.35822395667E+04  0.23803973097E+04 0.  0.
        1    1    3    3  502    0 -0.88058563881E+03 -0.27703743180E+02 -0.25427483230E+04  0.26910532508E+04  0.50400001928E-02 0. -1.
       -1    1    3    3    0  502  0.88058563881E+03  0.27703743180E+02 -0.13421804985E+03  0.89118631587E+03  0.50400001928E-02 0.  1.
</event>
<event>
 5   0  0.4756705E-05  0.2381756E+04  0.7818609E-02  0.8446366E-01
       -2   -1    0    0    0  501  0.00000000000E+00  0.00000000000E+00  0.13930321027E+04  0.13930321027E+04  0.25500000920E-02 0.  1.
        2   -1    0    0  501    0  0.00000000000E+00  0.00000000000E+00 -0.10180600365E+04  0.10180600365E+04  0.25500000920E-02 0. -1.
    10030    2    1    2    0    0  0.00000000000E+00  0.00000000000E+00  0.37497206625E+03  0.24110921392E+04  0.23817559181E+04 0.  0.
        3    1    3    3  502    0 -0.98065312597E+03  0.18476240021E+03 -0.47042084272E+03  0.11032286606E+04  0.10100000352E+00 0. -1.
       -3    1    3    3    0  502  0.98065312597E+03 -0.18476240021E+03  0.84539290897E+03  0.13078634786E+04  0.10100000352E+00 0.  1.
</event>
<event>
 5   0  0.2139556E-05  0.2370879E+04  0.7818609E-02  0.8450487E-01
        1   -1    0    0  501    0  0.00000000000E+00  0.00000000000E+00  0.15147892902E+04  0.15147892902E+04  0.50400001928E-02 0.  1.
       -1   -1    0    0    0  501  0.00000000000E+00  0.00000000000E+00 -0.92769799135E+03  0.92769799137E+03  0.50400001928E-02 0. -1.
    10030    2    1    2    0    0  0.00000000000E+00  0.00000000000E+00  0.58709129882E+03  0.24424872816E+04  0.23708791465E+04 0.  0.
        2    1    3    3  502    0 -0.80321505959E+03  0.64870868638E+03  0.89362428049E+03  0.13654822395E+04  0.25500000920E-02 0.  1.
       -2    1    3    3    0  502  0.80321505959E+03 -0.64870868638E+03 -0.30653298167E+03  0.10770050420E+04  0.25500000920E-02 0. -1.
</event>
<event>
 5   0  0.4664127E-05  0.2409178E+04  0.7818609E-02  0.8436075E-01
       -2   -1    0    0    0  501  0.00000000000E+00  0.00000000000E+00  0.55532544760E+03  0.55532544761E+03  0.25500000920E-02 0.  1.
        2   -1    0    0  501    0  0.00000000000E+00  0.00000000000E+00 -0.26129445789E+04  0.26129445789E+04  0.25500000920E-02 0. -1.
    10030    2    1    2    0    0  0.00000000000E+00  0.00000000000E+00 -0.20576191313E+04  0.31682700265E+04  0.24091779659E+04 0.  0.
        4    1    3    3  502    0 -0.40493712054E+03 -0.92832556039E+03 -0.18864119497E+04  0.21411011360E+04  0.12699999809E+01 0. -1.
       -4    1    3    3    0  502  0.40493712054E+03  0.92832556039E+03 -0.17120718156E+03  0.10271688905E+04  0.12699999809E+01 0.  1.
</event>
<event>
 5   0  0.2149920E-05  0.2560123E+04  0.7818609E-02  0.8381874E-01
        1   -1    0    0  501    0  0.00000000000E+00  0.00000000000E+00  0.21099981076E+04  0.21099981076E+04  0.50400001928E-02 0.  1.
       -1   -1    0    0    0  501  0.00000000000E+00  0.00000000000E+00 -0.77656809681E+03  0.77656809683E+03  0.50400001928E-02 0. -1.
    10030    2    1    2    0    0  0.00000000000E+00  0.00000000000E+00  0.13334300108E+04  0.28865662044E+04  0.25601228210E+04 0.  0.
        5    1    3    3  502    0  0.25746923955E+03 -0.45153416047E+03 -0.65221322357E+03  0.83401300133E+03  0.46999998093E+01 0. -1.
       -5    1    3    3    0  502 -0.25746923955E+03  0.45153416047E+03  0.19856432343E+04  0.20525532031E+04  0.46999998093E+01 0.  1.
</event>
<event>
 5   0  0.1672125E-05  0.2382911E+04  0.7818609E-02  0.8445929E-01
       -4   -1    0    0    0  501  0.00000000000E+00  0.00000000000E+00  0.10111778789E+04  0.10111786765E+04  0.12699999809E+01 0.  1.
        4   -1    0    0  501    0  0.00000000000E+00  0.00000000000E+00 -0.14038718750E+04  0.14038724494E+04  0.12699999809E+01 0. -1.
    10030    2    1    2    0    0  0.00000000000E+00  0.00000000000E+00 -0.39269399604E+03  0.24150511259E+04  0.23829106920E+04 0.  0.
        4    1    3    3  502    0  0.10607638728E+04  0.17105778316E+02  0.35323228938E+03  0.11181624500E+04  0.12699999809E+01 0.  1.
       -4    1    3    3    0  502 -0.10607638728E+04 -0.17105778316E+02 -0.74592628543E+03  0.12968886759E+04  0.12699999809E+01 0. -1.
</event>
<event>
 5   0  0.1672125E-05  0.2399591E+04  0.7818609E-02  0.8439657E-01
        3   -1    0    0  501    0  0.00000000000E+00  0.00000000000E+00  0.10928650488E+04  0.10928650534E+04  0.10100000352E+00 0.  1.
       -3   -1    0    0    0  501  0.00000000000E+00  0.00000000000E+00 -0.13171881552E+04  0.13171881591E+04  0.10100000352E+00 0. -1.
    10030    2    1    2    0    0  0.00000000000E+00  0.00000000000E+00 -0.22432310641E+03  0.24100532125E+04  0.23995907216E+04 0.  0.
        3    1    3    3  502    0 -0.60432454834E+03 -0.54086790037E+03  0.77586697322E+03  0.11223706231E+04  0.10100000352E+00 0.  1.
       -3    1    3    3    0  502  0.60432454834E+03  0.54086790037E+03 -0.10001900796E+04  0.12876825894E+04  0.10100000352E+00 0. -1.
</event>
<event>
 5   0  0.2139556E-05  0.2424226E+04  0.7818609E-02  0.8430489E-01
        1   -1    0    0  501    0  0.00000000000E+00  0.00000000000E+00  0.14417691386E+04  0.14417691386E+04  0.50400001928E-02 0. -1.
       -1   -1    0    0    0  501  0.00000000000E+00  0.00000000000E+00 -0.10190384919E+04  0.10190384919E+04  0.50400001928E-02 0.  1.
    10030    2    1    2    0    0  0.00000000000E+00  0.00000000000E+00  0.42273064671E+03  0.24608076305E+04  0.24242262673E+04 0.  0.
        2    1    3    3  502    0 -0.79889944753E+03 -0.31215940035E+03 -0.65802492352E+03  0.10810553263E+04  0.25500000920E-02 0.  1.
       -2    1    3    3    0  502  0.79889944753E+03  0.31215940035E+03  0.10807555702E+04  0.13797523043E+04  0.25500000920E-02 0. -1.
</event>
<event>
 5   0  0.2065692E-05  0.2393818E+04  0.7818609E-02  0.8441822E-01
       -1   -1    0    0    0  501  0.00000000000E+00  0.00000000000E+00  0.10903332857E+04  0.10903332857E+04  0.50400001928E-02 0. -1.
        1   -1    0    0  501    0  0.00000000000E+00  0.00000000000E+00 -0.13139017303E+04  0.13139017303E+04  0.50400001928E-02 0.  1.
    10030    2    1    2    0    0  0.00000000000E+00  0.00000000000E+00 -0.22356844462E+03  0.24042350160E+04  0.23938176962E+04 0.  0.
        3    1    3    3  502    0  0.39153610490E+03 -0.35687603895E+03 -0.11897347825E+04  0.13023555166E+04  0.10100000352E+00 0.  1.
       -3    1    3    3    0  502 -0.39153610490E+03  0.35687603895E+03  0.96616633788E+03  0.11018794994E+04  0.10100000352E+00 0. -1.
</event>
<event>
 5   0  0.2149920E-05  0.2386590E+04  0.7818609E-02  0.8444541E-01
       -1   -1    0    0    0  501  0.00000000000E+00  0.00000000000E+00  0.92716426695E+03  0.92716426697E+03  0.50400001928E-02 0. -1.
        1   -1    0    0  501    0  0.00000000000E+00  0.00000000000E+00 -0.15358156864E+04  0.15358156864E+04  0.50400001928E-02 0.  1.
    10030    2    1    2    0    0  0.00000000000E+00  0.00000000000E+00 -0.60865141941E+03  0.24629799533E+04  0.23865903922E+04 0.  0.
        5    1    3    3  502    0  0.56737022803E+03 -0.23529279531E+03 -0.13601356150E+04  0.14924016405E+04  0.46999998093E+01 0.  1.
       -5    1    3    3    0  502 -0.56737022803E+03  0.23529279531E+03  0.75148419561E+03  0.97057831288E+03  0.46999998093E+01 0. -1.
</event>
<event>
 5   0  0.4713971E-05  0.2401136E+04  0.7818609E-02  0.8439078E-01
        2   -1    0    0  501    0  0.00000000000E+00  0.00000000000E+00  0.16455696504E+04  0.16455696504E+04  0.25500000920E-02 0. -1.
       -2   -1    0    0    0  501  0.00000000000E+00  0.00000000000E+00 -0.87590531874E+03  0.87590531874E+03  0.25500000920E-02 0.  1.
    10030    2    1    2    0    0  0.00000000000E+00  0.00000000000E+00  0.76966433171E+03  0.25214749692E+04  0.24011357389E+04 0.  0.
        5    1    3    3  502    0 -0.82908563429E+03  0.76633199776E+03 -0.43910941282E+02  0.11298663552E+04  0.46999998093E+01 0.  1.
       -5    1    3    3    0  502  0.82908563429E+03 -0.76633199776E+03  0.81357527299E+03  0.13916086140E+04  0.46999998093E+01 0. -1.
</event>
<event>
 5   0  0.2090039E-05  0.2346987E+04  0.7818609E-02  0.8459622E-01
       -1   -1    0    0    0  501  0.00000000000E+00  0.00000000000E+00  0.98960495097E+03  0.98960495098E+03  0.50400001928E-02 0. -1.
        1   -1    0    0  501    0  0.00000000000E+00  0.00000000000E+00 -0.13915524638E+04  0.13915524638E+04  0.50400001928E-02 0.  1.
    10030    2    1    2    0    0  0.00000000000E+00  0.00000000000E+00 -0.40194751280E+03  0.23811574148E+04  0.23469871816E+04 0.  0.
        1    1    3    3  502    0 -0.28050078290E+03 -0.28303001287E+03  0.91886271028E+03  0.10015464831E+04  0.50400001928E-02 0. -1.
       -1    1    3    3    0  502  0.28050078290E+03  0.28303001287E+03 -0.13208102231E+04  0.13796109317E+04  0.50400001928E-02 0.  1.
</event>
<event>
 5   0  0.2149920E-05  0.2391777E+04  0.7818609E-02  0.8442588E-01
       -1   -1    0    0    0  501  0.00000000000E+00  0.00000000000E+00  0.10283959512E+04  0.10283959512E+04  0.50400001928E-02 0.  1.
        1   -1    0    0  501    0  0.00000000000E+00  0.00000000000E+00 -0.13906604518E+04  0.13906604518E+04  0.50400001928E-02 0. -1.
    10030    2    1    2    0    0  0.00000000000E+00  0.00000000000E+00 -0.36226450056E+03  0.24190564030E+04  0.23917772289E+04 0.  0.
        5    1    3    3  502    0 -0.27508974623E+03 -0.67106641946E+03  0.78056643361E+03  0.10655095284E+04  0.46999998093E+01 0.  1.
       -5    1    3    3    0  502  0.27508974623E+03  0.67106641946E+03 -0.11428309342E+04  0.13535468747E+04  0.46999998093E+01 0. -1.
</event>
<event>
 5   0  0.2057599E-05  0.2412541E+04  0.7818609E-02  0.8434823E-01
        1   -1    0    0  501    0  0.00000000000E+00  0.00000000000E+00  0.13093806465E+04  0.13093806465E+04  0.50400001928E-02 0. -1.
       -1   -1    0    0    0  501  0.00000000000E+00  0.00000000000E+00 -0.11112801432E+04  0.11112801432E+04  0.50400001928E-02 0.  1.
    10030    2    1    2    0    0  0.00000000000E+00  0.00000000000E+00  0.19810050326E+03  0.24206607897E+04  0.24125411601E+04 0.  0.
        4    1    3    3  502    0 -0.50346350222E+02  0.29958059373E+02  0.13079516780E+04  0.13092637035E+04  0.12699999809E+01 0. -1.
       -4    1    3    3    0  502  0.50346350222E+02 -0.29958059373E+02 -0.11098511747E+04  0.11113970862E+04  0.12699999809E+01 0.  1.
</event>
<event>
 5   0  0.2139556E-05  0.2406016E+04  0.7818609E-02  0.8437255E-01
        1   -1    0    0  501    0  0.00000000000E+00  0.00000000000E+00  0.17522712201E+04  0.17522712201E+04  0.50400001928E-02 0.  1.
       -1   -1    0    0    0  501  0.00000000000E+00  0.00000000000E+00 -0.82591553199E+03  0.82591553200E+03  0.50400001928E-02 0. -1.
    10030    2    1    2    0    0  0.00000000000E+00  0.00000000000E+00  0.92635568815E+03  0.25781867522E+04  0.24060158079E+04 0.  0.
        2    1    3    3  502    0  0.63672109541E+02 -0.84280124097E+03 -0.45415383085E+03  0.95949141288E+03  0.25500000920E-02 0. -1.
       -2    1    3    3    0  502 -0.63672109541E+02  0.84280124097E+03  0.13805095190E+04  0.16186953393E+04  0.25500000920E-02 0.  1.
</event>
<event>
 5   0  0.4914005E-05  0.2426983E+04  0.7818609E-02  0.8429470E-01
       -2   -1    0    0    0  501  0.00000000000E+00  0.00000000000E+00  0.73164186831E+03  0.73164186831E+03  0.25500000920E-02 0. -1.
        2   -1    0    0  501    0  0.00000000000E+00  0.00000000000E+00 -0.20126810999E+04  0.20126810999E+04  0.25500000920E-02 0.  1.
    10030    2    1    2    0    0  0.00000000000E+00  0.00000000000E+00 -0.12810392316E+04  0.27443229682E+04  0.24269831151E+04 0.  0.
        2    1    3    3  502    0  0.92160430596E+03 -0.70275442986E+03 -0.10471882972E+04  0.15619928345E+04  0.25500000920E-02 0.  1.
       -2    1    3    3    0  502 -0.92160430596E+03  0.70275442986E+03 -0.23385093445E+03  0.11823301337E+04  0.25500000920E-02 0. -1.
</event>
<event>
 5   0  0.4756705E-05  0.2453887E+04  0.7818609E-02  0.8419600E-01
       -2   -1    0    0    0  501  0.00000000000E+00  0.00000000000E+00  0.11119222959E+04  0.11119222959E+04  0.25500000920E-02 0.  1.
        2   -1    0    0  501    0  0.00000000000E+00  0.00000000000E+00 -0.13538629375E+04  0.13538629375E+04  0.25500000920E-02 0. -1.
    10030    2    1    2    0    0  0.00000000000E+00  0.00000000000E+00 -0.24194064163E+03  0.24657852334E+04  0.24538870274E+04 0.  0.
        3    1    3    3  502    0  0.53682953219E+03 -0.41492897621E+03  0.90625756780E+03  0.11321019350E+04  0.10100000352E+00 0.  1.
       -3    1    3    3    0  502 -0.53682953219E+03  0.41492897621E+03 -0.11481982094E+04  0.13336832983E+04  0.10100000352E+00 0. -1.
</event>
<event>
 5   0  0.4664127E-05  0.2429403E+04  0.7818609E-02  0.8428577E-01
        2   -1    0    0  501    0  0.00000000000E+00  0.00000000000E+00  0.18128028585E+04  0.18128028585E+04  0.25500000920E-02 0.  1.
       -2   -1    0    0    0  501  0.00000000000E+00  0.00000000000E+00 -0.81393303698E+03  0.81393303698E+03  0.25500000920E-02 0. -1.
    10030    2    1    2    0    0  0.00000000000E+00  0.00000000000E+00  0.99886982153E+03  0.26267358955E+04  0.24294033309E+04 0.  0.
        4    1    3    3  502    0 -0.87478833806E+02  0.82158086962E+03 -0.46331288909E+03  0.94726348910E+03  0.12699999809E+01 0. -1.
       -4    1    3    3    0  502  0.87478833806E+02 -0.82158086962E+03  0.14621827106E+04  0.16794724064E+04  0.12699999809E+01 0.  1.
</event>
<event>
 5   0  0.2149920E-05  0.2352738E+04  0.7818609E-02  0.8457413E-01
        1   -1    0    0  501    0  0.00000000000E+00  0.00000000000E+00  0.18757325855E+04  0.18757325855E+04  0.50400001928E-02 0. -1.
       -1   -1    0    0    0  501  0.00000000000E+00  0.00000000000E+00 -0.73776187988E+03  0.73776187990E+03  0.50400001928E-02 0.  1.
    10030    2    1    2    0    0  0.00000000000E+00  0.00000000000E+00  0.11379707056E+04  0.26134944654E+04  0.23527379782E+04 0.  0.
        5    1    3    3  502    0 -0.94247171286E+03 -0.30542368196E+03 -0.13557002178E+03  0.99996893745E+03  0.46999998093E+01 0.  1.
       -5    1    3    3    0  502  0.94247171286E+03  0.30542368196E+03  0.12735407274E+04  0.16135255280E+04  0.46999998093E+01 0. -1.
</event>
<event>
 5   0  0.4856882E-05  0.2491364E+04  0.7818609E-02  0.8406069E-01
       -2   -1    0    0    0  501  0.00000000000E+00  0.00000000000E+00  0.95876098406E+03  0.95876098406E+03  0.25500000920E-02 0. -1.
        2   -1    0    0  501    0  0.00000000000E+00  0.00000000000E+00 -0.16184680186E+04  0.16184680186E+04  0.25500000920E-02 0.  1.
    10030    2    1    2    0    0  0.00000000000E+00  0.00000000000E+00 -0.65970703459E+03  0.25772290027E+04  0.24913642770E+04 0.  0.
        1    1    3    3  502    0 -0.75342211184E+03  0.35636478511E+03 -0.12875486525E+04  0.15337608260E+04  0.50400001928E-02 0.  1.
       -1    1    3    3    0  502  0.75342211184E+03 -0.35636478511E+03  0.62784161791E+03  0.10434681767E+04  0.50400001928E-02 0. -1.
</event>
<event>
 5   0  0.4713971E-05  0.2408809E+04  0.7818609E-02  0.8436213E-01
        2   -1    0    0  501    0  0.00000000000E+00  0.00000000000E+00  0.15433588240E+04  0.15433588241E+04  0.25500000920E-02 0.  1.
       -2   -1    0    0    0  501  0.00000000000E+00  0.00000000000E+00 -0.93989174653E+03  0.93989174653E+03  0.25500000920E-02 0. -1.
    10030    2    1    2    0    0  0.00000000000E+00  0.00000000000E+00  0.60346707752E+03  0.24832505706E+04  0.24088090175E+04 0.  0.
        5    1    3    3  502    0  0.15288128282E+03  0.78963358556E+03 -0.62244994088E+03  0.10170348593E+04  0.46999998093E+01 0. -1.
       -5    1    3    3    0  502 -0.15288128282E+03 -0.78963358556E+03  0.12259170184E+04  0.14662157113E+04  0.46999998093E+01 0.  1.
</event>
<event>
 5   0  0.2057599E-05  0.2391810E+04  0.7818609E-02  0.8442576E-01
        1   -1    0    0  501    0  0.00000000000E+00  0.00000000000E+00  0.99115809607E+03  0.99115809609E+03  0.50400001928E-02 0.  1.
       -1   -1    0    0    0  501  0.00000000000E+00  0.00000000000E+00 -0.14429476964E+04  0.14429476964E+04  0.50400001928E-02 0. -1.
    10030    2    1    2    0    0  0.00000000000E+00  0.00000000000E+00 -0.45178960033E+03  0.24341057925E+04  0.23918104369E+04 0.  0.
        4    1    3    3  502    0 -0.88468629671E+03  0.37080331371E+03  0.50089272151E+03  0.10821552903E+04  0.12699999809E+01 0.  1.
       -4    1    3    3    0  502  0.88468629671E+03 -0.37080331371E+03 -0.95268232184E+03  0.13519505022E+04  0.12699999809E+01 0. -1.
</event>
<event>
 5   0  0.2139556E-05  0.2397070E+04  0.7818609E-02  0.8440601E-01
       -1   -1    0    0    0  501  0.00000000000E+00  0.00000000000E+00  0.90326846617E+03  0.90326846618E+03  0.50400001928E-02 0.  1.
        1   -1    0    0  501    0  0.00000000000E+00  0.00000000000E+00 -0.15903208508E+04  0.15903208508E+04  0.50400001928E-02 0. -1.
    10030    2    1    2    0    0  0.00000000000E+00  0.00000000000E+00 -0.68705238459E+03  0.24935893169E+04  0.23970704417E+04 0.  0.
        2    1    3    3  502    0  0.94612013557E+02 -0.33435214596E+03  0.84971932677E+03  0.91802272570E+03  0.25500000920E-02 0.  1.
       -2    1    3    3    0  502 -0.94612013557E+02  0.33435214596E+03 -0.15367717114E+04  0.15755665912E+04  0.25500000920E-02 0. -1.
</event>
<event>
 5   0  0.2139556E-05  0.2368699E+04  0.7818609E-02  0.8451316E-01
       -1   -1    0    0    0  501  0.00000000000E+00  0.00000000000E+00  0.17916086836E+04  0.17916086836E+04  0.50400001928E-02 0. -1.
        1   -1    0    0  501    0  0.00000000000E+00  0.00000000000E+00 -0.78291886982E+03  0.78291886984E+03  0.50400001928E-02 0.  1.
    10030    2    1    2    0    0  0.00000000000E+00  0.00000000000E+00  0.10086898138E+04  0.25745275534E+04  0.23686994286E+04 0.  0.
        2    1    3    3  502    0 -0.14516810683E+03 -0.81317699053E+02  0.17788412862E+04  0.17866064673E+04  0.25500000920E-02 0. -1.
       -2    1    3    3    0  502  0.14516810683E+03  0.81317699053E+02 -0.77015147246E+03  0.78792108613E+03  0.25500000920E-02 0.  1.
</event>
<event>
 5   0  0.2065692E-05  0.2363903E+04  0.7818609E-02  0.8453143E-01
       -1   -1    0    0    0  501  0.00000000000E+00  0.00000000000E+00  0.75279207461E+03  0.75279207463E+03  0.50400001928E-02 0.  1.
        1   -1    0    0  501    0  0.00000000000E+00  0.00000000000E+00 -0.18557700822E+04  0.18557700822E+04  0.50400001928E-02 0. -1.
    10030    2    1    2    0    0  0.00000000000E+00  0.00000000000E+00 -0.11029780076E+04  0.26085621568E+04  0.23639027139E+04 0.  0.
        3    1    3    3  502    0  0.64441152245E+03 -0.80397767728E+03 -0.11905303510E+04  0.15744868506E+04  0.10100000352E+00 0. -1.
       -3    1    3    3    0  502 -0.64441152245E+03  0.80397767728E+03  0.87552343468E+02  0.10340753062E+04  0.10100000352E+00 0.  1.
</event>
<event>
 5   0  0.2139556E-05  0.2124128E+04  0.7818609E-02  0.8550689E-01
        1   -1    0    0  501    0  0.00000000000E+00  0.00000000000E+00  0.97518147379E+03  0.97518147380E+03  0.50400001928E-02 0. -1.
       -1   -1    0    0    0  501  0.00000000000E+00  0.00000000000E+00 -0.11566874752E+04  0.11566874752E+04  0.50400001928E-02 0.  1.
    10030    2    1    2    0    0  0.00000000000E+00  0.00000000000E+00 -0.18150600142E+03  0.21318689490E+04  0.21241282417E+04 0.  0.
        2    1    3    3  502    0 -0.18354091282E+03 -0.22744811144E+03  0.93402633568E+03  0.97868539676E+03  0.25500000920E-02 0. -1.
       -2    1    3    3    0  502  0.18354091282E+03  0.22744811144E+03 -0.11155323371E+04  0.11531835523E+04  0.25500000920E-02 0.  1.
</event>
<event>
 5   0  0.4914005E-05  0.2310512E+04  0.7818609E-02  0.8473788E-01
       -2   -1    0    0    0  501  0.00000000000E+00  0.00000000000E+00  0.81400752452E+03  0.81400752453E+03  0.25500000920E-02 0.  1.
        2   -1    0    0  501    0  0.00000000000E+00  0.00000000000E+00 -0.16395629332E+04  0.16395629332E+04  0.25500000920E-02 0. -1.
    10030    2    1    2    0    0  0.00000000000E+00  0.00000000000E+00 -0.82555540866E+03  0.24535704577E+04  0.23105121203E+04 0.  0.
        2    1    3    3  502    0 -0.88143723826E+03  0.19038860132E+03 -0.11795938761E+04  0.14847966653E+04  0.25500000920E-02 0. -1.
       -2    1    3    3    0  502  0.88143723826E+03 -0.19038860132E+03  0.35403846748E+03  0.96877379246E+03  0.25500000920E-02 0.  1.
</event>
<event>
 5   0  0.4914005E-05  0.2214062E+04  0.7818609E-02  0.8512598E-01
       -2   -1    0    0    0  501  0.00000000000E+00  0.00000000000E+00  0.46107595117E+03  0.46107595117E+03  0.25500000920E-02 0. -1.
        2   -1    0    0  501    0  0.00000000000E+00  0.00000000000E+00 -0.26579517610E+04  0.26579517611E+04  0.25500000920E-02 0.  1.
    10030    2    1    2    0    0  0.00000000000E+00  0.00000000000E+00 -0.21968758099E+04  0.31190277122E+04  0.22140620013E+04 0.  0.
        2    1    3    3  502    0 -0.97306640887E+03  0.77713999706E+01 -0.35487239659E+03  0.10357861983E+04  0.25500000920E-02 0. -1.
       -2    1    3    3    0  502  0.97306640887E+03 -0.77713999706E+01 -0.18420034133E+04  0.20832415139E+04  0.25500000920E-02 0.  1.
</event>
<event>
 5   0  0.4756705E-05  0.2394729E+04  0.7818609E-02  0.8441480E-01
        2   -1    0    0  501    0  0.00000000000E+00  0.00000000000E+00  0.16904364578E+04  0.16904364578E+04  0.25500000920E-02 0. -1.
       -2   -1    0    0    0  501  0.00000000000E+00  0.00000000000E+00 -0.84811337999E+03  0.84811337999E+03  0.25500000920E-02 0.  1.
    10030    2    1    2    0    0  0.00000000000E+00  0.00000000000E+00  0.84232307779E+03  0.25385498378E+04  0.23947290267E+04 0.  0.
        3    1    3    3  502    0  0.79964737693E+03 -0.80195319515E+03  0.90774441088E+01  0.11325401824E+04  0.10100000352E+00 0.  1.
       -3    1    3    3    0  502 -0.79964737693E+03  0.80195319515E+03  0.83324563368E+03  0.14060096553E+04  0.10100000352E+00 0. -1.
</event>
<event>
 5   0  0.2090039E-05  0.2343837E+04  0.7818609E-02  0.8460835E-01
       -1   -1    0    0    0  501  0.00000000000E+00  0.00000000000E+00  0.18118773480E+04  0.18118773481E+04  0.50400001928E-02 0. -1.
        1   -1    0    0  501    0  0.00000000000E+00  0.00000000000E+00 -0.75799414395E+03  0.75799414397E+03  0.50400001928E-02 0.  1.
    10030    2    1    2    0    0  0.00000000000E+00  0.00000000000E+00  0.10538832041E+04  0.25698714920E+04  0.23438365296E+04 0.  0.
        1    1    3    3  502    0 -0.34807070959E+03  0.87505751686E+03  0.12917128553E+04  0.15985621594E+04  0.50400001928E-02 0. -1.
       -1    1    3    3    0  502  0.34807070959E+03 -0.87505751686E+03 -0.23782965124E+03  0.97130933266E+03  0.50400001928E-02 0.  1.
</event>
<event>
 5   0  0.2139556E-05  0.2381987E+04  0.7818609E-02  0.8446278E-01
        1   -1    0    0  501    0  0.00000000000E+00  0.00000000000E+00  0.11412022848E+04  0.11412022848E+04  0.50400001928E-02 0.  1.
       -1   -1    0    0    0  501  0.00000000000E+00  0.00000000000E+00 -0.12429569657E+04  0.12429569657E+04  0.50400001928E-02 0. -1.
    10030    2    1    2    0    0  0.00000000000E+00  0.00000000000E+00 -0.10175468089E+03  0.23841592505E+04  0.23819868422E+04 0.  0.
        2    1    3    3  502    0  0.86586413030E+03 -0.40750732498E+03  0.65877027858E+03  0.11617922327E+04  0.25500000920E-02 0.  1.
       -2    1    3    3    0  502 -0.86586413030E+03  0.40750732498E+03 -0.76052495947E+03  0.12223670177E+04  0.25500000920E-02 0. -1.
</event>
<event>
 5   0  0.2139556E-05  0.2393956E+04  0.7818609E-02  0.8441770E-01
        1   -1    0    0  501    0  0.00000000000E+00  0.00000000000E+00  0.93973034264E+03  0.93973034265E+03  0.50400001928E-02 0.  1.
       -1   -1    0    0    0  501  0.00000000000E+00  0.00000000000E+00 -0.15246457425E+04  0.15246457425E+04  0.50400001928E-02 0. -1.
    10030    2    1    2    0    0  0.00000000000E+00  0.00000000000E+00 -0.58491539985E+03  0.24643760851E+04  0.23939556103E+04 0.  0.
        2    1    3    3  502    0 -0.51921902249E+03 -0.10746632539E+04 -0.19886367121E+03  0.12099736618E+04  0.25500000920E-02 0.  1.
       -2    1    3    3    0  502  0.51921902249E+03  0.10746632539E+04 -0.38605172865E+03  0.12544024234E+04  0.25500000920E-02 0. -1.
</event>
<event>
 5   0  0.4756705E-05  0.2431181E+04  0.7818609E-02  0.8427921E-01
       -2   -1    0    0    0  501  0.00000000000E+00  0.00000000000E+00  0.16204519595E+04  0.16204519595E+04  0.25500000920E-02 0.  1.
        2   -1    0    0  501    0  0.00000000000E+00  0.00000000000E+00 -0.91188172066E+03  0.91188172066E+03  0.25500000920E-02 0. -1.
    10030    2    1    2    0    0  0.00000000000E+00  0.00000000000E+00  0.70857023883E+03  0.25323336801E+04  0.24311812117E+04 0.  0.
        3    1    3    3  502    0 -0.23810847416E+03 -0.26215276901E+03 -0.85695602980E+03  0.92725043379E+03  0.10100000352E+00 0. -1.
       -3    1    3    3    0  502  0.23810847416E+03  0.26215276901E+03  0.15655262686E+04  0.16050832464E+04  0.10100000352E+00 0.  1.
</event>
<event>
 5   0  0.4914005E-05  0.2318988E+04  0.7818609E-02  0.8470472E-01
        2   -1    0    0  501    0  0.00000000000E+00  0.00000000000E+00  0.18074017783E+04  0.18074017783E+04  0.25500000920E-02 0.  1.
       -2   -1    0    0    0  501  0.00000000000E+00  0.00000000000E+00 -0.74384466760E+03  0.74384466760E+03  0.25500000920E-02 0. -1.
    10030    2    1    2    0    0  0.00000000000E+00  0.00000000000E+00  0.10635571107E+04  0.25512464459E+04  0.23189878611E+04 0.  0.
        2    1    3    3  502    0  0.76588862311E+03 -0.84060956864E+03  0.78075498170E+03  0.13794158805E+04  0.25500000920E-02 0.  1.
       -2    1    3    3    0  502 -0.76588862311E+03  0.84060956864E+03  0.28280212903E+03  0.11718305654E+04  0.25500000920E-02 0. -1.
</event>
<event>
 5   0  0.4914005E-05  0.2349419E+04  0.7818609E-02  0.8458687E-01
        2   -1    0    0  501    0  0.00000000000E+00  0.00000000000E+00  0.80517126692E+03  0.80517126692E+03  0.25500000920E-02 0. -1.
       -2   -1    0    0    0  501  0.00000000000E+00  0.00000000000E+00 -0.17138489306E+04  0.17138489306E+04  0.25500000920E-02 0.  1.
    10030    2    1    2    0    0  0.00000000000E+00  0.00000000000E+00 -0.90867766369E+03  0.25190201975E+04  0.23494185789E+04 0.  0.
        2    1    3    3  502    0  0.82494291053E+03 -0.57896288018E+03 -0.11014054981E+04  0.14929242759E+04  0.25500000920E-02 0.  1.
       -2    1    3    3    0  502 -0.82494291053E+03  0.57896288018E+03  0.19272783441E+03  0.10260959216E+04  0.25500000920E-02 0. -1.
</event>
<event>
 5   0  0.2057599E-05  0.2349884E+04  0.7818609E-02  0.8458508E-01
        1   -1    0    0  501    0  0.00000000000E+00  0.00000000000E+00  0.15072348558E+04  0.15072348558E+04  0.50400001928E-02 0.  1.
       -1   -1    0    0    0  501  0.00000000000E+00  0.00000000000E+00 -0.91590788286E+03  0.91590788287E+03  0.50400001928E-02 0. -1.
    10030    2    1    2    0    0  0.00000000000E+00  0.00000000000E+00  0.59132697289E+03  0.24231427386E+04  0.23498836445E+04 0.  0.
        4    1    3    3  502    0  0.22424041821E+02 -0.74806711222E+03  0.12296487426E+04  0.14394946631E+04  0.12699999809E+01 0.  1.
       -4    1    3    3    0  502 -0.22424041821E+02  0.74806711222E+03 -0.63832176966E+03  0.98364807556E+03  0.12699999809E+01 0. -1.
</event>
<event>
 5   0  0.1672125E-05  0.2375095E+04  0.7818609E-02  0.8448887E-01
        3   -1    0    0  501    0  0.00000000000E+00  0.00000000000E+00  0.17615530589E+04  0.17615530618E+04  0.10100000352E+00 0.  1.
       -3   -1    0    0    0  501  0.00000000000E+00  0.00000000000E+00 -0.80058305498E+03  0.80058306135E+03  0.10100000352E+00 0. -1.
    10030    2    1    2    0    0  0.00000000000E+00  0.00000000000E+00  0.96097000395E+03  0.25621361232E+04  0.23750954013E+04 0.  0.
        4    1    3    3  502    0 -0.87145542749E+03  0.67920805662E+03  0.10875412225E+02  0.11049334974E+04  0.12699999809E+01 0. -1.
       -4    1    3    3    0  502  0.87145542749E+03 -0.67920805662E+03  0.95009459172E+03  0.14572026257E+04  0.12699999809E+01 0.  1.
</event>
<event>
 5   0  0.4856882E-05  0.2316215E+04  0.7818609E-02  0.8471555E-01
       -2   -1    0    0    0  501  0.00000000000E+00  0.00000000000E+00  0.49977375665E+03  0.49977375666E+03  0.25500000920E-02 0. -1.
        2   -1    0    0  501    0  0.00000000000E+00  0.00000000000E+00 -0.26836402386E+04  0.26836402386E+04  0.25500000920E-02 0.  1.
    10030    2    1    2    0    0  0.00000000000E+00  0.00000000000E+00 -0.21838664819E+04  0.31834139952E+04  0.23162149845E+04 0.  0.
        1    1    3    3  502    0 -0.78058838090E+03 -0.28565940787E+03  0.16396386443E+02  0.83137738676E+03  0.50400001928E-02 0. -1.
       -1    1    3    3    0  502  0.78058838090E+03  0.28565940787E+03 -0.22002628684E+04  0.23520366085E+04  0.50400001928E-02 0.  1.
</event>
<event>
 5   0  0.4756705E-05  0.2390877E+04  0.7818609E-02  0.8442927E-01
       -2   -1    0    0    0  501  0.00000000000E+00  0.00000000000E+00  0.20092902689E+04  0.20092902689E+04  0.25500000920E-02 0. -1.
        2   -1    0    0  501    0  0.00000000000E+00  0.00000000000E+00 -0.71123303679E+03  0.71123303680E+03  0.25500000920E-02 0.  1.
    10030    2    1    2    0    0  0.00000000000E+00  0.00000000000E+00  0.12980572321E+04  0.27205233057E+04  0.23908773450E+04 0.  0.
        3    1    3    3  502    0  0.44929029054E+03 -0.91929094101E+03  0.13524130792E+04  0.16958710878E+04  0.10100000352E+00 0. -1.
       -3    1    3    3    0  502 -0.44929029054E+03  0.91929094101E+03 -0.54355847070E+02  0.10246522179E+04  0.10100000352E+00 0.  1.
</event>
<event>
 5   0  0.2139556E-05  0.2465171E+04  0.7818609E-02  0.8415500E-01
        1   -1    0    0  501    0  0.00000000000E+00  0.00000000000E+00  0.15567293560E+04  0.15567293561E+04  0.50400001928E-02 0.  1.
       -1   -1    0    0    0  501  0.00000000000E+00  0.00000000000E+00 -0.97593551377E+03  0.97593551378E+03  0.50400001928E-02 0. -1.
    10030    2    1    2    0    0  0.00000000000E+00  0.00000000000E+00  0.58079384228E+03  0.25326648698E+04  0.24651713644E+04 0.  0.
        2    1    3    3  502    0 -0.93448568193E+03  0.79689597385E+03  0.39795706224E+03  0.12909982596E+04  0.25500000920E-02 0.  1.
       -2    1    3    3    0  502  0.93448568193E+03 -0.79689597385E+03  0.18283678004E+03  0.12416666102E+04  0.25500000920E-02 0. -1.
</event>
<event>
 5   0  0.4756705E-05  0.2363724E+04  0.7818609E-02  0.8453211E-01
       -2   -1    0    0    0  501  0.00000000000E+00  0.00000000000E+00  0.74231196939E+03  0.74231196940E+03  0.25500000920E-02 0.  1.
        2   -1    0    0  501    0  0.00000000000E+00  0.00000000000E+00 -0.18816852096E+04  0.18816852096E+04  0.25500000920E-02 0. -1.
    10030    2    1    2    0    0  0.00000000000E+00  0.00000000000E+00 -0.11393732402E+04  0.26239971790E+04  0.23637237180E+04 0.  0.
        3    1    3    3  502    0 -0.11549627097E+04 -0.15217371935E+03 -0.79087964690E+03  0.14080434396E+04  0.10100000352E+00 0. -1.
       -3    1    3    3    0  502  0.11549627097E+04  0.15217371935E+03 -0.34849359331E+03  0.12159537394E+04  0.10100000352E+00 0.  1.
</event>
<event>
 5   0  0.4914005E-05  0.2371403E+04  0.7818609E-02  0.8450288E-01
        2   -1    0    0  501    0  0.00000000000E+00  0.00000000000E+00  0.17226972137E+04  0.17226972137E+04  0.25500000920E-02 0. -1.
       -2   -1    0    0    0  501  0.00000000000E+00  0.00000000000E+00 -0.81609676370E+03  0.81609676371E+03  0.25500000920E-02 0.  1.
    10030    2    1    2    0    0  0.00000000000E+00  0.00000000000E+00  0.90660044996E+03  0.25387939774E+04  0.23714026406E+04 0.  0.
        2    1    3    3  502    0 -0.35070051042E+03  0.25804450196E+03 -0.72741255664E+03  0.84776579347E+03  0.25500000920E-02 0.  1.
       -2    1    3    3    0  502  0.35070051042E+03 -0.25804450196E+03  0.16340130066E+04  0.16910281839E+04  0.25500000920E-02 0. -1.
</event>
<event>
 5   0  0.4756705E-05  0.2415672E+04  0.7818609E-02  0.8433660E-01
        2   -1    0    0  501    0  0.00000000000E+00  0.00000000000E+00  0.25987830019E+04  0.25987830019E+04  0.25500000920E-02 0.  1.
       -2   -1    0    0    0  501  0.00000000000E+00  0.00000000000E+00 -0.56136560563E+03  0.56136560563E+03  0.25500000920E-02 0. -1.
    10030    2    1    2    0    0  0.00000000000E+00  0.00000000000E+00  0.20374173963E+04  0.31601486076E+04  0.24156716613E+04 0.  0.
        3    1    3    3  502    0 -0.72507278331E+03 -0.38082199786E+03  0.21800594879E+04  0.23288227318E+04  0.10100000352E+00 0.  1.
       -3    1    3    3    0  502  0.72507278331E+03  0.38082199786E+03 -0.14264209163E+03  0.83132587573E+03  0.10100000352E+00 0. -1.
</event>
<event>
 5   0  0.2065692E-05  0.2394448E+04  0.7818609E-02  0.8441585E-01
       -1   -1    0    0    0  501  0.00000000000E+00  0.00000000000E+00  0.61064309674E+03  0.61064309676E+03  0.50400001928E-02 0.  1.
        1   -1    0    0  501    0  0.00000000000E+00  0.00000000000E+00 -0.23472711208E+04  0.23472711208E+04  0.50400001928E-02 0. -1.
    10030    2    1    2    0    0  0.00000000000E+00  0.00000000000E+00 -0.17366280241E+04  0.29579142176E+04  0.23944476659E+04 0.  0.
        3    1    3    3  502    0  0.34710534872E+03 -0.14418857861E+02 -0.22836368106E+04  0.23099106302E+04  0.10100000352E+00 0. -1.
       -3    1    3    3    0  502 -0.34710534872E+03  0.14418857861E+02  0.54700878651E+03  0.64800358740E+03  0.10100000352E+00 0.  1.
</event>
<event>
 5   0  0.2149920E-05  0.2421371E+04  0.7818609E-02  0.8431546E-01
        1   -1    0    0  501    0  0.00000000000E+00  0.00000000000E+00  0.96460303218E+03  0.96460303220E+03  0.50400001928E-02 0. -1.
       -1   -1    0    0    0  501  0.00000000000E+00  0.00000000000E+00 -0.15195468023E+04  0.15195468023E+04  0.50400001928E-02 0.  1.
    10030    2    1    2    0    0  0.00000000000E+00  0.00000000000E+00 -0.55494377016E+03  0.24841498345E+04  0.24213710605E+04 0.  0.
        5    1    3    3  502    0  0.78166063619E+01  0.94807484013E+03 -0.10498731778E+04  0.14146246079E+04  0.46999998093E+01 0.  1.
       -5    1    3    3    0  502 -0.78166063619E+01 -0.94807484013E+03  0.49492940767E+03  0.10695252266E+04  0.46999998093E+01 0. -1.
</event>
<event>
 5   0  0.4856882E-05  0.2385638E+04  0.7818609E-02  0.8444900E-01
        2   -1    0    0  501    0  0.00000000000E+00  0.00000000000E+00  0.29684367567E+04  0.29684367567E+04  0.25500000920E-02 0.  1.
       -2   -1    0    0    0  501  0.00000000000E+00  0.00000000000E+00 -0.47931537539E+03  0.47931537540E+03  0.25500000920E-02 0. -1.
    10030    2    1    2    0    0  0.00000000000E+00  0.00000000000E+00  0.24891213813E+04  0.34477521321E+04  0.23856381774E+04 0.  0.
        1    1    3    3  502    0  0.48467223907E+03 -0.76968103778E+03  0.23598121909E+04  0.25290372982E+04  0.50400001928E-02 0.  1.
       -1    1    3    3    0  502 -0.48467223907E+03  0.76968103778E+03  0.12930919037E+03  0.91871483388E+03  0.50400001928E-02 0. -1.
</event>
<event>
 5   0  0.2139556E-05  0.2412733E+04  0.7818609E-02  0.8434752E-01
       -1   -1    0    0    0  501  0.00000000000E+00  0.00000000000E+00  0.12579383792E+04  0.12579383792E+04  0.50400001928E-02 0.  1.
        1   -1    0    0  501    0  0.00000000000E+00  0.00000000000E+00 -0.11569092853E+04  0.11569092853E+04  0.50400001928E-02 0. -1.
    10030    2    1    2    0    0  0.00000000000E+00  0.00000000000E+00  0.10102909393E+03  0.24148476645E+04  0.24127333804E+04 0.  0.
        2    1    3    3  502    0  0.51313549419E+03  0.74272028177E+03 -0.75042362933E+03  0.11739152762E+04  0.25500000920E-02 0. -1.
       -2    1    3    3    0  502 -0.51313549419E+03 -0.74272028177E+03  0.85145272326E+03  0.12409323883E+04  0.25500000920E-02 0.  1.
</event>
<event>
 5   0  0.4914005E-05  0.2388418E+04  0.7818609E-02  0.8443852E-01
        2   -1    0    0  501    0  0.00000000000E+00  0.00000000000E+00  0.78428682826E+03  0.78428682826E+03  0.25500000920E-02 0.  1.
       -2   -1    0    0    0  501  0.00000000000E+00  0.00000000000E+00 -0.18183853282E+04  0.18183853282E+04  0.25500000920E-02 0. -1.
    10030    2    1    2    0    0  0.00000000000E+00  0.00000000000E+00 -0.10340985000E+04  0.26026721565E+04  0.23884184404E+04 0.  0.
        2    1    3    3  502    0 -0.10630648957E+03  0.91309727933E+02 -0.18093942736E+04  0.18148129858E+04  0.25500000920E-02 0. -1.
       -2    1    3    3    0  502  0.10630648957E+03 -0.91309727933E+02  0.77529577365E+03  0.78785917066E+03  0.25500000920E-02 0.  1.
</event>
<event>
 5   0  0.2090039E-05  0.2387639E+04  0.7818609E-02  0.8444146E-01
       -1   -1    0    0    0  501  0.00000000000E+00  0.00000000000E+00  0.99375563934E+03  0.99375563935E+03  0.50400001928E-02 0.  1.
        1   -1    0    0  501    0  0.00000000000E+00  0.00000000000E+00 -0.14341605008E+04  0.14341605008E+04  0.50400001928E-02 0. -1.
    10030    2    1    2    0    0  0.00000000000E+00  0.00000000000E+00 -0.44040486149E+03  0.24279161402E+04  0.23876390728E+04 0.  0.
        1    1    3    3  502    0 -0.12493672479E+03  0.63057965013E+03  0.80273199594E+03  0.10284058234E+04  0.50400001928E-02 0.  1.
       -1    1    3    3    0  502  0.12493672479E+03 -0.63057965013E+03 -0.12431368574E+04  0.13995103167E+04  0.50400001928E-02 0. -1.
</event>
<event>
 5   0  0.4664127E-05  0.2403667E+04  0.7818609E-02  0.8438132E-01
        2   -1    0    0  501    0  0.00000000000E+00  0.00000000000E+00  0.11970867038E+04  0.11970867038E+04  0.25500000920E-02 0.  1.
       -2   -1    0    0    0  501  0.00000000000E+00  0.00000000000E+00 -0.12065993646E+04  0.12065993646E+04  0.25500000920E-02 0. -1.
    10030    2    1    2    0    0  0.00000000000E+00  0.00000000000E+00 -0.95126608464E+01  0.24036860684E+04  0.24036672450E+04 0.  0.
        4    1    3    3  502    0 -0.66487400707E+03 -0.77829262611E+03  0.62501489620E+03  0.11993506954E+04  0.12699999809E+01 0. -1.
       -4    1    3    3    0  502  0.66487400707E+03  0.77829262611E+03 -0.63452755704E+03  0.12043353730E+04  0.12699999809E+01 0.  1.
</event>
<event>
 5   0  0.2057599E-05  0.2076050E+04  0.7818609E-02  0.8571867E-01
        1   -1    0    0  501    0  0.00000000000E+00  0.00000000000E+00  0.13709119784E+04  0.13709119784E+04  0.50400001928E-02 0. -1.
       -1   -1    0    0    0  501  0.00000000000E+00  0.00000000000E+00 -0.78597050598E+03  0.78597050599E+03  0.50400001928E-02 0.  1.
    10030    2    1    2    0    0  0.00000000000E+00  0.00000000000E+00  0.58494147242E+03  0.21568824844E+04  0.20760504631E+04 0.  0.
        4    1    3    3  502    0  0.77950321108E+03  0.29151635381E+03 -0.35207777518E+03  0.90364119721E+03  0.12699999809E+01 0.  1.
       -4    1    3    3    0  502 -0.77950321108E+03 -0.29151635381E+03  0.93701924760E+03  0.12532412872E+04  0.12699999809E+01 0. -1.
</event>
<event>
 5   0  0.4713971E-05  0.2391238E+04  0.7818609E-02  0.8442791E-01
        2   -1    0    0  501    0  0.00000000000E+00  0.00000000000E+00  0.13907343596E+04  0.13907343596E+04  0.25500000920E-02 0.  1.
       -2   -1    0    0    0  501  0.00000000000E+00  0.00000000000E+00 -0.10278775969E+04  0.10278775969E+04  0.25500000920E-02 0. -1.
    10030    2    1    2    0    0  0.00000000000E+00  0.00000000000E+00  0.36285676275E+03  0.24186119565E+04  0.23912379149E+04 0.  0.
        5    1    3    3  502    0  0.48242044093E+03  0.91490008544E+03  0.78805328944E+03  0.13003160097E+04  0.46999998093E+01 0. -1.
       -5    1    3    3    0  502 -0.48242044093E+03 -0.91490008544E+03 -0.42519652669E+03  0.11182959467E+04  0.46999998093E+01 0.  1.
</event>
<event>
 5   0  0.2057599E-05  0.2387571E+04  0.7818609E-02  0.8444172E-01
        1   -1    0    0  501    0  0.00000000000E+00  0.00000000000E+00  0.22471561995E+04  0.22471561995E+04  0.50400001928E-02 0. -1.
       -1   -1    0    0    0  501  0.00000000000E+00  0.00000000000E+00 -0.63418967418E+03  0.63418967420E+03  0.50400001928E-02 0.  1.
    10030    2    1    2    0    0  0.00000000000E+00  0.00000000000E+00  0.16129665253E+04  0.28813458737E+04  0.23875705292E+04 0.  0.
        4    1    3    3  502    0  0.10610726214E+04  0.15799412329E+03  0.14385162318E+04  0.17944826032E+04  0.12699999809E+01 0. -1.
       -4    1    3    3    0  502 -0.10610726214E+04 -0.15799412329E+03  0.17445029347E+03  0.10868632705E+04  0.12699999809E+01 0.  1.
</event>
<event>
 5   0  0.2149920E-05  0.2400192E+04  0.7818609E-02  0.8439432E-01
        1   -1    0    0  501    0  0.00000000000E+00  0.00000000000E+00  0.88112347253E+03  0.88112347254E+03  0.50400001928E-02 0. -1.
       -1   -1    0    0    0  501  0.00000000000E+00  0.00000000000E+00 -0.16345390109E+04  0.16345390109E+04  0.50400001928E-02 0.  1.
    10030    2    1    2    0    0  0.00000000000E+00  0.00000000000E+00 -0.75341553833E+03  0.25156624834E+04  0.24001922334E+04 0.  0.
        5    1    3    3  502    0  0.31045597642E+03 -0.33994555226E+03 -0.15382954032E+04  0.16057150212E+04  0.46999998093E+01 0.  1.
       -5    1    3    3    0  502 -0.31045597642E+03  0.33994555226E+03  0.78487986484E+03  0.90994746224E+03  0.46999998093E+01 0. -1.
</event>
<event>
 5   0  0.4856882E-05  0.2277100E+04  0.7818609E-02  0.8487005E-01
       -2   -1    0    0    0  501  0.00000000000E+00  0.00000000000E+00  0.65249339319E+03  0.65249339320E+03  0.25500000920E-02 0.  1.
        2   -1    0    0  501    0  0.00000000000E+00  0.00000000000E+00 -0.19866814418E+04  0.19866814418E+04  0.25500000920E-02 0. -1.
    10030    2    1    2    0    0  0.00000000000E+00  0.00000000000E+00 -0.13341880486E+04  0.26391748350E+04  0.22771003624E+04 0.  0.
        1    1    3    3  502    0 -0.23763388075E+03 -0.10318187001E+04 -0.18200180008E+03  0.10743576436E+04  0.50400001928E-02 0. -1.
       -1    1    3    3    0  502  0.23763388075E+03  0.10318187001E+04 -0.11521862485E+04  0.15648171914E+04  0.50400001928E-02 0.  1.
</event>
<event>
 5   0  0.2065692E-05  0.2528527E+04  0.7818609E-02  0.8392893E-01
        1   -1    0    0  501    0  0.00000000000E+00  0.00000000000E+00  0.16473058684E+04  0.16473058684E+04  0.50400001928E-02 0.  1.
       -1   -1    0    0    0  501  0.00000000000E+00  0.00000000000E+00 -0.97028861273E+03  0.97028861274E+03  0.50400001928E-02 0. -1.
    10030    2    1    2    0    0  0.00000000000E+00  0.00000000000E+00  0.67701725564E+03  0.26175944811E+04  0.25285269433E+04 0.  0.
        3    1    3    3  502    0 -0.66154300443E+03 -0.10185994480E+04 -0.24821649289E+02  0.12148251342E+04  0.10100000352E+00 0. -1.
       -3    1    3    3    0  502  0.66154300443E+03  0.10185994480E+04  0.70183890493E+03  0.14027693470E+04  0.10100000352E+00 0.  1.
</event>
<event>
 5   0  0.4856882E-05  0.2412124E+04  0.7818609E-02  0.8434978E-01
        2   -1    0    0  501    0  0.00000000000E+00  0.00000000000E+00  0.11741368201E+04  0.11741368201E+04  0.25500000920E-02 0.  1.
       -2   -1    0    0    0  501  0.00000000000E+00  0.00000000000E+00 -0.12388550818E+04  0.12388550818E+04  0.25500000920E-02 0. -1.
    10030    2    1    2    0    0  0.00000000000E+00  0.00000000000E+00 -0.64718261782E+02  0.24129919019E+04  0.24121238495E+04 0.  0.
        1    1    3    3  502    0 -0.88368281636E+03  0.38270154917E+03  0.69400793040E+03  0.11870142388E+04  0.50400001928E-02 0.  1.
       -1    1    3    3    0  502  0.88368281636E+03 -0.38270154917E+03 -0.75872619218E+03  0.12259776631E+04  0.50400001928E-02 0. -1.
</event>
<event>
 5   0  0.2065692E-05  0.2377421E+04  0.7818609E-02  0.8448006E-01
       -1   -1    0    0    0  501  0.00000000000E+00  0.00000000000E+00  0.12663338011E+04  0.12663338011E+04  0.50400001928E-02 0.  1.
        1   -1    0    0  501    0  0.00000000000E+00  0.00000000000E+00 -0.11158449579E+04  0.11158449579E+04  0.50400001928E-02 0. -1.
    10030    2    1    2    0    0  0.00000000000E+00  0.00000000000E+00  0.15048884317E+03  0.23821787590E+04  0.23774206082E+04 0.  0.
        3    1    3    3  502    0  0.86832008016E+03 -0.15487392800E+03  0.87374993788E+03  0.12415331890E+04  0.10100000352E+00 0.  1.
       -3    1    3    3    0  502 -0.86832008016E+03  0.15487392800E+03 -0.72326109471E+03  0.11406455701E+04  0.10100000352E+00 0. -1.
</event>
<event>
 5   0  0.2149920E-05  0.2390110E+04  0.7818609E-02  0.8443216E-01
       -1   -1    0    0    0  501  0.00000000000E+00  0.00000000000E+00  0.78435727924E+03  0.78435727926E+03  0.50400001928E-02 0. -1.
        1   -1    0    0  501    0  0.00000000000E+00  0.00000000000E+00 -0.18207979990E+04  0.18207979990E+04  0.50400001928E-02 0.  1.
    10030    2    1    2    0    0  0.00000000000E+00  0.00000000000E+00 -0.10364407198E+04  0.26051552783E+04  0.23901097586E+04 0.  0.
        5    1    3    3  502    0  0.10266652405E+04 -0.59778000635E+01 -0.11848499091E+04  0.15677910088E+04  0.46999998093E+01 0.  1.
       -5    1    3    3    0  502 -0.10266652405E+04  0.59778000635E+01  0.14840918936E+03  0.10373642695E+04  0.46999998093E+01 0. -1.
</event>
<event>
 5   0  0.4664127E-05  0.2396594E+04  0.7818609E-02  0.8440780E-01
        2   -1    0    0  501    0  0.00000000000E+00  0.00000000000E+00  0.12772901550E+04  0.12772901550E+04  0.25500000920E-02 0.  1.
       -2   -1    0    0    0  501  0.00000000000E+00  0.00000000000E+00 -0.11241890777E+04  0.11241890777E+04  0.25500000920E-02 0. -1.
    10030    2    1    2    0    0  0.00000000000E+00  0.00000000000E+00  0.15310107728E+03  0.24014792328E+04  0.23965939509E+04 0.  0.
        4    1    3    3  502    0 -0.21511836121E+03 -0.30130772910E+03  0.12185454588E+04  0.12735450149E+04  0.12699999809E+01 0.  1.
       -4    1    3    3    0  502  0.21511836121E+03  0.30130772910E+03 -0.10654443815E+04  0.11279342179E+04  0.12699999809E+01 0. -1.
</event>
<event>
 5   0  0.4914005E-05  0.2395915E+04  0.7818609E-02  0.8441035E-01
       -2   -1    0    0    0  501  0.00000000000E+00  0.00000000000E+00  0.10540300678E+04  0.10540300678E+04  0.25500000920E-02 0.  1.
        2   -1    0    0  501    0  0.00000000000E+00  0.00000000000E+00 -0.13615377535E+04  0.13615377535E+04  0.25500000920E-02 0. -1.
    10030    2    1    2    0    0  0.00000000000E+00  0.00000000000E+00 -0.30750768575E+03  0.24155678213E+04  0.23959146317E+04 0.  0.
        2    1    3    3  502    0 -0.10652206532E+04 -0.57448865048E+02 -0.70329957560E+03  0.12777424252E+04  0.25500000920E-02 0. -1.
       -2    1    3    3    0  502  0.10652206532E+04  0.57448865048E+02  0.39579188986E+03  0.11378253961E+04  0.25500000920E-02 0.  1.
</event>
<event>
 5   0  0.2057599E-05  0.2414511E+04  0.7818609E-02  0.8434091E-01
       -1   -1    0    0    0  501  0.00000000000E+00  0.00000000000E+00  0.52048037535E+03  0.52048037537E+03  0.50400001928E-02 0. -1.
        1   -1    0    0  501    0  0.00000000000E+00  0.00000000000E+00 -0.28002318958E+04  0.28002318958E+04  0.50400001928E-02 0.  1.
    10030    2    1    2    0    0  0.00000000000E+00  0.00000000000E+00 -0.22797515204E+04  0.33207122711E+04  0.24145109221E+04 0.  0.
        4    1    3    3  502    0  0.38052496091E+03 -0.89310769127E+03 -0.21268722613E+04  0.23379537683E+04  0.12699999809E+01 0.  1.
       -4    1    3    3    0  502 -0.38052496091E+03  0.89310769127E+03 -0.15287925912E+03  0.98275850281E+03  0.12699999809E+01 0. -1.
</event>
<event>
 5   0  0.4713971E-05  0.2403740E+04  0.7818609E-02  0.8438105E-01
       -2   -1    0    0    0  501  0.00000000000E+00  0.00000000000E+00  0.62521986765E+03  0.62521986765E+03  0.25500000920E-02 0. -1.
        2   -1    0    0  501    0  0.00000000000E+00  0.00000000000E+00 -0.23103735038E+04  0.23103735038E+04  0.25500000920E-02 0.  1.
    10030    2    1    2    0    0  0.00000000000E+00  0.00000000000E+00 -0.16851536362E+04  0.29355933715E+04  0.24037399329E+04 0.  0.
        5    1    3    3  502    0 -0.11614323567E+04  0.21958505405E+03 -0.11082582016E+04  0.16203089355E+04  0.46999998093E+01 0.  1.
       -5    1    3    3    0  502  0.11614323567E+04 -0.21958505405E+03 -0.57689543463E+03  0.13152844360E+04  0.46999998093E+01 0. -1.
</event>
<event>
 5   0  0.2090039E-05  0.2389384E+04  0.7818609E-02  0.8443489E-01
        1   -1    0    0  501    0  0.00000000000E+00  0.00000000000E+00  0.20838720830E+04  0.20838720830E+04  0.50400001928E-02 0. -1.
       -1   -1    0    0    0  501  0.00000000000E+00  0.00000000000E+00 -0.68492152564E+03  0.68492152566E+03  0.50400001928E-02 0.  1.
    10030    2    1    2    0    0  0.00000000000E+00  0.00000000000E+00  0.13989505574E+04  0.27687936087E+04  0.23893838924E+04 0.  0.
        1    1    3    3  502    0 -0.29284878009E+03 -0.11484810419E+04  0.52558060198E+03  0.12965354144E+04  0.50400001928E-02 0.  1.
       -1    1    3    3    0  502  0.29284878009E+03  0.11484810419E+04  0.87336995537E+03  0.14722581943E+04  0.50400001928E-02 0. -1.
</event>
<event>
 5   0  0.4664127E-05  0.2414958E+04  0.7818609E-02  0.8433925E-01
       -2   -1    0    0    0  501  0.00000000000E+00  0.00000000000E+00  0.10979450412E+04  0.10979450412E+04  0.25500000920E-02 0. -1.
        2   -1    0    0  501    0  0.00000000000E+00  0.00000000000E+00 -0.13279400490E+04  0.13279400490E+04  0.25500000920E-02 0.  1.
    10030    2    1    2    0    0  0.00000000000E+00  0.00000000000E+00 -0.22999500780E+03  0.24258850902E+04  0.24149577154E+04 0.  0.
        4    1    3    3  502    0  0.14144905061E+03  0.66824063951E+03 -0.11152189108E+04  0.13077722348E+04  0.12699999809E+01 0.  1.
       -4    1    3    3    0  502 -0.14144905061E+03 -0.66824063951E+03  0.88522390295E+03  0.11181128554E+04  0.12699999809E+01 0. -1.
</event>
<event>
 5   0  0.2139556E-05  0.2431812E+04  0.7818609E-02  0.8427689E-01
        1   -1    0    0  501    0  0.00000000000E+00  0.00000000000E+00  0.15136405071E+04  0.15136405071E+04  0.50400001928E-02 0. -1.
       -1   -1    0    0    0  501  0.00000000000E+00  0.00000000000E+00 -0.97673630150E+03  0.97673630151E+03  0.50400001928E-02 0.  1.
    10030    2    1    2    0    0  0.00000000000E+00  0.00000000000E+00  0.53690420563E+03  0.24903768087E+04  0.24318121891E+04 0.  0.
        2    1    3    3  502    0 -0.11945474743E+04  0.16909231264E+03  0.11350817839E+03  0.12117838029E+04  0.25500000920E-02 0.  1.
       -2    1    3    3    0  502  0.11945474743E+04 -0.16909231264E+03  0.42339602724E+03  0.12785930057E+04  0.25500000920E-02 0. -1.
</event>
<event>
 5   0  0.2139556E-05  0.2019169E+04  0.7818609E-02  0.8597711E-01
        1   -1    0    0  501    0  0.00000000000E+00  0.00000000000E+00  0.91118216308E+03  0.91118216309E+03  0.50400001928E-02 0.  1.
       -1   -1    0    0    0  501  0.00000000000E+00  0.00000000000E+00 -0.11186139539E+04  0.11186139539E+04  0.50400001928E-02 0. -1.
    10030    2    1    2    0    0  0.00000000000E+00  0.00000000000E+00 -0.20743179080E+03  0.20297961170E+04  0.20191692174E+04 0.  0.
        2    1    3    3  502    0  0.52500032867E+03 -0.69884592271E+03 -0.61159772154E+03  0.10668002352E+04  0.25500000920E-02 0. -1.
       -2    1    3    3    0  502 -0.52500032867E+03  0.69884592271E+03  0.40416593074E+03  0.96299588180E+03  0.25500000920E-02 0.  1.
</event>
<event>
 5   0  0.4914005E-05  0.1980380E+04  0.7818609E-02  0.8615849E-01
        2   -1    0    0  501    0  0.00000000000E+00  0.00000000000E+00  0.73217818329E+03  0.73217818330E+03  0.25500000920E-02 0.  1.
       -2   -1    0    0    0  501  0.00000000000E+00  0.00000000000E+00 -0.13391220244E+04  0.13391220244E+04  0.25500000920E-02 0. -1.
    10030    2    1    2    0    0  0.00000000000E+00  0.00000000000E+00 -0.60694384116E+03  0.20713002077E+04  0.19803796920E+04 0.  0.
        2    1    3    3  502    0 -0.44634908761E+03 -0.87821739827E+03 -0.40797207948E+03  0.10662713183E+04  0.25500000920E-02 0. -1.
       -2    1    3    3    0  502  0.44634908761E+03  0.87821739827E+03 -0.19897176168E+03  0.10050288894E+04  0.25500000920E-02 0.  1.
</event>
<event>
 5   0  0.2149920E-05  0.2400430E+04  0.7818609E-02  0.8439343E-01
       -1   -1    0    0    0  501  0.00000000000E+00  0.00000000000E+00  0.49419717707E+03  0.49419717710E+03  0.50400001928E-02 0. -1.
        1   -1    0    0  501    0  0.00000000000E+00  0.00000000000E+00 -0.29148607490E+04  0.29148607490E+04  0.50400001928E-02 0.  1.
    10030    2    1    2    0    0  0.00000000000E+00  0.00000000000E+00 -0.24206635720E+04  0.34090579261E+04  0.24004299230E+04 0.  0.
        5    1    3    3  502    0  0.13216560945E+03 -0.11840543050E+04 -0.10043238807E+04  0.15582493038E+04  0.46999998093E+01 0. -1.
       -5    1    3    3    0  502 -0.13216560945E+03  0.11840543050E+04 -0.14163396912E+04  0.18508086223E+04  0.46999998093E+01 0.  1.
</event>
<event>
 5   0  0.2057599E-05  0.2387135E+04  0.7818609E-02  0.8444336E-01
       -1   -1    0    0    0  501  0.00000000000E+00  0.00000000000E+00  0.93616745381E+03  0.93616745383E+03  0.50400001928E-02 0.  1.
        1   -1    0    0  501    0  0.00000000000E+00  0.00000000000E+00 -0.15217404849E+04  0.15217404850E+04  0.50400001928E-02 0. -1.
    10030    2    1    2    0    0  0.00000000000E+00  0.00000000000E+00 -0.58557303113E+03  0.24579079388E+04  0.23871354509E+04 0.  0.
        4    1    3    3  502    0 -0.32682701659E+02  0.35156633994E+02  0.93517250309E+03  0.93640449131E+03  0.12699999809E+01 0.  1.
       -4    1    3    3    0  502  0.32682701659E+02 -0.35156633994E+02 -0.15207455342E+04  0.15215034475E+04  0.12699999809E+01 0. -1.
</event>
<event>
 5   0  0.2149920E-05  0.2440492E+04  0.7818609E-02  0.8424498E-01
        1   -1    0    0  501    0  0.00000000000E+00  0.00000000000E+00  0.12499349682E+04  0.12499349682E+04  0.50400001928E-02 0. -1.
       -1   -1    0    0    0  501  0.00000000000E+00  0.00000000000E+00 -0.11912624054E+04  0.11912624054E+04  0.50400001928E-02 0.  1.
    10030    2    1    2    0    0  0.00000000000E+00  0.00000000000E+00  0.58672562796E+02  0.24411973736E+04  0.24404921937E+04 0.  0.
        5    1    3    3  502    0  0.62330539165E+03 -0.75445346873E+03  0.75842877456E+03  0.12381219422E+04  0.46999998093E+01 0. -1.
       -5    1    3    3    0  502 -0.62330539165E+03  0.75445346873E+03 -0.69975621176E+03  0.12030754314E+04  0.46999998093E+01 0.  1.
</event>
<event>
 5   0  0.4914005E-05  0.2412096E+04  0.7818609E-02  0.8434989E-01
       -2   -1    0    0    0  501  0.00000000000E+00  0.00000000000E+00  0.10610794305E+04  0.10610794305E+04  0.25500000920E-02 0.  1.
        2   -1    0    0  501    0  0.00000000000E+00  0.00000000000E+00 -0.13708225522E+04  0.13708225522E+04  0.25500000920E-02 0. -1.
    10030    2    1    2    0    0  0.00000000000E+00  0.00000000000E+00 -0.30974312166E+03  0.24319019827E+04  0.24120958630E+04 0.  0.
        2    1    3    3  502    0 -0.55617820100E+03 -0.10346558053E+04 -0.43043761455E+03  0.12510489066E+04  0.25500000920E-02 0.  1.
       -2    1    3    3    0  502  0.55617820100E+03  0.10346558053E+04  0.12069449289E+03  0.11808530761E+04  0.25500000920E-02 0. -1.
</event>
<event>
 5   0  0.4914005E-05  0.2376247E+04  0.7818609E-02  0.8448450E-01
        2   -1    0    0  501    0  0.00000000000E+00  0.00000000000E+00  0.11009971658E+04  0.11009971658E+04  0.25500000920E-02 0.  1.
       -2   -1    0    0    0  501  0.00000000000E+00  0.00000000000E+00 -0.12821444966E+04  0.12821444966E+04  0.25500000920E-02 0. -1.
    10030    2    1    2    0    0  0.00000000000E+00  0.00000000000E+00 -0.18114733074E+03  0.23831416624E+04  0.23762470047E+04 0.  0.
        2    1    3    3  502    0 -0.82009693703E+03 -0.85700048254E+03 -0.22342129018E+02  0.11863844166E+04  0.25500000920E-02 0. -1.
       -2    1    3    3    0  502  0.82009693703E+03  0.85700048254E+03 -0.15880520172E+03  0.11967572458E+04  0.25500000920E-02 0.  1.
</event>
<event>
 5   0  0.2090039E-05  0.2102923E+04  0.7818609E-02  0.8559957E-01
        1   -1    0    0  501    0  0.00000000000E+00  0.00000000000E+00  0.23088041105E+04  0.23088041105E+04  0.50400001928E-02 0. -1.
       -1   -1    0    0    0  501  0.00000000000E+00  0.00000000000E+00 -0.47885014012E+03  0.47885014014E+03  0.50400001928E-02 0.  1.
    10030    2    1    2    0    0  0.00000000000E+00  0.00000000000E+00  0.18299539704E+04  0.27876542506E+04  0.21029228915E+04 0.  0.
        1    1    3    3  502    0 -0.13645732064E+03 -0.66123338205E+03  0.19834880075E+04  0.20952505487E+04  0.50400001928E-02 0. -1.
       -1    1    3    3    0  502  0.13645732064E+03  0.66123338205E+03 -0.15353403711E+03  0.69240370195E+03  0.50400001928E-02 0.  1.
</event>
<event>
 5   0  0.4756705E-05  0.2421100E+04  0.7818609E-02  0.8431646E-01
        2   -1    0    0  501    0  0.00000000000E+00  0.00000000000E+00  0.13304620242E+04  0.13304620242E+04  0.25500000920E-02 0.  1.
       -2   -1    0    0    0  501  0.00000000000E+00  0.00000000000E+00 -0.11014452950E+04  0.11014452950E+04  0.25500000920E-02 0. -1.
    10030    2    1    2    0    0  0.00000000000E+00  0.00000000000E+00  0.22901672921E+03  0.24319073191E+04  0.24210998630E+04 0.  0.
        3    1    3    3  502    0  0.11317175108E+04  0.40793551765E+03 -0.21132256031E+02  0.12031801583E+04  0.10100000352E+00 0.  1.
       -3    1    3    3    0  502 -0.11317175108E+04 -0.40793551765E+03  0.25014898524E+03  0.12287271609E+04  0.10100000352E+00 0. -1.
</event>
<event>
 5   0  0.4756705E-05  0.2418109E+04  0.7818609E-02  0.8432755E-01
       -2   -1    0    0    0  501  0.00000000000E+00  0.00000000000E+00  0.68197714337E+03  0.68197714338E+03  0.25500000920E-02 0.  1.
        2   -1    0    0  501    0  0.00000000000E+00  0.00000000000E+00 -0.21434914652E+04  0.21434914652E+04  0.25500000920E-02 0. -1.
    10030    2    1    2    0    0  0.00000000000E+00  0.00000000000E+00 -0.14615143218E+04  0.28254686086E+04  0.24181085057E+04 0.  0.
        3    1    3    3  502    0 -0.29824594139E+03 -0.55241024490E+03 -0.19381267409E+04  0.20372636045E+04  0.10100000352E+00 0. -1.
       -3    1    3    3    0  502  0.29824594139E+03  0.55241024490E+03  0.47661241908E+03  0.78820500408E+03  0.10100000352E+00 0.  1.
</event>
<event>
 5   0  0.4664127E-05  0.2385047E+04  0.7818609E-02  0.8445123E-01
       -2   -1    0    0    0  501  0.00000000000E+00  0.00000000000E+00  0.13016623644E+04  0.13016623644E+04  0.25500000920E-02 0.  1.
        2   -1    0    0  501    0  0.00000000000E+00  0.00000000000E+00 -0.10925356678E+04  0.10925356678E+04  0.25500000920E-02 0. -1.
    10030    2    1    2    0    0  0.00000000000E+00  0.00000000000E+00  0.20912669660E+03  0.23941980322E+04  0.23850472201E+04 0.  0.
        4    1    3    3  502    0 -0.60417846980E+03  0.10242354752E+04  0.19446709043E+03  0.12049518638E+04  0.12699999809E+01 0.  1.
       -4    1    3    3    0  502  0.60417846980E+03 -0.10242354752E+04  0.14659606177E+02  0.11892461684E+04  0.12699999809E+01 0. -1.
</event>
<event>
 5   0  0.2057599E-05  0.2380892E+04  0.7818609E-02  0.8446692E-01
        1   -1    0    0  501    0  0.00000000000E+00  0.00000000000E+00  0.12403860843E+04  0.12403860843E+04  0.50400001928E-02 0.  1.
       -1   -1    0    0    0  501  0.00000000000E+00  0.00000000000E+00 -0.11425164732E+04  0.11425164732E+04  0.50400001928E-02 0. -1.
    10030    2    1    2    0    0  0.00000000000E+00  0.00000000000E+00  0.97869611128E+02  0.23829025575E+04  0.23808918786E+04 0.  0.
        4    1    3    3  502    0  0.61041751577E+03  0.54236483030E+03 -0.81804773398E+03  0.11558429221E+04  0.12699999809E+01 0. -1.
       -4    1    3    3    0  502 -0.61041751577E+03 -0.54236483030E+03  0.91591734511E+03  0.12270596353E+04  0.12699999809E+01 0.  1.
</event>
<event>
 5   0  0.2057599E-05  0.2283196E+04  0.7818609E-02  0.8484576E-01
       -1   -1    0    0    0  501  0.00000000000E+00  0.00000000000E+00  0.62597848800E+03  0.62597848802E+03  0.50400001928E-02 0. -1.
        1   -1    0    0  501    0  0.00000000000E+00  0.00000000000E+00 -0.20819334018E+04  0.20819334018E+04  0.50400001928E-02 0.  1.
    10030    2    1    2    0    0  0.00000000000E+00  0.00000000000E+00 -0.14559549138E+04  0.27079118898E+04  0.22831955878E+04 0.  0.
        4    1    3    3  502    0 -0.56103363489E+03 -0.51105780333E+03  0.28348490541E+03  0.81012599163E+03  0.12699999809E+01 0. -1.
       -4    1    3    3    0  502  0.56103363489E+03  0.51105780333E+03 -0.17394398192E+04  0.18977858982E+04  0.12699999809E+01 0.  1.
</event>
<event>
 5   0  0.4713971E-05  0.2416323E+04  0.7818609E-02  0.8433418E-01
        2   -1    0    0  501    0  0.00000000000E+00  0.00000000000E+00  0.12545345707E+04  0.12545345707E+04  0.25500000920E-02 0.  1.
       -2   -1    0    0    0  501  0.00000000000E+00  0.00000000000E+00 -0.11635021873E+04  0.11635021873E+04  0.25500000920E-02 0. -1.
    10030    2    1    2    0    0  0.00000000000E+00  0.00000000000E+00  0.91032383383E+02  0.24180367579E+04  0.24163225918E+04 0.  0.
        5    1    3    3  502    0  0.40226713637E+03  0.16748678258E+03 -0.10821199020E+04  0.11665660048E+04  0.46999998093E+01 0. -1.
       -5    1    3    3    0  502 -0.40226713637E+03 -0.16748678258E+03  0.11731522853E+04  0.12514707531E+04  0.46999998093E+01 0.  1.
</event>
<event>
 5   0  0.2057599E-05  0.2396242E+04  0.7818609E-02  0.8440912E-01
       -1   -1    0    0    0  501  0.00000000000E+00  0.00000000000E+00  0.17867532859E+04  0.17867532859E+04  0.50400001928E-02 0.  1.
        1   -1    0    0  501    0  0.00000000000E+00  0.00000000000E+00 -0.80340941257E+03  0.80340941258E+03  0.50400001928E-02 0. -1.
    10030    2    1    2    0    0  0.00000000000E+00  0.00000000000E+00  0.98334387334E+03  0.25901626985E+04  0.23962423983E+04 0.  0.
        4    1    3    3  502    0  0.23107519968E+03 -0.94887676671E+03 -0.25856442791E+03  0.10102574140E+04  0.12699999809E+01 0. -1.
       -4    1    3    3    0  502 -0.23107519968E+03  0.94887676671E+03  0.12419083013E+04  0.15799052845E+04  0.12699999809E+01 0.  1.
</event>
<event>
 5   0  0.4756705E-05  0.2424490E+04  0.7818609E-02  0.8430391E-01
       -2   -1    0    0    0  501  0.00000000000E+00  0.00000000000E+00  0.88616010326E+03  0.88616010326E+03  0.25500000920E-02 0.  1.
        2   -1    0    0  501    0  0.00000000000E+00  0.00000000000E+00 -0.16583216954E+04  0.16583216954E+04  0.25500000920E-02 0. -1.
    10030    2    1    2    0    0  0.00000000000E+00  0.00000000000E+00 -0.77216159218E+03  0.25444817987E+04  0.24244904825E+04 0.  0.
        3    1    3    3  502    0  0.77012720398E+03 -0.47819838965E+03  0.45859278933E+03  0.10159118893E+04  0.10100000352E+00 0.  1.
       -3    1    3    3    0  502 -0.77012720398E+03  0.47819838965E+03 -0.12307543815E+04  0.15285699094E+04  0.10100000352E+00 0. -1.
</event>
<event>
 5   0  0.4756705E-05  0.2406368E+04  0.7818609E-02  0.8437123E-01
       -2   -1    0    0    0  501  0.00000000000E+00  0.00000000000E+00  0.88500851299E+03  0.88500851300E+03  0.25500000920E-02 0. -1.
        2   -1    0    0  501    0  0.00000000000E+00  0.00000000000E+00 -0.16357496137E+04  0.16357496137E+04  0.25500000920E-02 0.  1.
    10030    2    1    2    0    0  0.00000000000E+00  0.00000000000E+00 -0.75074110066E+03  0.25207581267E+04  0.24063684948E+04 0.  0.
        3    1    3    3  502    0 -0.94019430751E+03 -0.70585519355E+03 -0.64337493087E+03  0.13401970758E+04  0.10100000352E+00 0.  1.
       -3    1    3    3    0  502  0.94019430751E+03  0.70585519355E+03 -0.10736616978E+03  0.11805610508E+04  0.10100000352E+00 0. -1.
</event>
<event>
 5   0  0.2057599E-05  0.2482401E+04  0.7818609E-02  0.8409282E-01
       -1   -1    0    0    0  501  0.00000000000E+00  0.00000000000E+00  0.13474059385E+04  0.13474059385E+04  0.50400001928E-02 0.  1.
        1   -1    0    0  501    0  0.00000000000E+00  0.00000000000E+00 -0.11433663790E+04  0.11433663791E+04  0.50400001928E-02 0. -1.
    10030    2    1    2    0    0  0.00000000000E+00  0.00000000000E+00  0.20403955947E+03  0.24907723176E+04  0.24824009741E+04 0.  0.
        4    1    3    3  502    0  0.59370863469E+02  0.26764301757E+03 -0.11126075774E+04  0.11458860844E+04  0.12699999809E+01 0. -1.
       -4    1    3    3    0  502 -0.59370863469E+02 -0.26764301757E+03  0.13166471369E+04  0.13448862332E+04  0.12699999809E+01 0.  1.
</event>
<event>
 5   0  0.2065692E-05  0.2539387E+04  0.7818609E-02  0.8389087E-01
        1   -1    0    0  501    0  0.00000000000E+00  0.00000000000E+00  0.14787710455E+04  0.14787710455E+04  0.50400001928E-02 0. -1.
       -1   -1    0    0    0  501  0.00000000000E+00  0.00000000000E+00 -0.10901766649E+04  0.10901766649E+04  0.50400001928E-02 0.  1.
    10030    2    1    2    0    0  0.00000000000E+00  0.00000000000E+00  0.38859438057E+03  0.25689477104E+04  0.25393870808E+04 0.  0.
        3    1    3    3  502    0  0.70458676843E+03 -0.72731790592E+03  0.96916906363E+03  0.14016856048E+04  0.10100000352E+00 0. -1.
       -3    1    3    3    0  502 -0.70458676843E+03  0.72731790592E+03 -0.58057468306E+03  0.11672621057E+04  0.10100000352E+00 0.  1.
</event>
<event>
 5   0  0.2057599E-05  0.2362101E+04  0.7818609E-02  0.8453830E-01
       -1   -1    0    0    0  501  0.00000000000E+00  0.00000000000E+00  0.13347350487E+04  0.13347350487E+04  0.50400001928E-02 0.  1.
        1   -1    0    0  501    0  0.00000000000E+00  0.00000000000E+00 -0.10450618233E+04  0.10450618233E+04  0.50400001928E-02 0. -1.
    10030    2    1    2    0    0  0.00000000000E+00  0.00000000000E+00  0.28967322545E+03  0.23797968720E+04  0.23621013049E+04 0.  0.
        4    1    3    3  502    0  0.32244878768E+03 -0.57183564828E+03 -0.84430749441E+03  0.10694980072E+04  0.12699999809E+01 0. -1.
       -4    1    3    3    0  502 -0.32244878768E+03  0.57183564828E+03  0.11339807199E+04  0.13102988649E+04  0.12699999809E+01 0.  1.
</event>
<event>
 5   0  0.4713971E-05  0.2101706E+04  0.7818609E-02  0.8560492E-01
        2   -1    0    0  501    0  0.00000000000E+00  0.00000000000E+00  0.19502876892E+04  0.19502876892E+04  0.25500000920E-02 0. -1.
       -2   -1    0    0    0  501  0.00000000000E+00  0.00000000000E+00 -0.56621994294E+03  0.56621994295E+03  0.25500000920E-02 0.  1.
    10030    2    1    2    0    0  0.00000000000E+00  0.00000000000E+00  0.13840677463E+04  0.25165076322E+04  0.21017057683E+04 0.  0.
        5    1    3    3  502    0 -0.72493125074E+03  0.27225264248E+03 -0.15853562036E+03  0.79044446519E+03  0.46999998093E+01 0.  1.
       -5    1    3    3    0  502  0.72493125074E+03 -0.27225264248E+03  0.15426033666E+04  0.17260631670E+04  0.46999998093E+01 0. -1.
</event>
<event>
 5   0  0.2057599E-05  0.2174625E+04  0.7818609E-02  0.8529064E-01
        1   -1    0    0  501    0  0.00000000000E+00  0.00000000000E+00  0.17732447090E+04  0.17732447090E+04  0.50400001928E-02 0.  1.
       -1   -1    0    0    0  501  0.00000000000E+00  0.00000000000E+00 -0.66671500996E+03  0.66671500998E+03  0.50400001928E-02 0. -1.
    10030    2    1    2    0    0  0.00000000000E+00  0.00000000000E+00  0.11065296990E+04  0.24399597190E+04  0.21746253598E+04 0.  0.
        4    1    3    3  502    0  0.10994651975E+03 -0.75155028403E+03 -0.31969593014E+03  0.82408929570E+03  0.12699999809E+01 0.  1.
       -4    1    3    3    0  502 -0.10994651975E+03  0.75155028403E+03  0.14262256292E+04  0.16158704233E+04  0.12699999809E+01 0. -1.
</event>
<event>
 5   0  0.2139556E-05  0.2445088E+04  0.7818609E-02  0.8422814E-01
        1   -1    0    0  501    0  0.00000000000E+00  0.00000000000E+00  0.12080464740E+04  0.12080464741E+04  0.50400001928E-02 0.  1.
       -1   -1    0    0    0  501  0.00000000000E+00  0.00000000000E+00 -0.12372154628E+04  0.12372154628E+04  0.50400001928E-02 0. -1.
    10030    2    1    2    0    0  0.00000000000E+00  0.00000000000E+00 -0.29168988745E+02  0.24452619369E+04  0.24450879555E+04 0.  0.
        2    1    3    3  502    0 -0.70553482335E+03  0.98137846126E+03  0.16908778639E+03  0.12204399824E+04  0.25500000920E-02 0. -1.
       -2    1    3    3    0  502  0.70553482335E+03 -0.98137846126E+03 -0.19825677514E+03  0.12248219544E+04  0.25500000920E-02 0.  1.
</event>
<event>
 5   0  0.2149920E-05  0.2173875E+04  0.7818609E-02  0.8529381E-01
        1   -1    0    0  501    0  0.00000000000E+00  0.00000000000E+00  0.47625870789E+03  0.47625870791E+03  0.50400001928E-02 0. -1.
       -1   -1    0    0    0  501  0.00000000000E+00  0.00000000000E+00 -0.24806545453E+04  0.24806545453E+04  0.50400001928E-02 0.  1.
    10030    2    1    2    0    0  0.00000000000E+00  0.00000000000E+00 -0.20043958374E+04  0.29569132532E+04  0.21738751836E+04 0.  0.
        5    1    3    3  502    0 -0.45113529893E+02 -0.65192561088E+03 -0.21835950102E+04  0.22792874964E+04  0.46999998093E+01 0.  1.
       -5    1    3    3    0  502  0.45113529893E+02  0.65192561088E+03  0.17919917283E+03  0.67762575677E+03  0.46999998093E+01 0. -1.
</event>
<event>
 5   0  0.4914005E-05  0.2362262E+04  0.7818609E-02  0.8453769E-01
       -2   -1    0    0    0  501  0.00000000000E+00  0.00000000000E+00  0.57846664483E+03  0.57846664484E+03  0.25500000920E-02 0.  1.
        2   -1    0    0  501    0  0.00000000000E+00  0.00000000000E+00 -0.24116686363E+04  0.24116686363E+04  0.25500000920E-02 0. -1.
    10030    2    1    2    0    0  0.00000000000E+00  0.00000000000E+00 -0.18332019915E+04  0.29901352811E+04  0.23622615135E+04 0.  0.
        2    1    3    3  502    0  0.51163246627E+03  0.66933010354E+03  0.13125838560E+03  0.85264255808E+03  0.25500000920E-02 0.  1.
       -2    1    3    3    0  502 -0.51163246627E+03 -0.66933010354E+03 -0.19644603771E+04  0.21374927231E+04  0.25500000920E-02 0. -1.
</event>
<event>
 5   0  0.4664127E-05  0.2402198E+04  0.7818609E-02  0.8438681E-01
        2   -1    0    0  501    0  0.00000000000E+00  0.00000000000E+00  0.13305172329E+04  0.13305172329E+04  0.25500000920E-02 0. -1.
       -2   -1    0    0    0  501  0.00000000000E+00  0.00000000000E+00 -0.10842694850E+04  0.10842694850E+04  0.25500000920E-02 0.  1.
    10030    2    1    2    0    0  0.00000000000E+00  0.00000000000E+00  0.24624774786E+03  0.24147867179E+04  0.24021983556E+04 0.  0.
        4    1    3    3  502    0 -0.22405677171E+03 -0.85770733097E+03 -0.69153913067E+03  0.11243181421E+04  0.12699999809E+01 0.  1.
       -4    1    3    3    0  502  0.22405677171E+03  0.85770733097E+03  0.93778687853E+03  0.12904685757E+04  0.12699999809E+01 0. -1.
</event>
<event>
 5   0  0.4756705E-05  0.2293847E+04  0.7818609E-02  0.8480351E-01
        2   -1    0    0  501    0  0.00000000000E+00  0.00000000000E+00  0.19639672510E+04  0.19639672510E+04  0.25500000920E-02 0.  1.
       -2   -1    0    0    0  501  0.00000000000E+00  0.00000000000E+00 -0.66978371195E+03  0.66978371196E+03  0.25500000920E-02 0. -1.
    10030    2    1    2    0    0  0.00000000000E+00  0.00000000000E+00  0.12941835390E+04  0.26337509629E+04  0.22938467913E+04 0.  0.
        3    1    3    3  502    0 -0.30639678837E+03  0.56431075959E+03  0.17382307173E+04  0.18530438911E+04  0.10100000352E+00 0.  1.
       -3    1    3    3    0  502  0.30639678837E+03 -0.56431075959E+03 -0.44404717831E+03  0.78070707188E+03  0.10100000352E+00 0. -1.
</event>
<event>
 5   0  0.2057599E-05  0.2257966E+04  0.7818609E-02  0.8494681E-01
        1   -1    0    0  501    0  0.00000000000E+00  0.00000000000E+00  0.45884524213E+03  0.45884524216E+03  0.50400001928E-02 0.  1.
       -1   -1    0    0    0  501  0.00000000000E+00  0.00000000000E+00 -0.27778493682E+04  0.27778493682E+04  0.50400001928E-02 0. -1.
    10030    2    1    2    0    0  0.00000000000E+00  0.00000000000E+00 -0.23190041260E+04  0.32366946103E+04  0.22579663115E+04 0.  0.
        4    1    3    3  502    0  0.80054424786E+03 -0.57852693549E+03 -0.37562741680E+03  0.10567223273E+04  0.12699999809E+01 0.  1.
       -4    1    3    3    0  502 -0.80054424786E+03  0.57852693549E+03 -0.19433767092E+04  0.21799722830E+04  0.12699999809E+01 0. -1.
</event>
<event>
 5   0  0.2065692E-05  0.2429285E+04  0.7818609E-02  0.8428620E-01
       -1   -1    0    0    0  501  0.00000000000E+00  0.00000000000E+00  0.33219231683E+04  0.33219231683E+04  0.50400001928E-02 0.  1.
        1   -1    0    0  501    0  0.00000000000E+00  0.00000000000E+00 -0.44412718858E+03  0.44412718861E+03  0.50400001928E-02 0. -1.
    10030    2    1    2    0    0  0.00000000000E+00  0.00000000000E+00  0.28777959797E+04  0.37660503569E+04  0.24292849956E+04 0.  0.
        3    1    3    3  502    0 -0.65355931004E+03 -0.16956374748E+03 -0.12638823083E+03  0.68692476393E+03  0.10100000352E+00 0. -1.
       -3    1    3    3    0  502  0.65355931004E+03  0.16956374748E+03  0.30041842106E+04  0.30791255930E+04  0.10100000352E+00 0.  1.
</event>
<event>
 5   0  0.2149920E-05  0.2394654E+04  0.7818609E-02  0.8441508E-01
       -1   -1    0    0    0  501  0.00000000000E+00  0.00000000000E+00  0.14146033170E+04  0.14146033170E+04  0.50400001928E-02 0. -1.
        1   -1    0    0  501    0  0.00000000000E+00  0.00000000000E+00 -0.10134230044E+04  0.10134230044E+04  0.50400001928E-02 0.  1.
    10030    2    1    2    0    0  0.00000000000E+00  0.00000000000E+00  0.40118031267E+03  0.24280263214E+04  0.23946536648E+04 0.  0.
        5    1    3    3  502    0 -0.30637412118E+03  0.53651486911E+03  0.12404836336E+04  0.13858336994E+04  0.46999998093E+01 0. -1.
       -5    1    3    3    0  502  0.30637412118E+03 -0.53651486911E+03 -0.83930332098E+03  0.10421926221E+04  0.46999998093E+01 0.  1.
</event>
<event>
 5   0  0.2149920E-05  0.2394396E+04  0.7818609E-02  0.8441604E-01
        1   -1    0    0  501    0  0.00000000000E+00  0.00000000000E+00  0.14161080619E+04  0.14161080619E+04  0.50400001928E-02 0. -1.
       -1   -1    0    0    0  501  0.00000000000E+00  0.00000000000E+00 -0.10121287058E+04  0.10121287059E+04  0.50400001928E-02 0.  1.
    10030    2    1    2    0    0  0.00000000000E+00  0.00000000000E+00  0.40397935605E+03  0.24282367678E+04  0.23943964751E+04 0.  0.
        5    1    3    3  502    0 -0.97768941960E+03  0.42459409565E+03  0.75476645311E+03  0.13060824002E+04  0.46999998093E+01 0. -1.
       -5    1    3    3    0  502  0.97768941960E+03 -0.42459409565E+03 -0.35078709706E+03  0.11221543676E+04  0.46999998093E+01 0.  1.
</event>
<event>
 5   0  0.4914005E-05  0.2466928E+04  0.7818609E-02  0.8414863E-01
       -2   -1    0    0    0  501  0.00000000000E+00  0.00000000000E+00  0.94977243579E+03  0.94977243579E+03  0.25500000920E-02 0. -1.
        2   -1    0    0  501    0  0.00000000000E+00  0.00000000000E+00 -0.16018928399E+04  0.16018928399E+04  0.25500000920E-02 0.  1.
    10030    2    1    2    0    0  0.00000000000E+00  0.00000000000E+00 -0.65212040414E+03  0.25516652757E+04  0.24669281825E+04 0.  0.
        2    1    3    3  502    0 -0.11183800256E+03 -0.37830923984E+03 -0.15348812974E+04  0.15847669282E+04  0.25500000920E-02 0.  1.
       -2    1    3    3    0  502  0.11183800256E+03  0.37830923984E+03  0.88276089323E+03  0.96689834749E+03  0.25500000920E-02 0. -1.
</event>
<event>
 5   0  0.4914005E-05  0.2462922E+04  0.7818609E-02  0.8416315E-01
        2   -1    0    0  501    0  0.00000000000E+00  0.00000000000E+00  0.12133228823E+04  0.12133228824E+04  0.25500000920E-02 0. -1.
       -2   -1    0    0    0  501  0.00000000000E+00  0.00000000000E+00 -0.12498700115E+04  0.12498700115E+04  0.25500000920E-02 0.  1.
    10030    2    1    2    0    0  0.00000000000E+00  0.00000000000E+00 -0.36547129188E+02  0.24631928939E+04  0.24629217486E+04 0.  0.
        2    1    3    3  502    0  0.97514739862E+02  0.94102142696E+03  0.77014401345E+03  0.12198984597E+04  0.25500000920E-02 0. -1.
       -2    1    3    3    0  502 -0.97514739862E+02 -0.94102142696E+03 -0.80669114264E+03  0.12432944342E+04  0.25500000920E-02 0.  1.
</event>
<event>
 5   0  0.2065692E-05  0.2375736E+04  0.7818609E-02  0.8448644E-01
        1   -1    0    0  501    0  0.00000000000E+00  0.00000000000E+00  0.21147297125E+04  0.21147297125E+04  0.50400001928E-02 0. -1.
       -1   -1    0    0    0  501  0.00000000000E+00  0.00000000000E+00 -0.66723916389E+03  0.66723916391E+03  0.50400001928E-02 0.  1.
    10030    2    1    2    0    0  0.00000000000E+00  0.00000000000E+00  0.14474905486E+04  0.27819688764E+04  0.23757360841E+04 0.  0.
        3    1    3    3  502    0  0.72778351847E+03  0.26105287467E+03  0.17797265928E+04  0.19404237188E+04  0.10100000352E+00 0. -1.
       -3    1    3    3    0  502 -0.72778351847E+03 -0.26105287467E+03 -0.33223604417E+03  0.84154515765E+03  0.10100000352E+00 0.  1.
</event>
<event>
 5   0  0.2090039E-05  0.2322925E+04  0.7818609E-02  0.8468937E-01
       -1   -1    0    0    0  501  0.00000000000E+00  0.00000000000E+00  0.61293034536E+03  0.61293034538E+03  0.50400001928E-02 0. -1.
        1   -1    0    0  501    0  0.00000000000E+00  0.00000000000E+00 -0.22008948596E+04  0.22008948596E+04  0.50400001928E-02 0.  1.
    10030    2    1    2    0    0  0.00000000000E+00  0.00000000000E+00 -0.15879645142E+04  0.28138252050E+04  0.23229250926E+04 0.  0.
        1    1    3    3  502    0  0.24190767453E+03 -0.11307925821E+04 -0.66248721539E+03  0.13327042047E+04  0.50400001928E-02 0. -1.
       -1    1    3    3    0  502 -0.24190767453E+03  0.11307925821E+04 -0.92547729886E+03  0.14811210003E+04  0.50400001928E-02 0.  1.
</event>
<event>
 5   0  0.4856882E-05  0.2371149E+04  0.7818609E-02  0.8450385E-01
       -2   -1    0    0    0  501  0.00000000000E+00  0.00000000000E+00  0.10518958898E+04  0.10518958898E+04  0.25500000920E-02 0.  1.
        2   -1    0    0  501    0  0.00000000000E+00  0.00000000000E+00 -0.13362413824E+04  0.13362413824E+04  0.25500000920E-02 0. -1.
    10030    2    1    2    0    0  0.00000000000E+00  0.00000000000E+00 -0.28434549264E+03  0.23881372722E+04  0.23711489350E+04 0.  0.
        1    1    3    3  502    0 -0.67369985150E+03 -0.34114931636E+03 -0.10626861897E+04  0.13036703125E+04  0.50400001928E-02 0. -1.
       -1    1    3    3    0  502  0.67369985150E+03  0.34114931636E+03  0.77834069705E+03  0.10844669597E+04  0.50400001928E-02 0.  1.
</event>
<event>
 5   0  0.4713971E-05  0.2378217E+04  0.7818609E-02  0.8447704E-01
       -2   -1    0    0    0  501  0.00000000000E+00  0.00000000000E+00  0.11493227582E+04  0.11493227582E+04  0.25500000920E-02 0. -1.
        2   -1    0    0  501    0  0.00000000000E+00  0.00000000000E+00 -0.12302718108E+04  0.12302718108E+04  0.25500000920E-02 0.  1.
    10030    2    1    2    0    0  0.00000000000E+00  0.00000000000E+00 -0.80949052590E+02  0.23795945690E+04  0.23782173079E+04 0.  0.
        5    1    3    3  502    0 -0.37635856706E+03 -0.90624708143E+03 -0.71244945317E+03  0.12126565288E+04  0.46999998093E+01 0.  1.
       -5    1    3    3    0  502  0.37635856706E+03  0.90624708143E+03  0.63150040058E+03  0.11669380401E+04  0.46999998093E+01 0. -1.
</event>
<event>
 5   0  0.2139556E-05  0.2419574E+04  0.7818609E-02  0.8432212E-01
       -1   -1    0    0    0  501  0.00000000000E+00  0.00000000000E+00  0.14126299011E+04  0.14126299011E+04  0.50400001928E-02 0.  1.
        1   -1    0    0  501    0  0.00000000000E+00  0.00000000000E+00 -0.10360703907E+04  0.10360703907E+04  0.50400001928E-02 0. -1.
    10030    2    1    2    0    0  0.00000000000E+00  0.00000000000E+00  0.37655951046E+03  0.24487002918E+04  0.24195735274E+04 0.  0.
        2    1    3    3  502    0 -0.10396274705E+04  0.46538315781E+03 -0.22427594882E+03  0.11609076028E+04  0.25500000920E-02 0. -1.
       -2    1    3    3    0  502  0.10396274705E+04 -0.46538315781E+03  0.60083545928E+03  0.12877926891E+04  0.25500000920E-02 0.  1.
</event>
<event>
 5   0  0.2139556E-05  0.2395684E+04  0.7818609E-02  0.8441121E-01
        1   -1    0    0  501    0  0.00000000000E+00  0.00000000000E+00  0.10828547734E+04  0.10828547734E+04  0.50400001928E-02 0.  1.
       -1   -1    0    0    0  501  0.00000000000E+00  0.00000000000E+00 -0.13250396896E+04  0.13250396896E+04  0.50400001928E-02 0. -1.
    10030    2    1    2    0    0  0.00000000000E+00  0.00000000000E+00 -0.24218491617E+03  0.24078944630E+04  0.23956840801E+04 0.  0.
        2    1    3    3  502    0  0.22882700957E+03 -0.34958513135E+03  0.10072396364E+04  0.10904601091E+04  0.25500000920E-02 0.  1.
       -2    1    3    3    0  502 -0.22882700957E+03  0.34958513135E+03 -0.12494245526E+04  0.13174343539E+04  0.25500000920E-02 0. -1.
</event>
<event>
 5   0  0.2065692E-05  0.2415645E+04  0.7818609E-02  0.8433670E-01
        1   -1    0    0  501    0  0.00000000000E+00  0.00000000000E+00  0.21988693758E+04  0.21988693758E+04  0.50400001928E-02 0. -1.
       -1   -1    0    0    0  501  0.00000000000E+00  0.00000000000E+00 -0.66344766490E+03  0.66344766492E+03  0.50400001928E-02 0.  1.
    10030    2    1    2    0    0  0.00000000000E+00  0.00000000000E+00  0.15354217108E+04  0.28623170407E+04  0.24156446368E+04 0.  0.
        3    1    3    3  502    0  0.29214856638E+03 -0.87904848483E+03  0.16861161315E+04  0.19238151269E+04  0.10100000352E+00 0. -1.
       -3    1    3    3    0  502 -0.29214856638E+03  0.87904848483E+03 -0.15069442063E+03  0.93850191376E+03  0.10100000352E+00 0.  1.
</event>
<event>
 5   0  0.4756705E-05  0.2393641E+04  0.7818609E-02  0.8441888E-01
       -2   -1    0    0    0  501  0.00000000000E+00  0.00000000000E+00  0.75045160045E+03  0.75045160045E+03  0.25500000920E-02 0. -1.
        2   -1    0    0  501    0  0.00000000000E+00  0.00000000000E+00 -0.19086896397E+04  0.19086896397E+04  0.25500000920E-02 0.  1.
    10030    2    1    2    0    0  0.00000000000E+00  0.00000000000E+00 -0.11582380393E+04  0.26591412402E+04  0.23936409045E+04 0.  0.
        3    1    3    3  502    0  0.51256552067E+03 -0.37317946505E+03 -0.17067936956E+04  0.18207501355E+04  0.10100000352E+00 0.  1.
       -3    1    3    3    0  502 -0.51256552067E+03  0.37317946505E+03  0.54855565637E+03  0.83839110471E+03  0.10100000352E+00 0. -1.
</event>
<event>
 5   0  0.2149920E-05  0.2386453E+04  0.7818609E-02  0.8444593E-01
       -1   -1    0    0    0  501  0.00000000000E+00  0.00000000000E+00  0.95319104210E+03  0.95319104211E+03  0.50400001928E-02 0. -1.
        1   -1    0    0  501    0  0.00000000000E+00  0.00000000000E+00 -0.14937082565E+04  0.14937082565E+04  0.50400001928E-02 0.  1.
    10030    2    1    2    0    0  0.00000000000E+00  0.00000000000E+00 -0.54051721444E+03  0.24468992987E+04  0.23864528738E+04 0.  0.
        5    1    3    3  502    0  0.96766229168E+03 -0.48466793364E+03  0.24495663040E+03  0.11096392015E+04  0.46999998093E+01 0. -1.
       -5    1    3    3    0  502 -0.96766229168E+03  0.48466793364E+03 -0.78547384484E+03  0.13372600972E+04  0.46999998093E+01 0.  1.
</event>
<event>
 5   0  0.2139556E-05  0.2434177E+04  0.7818609E-02  0.8426818E-01
       -1   -1    0    0    0  501  0.00000000000E+00  0.00000000000E+00  0.77500338929E+03  0.77500338931E+03  0.50400001928E-02 0. -1.
        1   -1    0    0  501    0  0.00000000000E+00  0.00000000000E+00 -0.19113528840E+04  0.19113528840E+04  0.50400001928E-02 0.  1.
    10030    2    1    2    0    0  0.00000000000E+00  0.00000000000E+00 -0.11363494947E+04  0.26863562733E+04  0.24341774490E+04 0.  0.
        2    1    3    3  502    0 -0.63004499387E+01  0.32123331529E+03 -0.18637054551E+04  0.18911976528E+04  0.25500000920E-02 0.  1.
       -2    1    3    3    0  502  0.63004499387E+01 -0.32123331529E+03  0.72735596044E+03  0.79515862048E+03  0.25500000920E-02 0. -1.
</event>
<event>
 5   0  0.4756705E-05  0.2413060E+04  0.7818609E-02  0.8434630E-01
        2   -1    0    0  501    0  0.00000000000E+00  0.00000000000E+00  0.14503659897E+04  0.14503659897E+04  0.25500000920E-02 0. -1.
       -2   -1    0    0    0  501  0.00000000000E+00  0.00000000000E+00 -0.10036874223E+04  0.10036874223E+04  0.25500000920E-02 0.  1.
    10030    2    1    2    0    0  0.00000000000E+00  0.00000000000E+00  0.44667856736E+03  0.24540534120E+04  0.24130595530E+04 0.  0.
        3    1    3    3  502    0  0.22340715724E+03 -0.28879673599E+03  0.13928315510E+04  0.14398937642E+04  0.10100000352E+00 0. -1.
       -3    1    3    3    0  502 -0.22340715724E+03  0.28879673599E+03 -0.94615298359E+03  0.10141596478E+04  0.10100000352E+00 0.  1.
</event>
<event>
 5   0  0.4713971E-05  0.2392315E+04  0.7818609E-02  0.8442386E-01
        2   -1    0    0  501    0  0.00000000000E+00  0.00000000000E+00  0.14200338889E+04  0.14200338889E+04  0.25500000920E-02 0.  1.
       -2   -1    0    0    0  501  0.00000000000E+00  0.00000000000E+00 -0.10075765718E+04  0.10075765718E+04  0.25500000920E-02 0. -1.
    10030    2    1    2    0    0  0.00000000000E+00  0.00000000000E+00  0.41245731713E+03  0.24276104607E+04  0.23923150943E+04 0.  0.
        5    1    3    3  502    0 -0.53203486085E+03 -0.59660766881E+03  0.11091706747E+04  0.13672174221E+04  0.46999998093E+01 0.  1.
       -5    1    3    3    0  502  0.53203486085E+03  0.59660766881E+03 -0.69671335761E+03  0.10603930386E+04  0.46999998093E+01 0. -1.
</event>
<event>
 5   0  0.4713971E-05  0.2363009E+04  0.7818609E-02  0.8453484E-01
        2   -1    0    0  501    0  0.00000000000E+00  0.00000000000E+00  0.14688919572E+04  0.14688919572E+04  0.25500000920E-02 0. -1.
       -2   -1    0    0    0  501  0.00000000000E+00  0.00000000000E+00 -0.95034455089E+03  0.95034455089E+03  0.25500000920E-02 0.  1.
    10030    2    1    2    0    0  0.00000000000E+00  0.00000000000E+00  0.51854740627E+03  0.24192365081E+04  0.23630094941E+04 0.  0.
        5    1    3    3  502    0  0.65717818550E+03  0.90180257960E+03 -0.13829664746E+03  0.11244016688E+04  0.46999998093E+01 0. -1.
       -5    1    3    3    0  502 -0.65717818550E+03 -0.90180257960E+03  0.65684405373E+03  0.12948348393E+04  0.46999998093E+01 0.  1.
</event>
<event>
 5   0  0.4713971E-05  0.2417874E+04  0.7818609E-02  0.8432842E-01
       -2   -1    0    0    0  501  0.00000000000E+00  0.00000000000E+00  0.76975378237E+03  0.76975378237E+03  0.25500000920E-02 0. -1.
        2   -1    0    0  501    0  0.00000000000E+00  0.00000000000E+00 -0.18986961479E+04  0.18986961479E+04  0.25500000920E-02 0.  1.
    10030    2    1    2    0    0  0.00000000000E+00  0.00000000000E+00 -0.11289423655E+04  0.26684499303E+04  0.24178738937E+04 0.  0.
        5    1    3    3  502    0 -0.39439499556E+03  0.11103530533E+04 -0.86281031892E+03  0.14604434436E+04  0.46999998093E+01 0.  1.
       -5    1    3    3    0  502  0.39439499556E+03 -0.11103530533E+04 -0.26613204662E+03  0.12080064867E+04  0.46999998093E+01 0. -1.
</event>
<event>
 5   0  0.4914005E-05  0.2388038E+04  0.7818609E-02  0.8443996E-01
        2   -1    0    0  501    0  0.00000000000E+00  0.00000000000E+00  0.18166578992E+04  0.18166578992E+04  0.25500000920E-02 0.  1.
       -2   -1    0    0    0  501  0.00000000000E+00  0.00000000000E+00 -0.78478227667E+03  0.78478227668E+03  0.25500000920E-02 0. -1.
    10030    2    1    2    0    0  0.00000000000E+00  0.00000000000E+00  0.10318756226E+04  0.26014401759E+04  0.23880376229E+04 0.  0.
        2    1    3    3  502    0  0.55631589927E+03 -0.48038108810E+03 -0.50912197080E+03  0.89412446043E+03  0.25500000920E-02 0. -1.
       -2    1    3    3    0  502 -0.55631589927E+03  0.48038108810E+03  0.15409975934E+04  0.17073157155E+04  0.25500000920E-02 0.  1.
</event>
<event>
 5   0  0.4664127E-05  0.2397495E+04  0.7818609E-02  0.8440442E-01
        2   -1    0    0  501    0  0.00000000000E+00  0.00000000000E+00  0.17299379261E+04  0.17299379261E+04  0.25500000920E-02 0.  1.
       -2   -1    0    0    0  501  0.00000000000E+00  0.00000000000E+00 -0.83066336478E+03  0.83066336478E+03  0.25500000920E-02 0. -1.
    10030    2    1    2    0    0  0.00000000000E+00  0.00000000000E+00  0.89927456135E+03  0.25606012909E+04  0.23974954086E+04 0.  0.
        4    1    3    3  502    0 -0.27957642474E+03  0.11534736023E+04  0.26987094659E+03  0.12171673135E+04  0.12699999809E+01 0. -1.
       -4    1    3    3    0  502  0.27957642474E+03 -0.11534736023E+04  0.62940361476E+03  0.13434339774E+04  0.12699999809E+01 0.  1.
</event>
<event>
 5   0  0.4756705E-05  0.2426848E+04  0.7818609E-02  0.8429520E-01
        2   -1    0    0  501    0  0.00000000000E+00  0.00000000000E+00  0.18221610594E+04  0.18221610594E+04  0.25500000920E-02 0. -1.
       -2   -1    0    0    0  501  0.00000000000E+00  0.00000000000E+00 -0.80805003498E+03  0.80805003498E+03  0.25500000920E-02 0.  1.
    10030    2    1    2    0    0  0.00000000000E+00  0.00000000000E+00  0.10141110245E+04  0.26302110944E+04  0.24268475913E+04 0.  0.
        3    1    3    3  502    0 -0.10670312942E+04 -0.57761911420E+03  0.49181769782E+03  0.13092304159E+04  0.10100000352E+00 0.  1.
       -3    1    3    3    0  502  0.10670312942E+04  0.57761911420E+03  0.52229332665E+03  0.13209806785E+04  0.10100000352E+00 0. -1.
</event>
<event>
 5   0  0.4713971E-05  0.2432339E+04  0.7818609E-02  0.8427495E-01
       -2   -1    0    0    0  501  0.00000000000E+00  0.00000000000E+00  0.12661207946E+04  0.12661207946E+04  0.25500000920E-02 0.  1.
        2   -1    0    0  501    0  0.00000000000E+00  0.00000000000E+00 -0.11681891817E+04  0.11681891817E+04  0.25500000920E-02 0. -1.
    10030    2    1    2    0    0  0.00000000000E+00  0.00000000000E+00  0.97931612840E+02  0.24343099763E+04  0.24323392979E+04 0.  0.
        5    1    3    3  502    0 -0.11190588427E+04 -0.24891612189E+03 -0.35731209943E+03  0.12008105411E+04  0.46999998093E+01 0. -1.
       -5    1    3    3    0  502  0.11190588427E+04  0.24891612189E+03  0.45524371227E+03  0.12334994352E+04  0.46999998093E+01 0.  1.
</event>
<event>
 5   0  0.4856882E-05  0.2345409E+04  0.7818609E-02  0.8460229E-01
       -2   -1    0    0    0  501  0.00000000000E+00  0.00000000000E+00  0.82263796229E+03  0.82263796230E+03  0.25500000920E-02 0.  1.
        2   -1    0    0  501    0  0.00000000000E+00  0.00000000000E+00 -0.16717382577E+04  0.16717382577E+04  0.25500000920E-02 0. -1.
    10030    2    1    2    0    0  0.00000000000E+00  0.00000000000E+00 -0.84910029545E+03  0.24943762200E+04  0.23454085818E+04 0.  0.
        1    1    3    3  502    0 -0.11591653743E+04  0.14434151749E+03 -0.53474850508E+03  0.12847002772E+04  0.50400001928E-02 0. -1.
       -1    1    3    3    0  502  0.11591653743E+04 -0.14434151749E+03 -0.31435179037E+03  0.12096759428E+04  0.50400001928E-02 0.  1.
</event>
<event>
 5   0  0.1672125E-05  0.2371534E+04  0.7818609E-02  0.8450238E-01
       -3   -1    0    0    0  501  0.00000000000E+00  0.00000000000E+00  0.46677687793E+03  0.46677688886E+03  0.10100000352E+00 0. -1.
        3   -1    0    0  501    0  0.00000000000E+00  0.00000000000E+00 -0.30122384502E+04  0.30122384519E+04  0.10100000352E+00 0.  1.
    10030    2    1    2    0    0  0.00000000000E+00  0.00000000000E+00 -0.25454615723E+04  0.34790153408E+04  0.23715339182E+04 0.  0.
        3    1    3    3  502    0 -0.52576663632E+03 -0.97095942699E+03 -0.19068547168E+04  0.22034717348E+04  0.10100000352E+00 0.  1.
       -3    1    3    3    0  502  0.52576663632E+03  0.97095942699E+03 -0.63860685547E+03  0.12755436060E+04  0.10100000352E+00 0. -1.
</event>
<event>
 5   0  0.4856882E-05  0.2386442E+04  0.7818609E-02  0.8444597E-01
        2   -1    0    0  501    0  0.00000000000E+00  0.00000000000E+00  0.21575000056E+04  0.21575000056E+04  0.25500000920E-02 0.  1.
       -2   -1    0    0    0  501  0.00000000000E+00  0.00000000000E+00 -0.65991959587E+03  0.65991959587E+03  0.25500000920E-02 0. -1.
    10030    2    1    2    0    0  0.00000000000E+00  0.00000000000E+00  0.14975804097E+04  0.28174196014E+04  0.23864421483E+04 0.  0.
        1    1    3    3  502    0 -0.45327103611E+03 -0.72410189873E+02 -0.55151440785E+03  0.71754164330E+03  0.50400001928E-02 0. -1.
       -1    1    3    3    0  502  0.45327103611E+03  0.72410189873E+02  0.20490948175E+04  0.20998779581E+04  0.50400001928E-02 0.  1.
</event>
<event>
 5   0  0.2139556E-05  0.2407497E+04  0.7818609E-02  0.8436702E-01
        1   -1    0    0  501    0  0.00000000000E+00  0.00000000000E+00  0.19867492385E+04  0.19867492385E+04  0.50400001928E-02 0.  1.
       -1   -1    0    0    0  501  0.00000000000E+00  0.00000000000E+00 -0.72933765065E+03  0.72933765067E+03  0.50400001928E-02 0. -1.
    10030    2    1    2    0    0  0.00000000000E+00  0.00000000000E+00  0.12574115879E+04  0.27160868892E+04  0.24074974742E+04 0.  0.
        2    1    3    3  502    0  0.46147984928E+03 -0.62028318100E+02  0.18810346749E+04  0.19378087139E+04  0.25500000920E-02 0.  1.
       -2    1    3    3    0  502 -0.46147984928E+03  0.62028318100E+02 -0.62362308700E+03  0.77827817532E+03  0.25500000920E-02 0. -1.
</event>
<event>
 5   0  0.4756705E-05  0.2392731E+04  0.7818609E-02  0.8442230E-01
        2   -1    0    0  501    0  0.00000000000E+00  0.00000000000E+00  0.88569688878E+03  0.88569688878E+03  0.25500000920E-02 0. -1.
       -2   -1    0    0    0  501  0.00000000000E+00  0.00000000000E+00 -0.16160047459E+04  0.16160047459E+04  0.25500000920E-02 0.  1.
    10030    2    1    2    0    0  0.00000000000E+00  0.00000000000E+00 -0.73030785716E+03  0.25017016347E+04  0.23927309717E+04 0.  0.
        3    1    3    3  502    0  0.81604408568E+03 -0.17801249385E+03  0.53040299552E+03  0.98941586080E+03  0.10100000352E+00 0. -1.
       -3    1    3    3    0  502 -0.81604408568E+03  0.17801249385E+03 -0.12607108527E+04  0.15122857739E+04  0.10100000352E+00 0.  1.
</event>
<event>
 5   0  0.2057599E-05  0.2395781E+04  0.7818609E-02  0.8441085E-01
       -1   -1    0    0    0  501  0.00000000000E+00  0.00000000000E+00  0.70857925878E+03  0.70857925880E+03  0.50400001928E-02 0.  1.
        1   -1    0    0  501    0  0.00000000000E+00  0.00000000000E+00 -0.20250961474E+04  0.20250961474E+04  0.50400001928E-02 0. -1.
    10030    2    1    2    0    0  0.00000000000E+00  0.00000000000E+00 -0.13165168886E+04  0.27336754062E+04  0.23957805635E+04 0.  0.
        4    1    3    3  502    0  0.80834970812E+03  0.25045976458E+03  0.30912344355E+03  0.90095408348E+03  0.12699999809E+01 0.  1.
       -4    1    3    3    0  502 -0.80834970812E+03 -0.25045976458E+03 -0.16256403322E+04  0.18327213228E+04  0.12699999809E+01 0. -1.
</event>
<event>
 5   0  0.2090039E-05  0.2334876E+04  0.7818609E-02  0.8464295E-01
       -1   -1    0    0    0  501  0.00000000000E+00  0.00000000000E+00  0.77849186510E+03  0.77849186511E+03  0.50400001928E-02 0.  1.
        1   -1    0    0  501    0  0.00000000000E+00  0.00000000000E+00 -0.17507078863E+04  0.17507078863E+04  0.50400001928E-02 0. -1.
    10030    2    1    2    0    0  0.00000000000E+00  0.00000000000E+00 -0.97221602123E+03  0.25291997514E+04  0.23348763117E+04 0.  0.
        1    1    3    3  502    0 -0.14166324572E+03 -0.35552703819E+03 -0.16808256982E+04  0.17238454043E+04  0.50400001928E-02 0. -1.
       -1    1    3    3    0  502  0.14166324572E+03  0.35552703819E+03  0.70860967701E+03  0.80535434714E+03  0.50400001928E-02 0.  1.
</event>
<event>
 5   0  0.2149920E-05  0.2433478E+04  0.7818609E-02  0.8427075E-01
        1   -1    0    0  501    0  0.00000000000E+00  0.00000000000E+00  0.77795522133E+03  0.77795522134E+03  0.50400001928E-02 0.  1.
       -1   -1    0    0    0  501  0.00000000000E+00  0.00000000000E+00 -0.19030069391E+04  0.19030069391E+04  0.50400001928E-02 0. -1.
    10030    2    1    2    0    0  0.00000000000E+00  0.00000000000E+00 -0.11250517178E+04  0.26809621605E+04  0.24334783209E+04 0.  0.
        5    1    3    3  502    0 -0.65167274264E+03 -0.10193172467E+04 -0.41995434180E+03  0.12806516904E+04  0.46999998093E+01 0.  1.
       -5    1    3    3    0  502  0.65167274264E+03  0.10193172467E+04 -0.70509737601E+03  0.14003104701E+04  0.46999998093E+01 0. -1.
</event>
<event>
 5   0  0.4664127E-05  0.2414638E+04  0.7818609E-02  0.8434044E-01
       -2   -1    0    0    0  501  0.00000000000E+00  0.00000000000E+00  0.80713584391E+03  0.80713584391E+03  0.25500000920E-02 0.  1.
        2   -1    0    0  501    0  0.00000000000E+00  0.00000000000E+00 -0.18059157853E+04  0.18059157853E+04  0.25500000920E-02 0. -1.
    10030    2    1    2    0    0  0.00000000000E+00  0.00000000000E+00 -0.99877994136E+03  0.26130516292E+04  0.24146381604E+04 0.  0.
        4    1    3    3  502    0 -0.15379469007E+03  0.14980478031E+03  0.78631103217E+03  0.81509565765E+03  0.12699999809E+01 0.  1.
       -4    1    3    3    0  502  0.15379469007E+03 -0.14980478031E+03 -0.17850909735E+04  0.17979559715E+04  0.12699999809E+01 0. -1.
</event>
<event>
 5   0  0.2139556E-05  0.2439238E+04  0.7818609E-02  0.8424958E-01
        1   -1    0    0  501    0  0.00000000000E+00  0.00000000000E+00  0.20899122177E+04  0.20899122177E+04  0.50400001928E-02 0.  1.
       -1   -1    0    0    0  501  0.00000000000E+00  0.00000000000E+00 -0.71173813837E+03  0.71173813839E+03  0.50400001928E-02 0. -1.
    10030    2    1    2    0    0  0.00000000000E+00  0.00000000000E+00  0.13781740793E+04  0.28016503561E+04  0.24392377754E+04 0.  0.
        2    1    3    3  502    0 -0.65165899439E+03 -0.39730829982E+03  0.17817186123E+04  0.19383071334E+04  0.25500000920E-02 0.  1.
       -2    1    3    3    0  502  0.65165899439E+03  0.39730829982E+03 -0.40354453295E+03  0.86334322269E+03  0.25500000920E-02 0. -1.
</event>
<event>
 5   0  0.4914005E-05  0.2432142E+04  0.7818609E-02  0.8427567E-01
        2   -1    0    0  501    0  0.00000000000E+00  0.00000000000E+00  0.17657417154E+04  0.17657417154E+04  0.25500000920E-02 0.  1.
       -2   -1    0    0    0  501  0.00000000000E+00  0.00000000000E+00 -0.83751139760E+03  0.83751139761E+03  0.25500000920E-02 0. -1.
    10030    2    1    2    0    0  0.00000000000E+00  0.00000000000E+00  0.92823031777E+03  0.26032531130E+04  0.24321421109E+04 0.  0.
        2    1    3    3  502    0  0.85683380333E+03  0.76839434419E+03  0.88447246892E+03  0.14515114822E+04  0.25500000920E-02 0.  1.
       -2    1    3    3    0  502 -0.85683380333E+03 -0.76839434419E+03  0.43757848848E+02  0.11517416308E+04  0.25500000920E-02 0. -1.
</event>
<event>
 5   0  0.4856882E-05  0.2401316E+04  0.7818609E-02  0.8439011E-01
       -2   -1    0    0    0  501  0.00000000000E+00  0.00000000000E+00  0.74062234197E+03  0.74062234198E+03  0.25500000920E-02 0. -1.
        2   -1    0    0  501    0  0.00000000000E+00  0.00000000000E+00 -0.19464436094E+04  0.19464436095E+04  0.25500000920E-02 0.  1.
    10030    2    1    2    0    0  0.00000000000E+00  0.00000000000E+00 -0.12058212675E+04  0.26870659514E+04  0.24013159930E+04 0.  0.
        1    1    3    3  502    0  0.47818696748E+03 -0.27579499232E+03 -0.17960230193E+04  0.18789423460E+04  0.50400001928E-02 0.  1.
       -1    1    3    3    0  502 -0.47818696748E+03  0.27579499232E+03  0.59020175187E+03  0.80812360539E+03  0.50400001928E-02 0. -1.
</event>
<event>
 5   0  0.4713971E-05  0.2350975E+04  0.7818609E-02  0.8458089E-01
        2   -1    0    0  501    0  0.00000000000E+00  0.00000000000E+00  0.13089521402E+04  0.13089521402E+04  0.25500000920E-02 0.  1.
       -2   -1    0    0    0  501  0.00000000000E+00  0.00000000000E+00 -0.10556314493E+04  0.10556314493E+04  0.25500000920E-02 0. -1.
    10030    2    1    2    0    0  0.00000000000E+00  0.00000000000E+00  0.25332069090E+03  0.23645835895E+04  0.23509751550E+04 0.  0.
        5    1    3    3  502    0  0.38951798586E+03 -0.94454023380E+02 -0.98477141750E+03  0.10632227700E+04  0.46999998093E+01 0. -1.
       -5    1    3    3    0  502 -0.38951798586E+03  0.94454023380E+02  0.12380921084E+04  0.13013608196E+04  0.46999998093E+01 0.  1.
</event>
<event>
 5   0  0.2139556E-05  0.2336013E+04  0.7818609E-02  0.8463856E-01
       -1   -1    0    0    0  501  0.00000000000E+00  0.00000000000E+00  0.85866058207E+03  0.85866058208E+03  0.50400001928E-02 0.  1.
        1   -1    0    0  501    0  0.00000000000E+00  0.00000000000E+00 -0.15887990751E+04  0.15887990751E+04  0.50400001928E-02 0. -1.
    10030    2    1    2    0    0  0.00000000000E+00  0.00000000000E+00 -0.73013849300E+03  0.24474596572E+04  0.23360129611E+04 0.  0.
        2    1    3    3  502    0 -0.77423205075E+03 -0.39631847066E+03  0.45169667847E+03  0.98006810372E+03  0.25500000920E-02 0.  1.
       -2    1    3    3    0  502  0.77423205075E+03  0.39631847066E+03 -0.11818351715E+04  0.14673915534E+04  0.25500000920E-02 0. -1.
</event>
<event>
 5   0  0.2057599E-05  0.2455214E+04  0.7818609E-02  0.8419117E-01
        1   -1    0    0  501    0  0.00000000000E+00  0.00000000000E+00  0.10028091271E+04  0.10028091271E+04  0.50400001928E-02 0.  1.
       -1   -1    0    0    0  501  0.00000000000E+00  0.00000000000E+00 -0.15027973130E+04  0.15027973130E+04  0.50400001928E-02 0. -1.
    10030    2    1    2    0    0  0.00000000000E+00  0.00000000000E+00 -0.49998818592E+03  0.25056064401E+04  0.24552139309E+04 0.  0.
        4    1    3    3  502    0 -0.49812845385E+03 -0.11201622457E+04 -0.18447485372E+03  0.12397290017E+04  0.12699999809E+01 0. -1.
       -4    1    3    3    0  502  0.49812845385E+03  0.11201622457E+04 -0.31551333220E+03  0.12658774383E+04  0.12699999809E+01 0.  1.
</event>
<event>
 5   0  0.4664127E-05  0.2409054E+04  0.7818609E-02  0.8436122E-01
        2   -1    0    0  501    0  0.00000000000E+00  0.00000000000E+00  0.24157847434E+04  0.24157847434E+04  0.25500000920E-02 0. -1.
       -2   -1    0    0    0  501  0.00000000000E+00  0.00000000000E+00 -0.60058528138E+03  0.60058528138E+03  0.25500000920E-02 0.  1.
    10030    2    1    2    0    0  0.00000000000E+00  0.00000000000E+00  0.18151994621E+04  0.30163700248E+04  0.24090535568E+04 0.  0.
        4    1    3    3  502    0  0.59112890600E+03 -0.10380584592E+04  0.11011061241E+04  0.16246338227E+04  0.12699999809E+01 0.  1.
       -4    1    3    3    0  502 -0.59112890600E+03  0.10380584592E+04  0.71409333795E+03  0.13917362022E+04  0.12699999809E+01 0. -1.
</event>
<event>
 5   0  0.4756705E-05  0.2397185E+04  0.7818609E-02  0.8440558E-01
       -2   -1    0    0    0  501  0.00000000000E+00  0.00000000000E+00  0.14474728671E+04  0.14474728671E+04  0.25500000920E-02 0. -1.
        2   -1    0    0  501    0  0.00000000000E+00  0.00000000000E+00 -0.99250506377E+03  0.99250506378E+03  0.25500000920E-02 0.  1.
    10030    2    1    2    0    0  0.00000000000E+00  0.00000000000E+00  0.45496780336E+03  0.24399779309E+04  0.23971851412E+04 0.  0.
        3    1    3    3  502    0 -0.57226345377E+03 -0.55126868213E+00  0.12994404636E+04  0.14198701677E+04  0.10100000352E+00 0. -1.
       -3    1    3    3    0  502  0.57226345377E+03  0.55126868213E+00 -0.84447266027E+03  0.10201077632E+04  0.10100000352E+00 0.  1.
</event>
<event>
 5   0  0.2090039E-05  0.2393126E+04  0.7818609E-02  0.8442082E-01
       -1   -1    0    0    0  501  0.00000000000E+00  0.00000000000E+00  0.19805133147E+04  0.19805133147E+04  0.50400001928E-02 0. -1.
        1   -1    0    0  501    0  0.00000000000E+00  0.00000000000E+00 -0.72292513397E+03  0.72292513399E+03  0.50400001928E-02 0.  1.
    10030    2    1    2    0    0  0.00000000000E+00  0.00000000000E+00  0.12575881807E+04  0.27034384487E+04  0.23931258666E+04 0.  0.
        1    1    3    3  502    0  0.17075597896E+03  0.43932507015E+03  0.18712231667E+04  0.19296736152E+04  0.50400001928E-02 0. -1.
       -1    1    3    3    0  502 -0.17075597896E+03 -0.43932507015E+03 -0.61363498594E+03  0.77376483352E+03  0.50400001928E-02 0.  1.
</event>
<event>
 5   0  0.2090039E-05  0.2387476E+04  0.7818609E-02  0.8444207E-01
        1   -1    0    0  501    0  0.00000000000E+00  0.00000000000E+00  0.68544390900E+03  0.68544390902E+03  0.50400001928E-02 0. -1.
       -1   -1    0    0    0  501  0.00000000000E+00  0.00000000000E+00 -0.20789597679E+04  0.20789597679E+04  0.50400001928E-02 0.  1.
    10030    2    1    2    0    0  0.00000000000E+00  0.00000000000E+00 -0.13935158589E+04  0.27644036769E+04  0.23874759140E+04 0.  0.
        1    1    3    3  502    0 -0.90063044650E+01 -0.14360018221E+03 -0.20688829271E+04  0.20738801055E+04  0.50400001928E-02 0.  1.
       -1    1    3    3    0  502  0.90063044650E+01  0.14360018221E+03  0.67536706821E+03  0.69052357143E+03  0.50400001928E-02 0. -1.
</event>
<event>
 5   0  0.2139556E-05  0.2420108E+04  0.7818609E-02  0.8432013E-01
        1   -1    0    0  501    0  0.00000000000E+00  0.00000000000E+00  0.18560600229E+04  0.18560600229E+04  0.50400001928E-02 0. -1.
       -1   -1    0    0    0  501  0.00000000000E+00  0.00000000000E+00 -0.78889216038E+03  0.78889216039E+03  0.50400001928E-02 0.  1.
    10030    2    1    2    0    0  0.00000000000E+00  0.00000000000E+00  0.10671678626E+04  0.26449521833E+04  0.24201084284E+04 0.  0.
        2    1    3    3  502    0  0.39860604835E+03  0.38656273387E+03 -0.64143726578E+03  0.84838628875E+03  0.25500000920E-02 0.  1.
       -2    1    3    3    0  502 -0.39860604835E+03 -0.38656273387E+03  0.17086051283E+04  0.17965658946E+04  0.25500000920E-02 0. -1.
</event>
<event>
 5   0  0.2139556E-05  0.2107081E+04  0.7818609E-02  0.8558131E-01
        1   -1    0    0  501    0  0.00000000000E+00  0.00000000000E+00  0.15320442290E+04  0.15320442290E+04  0.50400001928E-02 0. -1.
       -1   -1    0    0    0  501  0.00000000000E+00  0.00000000000E+00 -0.72448778620E+03  0.72448778622E+03  0.50400001928E-02 0.  1.
    10030    2    1    2    0    0  0.00000000000E+00  0.00000000000E+00  0.80755644284E+03  0.22565320153E+04  0.21070807596E+04 0.  0.
        2    1    3    3  502    0  0.84885701121E+03  0.59952676285E+03  0.21842173472E+03  0.10619315510E+04  0.25500000920E-02 0.  1.
       -2    1    3    3    0  502 -0.84885701121E+03 -0.59952676285E+03  0.58913470812E+03  0.11946004642E+04  0.25500000920E-02 0. -1.
</event>
<event>
 5   0  0.4713971E-05  0.2413285E+04  0.7818609E-02  0.8434547E-01
       -2   -1    0    0    0  501  0.00000000000E+00  0.00000000000E+00  0.16683183769E+04  0.16683183769E+04  0.25500000920E-02 0.  1.
        2   -1    0    0  501    0  0.00000000000E+00  0.00000000000E+00 -0.87272648294E+03  0.87272648294E+03  0.25500000920E-02 0. -1.
    10030    2    1    2    0    0  0.00000000000E+00  0.00000000000E+00  0.79559189397E+03  0.25410448599E+04  0.24132845912E+04 0.  0.
        5    1    3    3  502    0  0.27648573561E+03  0.10002289475E+04  0.10460697562E+04  0.14734945993E+04  0.46999998093E+01 0.  1.
       -5    1    3    3    0  502 -0.27648573561E+03 -0.10002289475E+04 -0.25047786218E+03  0.10675502606E+04  0.46999998093E+01 0. -1.
</event>
<event>
 5   0  0.2149920E-05  0.2393866E+04  0.7818609E-02  0.8441804E-01
        1   -1    0    0  501    0  0.00000000000E+00  0.00000000000E+00  0.11391690131E+04  0.11391690131E+04  0.50400001928E-02 0. -1.
       -1   -1    0    0    0  501  0.00000000000E+00  0.00000000000E+00 -0.12576255218E+04  0.12576255218E+04  0.50400001928E-02 0.  1.
    10030    2    1    2    0    0  0.00000000000E+00  0.00000000000E+00 -0.11845650871E+03  0.23967945349E+04  0.23938655137E+04 0.  0.
        5    1    3    3  502    0  0.10372499601E+04 -0.24724949582E+03  0.48513372414E+03  0.11714933261E+04  0.46999998093E+01 0. -1.
       -5    1    3    3    0  502 -0.10372499601E+04  0.24724949582E+03 -0.60359023285E+03  0.12253012087E+04  0.46999998093E+01 0.  1.
</event>
<event>
 5   0  0.2065692E-05  0.2284666E+04  0.7818609E-02  0.8483992E-01
       -1   -1    0    0    0  501  0.00000000000E+00  0.00000000000E+00  0.14584178422E+04  0.14584178422E+04  0.50400001928E-02 0. -1.
        1   -1    0    0  501    0  0.00000000000E+00  0.00000000000E+00 -0.89475335020E+03  0.89475335022E+03  0.50400001928E-02 0.  1.
    10030    2    1    2    0    0  0.00000000000E+00  0.00000000000E+00  0.56366449203E+03  0.23531711925E+04  0.22846656214E+04 0.  0.
        3    1    3    3  502    0  0.32658198659E+03  0.10706316218E+04  0.46922559778E+02  0.11203167411E+04  0.10100000352E+00 0. -1.
       -3    1    3    3    0  502 -0.32658198659E+03 -0.10706316218E+04  0.51674193225E+03  0.12328544514E+04  0.10100000352E+00 0.  1.
</event>
<event>
 5   0  0.2149920E-05  0.2680908E+04  0.7818609E-02  0.8341226E-01
        1   -1    0    0  501    0  0.00000000000E+00  0.00000000000E+00  0.73422003041E+03  0.73422003042E+03  0.50400001928E-02 0. -1.
       -1   -1    0    0    0  501  0.00000000000E+00  0.00000000000E+00 -0.24472454526E+04  0.24472454526E+04  0.50400001928E-02 0.  1.
    10030    2    1    2    0    0  0.00000000000E+00  0.00000000000E+00 -0.17130254222E+04  0.31814654830E+04  0.26809077796E+04 0.  0.
        5    1    3    3  502    0  0.97026499527E+03  0.14604996840E+03 -0.19402932007E+04  0.21742825366E+04  0.46999998093E+01 0.  1.
       -5    1    3    3    0  502 -0.97026499527E+03 -0.14604996840E+03  0.22726777855E+03  0.10071829464E+04  0.46999998093E+01 0. -1.
</event>
<event>
 5   0  0.2057599E-05  0.2379093E+04  0.7818609E-02  0.8447373E-01
       -1   -1    0    0    0  501  0.00000000000E+00  0.00000000000E+00  0.59995580006E+03  0.59995580008E+03  0.50400001928E-02 0.  1.
        1   -1    0    0  501    0  0.00000000000E+00  0.00000000000E+00 -0.23585413180E+04  0.23585413180E+04  0.50400001928E-02 0. -1.
    10030    2    1    2    0    0  0.00000000000E+00  0.00000000000E+00 -0.17585855180E+04  0.29584971181E+04  0.23790927207E+04 0.  0.
        4    1    3    3  502    0  0.10604236343E+04 -0.41065779357E+03 -0.44515508857E+03  0.12211890817E+04  0.12699999809E+01 0.  1.
       -4    1    3    3    0  502 -0.10604236343E+04  0.41065779357E+03 -0.13134304294E+04  0.17373080364E+04  0.12699999809E+01 0. -1.
</event>
<event>
 5   0  0.4914005E-05  0.2600267E+04  0.7818609E-02  0.8368110E-01
        2   -1    0    0  501    0  0.00000000000E+00  0.00000000000E+00  0.14690907440E+04  0.14690907440E+04  0.25500000920E-02 0.  1.
       -2   -1    0    0    0  501  0.00000000000E+00  0.00000000000E+00 -0.11506079615E+04  0.11506079616E+04  0.25500000920E-02 0. -1.
    10030    2    1    2    0    0  0.00000000000E+00  0.00000000000E+00  0.31848278248E+03  0.26196987056E+04  0.26002672988E+04 0.  0.
        2    1    3    3  502    0  0.21875225330E+03  0.10644477485E+04 -0.55984721525E+03  0.12224281010E+04  0.25500000920E-02 0. -1.
       -2    1    3    3    0  502 -0.21875225330E+03 -0.10644477485E+04  0.87832999773E+03  0.13972706046E+04  0.25500000920E-02 0.  1.
</event>
<event>
 5   0  0.4856882E-05  0.2404345E+04  0.7818609E-02  0.8437878E-01
        2   -1    0    0  501    0  0.00000000000E+00  0.00000000000E+00  0.18597627519E+04  0.18597627519E+04  0.25500000920E-02 0. -1.
       -2   -1    0    0    0  501  0.00000000000E+00  0.00000000000E+00 -0.77709874657E+03  0.77709874658E+03  0.25500000920E-02 0.  1.
    10030    2    1    2    0    0  0.00000000000E+00  0.00000000000E+00  0.10826640053E+04  0.26368614985E+04  0.24043454855E+04 0.  0.
        1    1    3    3  502    0  0.62983973184E+03  0.61073460226E+03 -0.36005436655E+03  0.94833221452E+03  0.50400001928E-02 0.  1.
       -1    1    3    3    0  502 -0.62983973184E+03 -0.61073460226E+03  0.14427183719E+04  0.16885292839E+04  0.50400001928E-02 0. -1.
</event>
<event>
 5   0  0.2149920E-05  0.2409099E+04  0.7818609E-02  0.8436105E-01
       -1   -1    0    0    0  501  0.00000000000E+00  0.00000000000E+00  0.16653390697E+04  0.16653390697E+04  0.50400001928E-02 0. -1.
        1   -1    0    0  501    0  0.00000000000E+00  0.00000000000E+00 -0.87125784459E+03  0.87125784460E+03  0.50400001928E-02 0.  1.
    10030    2    1    2    0    0  0.00000000000E+00  0.00000000000E+00  0.79408122508E+03  0.25365969143E+04  0.24090991913E+04 0.  0.
        5    1    3    3  502    0  0.12536534772E+03 -0.43107128550E+03 -0.77987094936E+03  0.89986649634E+03  0.46999998093E+01 0.  1.
       -5    1    3    3    0  502 -0.12536534772E+03  0.43107128550E+03  0.15739521744E+04  0.16367304179E+04  0.46999998093E+01 0. -1.
</event>
<event>
 5   0  0.2139556E-05  0.1784627E+04  0.7818609E-02  0.8714518E-01
       -1   -1    0    0    0  501  0.00000000000E+00  0.00000000000E+00  0.68778580751E+03  0.68778580752E+03  0.50400001928E-02 0.  1.
        1   -1    0    0  501    0  0.00000000000E+00  0.00000000000E+00 -0.11576614584E+04  0.11576614584E+04  0.50400001928E-02 0. -1.
    10030    2    1    2    0    0  0.00000000000E+00  0.00000000000E+00 -0.46987565087E+03  0.18454472659E+04  0.17846267072E+04 0.  0.
        2    1    3    3  502    0 -0.40437289519E+03  0.79475157708E+03 -0.26885208541E+03  0.93135865888E+03  0.25500000920E-02 0. -1.
       -2    1    3    3    0  502  0.40437289519E+03 -0.79475157708E+03 -0.20102356546E+03  0.91408860703E+03  0.25500000920E-02 0.  1.
</event>
<event>
 5   0  0.2065692E-05  0.2356893E+04  0.7818609E-02  0.8455821E-01
        1   -1    0    0  501    0  0.00000000000E+00  0.00000000000E+00  0.91141049711E+03  0.91141049713E+03  0.50400001928E-02 0.  1.
       -1   -1    0    0    0  501  0.00000000000E+00  0.00000000000E+00 -0.15237220352E+04  0.15237220352E+04  0.50400001928E-02 0. -1.
    10030    2    1    2    0    0  0.00000000000E+00  0.00000000000E+00 -0.61231153804E+03  0.24351325323E+04  0.23568930884E+04 0.  0.
        3    1    3    3  502    0  0.16191723574E+03 -0.94604719896E+03  0.40029176855E+03  0.10399307689E+04  0.10100000352E+00 0.  1.
       -3    1    3    3    0  502 -0.16191723574E+03  0.94604719896E+03 -0.10126033066E+04  0.13952017634E+04  0.10100000352E+00 0. -1.
</event>
<event>
 5   0  0.4914005E-05  0.1805787E+04  0.7818609E-02  0.8703228E-01
       -2   -1    0    0    0  501  0.00000000000E+00  0.00000000000E+00  0.49482633448E+03  0.49482633449E+03  0.25500000920E-02 0. -1.
        2   -1    0    0  501    0  0.00000000000E+00  0.00000000000E+00 -0.16474805852E+04  0.16474805852E+04  0.25500000920E-02 0.  1.
    10030    2    1    2    0    0  0.00000000000E+00  0.00000000000E+00 -0.11526542507E+04  0.21423069197E+04  0.18057871183E+04 0.  0.
        2    1    3    3  502    0 -0.64008390417E+03  0.37160392513E+03 -0.11898234976E+04  0.14012411774E+04  0.25500000920E-02 0.  1.
       -2    1    3    3    0  502  0.64008390417E+03 -0.37160392513E+03  0.37169246927E+02  0.74106574234E+03  0.25500000920E-02 0. -1.
</event>
<event>
 5   0  0.4856882E-05  0.2430232E+04  0.7818609E-02  0.8428271E-01
        2   -1    0    0  501    0  0.00000000000E+00  0.00000000000E+00  0.77995685145E+03  0.77995685146E+03  0.25500000920E-02 0.  1.
       -2   -1    0    0    0  501  0.00000000000E+00  0.00000000000E+00 -0.18930618120E+04  0.18930618120E+04  0.25500000920E-02 0. -1.
    10030    2    1    2    0    0  0.00000000000E+00  0.00000000000E+00 -0.11131049606E+04  0.26730186635E+04  0.24302317013E+04 0.  0.
        1    1    3    3  502    0  0.98527232358E+03  0.53024356509E+03 -0.35302123252E+02  0.11194489849E+04  0.50400001928E-02 0.  1.
       -1    1    3    3    0  502 -0.98527232358E+03 -0.53024356509E+03 -0.10778028373E+04  0.15535696785E+04  0.50400001928E-02 0. -1.
</event>
<event>
 5   0  0.2090039E-05  0.2405689E+04  0.7818609E-02  0.8437377E-01
       -1   -1    0    0    0  501  0.00000000000E+00  0.00000000000E+00  0.51476833032E+03  0.51476833035E+03  0.50400001928E-02 0. -1.
        1   -1    0    0  501    0  0.00000000000E+00  0.00000000000E+00 -0.28106522292E+04  0.28106522292E+04  0.50400001928E-02 0.  1.
    10030    2    1    2    0    0  0.00000000000E+00  0.00000000000E+00 -0.22958838989E+04  0.33254205595E+04  0.24056888869E+04 0.  0.
        1    1    3    3  502    0 -0.83227614873E+03  0.50210167611E+03 -0.16850051907E+03  0.98649992694E+03  0.50400001928E-02 0. -1.
       -1    1    3    3    0  502  0.83227614873E+03 -0.50210167611E+03 -0.21273833798E+04  0.23389206326E+04  0.50400001928E-02 0.  1.
</event>
<event>
 5   0  0.4914005E-05  0.2365528E+04  0.7818609E-02  0.8452523E-01
        2   -1    0    0  501    0  0.00000000000E+00  0.00000000000E+00  0.13322717285E+04  0.13322717285E+04  0.25500000920E-02 0. -1.
       -2   -1    0    0    0  501  0.00000000000E+00  0.00000000000E+00 -0.10500336660E+04  0.10500336660E+04  0.25500000920E-02 0.  1.
    10030    2    1    2    0    0  0.00000000000E+00  0.00000000000E+00  0.28223806245E+03  0.23823053945E+04  0.23655275667E+04 0.  0.
        2    1    3    3  502    0 -0.51067881055E+03  0.10650980880E+04  0.20240608023E+03  0.11984135371E+04  0.25500000920E-02 0.  1.
       -2    1    3    3    0  502  0.51067881055E+03 -0.10650980880E+04  0.79831982212E+02  0.11838918574E+04  0.25500000920E-02 0. -1.
</event>
<event>
 5   0  0.2057599E-05  0.2432429E+04  0.7818609E-02  0.8427461E-01
        1   -1    0    0  501    0  0.00000000000E+00  0.00000000000E+00  0.95005880985E+03  0.95005880986E+03  0.50400001928E-02 0. -1.
       -1   -1    0    0    0  501  0.00000000000E+00  0.00000000000E+00 -0.15569328854E+04  0.15569328854E+04  0.50400001928E-02 0.  1.
    10030    2    1    2    0    0  0.00000000000E+00  0.00000000000E+00 -0.60687407552E+03  0.25069916952E+04  0.24324290774E+04 0.  0.
        4    1    3    3  502    0  0.95276702320E+03  0.38416080450E+03 -0.97441678258E+03  0.14159216798E+04  0.12699999809E+01 0.  1.
       -4    1    3    3    0  502 -0.95276702320E+03 -0.38416080450E+03  0.36754270706E+03  0.10910700155E+04  0.12699999809E+01 0. -1.
</event>
<event>
 5   0  0.2065692E-05  0.2438244E+04  0.7818609E-02  0.8425323E-01
        1   -1    0    0  501    0  0.00000000000E+00  0.00000000000E+00  0.14352689774E+04  0.14352689775E+04  0.50400001928E-02 0.  1.
       -1   -1    0    0    0  501  0.00000000000E+00  0.00000000000E+00 -0.10355263273E+04  0.10355263273E+04  0.50400001928E-02 0. -1.
    10030    2    1    2    0    0  0.00000000000E+00  0.00000000000E+00  0.39974265013E+03  0.24707953048E+04  0.24382442970E+04 0.  0.
        3    1    3    3  502    0 -0.75107754535E+03 -0.30735659573E+03  0.11217823509E+04  0.13845509052E+04  0.10100000352E+00 0.  1.
       -3    1    3    3    0  502  0.75107754535E+03  0.30735659573E+03 -0.72203970073E+03  0.10862443996E+04  0.10100000352E+00 0. -1.
</event>
<event>
 5   0  0.4713971E-05  0.2370938E+04  0.7818609E-02  0.8450465E-01
       -2   -1    0    0    0  501  0.00000000000E+00  0.00000000000E+00  0.77429582532E+03  0.77429582533E+03  0.25500000920E-02 0.  1.
        2   -1    0    0  501    0  0.00000000000E+00  0.00000000000E+00 -0.18149875134E+04  0.18149875134E+04  0.25500000920E-02 0. -1.
    10030    2    1    2    0    0  0.00000000000E+00  0.00000000000E+00 -0.10406916881E+04  0.25892833387E+04  0.23709384257E+04 0.  0.
        5    1    3    3  502    0  0.52295659257E+03 -0.10205839882E+04 -0.84840984730E+03  0.14264980314E+04  0.46999998093E+01 0. -1.
       -5    1    3    3    0  502 -0.52295659257E+03  0.10205839882E+04 -0.19228184080E+03  0.11627853073E+04  0.46999998093E+01 0.  1.
</event>
<event>
 5   0  0.4914005E-05  0.2561024E+04  0.7818609E-02  0.8381562E-01
        2   -1    0    0  501    0  0.00000000000E+00  0.00000000000E+00  0.96591997290E+03  0.96591997290E+03  0.25500000920E-02 0. -1.
       -2   -1    0    0    0  501  0.00000000000E+00  0.00000000000E+00 -0.16975644220E+04  0.16975644220E+04  0.25500000920E-02 0.  1.
    10030    2    1    2    0    0  0.00000000000E+00  0.00000000000E+00 -0.73164444912E+03  0.26634843949E+04  0.25610243111E+04 0.  0.
        2    1    3    3  502    0 -0.65095081601E+03  0.10832455355E+04 -0.15128422407E+03  0.12728097939E+04  0.25500000920E-02 0.  1.
       -2    1    3    3    0  502  0.65095081601E+03 -0.10832455355E+04 -0.58036022505E+03  0.13906746010E+04  0.25500000920E-02 0. -1.
</event>
<event>
 5   0  0.1672125E-05  0.2420315E+04  0.7818609E-02  0.8431937E-01
        3   -1    0    0  501    0  0.00000000000E+00  0.00000000000E+00  0.10588714008E+04  0.10588714057E+04  0.10100000352E+00 0. -1.
       -3   -1    0    0    0  501  0.00000000000E+00  0.00000000000E+00 -0.13830583740E+04  0.13830583777E+04  0.10100000352E+00 0.  1.
    10030    2    1    2    0    0  0.00000000000E+00  0.00000000000E+00 -0.32418697320E+03  0.24419297834E+04  0.24203148294E+04 0.  0.
        4    1    3    3  502    0  0.30891747314E+03 -0.53017051021E+03 -0.12144659769E+04  0.13606763013E+04  0.12699999809E+01 0.  1.
       -4    1    3    3    0  502 -0.30891747314E+03  0.53017051021E+03  0.89027900369E+03  0.10812534820E+04  0.12699999809E+01 0. -1.
</event>
<event>
 5   0  0.2149920E-05  0.2337326E+04  0.7818609E-02  0.8463348E-01
        1   -1    0    0  501    0  0.00000000000E+00  0.00000000000E+00  0.12688264954E+04  0.12688264954E+04  0.50400001928E-02 0. -1.
       -1   -1    0    0    0  501  0.00000000000E+00  0.00000000000E+00 -0.10764065880E+04  0.10764065880E+04  0.50400001928E-02 0.  1.
    10030    2    1    2    0    0  0.00000000000E+00  0.00000000000E+00  0.19241990744E+03  0.23452330834E+04  0.23373259924E+04 0.  0.
        5    1    3    3  502    0 -0.11283973704E+03 -0.20971387809E+03  0.12442126689E+04  0.12668069988E+04  0.46999998093E+01 0. -1.
       -5    1    3    3    0  502  0.11283973704E+03  0.20971387809E+03 -0.10517927614E+04  0.10784260846E+04  0.46999998093E+01 0.  1.
</event>
<event>
 5   0  0.2139556E-05  0.2401699E+04  0.7818609E-02  0.8438868E-01
        1   -1    0    0  501    0  0.00000000000E+00  0.00000000000E+00  0.16431868320E+04  0.16431868320E+04  0.50400001928E-02 0.  1.
       -1   -1    0    0    0  501  0.00000000000E+00  0.00000000000E+00 -0.87758730772E+03  0.87758730773E+03  0.50400001928E-02 0. -1.
    10030    2    1    2    0    0  0.00000000000E+00  0.00000000000E+00  0.76559952431E+03  0.25207741398E+04  0.24016993217E+04 0.  0.
        2    1    3    3  502    0  0.63719944854E+03 -0.71930211750E+03 -0.37305864289E+03  0.10308207528E+04  0.25500000920E-02 0. -1.
       -2    1    3    3    0  502 -0.63719944854E+03  0.71930211750E+03  0.11386581672E+04  0.14899533869E+04  0.25500000920E-02 0.  1.
</event>
<event>
 5   0  0.2090039E-05  0.2511665E+04  0.7818609E-02  0.8398841E-01
       -1   -1    0    0    0  501  0.00000000000E+00  0.00000000000E+00  0.92204207951E+03  0.92204207953E+03  0.50400001928E-02 0.  1.
        1   -1    0    0  501    0  0.00000000000E+00  0.00000000000E+00 -0.17104596924E+04  0.17104596924E+04  0.50400001928E-02 0. -1.
    10030    2    1    2    0    0  0.00000000000E+00  0.00000000000E+00 -0.78841761291E+03  0.26325017720E+04  0.25116654329E+04 0.  0.
        1    1    3    3  502    0  0.29522559409E+03 -0.69651797104E+03  0.65642434486E+03  0.10015929093E+04  0.50400001928E-02 0.  1.
       -1    1    3    3    0  502 -0.29522559409E+03  0.69651797104E+03 -0.14448419578E+04  0.16309088627E+04  0.50400001928E-02 0. -1.
</event>
<event>
 5   0  0.4914005E-05  0.2403058E+04  0.7818609E-02  0.8438359E-01
        2   -1    0    0  501    0  0.00000000000E+00  0.00000000000E+00  0.12626242768E+04  0.12626242768E+04  0.25500000920E-02 0. -1.
       -2   -1    0    0    0  501  0.00000000000E+00  0.00000000000E+00 -0.11433902356E+04  0.11433902356E+04  0.25500000920E-02 0.  1.
    10030    2    1    2    0    0  0.00000000000E+00  0.00000000000E+00  0.11923404118E+03  0.24060145125E+04  0.24030582760E+04 0.  0.
        2    1    3    3  502    0  0.79966382706E+03  0.37659373166E+03 -0.75525593336E+03  0.11626248750E+04  0.25500000920E-02 0.  1.
       -2    1    3    3    0  502 -0.79966382706E+03 -0.37659373166E+03  0.87448997454E+03  0.12433896375E+04  0.25500000920E-02 0. -1.
</event>
<event>
 5   0  0.2090039E-05  0.2458194E+04  0.7818609E-02  0.8418032E-01
        1   -1    0    0  501    0  0.00000000000E+00  0.00000000000E+00  0.16315206061E+04  0.16315206061E+04  0.50400001928E-02 0.  1.
       -1   -1    0    0    0  501  0.00000000000E+00  0.00000000000E+00 -0.92593375948E+03  0.92593375949E+03  0.50400001928E-02 0. -1.
    10030    2    1    2    0    0  0.00000000000E+00  0.00000000000E+00  0.70558684657E+03  0.25574543656E+04  0.24581944662E+04 0.  0.
        1    1    3    3  502    0 -0.81996604201E+03  0.36873086797E+03  0.12247114093E+04  0.15192843049E+04  0.50400001928E-02 0.  1.
       -1    1    3    3    0  502  0.81996604201E+03 -0.36873086797E+03 -0.51912456277E+03  0.10381700606E+04  0.50400001928E-02 0. -1.
</event>
<event>
 5   0  0.4713971E-05  0.2372896E+04  0.7818609E-02  0.8449721E-01
       -2   -1    0    0    0  501  0.00000000000E+00  0.00000000000E+00  0.92477539151E+03  0.92477539151E+03  0.25500000920E-02 0.  1.
        2   -1    0    0  501    0  0.00000000000E+00  0.00000000000E+00 -0.15221623843E+04  0.15221623843E+04  0.25500000920E-02 0. -1.
    10030    2    1    2    0    0  0.00000000000E+00  0.00000000000E+00 -0.59738699282E+03  0.24469377758E+04  0.23728955434E+04 0.  0.
        5    1    3    3  502    0 -0.36160637892E+03  0.39830675984E+03 -0.13891532393E+04  0.14896899880E+04  0.46999998093E+01 0. -1.
       -5    1    3    3    0  502  0.36160637892E+03 -0.39830675984E+03  0.79176624647E+03  0.95724778781E+03  0.46999998093E+01 0.  1.
</event>
<event>
 5   0  0.2065692E-05  0.2468550E+04  0.7818609E-02  0.8414276E-01
        1   -1    0    0  501    0  0.00000000000E+00  0.00000000000E+00  0.11685518063E+04  0.11685518063E+04  0.50400001928E-02 0.  1.
       -1   -1    0    0    0  501  0.00000000000E+00  0.00000000000E+00 -0.13036946577E+04  0.13036946577E+04  0.50400001928E-02 0. -1.
    10030    2    1    2    0    0  0.00000000000E+00  0.00000000000E+00 -0.13514285147E+03  0.24722464640E+04  0.24685499769E+04 0.  0.
        3    1    3    3  502    0 -0.28567624782E+03  0.52071733217E+03 -0.11511700248E+04  0.12953570530E+04  0.10100000352E+00 0. -1.
       -3    1    3    3    0  502  0.28567624782E+03 -0.52071733217E+03  0.10160271733E+04  0.11768894110E+04  0.10100000352E+00 0.  1.
</event>
<event>
 5   0  0.1672125E-05  0.2391942E+04  0.7818609E-02  0.8442527E-01
       -3   -1    0    0    0  501  0.00000000000E+00  0.00000000000E+00  0.14363011322E+04  0.14363011357E+04  0.10100000352E+00 0. -1.
        3   -1    0    0  501    0  0.00000000000E+00  0.00000000000E+00 -0.99585426620E+03  0.99585427132E+03  0.10100000352E+00 0.  1.
    10030    2    1    2    0    0  0.00000000000E+00  0.00000000000E+00  0.44044686597E+03  0.24321554070E+04  0.23919419897E+04 0.  0.
        4    1    3    3  502    0 -0.23710295768E+03  0.48383748575E+03  0.13058951640E+04  0.14126854984E+04  0.12699999809E+01 0. -1.
       -4    1    3    3    0  502  0.23710295768E+03 -0.48383748575E+03 -0.86544829803E+03  0.10194699086E+04  0.12699999809E+01 0.  1.
</event>
<event>
 5   0  0.2149920E-05  0.2203727E+04  0.7818609E-02  0.8516879E-01
        1   -1    0    0  501    0  0.00000000000E+00  0.00000000000E+00  0.68705690132E+03  0.68705690134E+03  0.50400001928E-02 0. -1.
       -1   -1    0    0    0  501  0.00000000000E+00  0.00000000000E+00 -0.17671067184E+04  0.17671067184E+04  0.50400001928E-02 0.  1.
    10030    2    1    2    0    0  0.00000000000E+00  0.00000000000E+00 -0.10800498171E+04  0.24541636198E+04  0.22037267220E+04 0.  0.
        5    1    3    3  502    0  0.49656789185E+03 -0.97258612476E+03 -0.37643945656E+03  0.11550896916E+04  0.46999998093E+01 0. -1.
       -5    1    3    3    0  502 -0.49656789185E+03  0.97258612476E+03 -0.70361036055E+03  0.12990739281E+04  0.46999998093E+01 0.  1.
</event>
<event>
 5   0  0.4914005E-05  0.2427822E+04  0.7818609E-02  0.8429160E-01
        2   -1    0    0  501    0  0.00000000000E+00  0.00000000000E+00  0.14742162716E+04  0.14742162716E+04  0.25500000920E-02 0. -1.
       -2   -1    0    0    0  501  0.00000000000E+00  0.00000000000E+00 -0.99956840056E+03  0.99956840056E+03  0.25500000920E-02 0.  1.
    10030    2    1    2    0    0  0.00000000000E+00  0.00000000000E+00  0.47464787104E+03  0.24737846722E+04  0.24278220698E+04 0.  0.
        2    1    3    3  502    0  0.96150320954E+02  0.10988246719E+04 -0.27914420574E+03  0.11377970080E+04  0.25500000920E-02 0.  1.
       -2    1    3    3    0  502 -0.96150320954E+02 -0.10988246719E+04  0.75379207678E+03  0.13359876642E+04  0.25500000920E-02 0. -1.
</event>
<event>
 5   0  0.1672125E-05  0.2405751E+04  0.7818609E-02  0.8437354E-01
        3   -1    0    0  501    0  0.00000000000E+00  0.00000000000E+00  0.22192317478E+04  0.22192317501E+04  0.10100000352E+00 0. -1.
       -3   -1    0    0    0  501  0.00000000000E+00  0.00000000000E+00 -0.65198641896E+03  0.65198642678E+03  0.10100000352E+00 0.  1.
    10030    2    1    2    0    0  0.00000000000E+00  0.00000000000E+00  0.15672453288E+04  0.28712181769E+04  0.24057505894E+04 0.  0.
        4    1    3    3  502    0  0.97904398834E+03  0.20903415918E+03  0.15794920698E+04  0.18700318773E+04  0.12699999809E+01 0. -1.
       -4    1    3    3    0  502 -0.97904398834E+03 -0.20903415918E+03 -0.12246740966E+02  0.10011862995E+04  0.12699999809E+01 0.  1.
</event>
<event>
 5   0  0.2090039E-05  0.2277368E+04  0.7818609E-02  0.8486898E-01
       -1   -1    0    0    0  501  0.00000000000E+00  0.00000000000E+00  0.51234536675E+03  0.51234536678E+03  0.50400001928E-02 0. -1.
        1   -1    0    0  501    0  0.00000000000E+00  0.00000000000E+00 -0.25307170470E+04  0.25307170471E+04  0.50400001928E-02 0.  1.
    10030    2    1    2    0    0  0.00000000000E+00  0.00000000000E+00 -0.20183716803E+04  0.30430624138E+04  0.22773679138E+04 0.  0.
        1    1    3    3  502    0 -0.47359079834E+03  0.31438612587E+03  0.30919202151E+03  0.64709086425E+03  0.50400001928E-02 0. -1.
       -1    1    3    3    0  502  0.47359079834E+03 -0.31438612587E+03 -0.23275637018E+04  0.23959715496E+04  0.50400001928E-02 0.  1.
</event>
<event>
 5   0  0.4914005E-05  0.2400086E+04  0.7818609E-02  0.8439471E-01
        2   -1    0    0  501    0  0.00000000000E+00  0.00000000000E+00  0.93927612601E+03  0.93927612602E+03  0.25500000920E-02 0.  1.
       -2   -1    0    0    0  501  0.00000000000E+00  0.00000000000E+00 -0.15332057563E+04  0.15332057563E+04  0.25500000920E-02 0. -1.
    10030    2    1    2    0    0  0.00000000000E+00  0.00000000000E+00 -0.59392963027E+03  0.24724818823E+04  0.24000863011E+04 0.  0.
        2    1    3    3  502    0  0.96316724598E+03  0.56818030961E+03  0.15158077506E+03  0.11284931277E+04  0.25500000920E-02 0.  1.
       -2    1    3    3    0  502 -0.96316724598E+03 -0.56818030961E+03 -0.74551040533E+03  0.13439887546E+04  0.25500000920E-02 0. -1.
</event>
<event>
 5   0  0.2139556E-05  0.2384421E+04  0.7818609E-02  0.8445359E-01
       -1   -1    0    0    0  501  0.00000000000E+00  0.00000000000E+00  0.13141444782E+04  0.13141444782E+04  0.50400001928E-02 0.  1.
        1   -1    0    0  501    0  0.00000000000E+00  0.00000000000E+00 -0.10815904209E+04  0.10815904209E+04  0.50400001928E-02 0. -1.
    10030    2    1    2    0    0  0.00000000000E+00  0.00000000000E+00  0.23255405727E+03  0.23957348991E+04  0.23844211703E+04 0.  0.
        2    1    3    3  502    0  0.96275298141E+03 -0.36282309539E+03 -0.48893658419E+03  0.11391193463E+04  0.25500000920E-02 0. -1.
       -2    1    3    3    0  502 -0.96275298141E+03  0.36282309539E+03  0.72149064146E+03  0.12566155528E+04  0.25500000920E-02 0.  1.
</event>
<event>
 5   0  0.2139556E-05  0.2330870E+04  0.7818609E-02  0.8465848E-01
       -1   -1    0    0    0  501  0.00000000000E+00  0.00000000000E+00  0.73047103549E+03  0.73047103550E+03  0.50400001928E-02 0.  1.
        1   -1    0    0  501    0  0.00000000000E+00  0.00000000000E+00 -0.18594012233E+04  0.18594012234E+04  0.50400001928E-02 0. -1.
    10030    2    1    2    0    0  0.00000000000E+00  0.00000000000E+00 -0.11289301879E+04  0.25898722589E+04  0.23308699981E+04 0.  0.
        2    1    3    3  502    0  0.46084942661E+03  0.83902627495E+02  0.62126882144E+03  0.77807248596E+03  0.25500000920E-02 0.  1.
       -2    1    3    3    0  502 -0.46084942661E+03 -0.83902627495E+02 -0.17501990093E+04  0.18117997729E+04  0.25500000920E-02 0. -1.
</event>
<event>
 5   0  0.2057599E-05  0.2012443E+04  0.7818609E-02  0.8600825E-01
        1   -1    0    0  501    0  0.00000000000E+00  0.00000000000E+00  0.84702853748E+03  0.84702853749E+03  0.50400001928E-02 0.  1.
       -1   -1    0    0    0  501  0.00000000000E+00  0.00000000000E+00 -0.11953338464E+04  0.11953338465E+04  0.50400001928E-02 0. -1.
    10030    2    1    2    0    0  0.00000000000E+00  0.00000000000E+00 -0.34830530897E+03  0.20423623839E+04  0.20124431716E+04 0.  0.
        4    1    3    3  502    0  0.16475870481E+03  0.52913568915E+03 -0.10264901471E+04  0.11665391735E+04  0.12699999809E+01 0. -1.
       -4    1    3    3    0  502 -0.16475870481E+03 -0.52913568915E+03  0.67818483814E+03  0.87582321043E+03  0.12699999809E+01 0.  1.
</event>
<event>
 5   0  0.2057599E-05  0.2399123E+04  0.7818609E-02  0.8439832E-01
       -1   -1    0    0    0  501  0.00000000000E+00  0.00000000000E+00  0.13887687611E+04  0.13887687611E+04  0.50400001928E-02 0. -1.
        1   -1    0    0  501    0  0.00000000000E+00  0.00000000000E+00 -0.10361316586E+04  0.10361316586E+04  0.50400001928E-02 0.  1.
    10030    2    1    2    0    0  0.00000000000E+00  0.00000000000E+00  0.35263710252E+03  0.24249004197E+04  0.23991225728E+04 0.  0.
        4    1    3    3  502    0  0.10156902346E+03 -0.11008225123E+04  0.64696017893E+03  0.12808924842E+04  0.12699999809E+01 0. -1.
       -4    1    3    3    0  502 -0.10156902346E+03  0.11008225123E+04 -0.29432307640E+03  0.11440079355E+04  0.12699999809E+01 0.  1.
</event>
<event>
 5   0  0.2149920E-05  0.2766150E+04  0.7818609E-02  0.8313855E-01
       -1   -1    0    0    0  501  0.00000000000E+00  0.00000000000E+00  0.22390078445E+04  0.22390078445E+04  0.50400001928E-02 0.  1.
        1   -1    0    0  501    0  0.00000000000E+00  0.00000000000E+00 -0.85435023157E+03  0.85435023158E+03  0.50400001928E-02 0. -1.
    10030    2    1    2    0    0  0.00000000000E+00  0.00000000000E+00  0.13846576129E+04  0.30933580761E+04  0.27661502999E+04 0.  0.
        5    1    3    3  502    0 -0.13702060792E+04  0.77621254203E+02  0.88402673944E+03  0.16324874041E+04  0.46999998093E+01 0.  1.
       -5    1    3    3    0  502  0.13702060792E+04 -0.77621254203E+02  0.50063087349E+03  0.14608706719E+04  0.46999998093E+01 0. -1.
</event>
<event>
 5   0  0.2065692E-05  0.2424589E+04  0.7818609E-02  0.8430355E-01
       -1   -1    0    0    0  501  0.00000000000E+00  0.00000000000E+00  0.82717429324E+03  0.82717429326E+03  0.50400001928E-02 0.  1.
        1   -1    0    0  501    0  0.00000000000E+00  0.00000000000E+00 -0.17767205416E+04  0.17767205416E+04  0.50400001928E-02 0. -1.
    10030    2    1    2    0    0  0.00000000000E+00  0.00000000000E+00 -0.94954624831E+03  0.26038948348E+04  0.24245886730E+04 0.  0.
        3    1    3    3  502    0 -0.68675135659E+03 -0.99622172844E+03 -0.55494206097E+03  0.13311821285E+04  0.10100000352E+00 0.  1.
       -3    1    3    3    0  502  0.68675135659E+03  0.99622172844E+03 -0.39460418735E+03  0.12727127063E+04  0.10100000352E+00 0. -1.
</event>
<event>
 5   0  0.4713971E-05  0.2411399E+04  0.7818609E-02  0.8435248E-01
        2   -1    0    0  501    0  0.00000000000E+00  0.00000000000E+00  0.23693250579E+04  0.23693250579E+04  0.25500000920E-02 0. -1.
       -2   -1    0    0    0  501  0.00000000000E+00  0.00000000000E+00 -0.61355523889E+03  0.61355523889E+03  0.25500000920E-02 0.  1.
    10030    2    1    2    0    0  0.00000000000E+00  0.00000000000E+00  0.17557698190E+04  0.29828802968E+04  0.24113994293E+04 0.  0.
        5    1    3    3  502    0 -0.34200911335E+03  0.11226030052E+04  0.12199795007E+04  0.16928023550E+04  0.46999998093E+01 0.  1.
       -5    1    3    3    0  502  0.34200911335E+03 -0.11226030052E+04  0.53579031828E+03  0.12900779418E+04  0.46999998093E+01 0. -1.
</event>
<event>
 5   0  0.2149920E-05  0.2426232E+04  0.7818609E-02  0.8429748E-01
       -1   -1    0    0    0  501  0.00000000000E+00  0.00000000000E+00  0.13776310188E+04  0.13776310188E+04  0.50400001928E-02 0. -1.
        1   -1    0    0  501    0  0.00000000000E+00  0.00000000000E+00 -0.10682468398E+04  0.10682468398E+04  0.50400001928E-02 0.  1.
    10030    2    1    2    0    0  0.00000000000E+00  0.00000000000E+00  0.30938417893E+03  0.24458778586E+04  0.24262316314E+04 0.  0.
        5    1    3    3  502    0  0.79233127084E+03  0.89546512271E+03 -0.51860316455E+02  0.11968116858E+04  0.46999998093E+01 0.  1.
       -5    1    3    3    0  502 -0.79233127084E+03 -0.89546512271E+03  0.36124449538E+03  0.12490661729E+04  0.46999998093E+01 0. -1.
</event>
<event>
 5   0  0.4856882E-05  0.2449179E+04  0.7818609E-02  0.8421318E-01
        2   -1    0    0  501    0  0.00000000000E+00  0.00000000000E+00  0.23991429722E+04  0.23991429722E+04  0.25500000920E-02 0.  1.
       -2   -1    0    0    0  501  0.00000000000E+00  0.00000000000E+00 -0.62506445548E+03  0.62506445549E+03  0.25500000920E-02 0. -1.
    10030    2    1    2    0    0  0.00000000000E+00  0.00000000000E+00  0.17740785167E+04  0.30242074276E+04  0.24491786342E+04 0.  0.
        1    1    3    3  502    0  0.85632350652E+02  0.10177959774E+04  0.17212066323E+04  0.20014479314E+04  0.50400001928E-02 0.  1.
       -1    1    3    3    0  502 -0.85632350652E+02 -0.10177959774E+04  0.52871884408E+02  0.10227594963E+04  0.50400001928E-02 0. -1.
</event>
<event>
 5   0  0.2065692E-05  0.2355034E+04  0.7818609E-02  0.8456532E-01
        1   -1    0    0  501    0  0.00000000000E+00  0.00000000000E+00  0.19458996532E+04  0.19458996532E+04  0.50400001928E-02 0. -1.
       -1   -1    0    0    0  501  0.00000000000E+00  0.00000000000E+00 -0.71254787671E+03  0.71254787673E+03  0.50400001928E-02 0.  1.
    10030    2    1    2    0    0  0.00000000000E+00  0.00000000000E+00  0.12333517765E+04  0.26584475299E+04  0.23550343235E+04 0.  0.
        3    1    3    3  502    0 -0.28369862765E+03 -0.71858747090E+03  0.16198128058E+04  0.17946159479E+04  0.10100000352E+00 0. -1.
       -3    1    3    3    0  502  0.28369862765E+03  0.71858747090E+03 -0.38646102929E+03  0.86383158198E+03  0.10100000352E+00 0.  1.
</event>
<event>
 5   0  0.2139556E-05  0.2358419E+04  0.7818609E-02  0.8455237E-01
       -1   -1    0    0    0  501  0.00000000000E+00  0.00000000000E+00  0.92751634792E+03  0.92751634793E+03  0.50400001928E-02 0.  1.
        1   -1    0    0  501    0  0.00000000000E+00  0.00000000000E+00 -0.14992024199E+04  0.14992024199E+04  0.50400001928E-02 0. -1.
    10030    2    1    2    0    0  0.00000000000E+00  0.00000000000E+00 -0.57168607199E+03  0.24267187678E+04  0.23584187528E+04 0.  0.
        2    1    3    3  502    0 -0.66445630011E+03 -0.14100755318E+02 -0.12881334827E+04  0.14494788289E+04  0.25500000920E-02 0. -1.
       -2    1    3    3    0  502  0.66445630011E+03  0.14100755318E+02  0.71644741070E+03  0.97723993900E+03  0.25500000920E-02 0.  1.
</event>
<event>
 5   0  0.4856882E-05  0.2421311E+04  0.7818609E-02  0.8431568E-01
        2   -1    0    0  501    0  0.00000000000E+00  0.00000000000E+00  0.11259745617E+04  0.11259745618E+04  0.25500000920E-02 0. -1.
       -2   -1    0    0    0  501  0.00000000000E+00  0.00000000000E+00 -0.13017055546E+04  0.13017055546E+04  0.25500000920E-02 0.  1.
    10030    2    1    2    0    0  0.00000000000E+00  0.00000000000E+00 -0.17573099283E+03  0.24276801163E+04  0.24213114970E+04 0.  0.
        1    1    3    3  502    0 -0.10143118844E+04  0.22890246478E+03  0.53381570574E+03  0.11688388020E+04  0.50400001928E-02 0. -1.
       -1    1    3    3    0  502  0.10143118844E+04 -0.22890246478E+03 -0.70954669857E+03  0.12588413144E+04  0.50400001928E-02 0.  1.
</event>
<event>
 5   0  0.4756705E-05  0.2372226E+04  0.7818609E-02  0.8449975E-01
       -2   -1    0    0    0  501  0.00000000000E+00  0.00000000000E+00  0.91209105252E+03  0.91209105252E+03  0.25500000920E-02 0. -1.
        2   -1    0    0  501    0  0.00000000000E+00  0.00000000000E+00 -0.15424601597E+04  0.15424601597E+04  0.25500000920E-02 0.  1.
    10030    2    1    2    0    0  0.00000000000E+00  0.00000000000E+00 -0.63036910713E+03  0.24545512122E+04  0.23722260520E+04 0.  0.
        3    1    3    3  502    0  0.11503705399E+03 -0.58911629546E+03  0.74333942388E+03  0.95542924524E+03  0.10100000352E+00 0. -1.
       -3    1    3    3    0  502 -0.11503705399E+03  0.58911629546E+03 -0.13737085310E+04  0.14991219669E+04  0.10100000352E+00 0.  1.
</event>
<event>
 5   0  0.4856882E-05  0.2399509E+04  0.7818609E-02  0.8439688E-01
        2   -1    0    0  501    0  0.00000000000E+00  0.00000000000E+00  0.12475565608E+04  0.12475565608E+04  0.25500000920E-02 0.  1.
       -2   -1    0    0    0  501  0.00000000000E+00  0.00000000000E+00 -0.11537836791E+04  0.11537836791E+04  0.25500000920E-02 0. -1.
    10030    2    1    2    0    0  0.00000000000E+00  0.00000000000E+00  0.93772881711E+02  0.24013402398E+04  0.23995086151E+04 0.  0.
        1    1    3    3  502    0 -0.10320571616E+03 -0.84635865395E+03 -0.79781710173E+03  0.11676842548E+04  0.50400001928E-02 0. -1.
       -1    1    3    3    0  502  0.10320571616E+03  0.84635865395E+03  0.89158998344E+03  0.12336559851E+04  0.50400001928E-02 0.  1.
</event>
<event>
 5   0  0.4756705E-05  0.2383472E+04  0.7818609E-02  0.8445717E-01
        2   -1    0    0  501    0  0.00000000000E+00  0.00000000000E+00  0.20606328974E+04  0.20606328974E+04  0.25500000920E-02 0. -1.
       -2   -1    0    0    0  501  0.00000000000E+00  0.00000000000E+00 -0.68922244027E+03  0.68922244027E+03  0.25500000920E-02 0.  1.
    10030    2    1    2    0    0  0.00000000000E+00  0.00000000000E+00  0.13714104571E+04  0.27498553377E+04  0.23834717821E+04 0.  0.
        3    1    3    3  502    0  0.64973995139E+03  0.21044368745E+03  0.18124492846E+04  0.19368585311E+04  0.10100000352E+00 0. -1.
       -3    1    3    3    0  502 -0.64973995139E+03 -0.21044368745E+03 -0.44103882745E+03  0.81299680660E+03  0.10100000352E+00 0.  1.
</event>
<event>
 5   0  0.4914005E-05  0.2431569E+04  0.7818609E-02  0.8427778E-01
       -2   -1    0    0    0  501  0.00000000000E+00  0.00000000000E+00  0.57744174515E+03  0.57744174516E+03  0.25500000920E-02 0. -1.
        2   -1    0    0  501    0  0.00000000000E+00  0.00000000000E+00 -0.25597943061E+04  0.25597943061E+04  0.25500000920E-02 0.  1.
    10030    2    1    2    0    0  0.00000000000E+00  0.00000000000E+00 -0.19823525609E+04  0.31372360512E+04  0.24315691159E+04 0.  0.
        2    1    3    3  502    0 -0.56167628356E+02 -0.58112706177E+03  0.38474031139E+03  0.69920567190E+03  0.25500000920E-02 0. -1.
       -2    1    3    3    0  502  0.56167628356E+02  0.58112706177E+03 -0.23670928723E+04  0.24380303793E+04  0.25500000920E-02 0.  1.
</event>
<event>
 5   0  0.4856882E-05  0.2399812E+04  0.7818609E-02  0.8439574E-01
        2   -1    0    0  501    0  0.00000000000E+00  0.00000000000E+00  0.23156813624E+04  0.23156813624E+04  0.25500000920E-02 0. -1.
       -2   -1    0    0    0  501  0.00000000000E+00  0.00000000000E+00 -0.62174980514E+03  0.62174980515E+03  0.25500000920E-02 0.  1.
    10030    2    1    2    0    0  0.00000000000E+00  0.00000000000E+00  0.16939315573E+04  0.29374311675E+04  0.23998120225E+04 0.  0.
        1    1    3    3  502    0  0.11374965981E+04 -0.30424484117E+03  0.56434837938E+03  0.13057383074E+04  0.50400001928E-02 0.  1.
       -1    1    3    3    0  502 -0.11374965981E+04  0.30424484117E+03  0.11295831779E+04  0.16316928601E+04  0.50400001928E-02 0. -1.
</event>
<event>
 5   0  0.2149920E-05  0.2051766E+04  0.7818609E-02  0.8582794E-01
       -1   -1    0    0    0  501  0.00000000000E+00  0.00000000000E+00  0.42580901062E+03  0.42580901065E+03  0.50400001928E-02 0.  1.
        1   -1    0    0  501    0  0.00000000000E+00  0.00000000000E+00 -0.24716146659E+04  0.24716146659E+04  0.50400001928E-02 0. -1.
    10030    2    1    2    0    0  0.00000000000E+00  0.00000000000E+00 -0.20458056553E+04  0.28974236766E+04  0.20517658693E+04 0.  0.
        5    1    3    3  502    0 -0.77826691100E+03  0.42774445976E+03 -0.29766639547E+03  0.93663871402E+03  0.46999998093E+01 0.  1.
       -5    1    3    3    0  502  0.77826691100E+03 -0.42774445976E+03 -0.17481392598E+04  0.19607849625E+04  0.46999998093E+01 0. -1.
</event>
<event>
 5   0  0.2149920E-05  0.2305206E+04  0.7818609E-02  0.8475871E-01
       -1   -1    0    0    0  501  0.00000000000E+00  0.00000000000E+00  0.21984865473E+04  0.21984865473E+04  0.50400001928E-02 0. -1.
        1   -1    0    0  501    0  0.00000000000E+00  0.00000000000E+00 -0.60427657096E+03  0.60427657099E+03  0.50400001928E-02 0.  1.
    10030    2    1    2    0    0  0.00000000000E+00  0.00000000000E+00  0.15942099763E+04  0.28027631183E+04  0.23052062052E+04 0.  0.
        5    1    3    3  502    0 -0.38367044998E+03  0.25661438647E+03  0.20811948346E+04  0.21317710917E+04  0.46999998093E+01 0. -1.
       -5    1    3    3    0  502  0.38367044998E+03 -0.25661438647E+03 -0.48698485833E+03  0.67099202660E+03  0.46999998093E+01 0.  1.
</event>
<event>
 5   0  0.4914005E-05  0.2425078E+04  0.7818609E-02  0.8430174E-01
       -2   -1    0    0    0  501  0.00000000000E+00  0.00000000000E+00  0.58815314320E+03  0.58815314320E+03  0.25500000920E-02 0.  1.
        2   -1    0    0  501    0  0.00000000000E+00  0.00000000000E+00 -0.24997750188E+04  0.24997750188E+04  0.25500000920E-02 0. -1.
    10030    2    1    2    0    0  0.00000000000E+00  0.00000000000E+00 -0.19116218756E+04  0.30879281620E+04  0.24250777593E+04 0.  0.
        2    1    3    3  502    0 -0.10026025250E+04  0.38626368794E+03 -0.24020415376E+03  0.11009584439E+04  0.25500000920E-02 0.  1.
       -2    1    3    3    0  502  0.10026025250E+04 -0.38626368794E+03 -0.16714177219E+04  0.19869697181E+04  0.25500000920E-02 0. -1.
</event>
<event>
 5   0  0.2065692E-05  0.2406907E+04  0.7818609E-02  0.8436922E-01
        1   -1    0    0  501    0  0.00000000000E+00  0.00000000000E+00  0.18398610848E+04  0.18398610848E+04  0.50400001928E-02 0. -1.
       -1   -1    0    0    0  501  0.00000000000E+00  0.00000000000E+00 -0.78717899295E+03  0.78717899297E+03  0.50400001928E-02 0.  1.
    10030    2    1    2    0    0  0.00000000000E+00  0.00000000000E+00  0.10526820919E+04  0.26270400778E+04  0.24069067252E+04 0.  0.
        3    1    3    3  502    0  0.72742205501E+03  0.80033202779E+03  0.11024678625E+04  0.15443800047E+04  0.10100000352E+00 0. -1.
       -3    1    3    3    0  502 -0.72742205501E+03 -0.80033202779E+03 -0.49785770598E+02  0.10826600731E+04  0.10100000352E+00 0.  1.
</event>
<event>
 5   0  0.2149920E-05  0.2410999E+04  0.7818609E-02  0.8435397E-01
        1   -1    0    0  501    0  0.00000000000E+00  0.00000000000E+00  0.12286589055E+04  0.12286589055E+04  0.50400001928E-02 0. -1.
       -1   -1    0    0    0  501  0.00000000000E+00  0.00000000000E+00 -0.11827767632E+04  0.11827767632E+04  0.50400001928E-02 0.  1.
    10030    2    1    2    0    0  0.00000000000E+00  0.00000000000E+00  0.45882142278E+02  0.24114356687E+04  0.24109991317E+04 0.  0.
        5    1    3    3  502    0  0.62744689886E+03 -0.87438145252E+03  0.56615502907E+03  0.12160535113E+04  0.46999998093E+01 0. -1.
       -5    1    3    3    0  502 -0.62744689886E+03  0.87438145252E+03 -0.52027288679E+03  0.11953821574E+04  0.46999998093E+01 0.  1.
</event>
<event>
 5   0  0.4713971E-05  0.2358511E+04  0.7818609E-02  0.8455202E-01
        2   -1    0    0  501    0  0.00000000000E+00  0.00000000000E+00  0.17390172692E+04  0.17390172692E+04  0.25500000920E-02 0.  1.
       -2   -1    0    0    0  501  0.00000000000E+00  0.00000000000E+00 -0.79967195309E+03  0.79967195310E+03  0.25500000920E-02 0. -1.
    10030    2    1    2    0    0  0.00000000000E+00  0.00000000000E+00  0.93934531610E+03  0.25386892223E+04  0.23585108320E+04 0.  0.
        5    1    3    3  502    0 -0.60396033736E+03 -0.59772922095E+03  0.13498011087E+04  0.15950026438E+04  0.46999998093E+01 0.  1.
       -5    1    3    3    0  502  0.60396033736E+03  0.59772922095E+03 -0.41045579263E+03  0.94368657847E+03  0.46999998093E+01 0. -1.
</event>
<event>
 5   0  0.4756705E-05  0.2363203E+04  0.7818609E-02  0.8453410E-01
       -2   -1    0    0    0  501  0.00000000000E+00  0.00000000000E+00  0.74120735551E+03  0.74120735551E+03  0.25500000920E-02 0.  1.
        2   -1    0    0  501    0  0.00000000000E+00  0.00000000000E+00 -0.18836596559E+04  0.18836596559E+04  0.25500000920E-02 0. -1.
    10030    2    1    2    0    0  0.00000000000E+00  0.00000000000E+00 -0.11424523004E+04  0.26248670114E+04  0.23632032433E+04 0.  0.
        3    1    3    3  502    0  0.52728009033E+03  0.13394287767E+03  0.59382631767E+03  0.80535376940E+03  0.10100000352E+00 0.  1.
       -3    1    3    3    0  502 -0.52728009033E+03 -0.13394287767E+03 -0.17362786181E+04  0.18195132420E+04  0.10100000352E+00 0. -1.
</event>
<event>
 5   0  0.2149920E-05  0.2396856E+04  0.7818609E-02  0.8440682E-01
       -1   -1    0    0    0  501  0.00000000000E+00  0.00000000000E+00  0.19750522034E+04  0.19750522034E+04  0.50400001928E-02 0.  1.
        1   -1    0    0  501    0  0.00000000000E+00  0.00000000000E+00 -0.72718547106E+03  0.72718547108E+03  0.50400001928E-02 0. -1.
    10030    2    1    2    0    0  0.00000000000E+00  0.00000000000E+00  0.12478667323E+04  0.27022376744E+04  0.23968556626E+04 0.  0.
        5    1    3    3  502    0  0.59101892870E+03 -0.42906374192E+03 -0.44728839916E+03  0.85643918099E+03  0.46999998093E+01 0. -1.
       -5    1    3    3    0  502 -0.59101892870E+03  0.42906374192E+03  0.16951551315E+04  0.18457984934E+04  0.46999998093E+01 0.  1.
</event>
<event>
 5   0  0.4914005E-05  0.2335191E+04  0.7818609E-02  0.8464173E-01
        2   -1    0    0  501    0  0.00000000000E+00  0.00000000000E+00  0.11167777816E+04  0.11167777816E+04  0.25500000920E-02 0.  1.
       -2   -1    0    0    0  501  0.00000000000E+00  0.00000000000E+00 -0.12207260597E+04  0.12207260597E+04  0.25500000920E-02 0. -1.
    10030    2    1    2    0    0  0.00000000000E+00  0.00000000000E+00 -0.10394827818E+03  0.23375038413E+04  0.23351914190E+04 0.  0.
        2    1    3    3  502    0  0.12317467614E+03  0.11279920816E+04 -0.32745859301E+03  0.11810026533E+04  0.25500000920E-02 0.  1.
       -2    1    3    3    0  502 -0.12317467614E+03 -0.11279920816E+04  0.22351031483E+03  0.11565011880E+04  0.25500000920E-02 0. -1.
</event>
<event>
 5   0  0.2090039E-05  0.2325182E+04  0.7818609E-02  0.8468058E-01
        1   -1    0    0  501    0  0.00000000000E+00  0.00000000000E+00  0.10396682743E+04  0.10396682743E+04  0.50400001928E-02 0.  1.
       -1   -1    0    0    0  501  0.00000000000E+00  0.00000000000E+00 -0.13000475858E+04  0.13000475858E+04  0.50400001928E-02 0. -1.
    10030    2    1    2    0    0  0.00000000000E+00  0.00000000000E+00 -0.26037931147E+03  0.23397158601E+04  0.23251823413E+04 0.  0.
        1    1    3    3  502    0  0.13856673163E+03  0.92603516647E+03  0.56323036839E+03  0.10926894877E+04  0.50400001928E-02 0.  1.
       -1    1    3    3    0  502 -0.13856673163E+03 -0.92603516647E+03 -0.82360967986E+03  0.12470263724E+04  0.50400001928E-02 0. -1.
</event>
<event>
 5   0  0.4856882E-05  0.2369823E+04  0.7818609E-02  0.8450889E-01
       -2   -1    0    0    0  501  0.00000000000E+00  0.00000000000E+00  0.69092448113E+03  0.69092448113E+03  0.25500000920E-02 0.  1.
        2   -1    0    0  501    0  0.00000000000E+00  0.00000000000E+00 -0.20320820428E+04  0.20320820428E+04  0.25500000920E-02 0. -1.
    10030    2    1    2    0    0  0.00000000000E+00  0.00000000000E+00 -0.13411575617E+04  0.27230065239E+04  0.23698229732E+04 0.  0.
        1    1    3    3  502    0 -0.53361093148E+03  0.46737715833E+03  0.41999478731E+03  0.82436500151E+03  0.50400001928E-02 0.  1.
       -1    1    3    3    0  502  0.53361093148E+03 -0.46737715833E+03 -0.17611523490E+04  0.18986415224E+04  0.50400001928E-02 0. -1.
</event>
<event>
 5   0  0.2139556E-05  0.2312206E+04  0.7818609E-02  0.8473124E-01
       -1   -1    0    0    0  501  0.00000000000E+00  0.00000000000E+00  0.11222812315E+04  0.11222812315E+04  0.50400001928E-02 0.  1.
        1   -1    0    0  501    0  0.00000000000E+00  0.00000000000E+00 -0.11909437287E+04  0.11909437287E+04  0.50400001928E-02 0. -1.
    10030    2    1    2    0    0  0.00000000000E+00  0.00000000000E+00 -0.68662497193E+02  0.23132249601E+04  0.23122056954E+04 0.  0.
        2    1    3    3  502    0  0.92945818189E+03  0.11152785945E+03  0.64437979177E+03  0.11364665817E+04  0.25500000920E-02 0.  1.
       -2    1    3    3    0  502 -0.92945818189E+03 -0.11152785945E+03 -0.71304228896E+03  0.11767583784E+04  0.25500000920E-02 0. -1.
</event>
<event>
 5   0  0.2065692E-05  0.2398081E+04  0.7818609E-02  0.8440222E-01
       -1   -1    0    0    0  501  0.00000000000E+00  0.00000000000E+00  0.10409236041E+04  0.10409236041E+04  0.50400001928E-02 0. -1.
        1   -1    0    0  501    0  0.00000000000E+00  0.00000000000E+00 -0.13811753051E+04  0.13811753051E+04  0.50400001928E-02 0.  1.
    10030    2    1    2    0    0  0.00000000000E+00  0.00000000000E+00 -0.34025170093E+03  0.24220989092E+04  0.23980808798E+04 0.  0.
        3    1    3    3  502    0  0.10880719963E+04 -0.23717455165E+03 -0.61903830077E+03  0.12741117946E+04  0.10100000352E+00 0.  1.
       -3    1    3    3    0  502 -0.10880719963E+04  0.23717455165E+03  0.27878659984E+03  0.11479871147E+04  0.10100000352E+00 0. -1.
</event>
<event>
 5   0  0.2149920E-05  0.2459158E+04  0.7818609E-02  0.8417682E-01
       -1   -1    0    0    0  501  0.00000000000E+00  0.00000000000E+00  0.83583952785E+03  0.83583952786E+03  0.50400001928E-02 0. -1.
        1   -1    0    0  501    0  0.00000000000E+00  0.00000000000E+00 -0.18087974930E+04  0.18087974930E+04  0.50400001928E-02 0.  1.
    10030    2    1    2    0    0  0.00000000000E+00  0.00000000000E+00 -0.97295796516E+03  0.26446370209E+04  0.24591579393E+04 0.  0.
        5    1    3    3  502    0 -0.55774174003E+03  0.95905454643E+03 -0.10565356582E+04  0.15320415003E+04  0.46999998093E+01 0.  1.
       -5    1    3    3    0  502  0.55774174003E+03 -0.95905454643E+03  0.83577693072E+02  0.11125955206E+04  0.46999998093E+01 0. -1.
</event>
<event>
 5   0  0.2139556E-05  0.2402691E+04  0.7818609E-02  0.8438497E-01
       -1   -1    0    0    0  501  0.00000000000E+00  0.00000000000E+00  0.76247341685E+03  0.76247341687E+03  0.50400001928E-02 0.  1.
        1   -1    0    0  501    0  0.00000000000E+00  0.00000000000E+00 -0.18928284317E+04  0.18928284317E+04  0.50400001928E-02 0. -1.
    10030    2    1    2    0    0  0.00000000000E+00  0.00000000000E+00 -0.11303550149E+04  0.26553018486E+04  0.24026912926E+04 0.  0.
        2    1    3    3  502    0  0.72893774275E+03 -0.29458253860E+02 -0.16199973518E+04  0.17766849584E+04  0.25500000920E-02 0. -1.
       -2    1    3    3    0  502 -0.72893774275E+03  0.29458253860E+02  0.48964233696E+03  0.87861689017E+03  0.25500000920E-02 0.  1.
</event>
<event>
 5   0  0.4664127E-05  0.2419087E+04  0.7818609E-02  0.8432392E-01
       -2   -1    0    0    0  501  0.00000000000E+00  0.00000000000E+00  0.73448451352E+03  0.73448451352E+03  0.25500000920E-02 0. -1.
        2   -1    0    0  501    0  0.00000000000E+00  0.00000000000E+00 -0.19918678023E+04  0.19918678023E+04  0.25500000920E-02 0.  1.
    10030    2    1    2    0    0  0.00000000000E+00  0.00000000000E+00 -0.12573832887E+04  0.27263523158E+04  0.24190874757E+04 0.  0.
        4    1    3    3  502    0 -0.22539281236E+03  0.11529059620E+04 -0.95338275778E+03  0.15129224609E+04  0.12699999809E+01 0.  1.
       -4    1    3    3    0  502  0.22539281236E+03 -0.11529059620E+04 -0.30400053096E+03  0.12134298549E+04  0.12699999809E+01 0. -1.
</event>
<event>
 5   0  0.2057599E-05  0.2183801E+04  0.7818609E-02  0.8525201E-01
        1   -1    0    0  501    0  0.00000000000E+00  0.00000000000E+00  0.21722591613E+04  0.21722591613E+04  0.50400001928E-02 0. -1.
       -1   -1    0    0    0  501  0.00000000000E+00  0.00000000000E+00 -0.54885121192E+03  0.54885121194E+03  0.50400001928E-02 0.  1.
    10030    2    1    2    0    0  0.00000000000E+00  0.00000000000E+00  0.16234079494E+04  0.27211103732E+04  0.21838013401E+04 0.  0.
        4    1    3    3  502    0 -0.44423025646E+03  0.83769819194E+03  0.13703563045E+03  0.95804966387E+03  0.12699999809E+01 0.  1.
       -4    1    3    3    0  502  0.44423025646E+03 -0.83769819194E+03  0.14863723189E+04  0.17630607093E+04  0.12699999809E+01 0. -1.
</event>
<event>
 5   0  0.2149920E-05  0.2409970E+04  0.7818609E-02  0.8435780E-01
        1   -1    0    0  501    0  0.00000000000E+00  0.00000000000E+00  0.22858707603E+04  0.22858707603E+04  0.50400001928E-02 0.  1.
       -1   -1    0    0    0  501  0.00000000000E+00  0.00000000000E+00 -0.63520145875E+03  0.63520145877E+03  0.50400001928E-02 0. -1.
    10030    2    1    2    0    0  0.00000000000E+00  0.00000000000E+00  0.16506693016E+04  0.29210722191E+04  0.24099696608E+04 0.  0.
        5    1    3    3  502    0  0.91670320084E+03 -0.28213634373E+03  0.17094215900E+04  0.19601249800E+04  0.46999998093E+01 0.  1.
       -5    1    3    3    0  502 -0.91670320084E+03  0.28213634373E+03 -0.58752288456E+02  0.96094723907E+03  0.46999998093E+01 0. -1.
</event>
<event>
 5   0  0.1672125E-05  0.2377545E+04  0.7818609E-02  0.8447958E-01
       -4   -1    0    0    0  501  0.00000000000E+00  0.00000000000E+00  0.12112687256E+04  0.12112693913E+04  0.12699999809E+01 0. -1.
        4   -1    0    0  501    0  0.00000000000E+00  0.00000000000E+00 -0.11666928312E+04  0.11666935224E+04  0.12699999809E+01 0.  1.
    10030    2    1    2    0    0  0.00000000000E+00  0.00000000000E+00  0.44575894338E+02  0.23779629138E+04  0.23775450803E+04 0.  0.
        1    1    3    3  502    0 -0.99986020761E+03  0.64196613973E+03 -0.14313468956E+02  0.11882953483E+04  0.50400001928E-02 0.  1.
       -1    1    3    3    0  502  0.99986020761E+03 -0.64196613973E+03  0.58889363294E+02  0.11896675655E+04  0.50400001928E-02 0. -1.
</event>
<event>
 5   0  0.4856882E-05  0.2401991E+04  0.7818609E-02  0.8438759E-01
       -2   -1    0    0    0  501  0.00000000000E+00  0.00000000000E+00  0.81256990136E+03  0.81256990136E+03  0.25500000920E-02 0.  1.
        2   -1    0    0  501    0  0.00000000000E+00  0.00000000000E+00 -0.17750967091E+04  0.17750967091E+04  0.25500000920E-02 0. -1.
    10030    2    1    2    0    0  0.00000000000E+00  0.00000000000E+00 -0.96252680771E+03  0.25876666104E+04  0.24019909723E+04 0.  0.
        1    1    3    3  502    0 -0.81658533633E+03  0.86072161005E+03 -0.68204883937E+03  0.13685188785E+04  0.50400001928E-02 0.  1.
       -1    1    3    3    0  502  0.81658533633E+03 -0.86072161005E+03 -0.28047796834E+03  0.12191477319E+04  0.50400001928E-02 0. -1.
</event>
<event>
 5   0  0.4756705E-05  0.2458834E+04  0.7818609E-02  0.8417800E-01
        2   -1    0    0  501    0  0.00000000000E+00  0.00000000000E+00  0.16351819263E+04  0.16351819263E+04  0.25500000920E-02 0. -1.
       -2   -1    0    0    0  501  0.00000000000E+00  0.00000000000E+00 -0.92434117779E+03  0.92434117779E+03  0.25500000920E-02 0.  1.
    10030    2    1    2    0    0  0.00000000000E+00  0.00000000000E+00  0.71084074847E+03  0.25595231041E+04  0.24588338599E+04 0.  0.
        3    1    3    3  502    0  0.13295440287E+03 -0.79936262030E+03  0.13178395921E+04  0.15470483743E+04  0.10100000352E+00 0. -1.
       -3    1    3    3    0  502 -0.13295440287E+03  0.79936262030E+03 -0.60699884358E+03  0.10124747297E+04  0.10100000352E+00 0.  1.
</event>
<event>
 5   0  0.4756705E-05  0.2428092E+04  0.7818609E-02  0.8429061E-01
        2   -1    0    0  501    0  0.00000000000E+00  0.00000000000E+00  0.10109210023E+04  0.10109210023E+04  0.25500000920E-02 0. -1.
       -2   -1    0    0    0  501  0.00000000000E+00  0.00000000000E+00 -0.14579844919E+04  0.14579844919E+04  0.25500000920E-02 0.  1.
    10030    2    1    2    0    0  0.00000000000E+00  0.00000000000E+00 -0.44706348956E+03  0.24689054942E+04  0.24280915500E+04 0.  0.
        3    1    3    3  502    0 -0.52044555809E+03 -0.10521841660E+04  0.91436307423E+02  0.11774190871E+04  0.10100000352E+00 0. -1.
       -3    1    3    3    0  502  0.52044555809E+03  0.10521841660E+04 -0.53849979698E+03  0.12914864071E+04  0.10100000352E+00 0.  1.
</event>
<event>
 5   0  0.2057599E-05  0.2406043E+04  0.7818609E-02  0.8437245E-01
       -1   -1    0    0    0  501  0.00000000000E+00  0.00000000000E+00  0.51465154501E+03  0.51465154503E+03  0.50400001928E-02 0.  1.
        1   -1    0    0  501    0  0.00000000000E+00  0.00000000000E+00 -0.28121174383E+04  0.28121174383E+04  0.50400001928E-02 0. -1.
    10030    2    1    2    0    0  0.00000000000E+00  0.00000000000E+00 -0.22974658933E+04  0.33267689833E+04  0.24060428794E+04 0.  0.
        4    1    3    3  502    0 -0.92215553612E+03  0.37865510765E+03 -0.21759940399E+03  0.10203438817E+04  0.12699999809E+01 0.  1.
       -4    1    3    3    0  502  0.92215553612E+03 -0.37865510765E+03 -0.20798664893E+04  0.23064251016E+04  0.12699999809E+01 0. -1.
</event>
<event>
 5   0  0.4856882E-05  0.2386130E+04  0.7818609E-02  0.8444714E-01
       -2   -1    0    0    0  501  0.00000000000E+00  0.00000000000E+00  0.11134681762E+04  0.11134681762E+04  0.25500000920E-02 0.  1.
        2   -1    0    0  501    0  0.00000000000E+00  0.00000000000E+00 -0.12783523644E+04  0.12783523644E+04  0.25500000920E-02 0. -1.
    10030    2    1    2    0    0  0.00000000000E+00  0.00000000000E+00 -0.16488418818E+03  0.23918205406E+04  0.23861304874E+04 0.  0.
        1    1    3    3  502    0 -0.14136494900E+03  0.11162520861E+04  0.31524307656E+03  0.11684951715E+04  0.50400001928E-02 0.  1.
       -1    1    3    3    0  502  0.14136494900E+03 -0.11162520861E+04 -0.48012726474E+03  0.12233253691E+04  0.50400001928E-02 0. -1.
</event>
<event>
 5   0  0.2139556E-05  0.2482842E+04  0.7818609E-02  0.8409124E-01
        1   -1    0    0  501    0  0.00000000000E+00  0.00000000000E+00  0.13191759005E+04  0.13191759005E+04  0.50400001928E-02 0. -1.
       -1   -1    0    0    0  501  0.00000000000E+00  0.00000000000E+00 -0.11682486997E+04  0.11682486997E+04  0.50400001928E-02 0.  1.
    10030    2    1    2    0    0  0.00000000000E+00  0.00000000000E+00  0.15092720078E+03  0.24874246003E+04  0.24828415419E+04 0.  0.
        2    1    3    3  502    0 -0.76330375517E+03 -0.60218189465E+03 -0.69788737251E+03  0.11967883863E+04  0.25500000920E-02 0.  1.
       -2    1    3    3    0  502  0.76330375517E+03  0.60218189465E+03  0.84881457329E+03  0.12906362139E+04  0.25500000920E-02 0. -1.
</event>
<event>
 5   0  0.2090039E-05  0.2409432E+04  0.7818609E-02  0.8435981E-01
        1   -1    0    0  501    0  0.00000000000E+00  0.00000000000E+00  0.11828996964E+04  0.11828996964E+04  0.50400001928E-02 0. -1.
       -1   -1    0    0    0  501  0.00000000000E+00  0.00000000000E+00 -0.12269350077E+04  0.12269350077E+04  0.50400001928E-02 0.  1.
    10030    2    1    2    0    0  0.00000000000E+00  0.00000000000E+00 -0.44035311263E+02  0.24098347041E+04  0.24094323382E+04 0.  0.
        1    1    3    3  502    0 -0.18920647695E+03 -0.46151560416E+03 -0.11188070514E+04  0.12249591675E+04  0.50400001928E-02 0.  1.
       -1    1    3    3    0  502  0.18920647695E+03  0.46151560416E+03  0.10747717401E+04  0.11848755366E+04  0.50400001928E-02 0. -1.
</event>
<event>
 5   0  0.2149920E-05  0.2375330E+04  0.7818609E-02  0.8448798E-01
        1   -1    0    0  501    0  0.00000000000E+00  0.00000000000E+00  0.12374114912E+04  0.12374114912E+04  0.50400001928E-02 0.  1.
       -1   -1    0    0    0  501  0.00000000000E+00  0.00000000000E+00 -0.11399183609E+04  0.11399183609E+04  0.50400001928E-02 0. -1.
    10030    2    1    2    0    0  0.00000000000E+00  0.00000000000E+00  0.97493130284E+02  0.23773298521E+04  0.23753299382E+04 0.  0.
        5    1    3    3  502    0 -0.99680468016E+03 -0.38919676342E+03 -0.46688843028E+03  0.11675189880E+04  0.46999998093E+01 0. -1.
       -5    1    3    3    0  502  0.99680468016E+03  0.38919676342E+03  0.56438156057E+03  0.12098108641E+04  0.46999998093E+01 0.  1.
</event>
<event>
 5   0  0.4914005E-05  0.2315273E+04  0.7818609E-02  0.8471923E-01
        2   -1    0    0  501    0  0.00000000000E+00  0.00000000000E+00  0.26893331880E+04  0.26893331880E+04  0.25500000920E-02 0. -1.
       -2   -1    0    0    0  501  0.00000000000E+00  0.00000000000E+00 -0.49831024559E+03  0.49831024559E+03  0.25500000920E-02 0.  1.
    10030    2    1    2    0    0  0.00000000000E+00  0.00000000000E+00  0.21910229424E+04  0.31876434336E+04  0.23152730132E+04 0.  0.
        2    1    3    3  502    0 -0.82326947451E+03 -0.51499452556E+03  0.22788252278E+03  0.99745798568E+03  0.25500000920E-02 0.  1.
       -2    1    3    3    0  502  0.82326947451E+03  0.51499452556E+03  0.19631404196E+04  0.21901854479E+04  0.25500000920E-02 0. -1.
</event>
<event>
 5   0  0.4856882E-05  0.2388602E+04  0.7818609E-02  0.8443783E-01
        2   -1    0    0  501    0  0.00000000000E+00  0.00000000000E+00  0.14164149333E+04  0.14164149333E+04  0.25500000920E-02 0. -1.
       -2   -1    0    0    0  501  0.00000000000E+00  0.00000000000E+00 -0.10070175824E+04  0.10070175824E+04  0.25500000920E-02 0.  1.
    10030    2    1    2    0    0  0.00000000000E+00  0.00000000000E+00  0.40939735089E+03  0.24234325156E+04  0.23886018854E+04 0.  0.
        1    1    3    3  502    0  0.11523640441E+04  0.26410041508E+03  0.32928944787E+02  0.11826987084E+04  0.50400001928E-02 0.  1.
       -1    1    3    3    0  502 -0.11523640441E+04 -0.26410041508E+03  0.37646840610E+03  0.12407338072E+04  0.50400001928E-02 0. -1.
</event>
<event>
 5   0  0.4756705E-05  0.2344270E+04  0.7818609E-02  0.8460668E-01
       -2   -1    0    0    0  501  0.00000000000E+00  0.00000000000E+00  0.13555259559E+04  0.13555259559E+04  0.25500000920E-02 0. -1.
        2   -1    0    0  501    0  0.00000000000E+00  0.00000000000E+00 -0.10135548438E+04  0.10135548438E+04  0.25500000920E-02 0.  1.
    10030    2    1    2    0    0  0.00000000000E+00  0.00000000000E+00  0.34197111206E+03  0.23690807997E+04  0.23442695225E+04 0.  0.
        3    1    3    3  502    0  0.10779822608E+04 -0.27940709267E+03  0.54062419145E+03  0.12378968473E+04  0.10100000352E+00 0. -1.
       -3    1    3    3    0  502 -0.10779822608E+04  0.27940709267E+03 -0.19865307939E+03  0.11311839524E+04  0.10100000352E+00 0.  1.
</event>
<event>
 5   0  0.1672125E-05  0.2373828E+04  0.7818609E-02  0.8449368E-01
        3   -1    0    0  501    0  0.00000000000E+00  0.00000000000E+00  0.93133094305E+03  0.93133094853E+03  0.10100000352E+00 0.  1.
       -3   -1    0    0    0  501  0.00000000000E+00  0.00000000000E+00 -0.15126358657E+04  0.15126358691E+04  0.10100000352E+00 0. -1.
    10030    2    1    2    0    0  0.00000000000E+00  0.00000000000E+00 -0.58130492264E+03  0.24439668176E+04  0.23738277933E+04 0.  0.
        3    1    3    3  502    0 -0.73475594950E+03  0.13169333263E+03 -0.12407156350E+04  0.14479588172E+04  0.10100000352E+00 0. -1.
       -3    1    3    3    0  502  0.73475594950E+03 -0.13169333263E+03  0.65941071231E+03  0.99600800042E+03  0.10100000352E+00 0.  1.
</event>
<event>
 5   0  0.1672125E-05  0.2385362E+04  0.7818609E-02  0.8445004E-01
        4   -1    0    0  501    0  0.00000000000E+00  0.00000000000E+00  0.79035385312E+03  0.79035487349E+03  0.12699999809E+01 0.  1.
       -4   -1    0    0    0  501  0.00000000000E+00  0.00000000000E+00 -0.17998098198E+04  0.17998102679E+04  0.12699999809E+01 0. -1.
    10030    2    1    2    0    0  0.00000000000E+00  0.00000000000E+00 -0.10094559667E+04  0.25901651414E+04  0.23853624695E+04 0.  0.
        4    1    3    3  502    0  0.63063317879E+03  0.77886217830E+03 -0.12069033189E+04  0.15687388989E+04  0.12699999809E+01 0. -1.
       -4    1    3    3    0  502 -0.63063317879E+03 -0.77886217830E+03  0.19744735220E+03  0.10214262424E+04  0.12699999809E+01 0.  1.
</event>
<event>
 5   0  0.4664127E-05  0.2420994E+04  0.7818609E-02  0.8431685E-01
        2   -1    0    0  501    0  0.00000000000E+00  0.00000000000E+00  0.17816565900E+04  0.17816565900E+04  0.25500000920E-02 0.  1.
       -2   -1    0    0    0  501  0.00000000000E+00  0.00000000000E+00 -0.82243857673E+03  0.82243857674E+03  0.25500000920E-02 0. -1.
    10030    2    1    2    0    0  0.00000000000E+00  0.00000000000E+00  0.95921801329E+03  0.26040951668E+04  0.24209941017E+04 0.  0.
        4    1    3    3  502    0 -0.89779307361E+02  0.72006873490E+03 -0.56255552505E+03  0.91816645478E+03  0.12699999809E+01 0. -1.
       -4    1    3    3    0  502  0.89779307361E+02 -0.72006873490E+03  0.15217735383E+04  0.16859287120E+04  0.12699999809E+01 0.  1.
</event>
<event>
 5   0  0.4856882E-05  0.2398660E+04  0.7818609E-02  0.8440005E-01
        2   -1    0    0  501    0  0.00000000000E+00  0.00000000000E+00  0.14790608924E+04  0.14790608924E+04  0.25500000920E-02 0. -1.
       -2   -1    0    0    0  501  0.00000000000E+00  0.00000000000E+00 -0.97250416752E+03  0.97250416752E+03  0.25500000920E-02 0.  1.
    10030    2    1    2    0    0  0.00000000000E+00  0.00000000000E+00  0.50655672486E+03  0.24515650599E+04  0.23986603610E+04 0.  0.
        1    1    3    3  502    0  0.48395987786E+03  0.65842082285E+02 -0.86625342810E+03  0.99445831732E+03  0.50400001928E-02 0.  1.
       -1    1    3    3    0  502 -0.48395987786E+03 -0.65842082285E+02  0.13728101530E+04  0.14571067426E+04  0.50400001928E-02 0. -1.
</event>
<event>
 5   0  0.2090039E-05  0.1963512E+04  0.7818609E-02  0.8623872E-01
       -1   -1    0    0    0  501  0.00000000000E+00  0.00000000000E+00  0.15870458474E+04  0.15870458474E+04  0.50400001928E-02 0. -1.
        1   -1    0    0  501    0  0.00000000000E+00  0.00000000000E+00 -0.60732030270E+03  0.60732030273E+03  0.50400001928E-02 0.  1.
    10030    2    1    2    0    0  0.00000000000E+00  0.00000000000E+00  0.97972554465E+03  0.21943661501E+04  0.19635123269E+04 0.  0.
        1    1    3    3  502    0 -0.34728402926E+03 -0.23556224697E+03 -0.50204090973E+03  0.65432472385E+03  0.50400001928E-02 0.  1.
       -1    1    3    3    0  502  0.34728402926E+03  0.23556224697E+03  0.14817664544E+04  0.15400414262E+04  0.50400001928E-02 0. -1.
</event>
<event>
 5   0  0.2149920E-05  0.2121324E+04  0.7818609E-02  0.8551908E-01
        1   -1    0    0  501    0  0.00000000000E+00  0.00000000000E+00  0.17250660540E+04  0.17250660540E+04  0.50400001928E-02 0. -1.
       -1   -1    0    0    0  501  0.00000000000E+00  0.00000000000E+00 -0.65215111100E+03  0.65215111102E+03  0.50400001928E-02 0.  1.
    10030    2    1    2    0    0  0.00000000000E+00  0.00000000000E+00  0.10729149430E+04  0.23772171650E+04  0.21213238731E+04 0.  0.
        5    1    3    3  502    0  0.14876855034E+03  0.36002872363E+03  0.16419845237E+04  0.16875686740E+04  0.46999998093E+01 0. -1.
       -5    1    3    3    0  502 -0.14876855034E+03 -0.36002872363E+03 -0.56906958074E+03  0.68964849099E+03  0.46999998093E+01 0.  1.
</event>
<event>
 5   0  0.4713971E-05  0.2391072E+04  0.7818609E-02  0.8442854E-01
       -2   -1    0    0    0  501  0.00000000000E+00  0.00000000000E+00  0.70104167989E+03  0.70104167989E+03  0.25500000920E-02 0.  1.
        2   -1    0    0  501    0  0.00000000000E+00  0.00000000000E+00 -0.20388323434E+04  0.20388323434E+04  0.25500000920E-02 0. -1.
    10030    2    1    2    0    0  0.00000000000E+00  0.00000000000E+00 -0.13377906635E+04  0.27398740233E+04  0.23910721035E+04 0.  0.
        5    1    3    3  502    0 -0.98749482956E+03 -0.52815883558E+03 -0.18928522829E+03  0.11357591213E+04  0.46999998093E+01 0.  1.
       -5    1    3    3    0  502  0.98749482956E+03  0.52815883558E+03 -0.11485054352E+04  0.16041149020E+04  0.46999998093E+01 0. -1.
</event>
<event>
 5   0  0.4713971E-05  0.2402093E+04  0.7818609E-02  0.8438720E-01
       -2   -1    0    0    0  501  0.00000000000E+00  0.00000000000E+00  0.27263058143E+04  0.27263058143E+04  0.25500000920E-02 0.  1.
        2   -1    0    0  501    0  0.00000000000E+00  0.00000000000E+00 -0.52910879947E+03  0.52910879948E+03  0.25500000920E-02 0. -1.
    10030    2    1    2    0    0  0.00000000000E+00  0.00000000000E+00  0.21971970148E+04  0.32554146138E+04  0.24020927512E+04 0.  0.
        5    1    3    3  502    0  0.62276527159E+03 -0.19089792581E+03  0.24661244651E+04  0.25507000155E+04  0.46999998093E+01 0.  1.
       -5    1    3    3    0  502 -0.62276527159E+03  0.19089792581E+03 -0.26892745026E+03  0.70471459831E+03  0.46999998093E+01 0. -1.
</event>
<event>
 5   0  0.4713971E-05  0.2275029E+04  0.7818609E-02  0.8487832E-01
       -2   -1    0    0    0  501  0.00000000000E+00  0.00000000000E+00  0.12728646567E+04  0.12728646567E+04  0.25500000920E-02 0. -1.
        2   -1    0    0  501    0  0.00000000000E+00  0.00000000000E+00 -0.10165572457E+04  0.10165572457E+04  0.25500000920E-02 0.  1.
    10030    2    1    2    0    0  0.00000000000E+00  0.00000000000E+00  0.25630741097E+03  0.22894219025E+04  0.22750294852E+04 0.  0.
        5    1    3    3  502    0  0.10755795910E+04  0.32248385023E+03 -0.54794108720E+02  0.11242294137E+04  0.46999998093E+01 0. -1.
       -5    1    3    3    0  502 -0.10755795910E+04 -0.32248385023E+03  0.31110151969E+03  0.11651924888E+04  0.46999998093E+01 0.  1.
</event>
<event>
 5   0  0.4664127E-05  0.2418700E+04  0.7818609E-02  0.8432536E-01
        2   -1    0    0  501    0  0.00000000000E+00  0.00000000000E+00  0.19144264557E+04  0.19144264557E+04  0.25500000920E-02 0.  1.
       -2   -1    0    0    0  501  0.00000000000E+00  0.00000000000E+00 -0.76395065354E+03  0.76395065354E+03  0.25500000920E-02 0. -1.
    10030    2    1    2    0    0  0.00000000000E+00  0.00000000000E+00  0.11504758022E+04  0.26783771093E+04  0.24186999334E+04 0.  0.
        4    1    3    3  502    0 -0.10380007059E+04  0.61862121754E+03  0.52112364521E+03  0.13159442020E+04  0.12699999809E+01 0.  1.
       -4    1    3    3    0  502  0.10380007059E+04 -0.61862121754E+03  0.62935215696E+03  0.13624329072E+04  0.12699999809E+01 0. -1.
</event>
<event>
 5   0  0.4664127E-05  0.2263920E+04  0.7818609E-02  0.8492284E-01
       -2   -1    0    0    0  501  0.00000000000E+00  0.00000000000E+00  0.75710715745E+03  0.75710715745E+03  0.25500000920E-02 0.  1.
        2   -1    0    0  501    0  0.00000000000E+00  0.00000000000E+00 -0.16924068499E+04  0.16924068499E+04  0.25500000920E-02 0. -1.
    10030    2    1    2    0    0  0.00000000000E+00  0.00000000000E+00 -0.93529969248E+03  0.24495140074E+04  0.22639199097E+04 0.  0.
        4    1    3    3  502    0 -0.24499137829E+03 -0.93227794225E+03  0.17443778008E+03  0.97958822424E+03  0.12699999809E+01 0.  1.
       -4    1    3    3    0  502  0.24499137829E+03  0.93227794225E+03 -0.11097374726E+04  0.14699257831E+04  0.12699999809E+01 0. -1.
</event>
<event>
 5   0  0.2149920E-05  0.2389796E+04  0.7818609E-02  0.8443334E-01
        1   -1    0    0  501    0  0.00000000000E+00  0.00000000000E+00  0.13356666030E+04  0.13356666030E+04  0.50400001928E-02 0. -1.
       -1   -1    0    0    0  501  0.00000000000E+00  0.00000000000E+00 -0.10689651037E+04  0.10689651037E+04  0.50400001928E-02 0.  1.
    10030    2    1    2    0    0  0.00000000000E+00  0.00000000000E+00  0.26670149929E+03  0.24046317067E+04  0.23897957978E+04 0.  0.
        5    1    3    3  502    0 -0.98166386347E+03  0.50108590517E+03  0.59774368533E+03  0.12538224071E+04  0.46999998093E+01 0.  1.
       -5    1    3    3    0  502  0.98166386347E+03 -0.50108590517E+03 -0.33104218604E+03  0.11508092996E+04  0.46999998093E+01 0. -1.
</event>
<event>
 5   0  0.4756705E-05  0.2401805E+04  0.7818609E-02  0.8438828E-01
        2   -1    0    0  501    0  0.00000000000E+00  0.00000000000E+00  0.14724376764E+04  0.14724376764E+04  0.25500000920E-02 0.  1.
       -2   -1    0    0    0  501  0.00000000000E+00  0.00000000000E+00 -0.97944165917E+03  0.97944165917E+03  0.25500000920E-02 0. -1.
    10030    2    1    2    0    0  0.00000000000E+00  0.00000000000E+00  0.49299601721E+03  0.24518793355E+04  0.24018049886E+04 0.  0.
        3    1    3    3  502    0 -0.11264851109E+04 -0.73939483188E+02  0.66458636098E+03  0.13100041197E+04  0.10100000352E+00 0. -1.
       -3    1    3    3    0  502  0.11264851109E+04  0.73939483188E+02 -0.17159034378E+03  0.11418752158E+04  0.10100000352E+00 0.  1.
</event>
<event>
 5   0  0.4914005E-05  0.2420558E+04  0.7818609E-02  0.8431847E-01
        2   -1    0    0  501    0  0.00000000000E+00  0.00000000000E+00  0.19623775661E+04  0.19623775661E+04  0.25500000920E-02 0. -1.
       -2   -1    0    0    0  501  0.00000000000E+00  0.00000000000E+00 -0.74642891175E+03  0.74642891176E+03  0.25500000920E-02 0.  1.
    10030    2    1    2    0    0  0.00000000000E+00  0.00000000000E+00  0.12159486544E+04  0.27088064779E+04  0.24205580771E+04 0.  0.
        2    1    3    3  502    0 -0.38773581268E+03 -0.11324562323E+04  0.80809690268E+03  0.14442357088E+04  0.25500000920E-02 0. -1.
       -2    1    3    3    0  502  0.38773581268E+03  0.11324562323E+04  0.40785175169E+03  0.12645707690E+04  0.25500000920E-02 0.  1.
</event>
<event>
 5   0  0.2065692E-05  0.2384907E+04  0.7818609E-02  0.8445176E-01
       -1   -1    0    0    0  501  0.00000000000E+00  0.00000000000E+00  0.86429718585E+03  0.86429718586E+03  0.50400001928E-02 0.  1.
        1   -1    0    0  501    0  0.00000000000E+00  0.00000000000E+00 -0.16452048116E+04  0.16452048116E+04  0.50400001928E-02 0. -1.
    10030    2    1    2    0    0  0.00000000000E+00  0.00000000000E+00 -0.78090762576E+03  0.25095019975E+04  0.23849074522E+04 0.  0.
        3    1    3    3  502    0  0.20968958496E+03 -0.11601254746E+04 -0.57893469503E+03  0.13134025393E+04  0.10100000352E+00 0. -1.
       -3    1    3    3    0  502 -0.20968958496E+03  0.11601254746E+04 -0.20197293072E+03  0.11960994582E+04  0.10100000352E+00 0.  1.
</event>
<event>
 5   0  0.4713971E-05  0.2408505E+04  0.7818609E-02  0.8436326E-01
        2   -1    0    0  501    0  0.00000000000E+00  0.00000000000E+00  0.15394892597E+04  0.15394892597E+04  0.25500000920E-02 0.  1.
       -2   -1    0    0    0  501  0.00000000000E+00  0.00000000000E+00 -0.94201629926E+03  0.94201629927E+03  0.25500000920E-02 0. -1.
    10030    2    1    2    0    0  0.00000000000E+00  0.00000000000E+00  0.59747296041E+03  0.24815055589E+04  0.24085049098E+04 0.  0.
        5    1    3    3  502    0  0.91339634239E+03  0.45819933015E+03 -0.35772706195E+03  0.10826958231E+04  0.46999998093E+01 0. -1.
       -5    1    3    3    0  502 -0.91339634239E+03 -0.45819933015E+03  0.95520002236E+03  0.13988097359E+04  0.46999998093E+01 0.  1.
</event>
<event>
 5   0  0.4914005E-05  0.2355209E+04  0.7818609E-02  0.8456466E-01
        2   -1    0    0  501    0  0.00000000000E+00  0.00000000000E+00  0.18655668780E+04  0.18655668780E+04  0.25500000920E-02 0. -1.
       -2   -1    0    0    0  501  0.00000000000E+00  0.00000000000E+00 -0.74334101483E+03  0.74334101483E+03  0.25500000920E-02 0.  1.
    10030    2    1    2    0    0  0.00000000000E+00  0.00000000000E+00  0.11222258632E+04  0.26089078929E+04  0.23552090152E+04 0.  0.
        2    1    3    3  502    0 -0.82810400126E+03  0.71085907080E+03  0.71111283325E+02  0.10936789612E+04  0.25500000920E-02 0.  1.
       -2    1    3    3    0  502  0.82810400126E+03 -0.71085907080E+03  0.10511145799E+04  0.15152289317E+04  0.25500000920E-02 0. -1.
</event>
<event>
 5   0  0.2090039E-05  0.2390587E+04  0.7818609E-02  0.8443036E-01
        1   -1    0    0  501    0  0.00000000000E+00  0.00000000000E+00  0.12043864584E+04  0.12043864584E+04  0.50400001928E-02 0.  1.
       -1   -1    0    0    0  501  0.00000000000E+00  0.00000000000E+00 -0.11862688905E+04  0.11862688906E+04  0.50400001928E-02 0. -1.
    10030    2    1    2    0    0  0.00000000000E+00  0.00000000000E+00  0.18117567882E+02  0.23906553490E+04  0.23905866961E+04 0.  0.
        1    1    3    3  502    0  0.63188346225E+03 -0.10972359579E+03 -0.99963772510E+03  0.11876832738E+04  0.50400001928E-02 0. -1.
       -1    1    3    3    0  502 -0.63188346225E+03  0.10972359579E+03  0.10177552930E+04  0.12029720752E+04  0.50400001928E-02 0.  1.
</event>
<event>
 5   0  0.4713971E-05  0.2439386E+04  0.7818609E-02  0.8424904E-01
        2   -1    0    0  501    0  0.00000000000E+00  0.00000000000E+00  0.10899459008E+04  0.10899459008E+04  0.25500000920E-02 0.  1.
       -2   -1    0    0    0  501  0.00000000000E+00  0.00000000000E+00 -0.13648850966E+04  0.13648850966E+04  0.25500000920E-02 0. -1.
    10030    2    1    2    0    0  0.00000000000E+00  0.00000000000E+00 -0.27493919573E+03  0.24548309974E+04  0.24393859195E+04 0.  0.
        5    1    3    3  502    0 -0.23356651696E+03  0.11747509166E+04  0.94283536309E+02  0.12014593248E+04  0.46999998093E+01 0.  1.
       -5    1    3    3    0  502  0.23356651696E+03 -0.11747509166E+04 -0.36922273204E+03  0.12533716726E+04  0.46999998093E+01 0. -1.
</event>
<event>
 5   0  0.4713971E-05  0.2384374E+04  0.7818609E-02  0.8445377E-01
       -2   -1    0    0    0  501  0.00000000000E+00  0.00000000000E+00  0.80619090701E+03  0.80619090701E+03  0.25500000920E-02 0.  1.
        2   -1    0    0  501    0  0.00000000000E+00  0.00000000000E+00 -0.17629938770E+04  0.17629938770E+04  0.25500000920E-02 0. -1.
    10030    2    1    2    0    0  0.00000000000E+00  0.00000000000E+00 -0.95680296997E+03  0.25691847840E+04  0.23843738237E+04 0.  0.
        5    1    3    3  502    0 -0.18557676041E+03 -0.14476837322E+02  0.79042646639E+03  0.81206182128E+03  0.46999998093E+01 0.  1.
       -5    1    3    3    0  502  0.18557676041E+03  0.14476837322E+02 -0.17472294364E+04  0.17571229627E+04  0.46999998093E+01 0. -1.
</event>
<event>
 5   0  0.4756705E-05  0.2325409E+04  0.7818609E-02  0.8467969E-01
        2   -1    0    0  501    0  0.00000000000E+00  0.00000000000E+00  0.23704511107E+04  0.23704511107E+04  0.25500000920E-02 0. -1.
       -2   -1    0    0    0  501  0.00000000000E+00  0.00000000000E+00 -0.57030585280E+03  0.57030585280E+03  0.25500000920E-02 0.  1.
    10030    2    1    2    0    0  0.00000000000E+00  0.00000000000E+00  0.18001452579E+04  0.29407569635E+04  0.23254093336E+04 0.  0.
        3    1    3    3  502    0 -0.93419266020E+03  0.65636283970E+03  0.11781566617E+04  0.16406039234E+04  0.10100000352E+00 0. -1.
       -3    1    3    3    0  502  0.93419266020E+03 -0.65636283970E+03  0.62198859619E+03  0.13001530401E+04  0.10100000352E+00 0.  1.
</event>
<event>
 5   0  0.2139556E-05  0.2408341E+04  0.7818609E-02  0.8436387E-01
        1   -1    0    0  501    0  0.00000000000E+00  0.00000000000E+00  0.14309604430E+04  0.14309604430E+04  0.50400001928E-02 0.  1.
       -1   -1    0    0    0  501  0.00000000000E+00  0.00000000000E+00 -0.10133240067E+04  0.10133240067E+04  0.50400001928E-02 0. -1.
    10030    2    1    2    0    0  0.00000000000E+00  0.00000000000E+00  0.41763643631E+03  0.24442844497E+04  0.24083409804E+04 0.  0.
        2    1    3    3  502    0  0.18343491307E+03 -0.29924687711E+03 -0.96025397283E+03  0.10223916828E+04  0.25500000920E-02 0. -1.
       -2    1    3    3    0  502 -0.18343491307E+03  0.29924687711E+03  0.13778904091E+04  0.14218927668E+04  0.25500000920E-02 0.  1.
</event>
<event>
 5   0  0.2149920E-05  0.2445277E+04  0.7818609E-02  0.8422744E-01
       -1   -1    0    0    0  501  0.00000000000E+00  0.00000000000E+00  0.14334642553E+04  0.14334642553E+04  0.50400001928E-02 0. -1.
        1   -1    0    0  501    0  0.00000000000E+00  0.00000000000E+00 -0.10428200430E+04  0.10428200430E+04  0.50400001928E-02 0.  1.
    10030    2    1    2    0    0  0.00000000000E+00  0.00000000000E+00  0.39064421234E+03  0.24762842984E+04  0.24452772901E+04 0.  0.
        5    1    3    3  502    0  0.94409046982E+02  0.29606079078E+03  0.13927960226E+04  0.14270486714E+04  0.46999998093E+01 0. -1.
       -5    1    3    3    0  502 -0.94409046982E+02 -0.29606079078E+03 -0.10021518103E+04  0.10492356269E+04  0.46999998093E+01 0.  1.
</event>
<event>
 5   0  0.4914005E-05  0.2374040E+04  0.7818609E-02  0.8449287E-01
        2   -1    0    0  501    0  0.00000000000E+00  0.00000000000E+00  0.12710959291E+04  0.12710959291E+04  0.25500000920E-02 0. -1.
       -2   -1    0    0    0  501  0.00000000000E+00  0.00000000000E+00 -0.11085048377E+04  0.11085048377E+04  0.25500000920E-02 0.  1.
    10030    2    1    2    0    0  0.00000000000E+00  0.00000000000E+00  0.16259109140E+03  0.23796007668E+04  0.23740395840E+04 0.  0.
        2    1    3    3  502    0 -0.36885735019E+03 -0.87575302011E+03  0.79431051981E+03  0.12385185905E+04  0.25500000920E-02 0. -1.
       -2    1    3    3    0  502  0.36885735019E+03  0.87575302011E+03 -0.63171942841E+03  0.11410821764E+04  0.25500000920E-02 0.  1.
</event>
<event>
 5   0  0.4856882E-05  0.2438431E+04  0.7818609E-02  0.8425254E-01
       -2   -1    0    0    0  501  0.00000000000E+00  0.00000000000E+00  0.65822808185E+03  0.65822808185E+03  0.25500000920E-02 0.  1.
        2   -1    0    0  501    0  0.00000000000E+00  0.00000000000E+00 -0.22583142269E+04  0.22583142269E+04  0.25500000920E-02 0. -1.
    10030    2    1    2    0    0  0.00000000000E+00  0.00000000000E+00 -0.16000861451E+04  0.29165423088E+04  0.24384305131E+04 0.  0.
        1    1    3    3  502    0  0.10380630345E+04 -0.58545281744E+03 -0.49240332995E+03  0.12894924988E+04  0.50400001928E-02 0. -1.
       -1    1    3    3    0  502 -0.10380630345E+04  0.58545281744E+03 -0.11076828151E+04  0.16270498100E+04  0.50400001928E-02 0.  1.
</event>
<event>
 5   0  0.2139556E-05  0.2391441E+04  0.7818609E-02  0.8442715E-01
        1   -1    0    0  501    0  0.00000000000E+00  0.00000000000E+00  0.57561780114E+03  0.57561780116E+03  0.50400001928E-02 0. -1.
       -1   -1    0    0    0  501  0.00000000000E+00  0.00000000000E+00 -0.24838478128E+04  0.24838478128E+04  0.50400001928E-02 0.  1.
    10030    2    1    2    0    0  0.00000000000E+00  0.00000000000E+00 -0.19082300117E+04  0.30594656140E+04  0.23914405837E+04 0.  0.
        2    1    3    3  502    0 -0.36752708678E+03 -0.62785999887E+03  0.25988542258E+03  0.77254434861E+03  0.25500000920E-02 0. -1.
       -2    1    3    3    0  502  0.36752708678E+03  0.62785999887E+03 -0.21681154342E+04  0.22869212653E+04  0.25500000920E-02 0.  1.
</event>
<event>
 5   0  0.2065692E-05  0.2406035E+04  0.7818609E-02  0.8437247E-01
        1   -1    0    0  501    0  0.00000000000E+00  0.00000000000E+00  0.19255257300E+04  0.19255257300E+04  0.50400001928E-02 0.  1.
       -1   -1    0    0    0  501  0.00000000000E+00  0.00000000000E+00 -0.75161369495E+03  0.75161369497E+03  0.50400001928E-02 0. -1.
    10030    2    1    2    0    0  0.00000000000E+00  0.00000000000E+00  0.11739120351E+04  0.26771394250E+04  0.24060353353E+04 0.  0.
        3    1    3    3  502    0 -0.14750409877E+03  0.54287559436E+03 -0.59624374151E+03  0.81974263010E+03  0.10100000352E+00 0. -1.
       -3    1    3    3    0  502  0.14750409877E+03 -0.54287559436E+03  0.17701557766E+04  0.18573967949E+04  0.10100000352E+00 0.  1.
</event>
<event>
 5   0  0.4914005E-05  0.2391537E+04  0.7818609E-02  0.8442679E-01
       -2   -1    0    0    0  501  0.00000000000E+00  0.00000000000E+00  0.89605700785E+03  0.89605700785E+03  0.25500000920E-02 0. -1.
        2   -1    0    0  501    0  0.00000000000E+00  0.00000000000E+00 -0.15957275127E+04  0.15957275127E+04  0.25500000920E-02 0.  1.
    10030    2    1    2    0    0  0.00000000000E+00  0.00000000000E+00 -0.69967050481E+03  0.24917845205E+04  0.23915374305E+04 0.  0.
        2    1    3    3  502    0  0.94003177735E+03  0.73805481642E+03 -0.30977673367E+03  0.12346441913E+04  0.25500000920E-02 0. -1.
       -2    1    3    3    0  502 -0.94003177735E+03 -0.73805481642E+03 -0.38989377114E+03  0.12571403292E+04  0.25500000920E-02 0.  1.
</event>
<event>
 5   0  0.2090039E-05  0.2414081E+04  0.7818609E-02  0.8434251E-01
        1   -1    0    0  501    0  0.00000000000E+00  0.00000000000E+00  0.75044276143E+03  0.75044276145E+03  0.50400001928E-02 0. -1.
       -1   -1    0    0    0  501  0.00000000000E+00  0.00000000000E+00 -0.19414493736E+04  0.19414493736E+04  0.50400001928E-02 0.  1.
    10030    2    1    2    0    0  0.00000000000E+00  0.00000000000E+00 -0.11910066122E+04  0.26918921350E+04  0.24140808844E+04 0.  0.
        1    1    3    3  502    0 -0.61568034219E+03  0.97575524811E+03 -0.99098106167E+03  0.15209221060E+04  0.50400001928E-02 0. -1.
       -1    1    3    3    0  502  0.61568034219E+03 -0.97575524811E+03 -0.20002555048E+03  0.11709700290E+04  0.50400001928E-02 0.  1.
</event>
<event>
 5   0  0.2090039E-05  0.2287726E+04  0.7818609E-02  0.8482776E-01
        1   -1    0    0  501    0  0.00000000000E+00  0.00000000000E+00  0.10479042657E+04  0.10479042657E+04  0.50400001928E-02 0.  1.
       -1   -1    0    0    0  501  0.00000000000E+00  0.00000000000E+00 -0.12486090598E+04  0.12486090598E+04  0.50400001928E-02 0. -1.
    10030    2    1    2    0    0  0.00000000000E+00  0.00000000000E+00 -0.20070479411E+03  0.22965133255E+04  0.22877261724E+04 0.  0.
        1    1    3    3  502    0 -0.42746961864E+03  0.59072280843E+03 -0.98506557962E+03  0.12255765612E+04  0.50400001928E-02 0. -1.
       -1    1    3    3    0  502  0.42746961864E+03 -0.59072280843E+03  0.78436078551E+03  0.10709367643E+04  0.50400001928E-02 0.  1.
</event>
<event>
 5   0  0.2139556E-05  0.2419594E+04  0.7818609E-02  0.8432204E-01
        1   -1    0    0  501    0  0.00000000000E+00  0.00000000000E+00  0.17811271569E+04  0.17811271569E+04  0.50400001928E-02 0.  1.
       -1   -1    0    0    0  501  0.00000000000E+00  0.00000000000E+00 -0.82173187440E+03  0.82173187442E+03  0.50400001928E-02 0. -1.
    10030    2    1    2    0    0  0.00000000000E+00  0.00000000000E+00  0.95939528246E+03  0.26028590313E+04  0.24195941455E+04 0.  0.
        2    1    3    3  502    0  0.61591262715E+03 -0.46405591014E+03  0.14824557820E+04  0.16710390174E+04  0.25500000920E-02 0.  1.
       -2    1    3    3    0  502 -0.61591262715E+03  0.46405591014E+03 -0.52306049958E+03  0.93182001387E+03  0.25500000920E-02 0. -1.
</event>
<event>
 5   0  0.4664127E-05  0.2552764E+04  0.7818609E-02  0.8384426E-01
       -2   -1    0    0    0  501  0.00000000000E+00  0.00000000000E+00  0.92109351589E+03  0.92109351589E+03  0.25500000920E-02 0.  1.
        2   -1    0    0  501    0  0.00000000000E+00  0.00000000000E+00 -0.17687133655E+04  0.17687133655E+04  0.25500000920E-02 0. -1.
    10030    2    1    2    0    0  0.00000000000E+00  0.00000000000E+00 -0.84761984966E+03  0.26898068814E+04  0.25527635319E+04 0.  0.
        4    1    3    3  502    0  0.87058642148E+03 -0.20685233535E+03  0.53523973155E+03  0.10426848944E+04  0.12699999809E+01 0.  1.
       -4    1    3    3    0  502 -0.87058642148E+03  0.20685233535E+03 -0.13828595812E+04  0.16471219870E+04  0.12699999809E+01 0. -1.
</event>
<event>
 5   0  0.4713971E-05  0.2401405E+04  0.7818609E-02  0.8438978E-01
        2   -1    0    0  501    0  0.00000000000E+00  0.00000000000E+00  0.55484989607E+03  0.55484989607E+03  0.25500000920E-02 0.  1.
       -2   -1    0    0    0  501  0.00000000000E+00  0.00000000000E+00 -0.25983359685E+04  0.25983359685E+04  0.25500000920E-02 0. -1.
    10030    2    1    2    0    0  0.00000000000E+00  0.00000000000E+00 -0.20434860724E+04  0.31531858645E+04  0.24014049572E+04 0.  0.
        5    1    3    3  502    0 -0.17533874213E+03 -0.43226671690E+02  0.53690371611E+03  0.56648028210E+03  0.46999998093E+01 0.  1.
       -5    1    3    3    0  502  0.17533874213E+03  0.43226671690E+02 -0.25803897885E+04  0.25867055824E+04  0.46999998093E+01 0. -1.
</event>
<event>
 5   0  0.4664127E-05  0.2392032E+04  0.7818609E-02  0.8442493E-01
       -2   -1    0    0    0  501  0.00000000000E+00  0.00000000000E+00  0.85493079992E+03  0.85493079992E+03  0.25500000920E-02 0.  1.
        2   -1    0    0  501    0  0.00000000000E+00  0.00000000000E+00 -0.16731806897E+04  0.16731806897E+04  0.25500000920E-02 0. -1.
    10030    2    1    2    0    0  0.00000000000E+00  0.00000000000E+00 -0.81824988981E+03  0.25281114896E+04  0.23920315261E+04 0.  0.
        4    1    3    3  502    0 -0.16787788648E+03 -0.41991308854E+03  0.76108639938E+03  0.88530452778E+03  0.12699999809E+01 0.  1.
       -4    1    3    3    0  502  0.16787788648E+03  0.41991308854E+03 -0.15793362892E+04  0.16428069619E+04  0.12699999809E+01 0. -1.
</event>
<event>
 5   0  0.4856882E-05  0.2206816E+04  0.7818609E-02  0.8515597E-01
       -2   -1    0    0    0  501  0.00000000000E+00  0.00000000000E+00  0.12241213957E+04  0.12241213957E+04  0.25500000920E-02 0.  1.
        2   -1    0    0  501    0  0.00000000000E+00  0.00000000000E+00 -0.99459838982E+03  0.99459838982E+03  0.25500000920E-02 0. -1.
    10030    2    1    2    0    0  0.00000000000E+00  0.00000000000E+00  0.22952300584E+03  0.22187197855E+04  0.22068159589E+04 0.  0.
        1    1    3    3  502    0  0.88488947208E+02  0.67252898562E+03  0.98973379395E+03  0.11998743739E+04  0.50400001928E-02 0.  1.
       -1    1    3    3    0  502 -0.88488947208E+02 -0.67252898562E+03 -0.76021078811E+03  0.10188454116E+04  0.50400001928E-02 0. -1.
</event>
<event>
 5   0  0.4713971E-05  0.2399475E+04  0.7818609E-02  0.8439700E-01
       -2   -1    0    0    0  501  0.00000000000E+00  0.00000000000E+00  0.10330113029E+04  0.10330113029E+04  0.25500000920E-02 0. -1.
        2   -1    0    0  501    0  0.00000000000E+00  0.00000000000E+00 -0.13933733406E+04  0.13933733406E+04  0.25500000920E-02 0.  1.
    10030    2    1    2    0    0  0.00000000000E+00  0.00000000000E+00 -0.36036203769E+03  0.24263846434E+04  0.23994752842E+04 0.  0.
        5    1    3    3  502    0 -0.17280439356E+02  0.11903688471E+04 -0.29949381864E+02  0.11908802044E+04  0.46999998093E+01 0.  1.
       -5    1    3    3    0  502  0.17280439356E+02 -0.11903688471E+04 -0.33041265583E+03  0.12355044390E+04  0.46999998093E+01 0. -1.
</event>
<event>
 5   0  0.4756705E-05  0.2389015E+04  0.7818609E-02  0.8443628E-01
       -2   -1    0    0    0  501  0.00000000000E+00  0.00000000000E+00  0.63587191796E+03  0.63587191796E+03  0.25500000920E-02 0. -1.
        2   -1    0    0  501    0  0.00000000000E+00  0.00000000000E+00 -0.22439241642E+04  0.22439241642E+04  0.25500000920E-02 0.  1.
    10030    2    1    2    0    0  0.00000000000E+00  0.00000000000E+00 -0.16080522462E+04  0.28797960821E+04  0.23890151628E+04 0.  0.
        3    1    3    3  502    0 -0.45184084002E+00  0.60497574592E+03 -0.20455936105E+04  0.21331781658E+04  0.10100000352E+00 0.  1.
       -3    1    3    3    0  502  0.45184084002E+00 -0.60497574592E+03  0.43754136433E+03  0.74661791635E+03  0.10100000352E+00 0. -1.
</event>
<event>
 5   0  0.4664127E-05  0.2428087E+04  0.7818609E-02  0.8429062E-01
       -2   -1    0    0    0  501  0.00000000000E+00  0.00000000000E+00  0.13837434301E+04  0.13837434301E+04  0.25500000920E-02 0.  1.
        2   -1    0    0  501    0  0.00000000000E+00  0.00000000000E+00 -0.10651557124E+04  0.10651557124E+04  0.25500000920E-02 0. -1.
    10030    2    1    2    0    0  0.00000000000E+00  0.00000000000E+00  0.31858771767E+03  0.24488991425E+04  0.24280874935E+04 0.  0.
        4    1    3    3  502    0  0.33517074786E+03  0.91616300681E+03  0.88812632869E+03  0.13192664908E+04  0.12699999809E+01 0.  1.
       -4    1    3    3    0  502 -0.33517074786E+03 -0.91616300681E+03 -0.56953861102E+03  0.11296326516E+04  0.12699999809E+01 0. -1.
</event>
<event>
 5   0  0.2065692E-05  0.2385053E+04  0.7818609E-02  0.8445121E-01
       -1   -1    0    0    0  501  0.00000000000E+00  0.00000000000E+00  0.90337792717E+03  0.90337792719E+03  0.50400001928E-02 0.  1.
        1   -1    0    0  501    0  0.00000000000E+00  0.00000000000E+00 -0.15742248093E+04  0.15742248093E+04  0.50400001928E-02 0. -1.
    10030    2    1    2    0    0  0.00000000000E+00  0.00000000000E+00 -0.67084688210E+03  0.24776027365E+04  0.23850534125E+04 0.  0.
        3    1    3    3  502    0  0.11140990855E+03 -0.11840891921E+04 -0.24462133144E+03  0.12142153798E+04  0.10100000352E+00 0. -1.
       -3    1    3    3    0  502 -0.11140990855E+03  0.11840891921E+04 -0.42622555066E+03  0.12633873566E+04  0.10100000352E+00 0.  1.
</event>
<event>
 5   0  0.2139556E-05  0.2403846E+04  0.7818609E-02  0.8438065E-01
        1   -1    0    0  501    0  0.00000000000E+00  0.00000000000E+00  0.20728523201E+04  0.20728523201E+04  0.50400001928E-02 0. -1.
       -1   -1    0    0    0  501  0.00000000000E+00  0.00000000000E+00 -0.69692326217E+03  0.69692326219E+03  0.50400001928E-02 0.  1.
    10030    2    1    2    0    0  0.00000000000E+00  0.00000000000E+00  0.13759290579E+04  0.27697755823E+04  0.24038460857E+04 0.  0.
        2    1    3    3  502    0 -0.23673529619E+02  0.48155394249E+03  0.19565469283E+04  0.20150758095E+04  0.25500000920E-02 0. -1.
       -2    1    3    3    0  502  0.23673529619E+02 -0.48155394249E+03 -0.58061787039E+03  0.75469977273E+03  0.25500000920E-02 0.  1.
</event>
<event>
 5   0  0.2149920E-05  0.2384401E+04  0.7818609E-02  0.8445367E-01
       -1   -1    0    0    0  501  0.00000000000E+00  0.00000000000E+00  0.68793865240E+03  0.68793865242E+03  0.50400001928E-02 0. -1.
        1   -1    0    0  501    0  0.00000000000E+00  0.00000000000E+00 -0.20660886341E+04  0.20660886341E+04  0.50400001928E-02 0.  1.
    10030    2    1    2    0    0  0.00000000000E+00  0.00000000000E+00 -0.13781499817E+04  0.27540272865E+04  0.23844011665E+04 0.  0.
        5    1    3    3  502    0 -0.58591520323E+03 -0.10040813962E+04 -0.99432358134E+03  0.15297638870E+04  0.46999998093E+01 0.  1.
       -5    1    3    3    0  502  0.58591520323E+03  0.10040813962E+04 -0.38382640031E+03  0.12242633994E+04  0.46999998093E+01 0. -1.
</event>
<event>
 5   0  0.4664127E-05  0.2402586E+04  0.7818609E-02  0.8438536E-01
       -2   -1    0    0    0  501  0.00000000000E+00  0.00000000000E+00  0.15705085219E+04  0.15705085219E+04  0.25500000920E-02 0.  1.
        2   -1    0    0  501    0  0.00000000000E+00  0.00000000000E+00 -0.91887765237E+03  0.91887765237E+03  0.25500000920E-02 0. -1.
    10030    2    1    2    0    0  0.00000000000E+00  0.00000000000E+00  0.65163086955E+03  0.24893861743E+04  0.24025862596E+04 0.  0.
        4    1    3    3  502    0 -0.88021577926E+03 -0.41886238129E+02 -0.52011750566E+03  0.10232585732E+04  0.12699999809E+01 0. -1.
       -4    1    3    3    0  502  0.88021577926E+03  0.41886238129E+02  0.11717483752E+04  0.14661276011E+04  0.12699999809E+01 0.  1.
</event>
<event>
 5   0  0.2090039E-05  0.2366188E+04  0.7818609E-02  0.8452272E-01
        1   -1    0    0  501    0  0.00000000000E+00  0.00000000000E+00  0.97239654298E+03  0.97239654299E+03  0.50400001928E-02 0.  1.
       -1   -1    0    0    0  501  0.00000000000E+00  0.00000000000E+00 -0.14394448900E+04  0.14394448900E+04  0.50400001928E-02 0. -1.
    10030    2    1    2    0    0  0.00000000000E+00  0.00000000000E+00 -0.46704834702E+03  0.24118414330E+04  0.23661878496E+04 0.  0.
        1    1    3    3  502    0 -0.10913917853E+04 -0.98845712710E+02  0.22095385174E+03  0.11179119413E+04  0.50400001928E-02 0. -1.
       -1    1    3    3    0  502  0.10913917853E+04  0.98845712710E+02 -0.68800219877E+03  0.12939294917E+04  0.50400001928E-02 0.  1.
</event>
<event>
 5   0  0.2149920E-05  0.1969256E+04  0.7818609E-02  0.8621131E-01
        1   -1    0    0  501    0  0.00000000000E+00  0.00000000000E+00  0.10398616820E+04  0.10398616820E+04  0.50400001928E-02 0. -1.
       -1   -1    0    0    0  501  0.00000000000E+00  0.00000000000E+00 -0.93232790842E+03  0.93232790843E+03  0.50400001928E-02 0.  1.
    10030    2    1    2    0    0  0.00000000000E+00  0.00000000000E+00  0.10753377355E+03  0.19721895904E+04  0.19692557650E+04 0.  0.
        5    1    3    3  502    0  0.43578623014E+03  0.87876126455E+03 -0.32028581005E+02  0.98141679141E+03  0.46999998093E+01 0.  1.
       -5    1    3    3    0  502 -0.43578623014E+03 -0.87876126455E+03  0.13956235455E+03  0.99077279901E+03  0.46999998093E+01 0. -1.
</event>
<event>
 5   0  0.2090039E-05  0.2318921E+04  0.7818609E-02  0.8470498E-01
       -1   -1    0    0    0  501  0.00000000000E+00  0.00000000000E+00  0.15879349685E+04  0.15879349685E+04  0.50400001928E-02 0.  1.
        1   -1    0    0  501    0  0.00000000000E+00  0.00000000000E+00 -0.84660197957E+03  0.84660197958E+03  0.50400001928E-02 0. -1.
    10030    2    1    2    0    0  0.00000000000E+00  0.00000000000E+00  0.74133298888E+03  0.24345369480E+04  0.23189212041E+04 0.  0.
        1    1    3    3  502    0 -0.40821774699E+02 -0.24976695484E+03 -0.81725043326E+03  0.85553972422E+03  0.50400001928E-02 0. -1.
       -1    1    3    3    0  502  0.40821774699E+02  0.24976695484E+03  0.15585834221E+04  0.15789972238E+04  0.50400001928E-02 0.  1.
</event>
<event>
 5   0  0.2139556E-05  0.2464096E+04  0.7818609E-02  0.8415889E-01
        1   -1    0    0  501    0  0.00000000000E+00  0.00000000000E+00  0.18149076623E+04  0.18149076624E+04  0.50400001928E-02 0. -1.
       -1   -1    0    0    0  501  0.00000000000E+00  0.00000000000E+00 -0.83637438338E+03  0.83637438339E+03  0.50400001928E-02 0.  1.
    10030    2    1    2    0    0  0.00000000000E+00  0.00000000000E+00  0.97853327897E+03  0.26512820457E+04  0.24640960022E+04 0.  0.
        2    1    3    3  502    0 -0.25492772014E+03  0.15014728930E+03 -0.79758524920E+03  0.85069064926E+03  0.25500000920E-02 0.  1.
       -2    1    3    3    0  502  0.25492772014E+03 -0.15014728930E+03  0.17761185282E+04  0.18005913965E+04  0.25500000920E-02 0. -1.
</event>
<event>
 5   0  0.4713971E-05  0.2378682E+04  0.7818609E-02  0.8447528E-01
       -2   -1    0    0    0  501  0.00000000000E+00  0.00000000000E+00  0.66813657500E+03  0.66813657501E+03  0.25500000920E-02 0.  1.
        2   -1    0    0  501    0  0.00000000000E+00  0.00000000000E+00 -0.21171298410E+04  0.21171298410E+04  0.25500000920E-02 0. -1.
    10030    2    1    2    0    0  0.00000000000E+00  0.00000000000E+00 -0.14489932660E+04  0.27852664160E+04  0.23786818878E+04 0.  0.
        5    1    3    3  502    0  0.11534667651E+04  0.28978322515E+03 -0.71622560817E+03  0.13883303308E+04  0.46999998093E+01 0.  1.
       -5    1    3    3    0  502 -0.11534667651E+04 -0.28978322515E+03 -0.73276765786E+03  0.13969360852E+04  0.46999998093E+01 0. -1.
</event>
<event>
 5   0  0.4664127E-05  0.2371426E+04  0.7818609E-02  0.8450279E-01
        2   -1    0    0  501    0  0.00000000000E+00  0.00000000000E+00  0.20577422610E+04  0.20577422610E+04  0.25500000920E-02 0. -1.
       -2   -1    0    0    0  501  0.00000000000E+00  0.00000000000E+00 -0.68323216278E+03  0.68323216278E+03  0.25500000920E-02 0.  1.
    10030    2    1    2    0    0  0.00000000000E+00  0.00000000000E+00  0.13745100983E+04  0.27409744238E+04  0.23714263180E+04 0.  0.
        4    1    3    3  502    0  0.11456350979E+04 -0.26104418022E+03  0.87106619081E+03  0.14626625596E+04  0.12699999809E+01 0. -1.
       -4    1    3    3    0  502 -0.11456350979E+04  0.26104418022E+03  0.50344390744E+03  0.12783118643E+04  0.12699999809E+01 0.  1.
</event>
<event>
 5   0  0.2065692E-05  0.2414544E+04  0.7818609E-02  0.8434078E-01
        1   -1    0    0  501    0  0.00000000000E+00  0.00000000000E+00  0.12777202751E+04  0.12777202751E+04  0.50400001928E-02 0. -1.
       -1   -1    0    0    0  501  0.00000000000E+00  0.00000000000E+00 -0.11407080834E+04  0.11407080834E+04  0.50400001928E-02 0.  1.
    10030    2    1    2    0    0  0.00000000000E+00  0.00000000000E+00  0.13701219171E+03  0.24184283585E+04  0.24145441359E+04 0.  0.
        3    1    3    3  502    0  0.60366150711E+03  0.10161309969E+04  0.31502479775E+03  0.12231803021E+04  0.10100000352E+00 0. -1.
       -3    1    3    3    0  502 -0.60366150711E+03 -0.10161309969E+04 -0.17801260604E+03  0.11952480563E+04  0.10100000352E+00 0.  1.
</event>
<event>
 5   0  0.2139556E-05  0.2443879E+04  0.7818609E-02  0.8423256E-01
       -1   -1    0    0    0  501  0.00000000000E+00  0.00000000000E+00  0.82058857874E+03  0.82058857876E+03  0.50400001928E-02 0. -1.
        1   -1    0    0  501    0  0.00000000000E+00  0.00000000000E+00 -0.18195910050E+04  0.18195910050E+04  0.50400001928E-02 0.  1.
    10030    2    1    2    0    0  0.00000000000E+00  0.00000000000E+00 -0.99900242622E+03  0.26401795837E+04  0.24438785540E+04 0.  0.
        2    1    3    3  502    0 -0.76578053878E+03  0.50014374040E+03  0.37587557754E+03  0.98886098337E+03  0.25500000920E-02 0. -1.
       -2    1    3    3    0  502  0.76578053878E+03 -0.50014374040E+03 -0.13748780038E+04  0.16513186004E+04  0.25500000920E-02 0.  1.
</event>
<event>
 5   0  0.4664127E-05  0.2384372E+04  0.7818609E-02  0.8445378E-01
        2   -1    0    0  501    0  0.00000000000E+00  0.00000000000E+00  0.11481858935E+04  0.11481858935E+04  0.25500000920E-02 0. -1.
       -2   -1    0    0    0  501  0.00000000000E+00  0.00000000000E+00 -0.12378726758E+04  0.12378726759E+04  0.25500000920E-02 0.  1.
    10030    2    1    2    0    0  0.00000000000E+00  0.00000000000E+00 -0.89686782341E+02  0.23860585694E+04  0.23843724075E+04 0.  0.
        4    1    3    3  502    0  0.27002094909E+03  0.10480904684E+04  0.45541150412E+03  0.11742257848E+04  0.12699999809E+01 0. -1.
       -4    1    3    3    0  502 -0.27002094909E+03 -0.10480904684E+04 -0.54509828646E+03  0.12118327845E+04  0.12699999809E+01 0.  1.
</event>
<event>
 5   0  0.2090039E-05  0.2348002E+04  0.7818609E-02  0.8459231E-01
        1   -1    0    0  501    0  0.00000000000E+00  0.00000000000E+00  0.88560597139E+03  0.88560597140E+03  0.50400001928E-02 0. -1.
       -1   -1    0    0    0  501  0.00000000000E+00  0.00000000000E+00 -0.15563115591E+04  0.15563115591E+04  0.50400001928E-02 0.  1.
    10030    2    1    2    0    0  0.00000000000E+00  0.00000000000E+00 -0.67070558773E+03  0.24419175305E+04  0.23480023936E+04 0.  0.
        1    1    3    3  502    0  0.54794466493E+03 -0.84797672185E+02  0.74085398991E+03  0.92536405561E+03  0.50400001928E-02 0. -1.
       -1    1    3    3    0  502 -0.54794466493E+03  0.84797672185E+02 -0.14115595776E+04  0.15165534749E+04  0.50400001928E-02 0.  1.
</event>
<event>
 5   0  0.4856882E-05  0.2238881E+04  0.7818609E-02  0.8502417E-01
       -2   -1    0    0    0  501  0.00000000000E+00  0.00000000000E+00  0.80699828623E+03  0.80699828623E+03  0.25500000920E-02 0. -1.
        2   -1    0    0  501    0  0.00000000000E+00  0.00000000000E+00 -0.15528501725E+04  0.15528501725E+04  0.25500000920E-02 0.  1.
    10030    2    1    2    0    0  0.00000000000E+00  0.00000000000E+00 -0.74585188624E+03  0.23598484587E+04  0.22388813528E+04 0.  0.
        1    1    3    3  502    0  0.53071658894E+03  0.97905198158E+03 -0.49284728315E+03  0.12178264757E+04  0.50400001928E-02 0.  1.
       -1    1    3    3    0  502 -0.53071658894E+03 -0.97905198158E+03 -0.25300460309E+03  0.11420219830E+04  0.50400001928E-02 0. -1.
</event>
<event>
 5   0  0.2090039E-05  0.2404148E+04  0.7818609E-02  0.8437952E-01
        1   -1    0    0  501    0  0.00000000000E+00  0.00000000000E+00  0.12414388789E+04  0.12414388790E+04  0.50400001928E-02 0. -1.
       -1   -1    0    0    0  501  0.00000000000E+00  0.00000000000E+00 -0.11639570112E+04  0.11639570112E+04  0.50400001928E-02 0.  1.
    10030    2    1    2    0    0  0.00000000000E+00  0.00000000000E+00  0.77481867784E+02  0.24053958901E+04  0.24041476553E+04 0.  0.
        1    1    3    3  502    0  0.28060944123E+03 -0.61329238134E+03 -0.95681955357E+03  0.11706292588E+04  0.50400001928E-02 0.  1.
       -1    1    3    3    0  502 -0.28060944123E+03  0.61329238134E+03  0.10343014214E+04  0.12347666313E+04  0.50400001928E-02 0. -1.
</event>
<event>
 5   0  0.2090039E-05  0.2493235E+04  0.7818609E-02  0.8405400E-01
        1   -1    0    0  501    0  0.00000000000E+00  0.00000000000E+00  0.11310616540E+04  0.11310616540E+04  0.50400001928E-02 0. -1.
       -1   -1    0    0    0  501  0.00000000000E+00  0.00000000000E+00 -0.13739787003E+04  0.13739787003E+04  0.50400001928E-02 0.  1.
    10030    2    1    2    0    0  0.00000000000E+00  0.00000000000E+00 -0.24291704628E+03  0.25050403544E+04  0.24932345428E+04 0.  0.
        1    1    3    3  502    0  0.30827116029E+03  0.85261426139E+03  0.73820523536E+03  0.11691574558E+04  0.50400001928E-02 0. -1.
       -1    1    3    3    0  502 -0.30827116029E+03 -0.85261426139E+03 -0.98112228165E+03  0.13358828985E+04  0.50400001928E-02 0.  1.
</event>
<event>
 5   0  0.4756705E-05  0.2394661E+04  0.7818609E-02  0.8441505E-01
       -2   -1    0    0    0  501  0.00000000000E+00  0.00000000000E+00  0.99642788522E+03  0.99642788523E+03  0.25500000920E-02 0.  1.
        2   -1    0    0  501    0  0.00000000000E+00  0.00000000000E+00 -0.14387399994E+04  0.14387399994E+04  0.25500000920E-02 0. -1.
    10030    2    1    2    0    0  0.00000000000E+00  0.00000000000E+00 -0.44231211413E+03  0.24351678846E+04  0.23946612745E+04 0.  0.
        3    1    3    3  502    0  0.10436953667E+04 -0.57724778105E+03 -0.11408676847E+03  0.11981363947E+04  0.10100000352E+00 0. -1.
       -3    1    3    3    0  502 -0.10436953667E+04  0.57724778105E+03 -0.32822534566E+03  0.12370314899E+04  0.10100000352E+00 0.  1.
</event>
<event>
 5   0  0.2149920E-05  0.2309565E+04  0.7818609E-02  0.8474159E-01
        1   -1    0    0  501    0  0.00000000000E+00  0.00000000000E+00  0.12206089319E+04  0.12206089319E+04  0.50400001928E-02 0. -1.
       -1   -1    0    0    0  501  0.00000000000E+00  0.00000000000E+00 -0.10925056421E+04  0.10925056422E+04  0.50400001928E-02 0.  1.
    10030    2    1    2    0    0  0.00000000000E+00  0.00000000000E+00  0.12810328978E+03  0.23131145741E+04  0.23095645867E+04 0.  0.
        5    1    3    3  502    0  0.80512388902E+03  0.48454434426E+03 -0.60816729820E+03  0.11193289288E+04  0.46999998093E+01 0. -1.
       -5    1    3    3    0  502 -0.80512388902E+03 -0.48454434426E+03  0.73627058799E+03  0.11937856453E+04  0.46999998093E+01 0.  1.
</event>
<event>
 5   0  0.4756705E-05  0.2381690E+04  0.7818609E-02  0.8446390E-01
        2   -1    0    0  501    0  0.00000000000E+00  0.00000000000E+00  0.17041209008E+04  0.17041209008E+04  0.25500000920E-02 0.  1.
       -2   -1    0    0    0  501  0.00000000000E+00  0.00000000000E+00 -0.83216643269E+03  0.83216643269E+03  0.25500000920E-02 0. -1.
    10030    2    1    2    0    0  0.00000000000E+00  0.00000000000E+00  0.87195446808E+03  0.25362873335E+04  0.23816903332E+04 0.  0.
        3    1    3    3  502    0 -0.46533451172E+02  0.34444144615E+03 -0.77694938608E+03  0.85114959357E+03  0.10100000352E+00 0. -1.
       -3    1    3    3    0  502  0.46533451172E+02 -0.34444144615E+03  0.16489038542E+04  0.16851377399E+04  0.10100000352E+00 0.  1.
</event>
<event>
 5   0  0.4664127E-05  0.2381351E+04  0.7818609E-02  0.8446518E-01
       -2   -1    0    0    0  501  0.00000000000E+00  0.00000000000E+00  0.92043459099E+03  0.92043459099E+03  0.25500000920E-02 0.  1.
        2   -1    0    0  501    0  0.00000000000E+00  0.00000000000E+00 -0.15402600189E+04  0.15402600189E+04  0.25500000920E-02 0. -1.
    10030    2    1    2    0    0  0.00000000000E+00  0.00000000000E+00 -0.61982542793E+03  0.24606946099E+04  0.23813513815E+04 0.  0.
        4    1    3    3  502    0 -0.89043556963E+03 -0.19811400214E+01 -0.11267100705E+04  0.14360907438E+04  0.12699999809E+01 0. -1.
       -4    1    3    3    0  502  0.89043556963E+03  0.19811400214E+01  0.50688464261E+03  0.10246038661E+04  0.12699999809E+01 0.  1.
</event>
<event>
 5   0  0.4756705E-05  0.2378101E+04  0.7818609E-02  0.8447748E-01
        2   -1    0    0  501    0  0.00000000000E+00  0.00000000000E+00  0.16243814018E+04  0.16243814018E+04  0.25500000920E-02 0. -1.
       -2   -1    0    0    0  501  0.00000000000E+00  0.00000000000E+00 -0.87038712890E+03  0.87038712891E+03  0.25500000920E-02 0.  1.
    10030    2    1    2    0    0  0.00000000000E+00  0.00000000000E+00  0.75399427288E+03  0.24947685307E+04  0.23781006409E+04 0.  0.
        3    1    3    3  502    0  0.85437664915E+03  0.43456901013E+03  0.11150988486E+04  0.14704608582E+04  0.10100000352E+00 0. -1.
       -3    1    3    3    0  502 -0.85437664915E+03 -0.43456901013E+03 -0.36110457568E+03  0.10243076725E+04  0.10100000352E+00 0.  1.
</event>
<event>
 5   0  0.4856882E-05  0.2470616E+04  0.7818609E-02  0.8413529E-01
        2   -1    0    0  501    0  0.00000000000E+00  0.00000000000E+00  0.13702687461E+04  0.13702687461E+04  0.25500000920E-02 0.  1.
       -2   -1    0    0    0  501  0.00000000000E+00  0.00000000000E+00 -0.11136401272E+04  0.11136401272E+04  0.25500000920E-02 0. -1.
    10030    2    1    2    0    0  0.00000000000E+00  0.00000000000E+00  0.25662861887E+03  0.24839088733E+04  0.24706163285E+04 0.  0.
        1    1    3    3  502    0  0.58217409735E+03  0.10822677811E+04  0.25451268516E+03  0.12549928034E+04  0.50400001928E-02 0. -1.
       -1    1    3    3    0  502 -0.58217409735E+03 -0.10822677811E+04  0.21159337098E+01  0.12289160699E+04  0.50400001928E-02 0.  1.
</event>
<event>
 5   0  0.2139556E-05  0.2357328E+04  0.7818609E-02  0.8455654E-01
       -1   -1    0    0    0  501  0.00000000000E+00  0.00000000000E+00  0.11869341280E+04  0.11869341280E+04  0.50400001928E-02 0.  1.
        1   -1    0    0  501    0  0.00000000000E+00  0.00000000000E+00 -0.11704517733E+04  0.11704517733E+04  0.50400001928E-02 0. -1.
    10030    2    1    2    0    0  0.00000000000E+00  0.00000000000E+00  0.16482354725E+02  0.23573859013E+04  0.23573282800E+04 0.  0.
        2    1    3    3  502    0  0.21846950147E+03  0.55072994177E+03 -0.10107129526E+04  0.11715686341E+04  0.25500000920E-02 0. -1.
       -2    1    3    3    0  502 -0.21846950147E+03 -0.55072994177E+03  0.10271953073E+04  0.11858172672E+04  0.25500000920E-02 0.  1.
</event>
<event>
 5   0  0.2057599E-05  0.2380260E+04  0.7818609E-02  0.8446931E-01
        1   -1    0    0  501    0  0.00000000000E+00  0.00000000000E+00  0.17270374094E+04  0.17270374094E+04  0.50400001928E-02 0. -1.
       -1   -1    0    0    0  501  0.00000000000E+00  0.00000000000E+00 -0.82013804283E+03  0.82013804284E+03  0.50400001928E-02 0.  1.
    10030    2    1    2    0    0  0.00000000000E+00  0.00000000000E+00  0.90689936659E+03  0.25471754523E+04  0.23802597177E+04 0.  0.
        4    1    3    3  502    0  0.47636034224E+03 -0.76830713685E+03 -0.37490756142E+03  0.97865843107E+03  0.12699999809E+01 0.  1.
       -4    1    3    3    0  502 -0.47636034224E+03  0.76830713685E+03  0.12818069280E+04  0.15685170212E+04  0.12699999809E+01 0. -1.
</event>
<event>
 5   0  0.4713971E-05  0.2522096E+04  0.7818609E-02  0.8395156E-01
        2   -1    0    0  501    0  0.00000000000E+00  0.00000000000E+00  0.21751347949E+04  0.21751347949E+04  0.25500000920E-02 0. -1.
       -2   -1    0    0    0  501  0.00000000000E+00  0.00000000000E+00 -0.73110046835E+03  0.73110046836E+03  0.25500000920E-02 0.  1.
    10030    2    1    2    0    0  0.00000000000E+00  0.00000000000E+00  0.14440343265E+04  0.29062352633E+04  0.25220960071E+04 0.  0.
        5    1    3    3  502    0 -0.74049650831E+03  0.95025649949E+03  0.29256346960E+03  0.12397330226E+04  0.46999998093E+01 0.  1.
       -5    1    3    3    0  502  0.74049650831E+03 -0.95025649949E+03  0.11514708569E+04  0.16665022406E+04  0.46999998093E+01 0. -1.
</event>
<event>
 5   0  0.2090039E-05  0.2384720E+04  0.7818609E-02  0.8445247E-01
       -1   -1    0    0    0  501  0.00000000000E+00  0.00000000000E+00  0.11028979270E+04  0.11028979270E+04  0.50400001928E-02 0.  1.
        1   -1    0    0  501    0  0.00000000000E+00  0.00000000000E+00 -0.12890784404E+04  0.12890784404E+04  0.50400001928E-02 0. -1.
    10030    2    1    2    0    0  0.00000000000E+00  0.00000000000E+00 -0.18618051342E+03  0.23919763675E+04  0.23847196395E+04 0.  0.
        1    1    3    3  502    0  0.84267858024E+03  0.57859011851E+03 -0.70883794937E+03  0.12439151713E+04  0.50400001928E-02 0. -1.
       -1    1    3    3    0  502 -0.84267858024E+03 -0.57859011851E+03  0.52265743595E+03  0.11480611962E+04  0.50400001928E-02 0.  1.
</event>
<event>
 5   0  0.2057599E-05  0.1788296E+04  0.7818609E-02  0.8712548E-01
        1   -1    0    0  501    0  0.00000000000E+00  0.00000000000E+00  0.79019773301E+03  0.79019773302E+03  0.50400001928E-02 0.  1.
       -1   -1    0    0    0  501  0.00000000000E+00  0.00000000000E+00 -0.10117732610E+04  0.10117732610E+04  0.50400001928E-02 0. -1.
    10030    2    1    2    0    0  0.00000000000E+00  0.00000000000E+00 -0.22157552798E+03  0.18019709940E+04  0.17882963258E+04 0.  0.
        4    1    3    3  502    0 -0.55254278329E+03 -0.70271869550E+03 -0.91087511972E+02  0.89856309745E+03  0.12699999809E+01 0. -1.
       -4    1    3    3    0  502  0.55254278329E+03  0.70271869550E+03 -0.13048801601E+03  0.90340789657E+03  0.12699999809E+01 0.  1.
</event>
<event>
 5   0  0.2149920E-05  0.2430353E+04  0.7818609E-02  0.8428226E-01
        1   -1    0    0  501    0  0.00000000000E+00  0.00000000000E+00  0.12921766542E+04  0.12921766542E+04  0.50400001928E-02 0.  1.
       -1   -1    0    0    0  501  0.00000000000E+00  0.00000000000E+00 -0.11427651402E+04  0.11427651402E+04  0.50400001928E-02 0. -1.
    10030    2    1    2    0    0  0.00000000000E+00  0.00000000000E+00  0.14941151397E+03  0.24349417944E+04  0.24303534191E+04 0.  0.
        5    1    3    3  502    0 -0.11246185597E+04 -0.33463687434E+03  0.39134610296E+03  0.12369004021E+04  0.46999998093E+01 0. -1.
       -5    1    3    3    0  502  0.11246185597E+04  0.33463687434E+03 -0.24193458899E+03  0.11980413923E+04  0.46999998093E+01 0.  1.
</event>
<event>
 5   0  0.4664127E-05  0.2388996E+04  0.7818609E-02  0.8443635E-01
       -2   -1    0    0    0  501  0.00000000000E+00  0.00000000000E+00  0.11887239502E+04  0.11887239502E+04  0.25500000920E-02 0.  1.
        2   -1    0    0  501    0  0.00000000000E+00  0.00000000000E+00 -0.12002998914E+04  0.12002998914E+04  0.25500000920E-02 0. -1.
    10030    2    1    2    0    0  0.00000000000E+00  0.00000000000E+00 -0.11575941142E+02  0.23890238416E+04  0.23889957960E+04 0.  0.
        4    1    3    3  502    0  0.61198969251E+03  0.94280198571E+03  0.39846502490E+03  0.11925531254E+04  0.12699999809E+01 0.  1.
       -4    1    3    3    0  502 -0.61198969251E+03 -0.94280198571E+03 -0.41004096604E+03  0.11964707162E+04  0.12699999809E+01 0. -1.
</event>
<event>
 5   0  0.2090039E-05  0.2482762E+04  0.7818609E-02  0.8409152E-01
       -1   -1    0    0    0  501  0.00000000000E+00  0.00000000000E+00  0.13098997222E+04  0.13098997222E+04  0.50400001928E-02 0. -1.
        1   -1    0    0  501    0  0.00000000000E+00  0.00000000000E+00 -0.11764466571E+04  0.11764466571E+04  0.50400001928E-02 0.  1.
    10030    2    1    2    0    0  0.00000000000E+00  0.00000000000E+00  0.13345306505E+03  0.24863463793E+04  0.24827622917E+04 0.  0.
        1    1    3    3  502    0 -0.11505979852E+04  0.42130711294E+03  0.26614144321E+03  0.12538766585E+04  0.50400001928E-02 0.  1.
       -1    1    3    3    0  502  0.11505979852E+04 -0.42130711294E+03 -0.13268837817E+03  0.12324697208E+04  0.50400001928E-02 0. -1.
</event>
<event>
 5   0  0.4914005E-05  0.2399187E+04  0.7818609E-02  0.8439808E-01
       -2   -1    0    0    0  501  0.00000000000E+00  0.00000000000E+00  0.77168374895E+03  0.77168374895E+03  0.25500000920E-02 0.  1.
        2   -1    0    0  501    0  0.00000000000E+00  0.00000000000E+00 -0.18647856776E+04  0.18647856776E+04  0.25500000920E-02 0. -1.
    10030    2    1    2    0    0  0.00000000000E+00  0.00000000000E+00 -0.10931019287E+04  0.26364694266E+04  0.23991871980E+04 0.  0.
        2    1    3    3  502    0  0.78645665868E+03  0.16178411561E+03 -0.15259527652E+04  0.17243027627E+04  0.25500000920E-02 0. -1.
       -2    1    3    3    0  502 -0.78645665868E+03 -0.16178411561E+03  0.43285083646E+03  0.91216666387E+03  0.25500000920E-02 0.  1.
</event>
<event>
 5   0  0.4713971E-05  0.2412214E+04  0.7818609E-02  0.8434945E-01
        2   -1    0    0  501    0  0.00000000000E+00  0.00000000000E+00  0.18769540388E+04  0.18769540388E+04  0.25500000920E-02 0. -1.
       -2   -1    0    0    0  501  0.00000000000E+00  0.00000000000E+00 -0.77502935057E+03  0.77502935057E+03  0.25500000920E-02 0.  1.
    10030    2    1    2    0    0  0.00000000000E+00  0.00000000000E+00  0.11019246883E+04  0.26519833894E+04  0.24122143104E+04 0.  0.
        5    1    3    3  502    0 -0.29464839461E+02 -0.82144048089E+03  0.15213264333E+04  0.17291873371E+04  0.46999998093E+01 0. -1.
       -5    1    3    3    0  502  0.29464839461E+02  0.82144048089E+03 -0.41940174498E+03  0.92279605228E+03  0.46999998093E+01 0.  1.
</event>
<event>
 5   0  0.2065692E-05  0.2413950E+04  0.7818609E-02  0.8434299E-01
        1   -1    0    0  501    0  0.00000000000E+00  0.00000000000E+00  0.25211618659E+04  0.25211618659E+04  0.50400001928E-02 0.  1.
       -1   -1    0    0    0  501  0.00000000000E+00  0.00000000000E+00 -0.57782432762E+03  0.57782432765E+03  0.50400001928E-02 0. -1.
    10030    2    1    2    0    0  0.00000000000E+00  0.00000000000E+00  0.19433375383E+04  0.30989861935E+04  0.24139500078E+04 0.  0.
        3    1    3    3  502    0  0.60246070643E+03  0.37775880874E+03  0.22236875970E+04  0.23346192751E+04  0.10100000352E+00 0.  1.
       -3    1    3    3    0  502 -0.60246070643E+03 -0.37775880874E+03 -0.28035005875E+03  0.76436691844E+03  0.10100000352E+00 0. -1.
</event>
<event>
 5   0  0.2149920E-05  0.2399339E+04  0.7818609E-02  0.8439751E-01
        1   -1    0    0  501    0  0.00000000000E+00  0.00000000000E+00  0.17546661759E+04  0.17546661759E+04  0.50400001928E-02 0. -1.
       -1   -1    0    0    0  501  0.00000000000E+00  0.00000000000E+00 -0.82021713368E+03  0.82021713370E+03  0.50400001928E-02 0.  1.
    10030    2    1    2    0    0  0.00000000000E+00  0.00000000000E+00  0.93444904220E+03  0.25748833096E+04  0.23993392935E+04 0.  0.
        5    1    3    3  502    0 -0.22912251742E+03 -0.41878460058E+03 -0.71389293777E+03  0.85880317085E+03  0.46999998093E+01 0.  1.
       -5    1    3    3    0  502  0.22912251742E+03  0.41878460058E+03  0.16483419800E+04  0.17160801387E+04  0.46999998093E+01 0. -1.
</event>
<event>
 5   0  0.4914005E-05  0.2401938E+04  0.7818609E-02  0.8438779E-01
       -2   -1    0    0    0  501  0.00000000000E+00  0.00000000000E+00  0.91380678762E+03  0.91380678763E+03  0.25500000920E-02 0.  1.
        2   -1    0    0  501    0  0.00000000000E+00  0.00000000000E+00 -0.15783708036E+04  0.15783708036E+04  0.25500000920E-02 0. -1.
    10030    2    1    2    0    0  0.00000000000E+00  0.00000000000E+00 -0.66456401601E+03  0.24921775913E+04  0.24019375127E+04 0.  0.
        2    1    3    3  502    0 -0.11184430197E+04 -0.35191567750E+03 -0.62580694542E+02  0.11741702499E+04  0.25500000920E-02 0. -1.
       -2    1    3    3    0  502  0.11184430197E+04  0.35191567750E+03 -0.60198332147E+03  0.13180073413E+04  0.25500000920E-02 0.  1.
</event>
<event>
 5   0  0.2057599E-05  0.2373961E+04  0.7818609E-02  0.8449317E-01
       -1   -1    0    0    0  501  0.00000000000E+00  0.00000000000E+00  0.12042768618E+04  0.12042768618E+04  0.50400001928E-02 0. -1.
        1   -1    0    0  501    0  0.00000000000E+00  0.00000000000E+00 -0.11699322105E+04  0.11699322105E+04  0.50400001928E-02 0.  1.
    10030    2    1    2    0    0  0.00000000000E+00  0.00000000000E+00  0.34344651306E+02  0.23742090723E+04  0.23739606492E+04 0.  0.
        4    1    3    3  502    0 -0.47873446459E+03  0.21481640415E+03 -0.10476399414E+04  0.11717012566E+04  0.12699999809E+01 0.  1.
       -4    1    3    3    0  502  0.47873446459E+03 -0.21481640415E+03  0.10819845927E+04  0.12025078157E+04  0.12699999809E+01 0. -1.
</event>
<event>
 5   0  0.4756705E-05  0.2354205E+04  0.7818609E-02  0.8456850E-01
        2   -1    0    0  501    0  0.00000000000E+00  0.00000000000E+00  0.11441135581E+04  0.11441135581E+04  0.25500000920E-02 0. -1.
       -2   -1    0    0    0  501  0.00000000000E+00  0.00000000000E+00 -0.12110424782E+04  0.12110424782E+04  0.25500000920E-02 0.  1.
    10030    2    1    2    0    0  0.00000000000E+00  0.00000000000E+00 -0.66928920096E+02  0.23551560364E+04  0.23542048499E+04 0.  0.
        3    1    3    3  502    0  0.36120296735E+03 -0.31752968764E+02  0.10868515134E+04  0.11457408333E+04  0.10100000352E+00 0. -1.
       -3    1    3    3    0  502 -0.36120296735E+03  0.31752968764E+02 -0.11537804335E+04  0.12094152031E+04  0.10100000352E+00 0.  1.
</event>
<event>
 5   0  0.4713971E-05  0.2407927E+04  0.7818609E-02  0.8436542E-01
       -2   -1    0    0    0  501  0.00000000000E+00  0.00000000000E+00  0.58658268984E+03  0.58658268985E+03  0.25500000920E-02 0.  1.
        2   -1    0    0  501    0  0.00000000000E+00  0.00000000000E+00 -0.24711401597E+04  0.24711401597E+04  0.25500000920E-02 0. -1.
    10030    2    1    2    0    0  0.00000000000E+00  0.00000000000E+00 -0.18845574698E+04  0.30577228495E+04  0.24079269440E+04 0.  0.
        5    1    3    3  502    0  0.71522798552E+03  0.67521175768E+03 -0.60624828105E+02  0.98547422532E+03  0.46999998093E+01 0.  1.
       -5    1    3    3    0  502 -0.71522798552E+03 -0.67521175768E+03 -0.18239326417E+04  0.20722486242E+04  0.46999998093E+01 0. -1.
</event>
<event>
 5   0  0.4856882E-05  0.2377125E+04  0.7818609E-02  0.8448118E-01
       -2   -1    0    0    0  501  0.00000000000E+00  0.00000000000E+00  0.11466869041E+04  0.11466869041E+04  0.25500000920E-02 0. -1.
        2   -1    0    0  501    0  0.00000000000E+00  0.00000000000E+00 -0.12319669150E+04  0.12319669150E+04  0.25500000920E-02 0.  1.
    10030    2    1    2    0    0  0.00000000000E+00  0.00000000000E+00 -0.85280010888E+02  0.23786538191E+04  0.23771245889E+04 0.  0.
        1    1    3    3  502    0 -0.53070362113E+03  0.63562935367E+03  0.81055692724E+03  0.11587379087E+04  0.50400001928E-02 0. -1.
       -1    1    3    3    0  502  0.53070362113E+03 -0.63562935367E+03 -0.89583693813E+03  0.12199159104E+04  0.50400001928E-02 0.  1.
</event>
<event>
 5   0  0.2057599E-05  0.2389896E+04  0.7818609E-02  0.8443296E-01
        1   -1    0    0  501    0  0.00000000000E+00  0.00000000000E+00  0.87163121234E+03  0.87163121235E+03  0.50400001928E-02 0.  1.
       -1   -1    0    0    0  501  0.00000000000E+00  0.00000000000E+00 -0.16381930408E+04  0.16381930408E+04  0.50400001928E-02 0. -1.
    10030    2    1    2    0    0  0.00000000000E+00  0.00000000000E+00 -0.76656182849E+03  0.25098242532E+04  0.23898955511E+04 0.  0.
        4    1    3    3  502    0 -0.93897016222E+03  0.37358530052E+03 -0.10529869204E+04  0.14594567516E+04  0.12699999809E+01 0. -1.
       -4    1    3    3    0  502  0.93897016222E+03 -0.37358530052E+03  0.28642509188E+03  0.10503675016E+04  0.12699999809E+01 0.  1.
</event>
<event>
 5   0  0.4856882E-05  0.2014494E+04  0.7818609E-02  0.8599874E-01
       -2   -1    0    0    0  501  0.00000000000E+00  0.00000000000E+00  0.48955847356E+03  0.48955847357E+03  0.25500000920E-02 0.  1.
        2   -1    0    0  501    0  0.00000000000E+00  0.00000000000E+00 -0.20723707767E+04  0.20723707767E+04  0.25500000920E-02 0. -1.
    10030    2    1    2    0    0  0.00000000000E+00  0.00000000000E+00 -0.15828123031E+04  0.25619292502E+04  0.20144941540E+04 0.  0.
        1    1    3    3  502    0  0.37490010755E+03  0.63831656648E+03 -0.16600655846E+04  0.18176401940E+04  0.50400001928E-02 0. -1.
       -1    1    3    3    0  502 -0.37490010755E+03 -0.63831656648E+03  0.77253281504E+02  0.74428905622E+03  0.50400001928E-02 0.  1.
</event>
<event>
 5   0  0.2057599E-05  0.2406559E+04  0.7818609E-02  0.8437052E-01
        1   -1    0    0  501    0  0.00000000000E+00  0.00000000000E+00  0.24315041747E+04  0.24315041747E+04  0.50400001928E-02 0.  1.
       -1   -1    0    0    0  501  0.00000000000E+00  0.00000000000E+00 -0.59546761349E+03  0.59546761352E+03  0.50400001928E-02 0. -1.
    10030    2    1    2    0    0  0.00000000000E+00  0.00000000000E+00  0.18360365612E+04  0.30269717882E+04  0.24065593599E+04 0.  0.
        4    1    3    3  502    0  0.59269481480E+03  0.10687774871E+03  0.22282881679E+04  0.23082417050E+04  0.12699999809E+01 0.  1.
       -4    1    3    3    0  502 -0.59269481480E+03 -0.10687774871E+03 -0.39225160669E+03  0.71873008321E+03  0.12699999809E+01 0. -1.
</event>
<event>
 5   0  0.4664127E-05  0.2423951E+04  0.7818609E-02  0.8430591E-01
       -2   -1    0    0    0  501  0.00000000000E+00  0.00000000000E+00  0.11083681549E+04  0.11083681549E+04  0.25500000920E-02 0. -1.
        2   -1    0    0  501    0  0.00000000000E+00  0.00000000000E+00 -0.13252676499E+04  0.13252676499E+04  0.25500000920E-02 0.  1.
    10030    2    1    2    0    0  0.00000000000E+00  0.00000000000E+00 -0.21689949494E+03  0.24336358048E+04  0.24239508740E+04 0.  0.
        4    1    3    3  502    0  0.18988871957E+03  0.95501694570E+03  0.61607598596E+03  0.11522440392E+04  0.12699999809E+01 0. -1.
       -4    1    3    3    0  502 -0.18988871957E+03 -0.95501694570E+03 -0.83297548090E+03  0.12813917656E+04  0.12699999809E+01 0.  1.
</event>
<event>
 5   0  0.2090039E-05  0.2398220E+04  0.7818609E-02  0.8440170E-01
        1   -1    0    0  501    0  0.00000000000E+00  0.00000000000E+00  0.10799018466E+04  0.10799018466E+04  0.50400001928E-02 0. -1.
       -1   -1    0    0    0  501  0.00000000000E+00  0.00000000000E+00 -0.13314776654E+04  0.13314776654E+04  0.50400001928E-02 0.  1.
    10030    2    1    2    0    0  0.00000000000E+00  0.00000000000E+00 -0.25157581881E+03  0.24113795120E+04  0.23982203315E+04 0.  0.
        1    1    3    3  502    0 -0.95188396562E+03 -0.71908666061E+03 -0.24768214026E+03  0.12184068089E+04  0.50400001928E-02 0. -1.
       -1    1    3    3    0  502  0.95188396562E+03  0.71908666061E+03 -0.38936785549E+01  0.11929727030E+04  0.50400001928E-02 0.  1.
</event>
<event>
 5   0  0.4713971E-05  0.2406118E+04  0.7818609E-02  0.8437217E-01
        2   -1    0    0  501    0  0.00000000000E+00  0.00000000000E+00  0.15791515568E+04  0.15791515568E+04  0.25500000920E-02 0. -1.
       -2   -1    0    0    0  501  0.00000000000E+00  0.00000000000E+00 -0.91653680656E+03  0.91653680656E+03  0.25500000920E-02 0.  1.
    10030    2    1    2    0    0  0.00000000000E+00  0.00000000000E+00  0.66261475025E+03  0.24956883634E+04  0.24061176405E+04 0.  0.
        5    1    3    3  502    0 -0.11990752725E+03  0.58469484155E+03  0.14147409858E+04  0.15354999251E+04  0.46999998093E+01 0. -1.
       -5    1    3    3    0  502  0.11990752725E+03 -0.58469484155E+03 -0.75212623559E+03  0.96018843832E+03  0.46999998093E+01 0.  1.
</event>
<event>
 5   0  0.4713971E-05  0.2384930E+04  0.7818609E-02  0.8445167E-01
        2   -1    0    0  501    0  0.00000000000E+00  0.00000000000E+00  0.26066841071E+04  0.26066841071E+04  0.25500000920E-02 0.  1.
       -2   -1    0    0    0  501  0.00000000000E+00  0.00000000000E+00 -0.54550998019E+03  0.54550998020E+03  0.25500000920E-02 0. -1.
    10030    2    1    2    0    0  0.00000000000E+00  0.00000000000E+00  0.20611741269E+04  0.31521940873E+04  0.23849295131E+04 0.  0.
        5    1    3    3  502    0 -0.30790188225E+03  0.73507410002E+03 -0.14180550342E+03  0.80948649922E+03  0.46999998093E+01 0. -1.
       -5    1    3    3    0  502  0.30790188225E+03 -0.73507410002E+03  0.22029796303E+04  0.23427075880E+04  0.46999998093E+01 0.  1.
</event>
<event>
 5   0  0.4914005E-05  0.2405579E+04  0.7818609E-02  0.8437418E-01
       -2   -1    0    0    0  501  0.00000000000E+00  0.00000000000E+00  0.59416452766E+03  0.59416452766E+03  0.25500000920E-02 0. -1.
        2   -1    0    0  501    0  0.00000000000E+00  0.00000000000E+00 -0.24348517564E+04  0.24348517564E+04  0.25500000920E-02 0.  1.
    10030    2    1    2    0    0  0.00000000000E+00  0.00000000000E+00 -0.18406872287E+04  0.30290162840E+04  0.24055789688E+04 0.  0.
        2    1    3    3  502    0 -0.17076108677E+03  0.11500382353E+04 -0.53233489422E+03  0.12787211311E+04  0.25500000920E-02 0. -1.
       -2    1    3    3    0  502  0.17076108677E+03 -0.11500382353E+04 -0.13083523345E+04  0.17502951530E+04  0.25500000920E-02 0.  1.
</event>
<event>
 5   0  0.4914005E-05  0.2407144E+04  0.7818609E-02  0.8436834E-01
        2   -1    0    0  501    0  0.00000000000E+00  0.00000000000E+00  0.10262629961E+04  0.10262629962E+04  0.25500000920E-02 0. -1.
       -2   -1    0    0    0  501  0.00000000000E+00  0.00000000000E+00 -0.14115154648E+04  0.14115154648E+04  0.25500000920E-02 0.  1.
    10030    2    1    2    0    0  0.00000000000E+00  0.00000000000E+00 -0.38525246867E+03  0.24377784610E+04  0.24071444411E+04 0.  0.
        2    1    3    3  502    0 -0.92994180769E+03 -0.74969968890E+03 -0.43288759762E+02  0.11952887960E+04  0.25500000920E-02 0.  1.
       -2    1    3    3    0  502  0.92994180769E+03  0.74969968890E+03 -0.34196370890E+03  0.12424896649E+04  0.25500000920E-02 0. -1.
</event>
<event>
 5   0  0.4856882E-05  0.2415812E+04  0.7818609E-02  0.8433607E-01
        2   -1    0    0  501    0  0.00000000000E+00  0.00000000000E+00  0.20227541079E+04  0.20227541079E+04  0.25500000920E-02 0.  1.
       -2   -1    0    0    0  501  0.00000000000E+00  0.00000000000E+00 -0.72131212932E+03  0.72131212932E+03  0.25500000920E-02 0. -1.
    10030    2    1    2    0    0  0.00000000000E+00  0.00000000000E+00  0.13014419786E+04  0.27440662372E+04  0.24158121389E+04 0.  0.
        1    1    3    3  502    0  0.64575361448E+03 -0.10106374818E+04  0.48748936112E+03  0.12946164403E+04  0.50400001928E-02 0. -1.
       -1    1    3    3    0  502 -0.64575361448E+03  0.10106374818E+04  0.81395261744E+03  0.14494497969E+04  0.50400001928E-02 0.  1.
</event>
<event>
 5   0  0.2065692E-05  0.2416554E+04  0.7818609E-02  0.8433332E-01
       -1   -1    0    0    0  501  0.00000000000E+00  0.00000000000E+00  0.13882547259E+04  0.13882547259E+04  0.50400001928E-02 0.  1.
        1   -1    0    0  501    0  0.00000000000E+00  0.00000000000E+00 -0.10516321133E+04  0.10516321133E+04  0.50400001928E-02 0. -1.
    10030    2    1    2    0    0  0.00000000000E+00  0.00000000000E+00  0.33662261258E+03  0.24398868392E+04  0.24165539524E+04 0.  0.
        3    1    3    3  502    0 -0.10013970929E+04 -0.47419220869E+03 -0.31829532690E+03  0.11528080125E+04  0.10100000352E+00 0. -1.
       -3    1    3    3    0  502  0.10013970929E+04  0.47419220869E+03  0.65491793948E+03  0.12870788267E+04  0.10100000352E+00 0.  1.
</event>
<event>
 5   0  0.2065692E-05  0.1959297E+04  0.7818609E-02  0.8625890E-01
       -1   -1    0    0    0  501  0.00000000000E+00  0.00000000000E+00  0.61924467145E+03  0.61924467147E+03  0.50400001928E-02 0.  1.
        1   -1    0    0  501    0  0.00000000000E+00  0.00000000000E+00 -0.15498100759E+04  0.15498100759E+04  0.50400001928E-02 0. -1.
    10030    2    1    2    0    0  0.00000000000E+00  0.00000000000E+00 -0.93056540441E+03  0.21690547473E+04  0.19592974570E+04 0.  0.
        3    1    3    3  502    0 -0.54962547491E+03  0.80222187736E+02  0.42807068091E+03  0.70126191978E+03  0.10100000352E+00 0.  1.
       -3    1    3    3    0  502  0.54962547491E+03 -0.80222187736E+02 -0.13586360853E+04  0.14677928276E+04  0.10100000352E+00 0. -1.
</event>
<event>
 5   0  0.4756705E-05  0.2433130E+04  0.7818609E-02  0.8427203E-01
        2   -1    0    0  501    0  0.00000000000E+00  0.00000000000E+00  0.10102420934E+04  0.10102420934E+04  0.25500000920E-02 0.  1.
       -2   -1    0    0    0  501  0.00000000000E+00  0.00000000000E+00 -0.14650249847E+04  0.14650249847E+04  0.25500000920E-02 0. -1.
    10030    2    1    2    0    0  0.00000000000E+00  0.00000000000E+00 -0.45478289130E+03  0.24752670781E+04  0.24331295958E+04 0.  0.
        3    1    3    3  502    0  0.35600493197E+03  0.52753128926E+03  0.82738709008E+03  0.10438381962E+04  0.10100000352E+00 0.  1.
       -3    1    3    3    0  502 -0.35600493197E+03 -0.52753128926E+03 -0.12821699814E+04  0.14314288820E+04  0.10100000352E+00 0. -1.
</event>
<event>
 5   0  0.2090039E-05  0.2270067E+04  0.7818609E-02  0.8489817E-01
       -1   -1    0    0    0  501  0.00000000000E+00  0.00000000000E+00  0.12917312792E+04  0.12917312792E+04  0.50400001928E-02 0.  1.
        1   -1    0    0  501    0  0.00000000000E+00  0.00000000000E+00 -0.99734479201E+03  0.99734479202E+03  0.50400001928E-02 0. -1.
    10030    2    1    2    0    0  0.00000000000E+00  0.00000000000E+00  0.29438648720E+03  0.22890760712E+04  0.22700673682E+04 0.  0.
        1    1    3    3  502    0 -0.71494499148E+03  0.12810490635E+03 -0.73231683526E+03  0.10314286961E+04  0.50400001928E-02 0. -1.
       -1    1    3    3    0  502  0.71494499148E+03 -0.12810490635E+03  0.10267033225E+04  0.12576473752E+04  0.50400001928E-02 0.  1.
</event>
<event>
 5   0  0.4914005E-05  0.2425164E+04  0.7818609E-02  0.8430142E-01
       -2   -1    0    0    0  501  0.00000000000E+00  0.00000000000E+00  0.20325932994E+04  0.20325932994E+04  0.25500000920E-02 0. -1.
        2   -1    0    0  501    0  0.00000000000E+00  0.00000000000E+00 -0.72338867791E+03  0.72338867792E+03  0.25500000920E-02 0.  1.
    10030    2    1    2    0    0  0.00000000000E+00  0.00000000000E+00  0.13092046214E+04  0.27559819773E+04  0.24251638951E+04 0.  0.
        2    1    3    3  502    0 -0.12672889023E+03 -0.89593813917E+03  0.15719254685E+04  0.18137571611E+04  0.25500000920E-02 0. -1.
       -2    1    3    3    0  502  0.12672889023E+03  0.89593813917E+03 -0.26272084702E+03  0.94222481623E+03  0.25500000920E-02 0.  1.
</event>
<event>
 5   0  0.2057599E-05  0.2401775E+04  0.7818609E-02  0.8438840E-01
        1   -1    0    0  501    0  0.00000000000E+00  0.00000000000E+00  0.14958922648E+04  0.14958922649E+04  0.50400001928E-02 0.  1.
       -1   -1    0    0    0  501  0.00000000000E+00  0.00000000000E+00 -0.96406021795E+03  0.96406021797E+03  0.50400001928E-02 0. -1.
    10030    2    1    2    0    0  0.00000000000E+00  0.00000000000E+00  0.53183204689E+03  0.24599524828E+04  0.24017745297E+04 0.  0.
        4    1    3    3  502    0  0.55024599700E+02 -0.11858404417E+04  0.45164621760E+03  0.12701303785E+04  0.12699999809E+01 0.  1.
       -4    1    3    3    0  502 -0.55024599700E+02  0.11858404417E+04  0.80185829297E+02  0.11898221043E+04  0.12699999809E+01 0. -1.
</event>
<event>
 5   0  0.2090039E-05  0.2356160E+04  0.7818609E-02  0.8456101E-01
        1   -1    0    0  501    0  0.00000000000E+00  0.00000000000E+00  0.16933241890E+04  0.16933241890E+04  0.50400001928E-02 0. -1.
       -1   -1    0    0    0  501  0.00000000000E+00  0.00000000000E+00 -0.81961431355E+03  0.81961431357E+03  0.50400001928E-02 0.  1.
    10030    2    1    2    0    0  0.00000000000E+00  0.00000000000E+00  0.87370987544E+03  0.25129385026E+04  0.23561602176E+04 0.  0.
        1    1    3    3  502    0  0.98171945599E+03 -0.50804797336E+03  0.23307456150E+01  0.11053919060E+04  0.50400001928E-02 0.  1.
       -1    1    3    3    0  502 -0.98171945599E+03  0.50804797336E+03  0.87137912982E+03  0.14075465965E+04  0.50400001928E-02 0. -1.
</event>
<event>
 5   0  0.2139556E-05  0.2395374E+04  0.7818609E-02  0.8441237E-01
       -1   -1    0    0    0  501  0.00000000000E+00  0.00000000000E+00  0.75114652104E+03  0.75114652106E+03  0.50400001928E-02 0. -1.
        1   -1    0    0  501    0  0.00000000000E+00  0.00000000000E+00 -0.19096862793E+04  0.19096862793E+04  0.50400001928E-02 0.  1.
    10030    2    1    2    0    0  0.00000000000E+00  0.00000000000E+00 -0.11585397582E+04  0.26608328003E+04  0.23953740459E+04 0.  0.
        2    1    3    3  502    0  0.50270113368E+03 -0.10832212576E+04 -0.68094179455E+03  0.13746848549E+04  0.25500000920E-02 0. -1.
       -2    1    3    3    0  502 -0.50270113368E+03  0.10832212576E+04 -0.47759796367E+03  0.12861479454E+04  0.25500000920E-02 0.  1.
</event>
<event>
 5   0  0.2065692E-05  0.2338166E+04  0.7818609E-02  0.8463023E-01
       -1   -1    0    0    0  501  0.00000000000E+00  0.00000000000E+00  0.81824417020E+03  0.81824417021E+03  0.50400001928E-02 0. -1.
        1   -1    0    0  501    0  0.00000000000E+00  0.00000000000E+00 -0.16703515911E+04  0.16703515911E+04  0.50400001928E-02 0.  1.
    10030    2    1    2    0    0  0.00000000000E+00  0.00000000000E+00 -0.85210742089E+03  0.24885957613E+04  0.23381663342E+04 0.  0.
        3    1    3    3  502    0  0.83156744065E+03 -0.74143405632E+03 -0.48962169310E+02  0.11151798834E+04  0.10100000352E+00 0. -1.
       -3    1    3    3    0  502 -0.83156744065E+03  0.74143405632E+03 -0.80314525158E+03  0.13734158779E+04  0.10100000352E+00 0.  1.
</event>
<event>
 5   0  0.4664127E-05  0.2410376E+04  0.7818609E-02  0.8435629E-01
       -2   -1    0    0    0  501  0.00000000000E+00  0.00000000000E+00  0.70578028964E+03  0.70578028965E+03  0.25500000920E-02 0. -1.
        2   -1    0    0  501    0  0.00000000000E+00  0.00000000000E+00 -0.20579744358E+04  0.20579744358E+04  0.25500000920E-02 0.  1.
    10030    2    1    2    0    0  0.00000000000E+00  0.00000000000E+00 -0.13521941462E+04  0.27637547255E+04  0.24103757329E+04 0.  0.
        4    1    3    3  502    0  0.33368468429E+03  0.24338853234E+03  0.62209990791E+03  0.74672173835E+03  0.12699999809E+01 0. -1.
       -4    1    3    3    0  502 -0.33368468429E+03 -0.24338853234E+03 -0.19742940541E+04  0.20170329871E+04  0.12699999809E+01 0.  1.
</event>
<event>
 5   0  0.4664127E-05  0.2361206E+04  0.7818609E-02  0.8454172E-01
       -2   -1    0    0    0  501  0.00000000000E+00  0.00000000000E+00  0.11887450602E+04  0.11887450602E+04  0.25500000920E-02 0. -1.
        2   -1    0    0  501    0  0.00000000000E+00  0.00000000000E+00 -0.11725170312E+04  0.11725170312E+04  0.25500000920E-02 0.  1.
    10030    2    1    2    0    0  0.00000000000E+00  0.00000000000E+00  0.16228029026E+02  0.23612620914E+04  0.23612063263E+04 0.  0.
        4    1    3    3  502    0 -0.11341678214E+04 -0.31611317021E+03  0.95053012381E+02  0.11812285434E+04  0.12699999809E+01 0. -1.
       -4    1    3    3    0  502  0.11341678214E+04  0.31611317021E+03 -0.78824983355E+02  0.11800335480E+04  0.12699999809E+01 0.  1.
</event>
<event>
 5   0  0.2139556E-05  0.2332089E+04  0.7818609E-02  0.8465375E-01
        1   -1    0    0  501    0  0.00000000000E+00  0.00000000000E+00  0.12474995991E+04  0.12474995991E+04  0.50400001928E-02 0. -1.
       -1   -1    0    0    0  501  0.00000000000E+00  0.00000000000E+00 -0.10899082146E+04  0.10899082146E+04  0.50400001928E-02 0.  1.
    10030    2    1    2    0    0  0.00000000000E+00  0.00000000000E+00  0.15759138447E+03  0.23374078138E+04  0.23320892443E+04 0.  0.
        2    1    3    3  502    0  0.11020034349E+04 -0.35558760783E+03  0.21624320614E+03  0.11779708152E+04  0.25500000920E-02 0. -1.
       -2    1    3    3    0  502 -0.11020034349E+04  0.35558760783E+03 -0.58651821662E+02  0.11594369985E+04  0.25500000920E-02 0.  1.
</event>
<event>
 5   0  0.4664127E-05  0.2405874E+04  0.7818609E-02  0.8437308E-01
       -2   -1    0    0    0  501  0.00000000000E+00  0.00000000000E+00  0.78052416893E+03  0.78052416893E+03  0.25500000920E-02 0.  1.
        2   -1    0    0  501    0  0.00000000000E+00  0.00000000000E+00 -0.18539555238E+04  0.18539555238E+04  0.25500000920E-02 0. -1.
    10030    2    1    2    0    0  0.00000000000E+00  0.00000000000E+00 -0.10734313549E+04  0.26344796928E+04  0.24058737244E+04 0.  0.
        4    1    3    3  502    0 -0.47565158650E+03  0.98660822319E+03 -0.10813879542E+04  0.15391691714E+04  0.12699999809E+01 0. -1.
       -4    1    3    3    0  502  0.47565158650E+03 -0.98660822319E+03  0.79565992986E+01  0.10953105214E+04  0.12699999809E+01 0.  1.
</event>
<event>
 5   0  0.4856882E-05  0.2433696E+04  0.7818609E-02  0.8426995E-01
       -2   -1    0    0    0  501  0.00000000000E+00  0.00000000000E+00  0.14982556440E+04  0.14982556440E+04  0.25500000920E-02 0.  1.
        2   -1    0    0  501    0  0.00000000000E+00  0.00000000000E+00 -0.98829549909E+03  0.98829549909E+03  0.25500000920E-02 0. -1.
    10030    2    1    2    0    0  0.00000000000E+00  0.00000000000E+00  0.50996014491E+03  0.24865511431E+04  0.24336962090E+04 0.  0.
        1    1    3    3  502    0 -0.11972317241E+04  0.30754670433E+01  0.47729719141E+03  0.12888699968E+04  0.50400001928E-02 0.  1.
       -1    1    3    3    0  502  0.11972317241E+04 -0.30754670433E+01  0.32662953499E+02  0.11976811463E+04  0.50400001928E-02 0. -1.
</event>
<event>
 5   0  0.4664127E-05  0.2465555E+04  0.7818609E-02  0.8415360E-01
        2   -1    0    0  501    0  0.00000000000E+00  0.00000000000E+00  0.10801798980E+04  0.10801798980E+04  0.25500000920E-02 0. -1.
       -2   -1    0    0    0  501  0.00000000000E+00  0.00000000000E+00 -0.14069329856E+04  0.14069329856E+04  0.25500000920E-02 0.  1.
    10030    2    1    2    0    0  0.00000000000E+00  0.00000000000E+00 -0.32675308760E+03  0.24871128837E+04  0.24655552956E+04 0.  0.
        4    1    3    3  502    0 -0.48919174530E+03  0.10962790404E+04  0.11943674249E+03  0.12064008647E+04  0.12699999809E+01 0. -1.
       -4    1    3    3    0  502  0.48919174530E+03 -0.10962790404E+04 -0.44618983010E+03  0.12807120189E+04  0.12699999809E+01 0.  1.
</event>
<event>
 5   0  0.2065692E-05  0.2118636E+04  0.7818609E-02  0.8553078E-01
        1   -1    0    0  501    0  0.00000000000E+00  0.00000000000E+00  0.17830645925E+04  0.17830645925E+04  0.50400001928E-02 0. -1.
       -1   -1    0    0    0  501  0.00000000000E+00  0.00000000000E+00 -0.62934039017E+03  0.62934039019E+03  0.50400001928E-02 0.  1.
    10030    2    1    2    0    0  0.00000000000E+00  0.00000000000E+00  0.11537242024E+04  0.24124049827E+04  0.21186359446E+04 0.  0.
        3    1    3    3  502    0  0.68435139236E+03 -0.22491347943E+03 -0.30751185009E+03  0.78325375811E+03  0.10100000352E+00 0.  1.
       -3    1    3    3    0  502 -0.68435139236E+03  0.22491347943E+03  0.14612360525E+04  0.16291512246E+04  0.10100000352E+00 0. -1.
</event>
<event>
 5   0  0.4713971E-05  0.2676200E+04  0.7818609E-02  0.8342769E-01
       -2   -1    0    0    0  501  0.00000000000E+00  0.00000000000E+00  0.10131093605E+04  0.10131093605E+04  0.25500000920E-02 0. -1.
        2   -1    0    0  501    0  0.00000000000E+00  0.00000000000E+00 -0.17673430577E+04  0.17673430577E+04  0.25500000920E-02 0.  1.
    10030    2    1    2    0    0  0.00000000000E+00  0.00000000000E+00 -0.75423369717E+03  0.27804524182E+04  0.26762001382E+04 0.  0.
        5    1    3    3  502    0  0.12595350510E+04 -0.11355421285E+03  0.77141468765E+02  0.12670027625E+04  0.46999998093E+01 0. -1.
       -5    1    3    3    0  502 -0.12595350510E+04  0.11355421285E+03 -0.83137516593E+03  0.15134496557E+04  0.46999998093E+01 0.  1.
</event>
<event>
 5   0  0.2065692E-05  0.2409251E+04  0.7818609E-02  0.8436048E-01
       -1   -1    0    0    0  501  0.00000000000E+00  0.00000000000E+00  0.12245313514E+04  0.12245313514E+04  0.50400001928E-02 0.  1.
        1   -1    0    0  501    0  0.00000000000E+00  0.00000000000E+00 -0.11850432163E+04  0.11850432164E+04  0.50400001928E-02 0. -1.
    10030    2    1    2    0    0  0.00000000000E+00  0.00000000000E+00  0.39488135040E+02  0.24095745678E+04  0.24092509800E+04 0.  0.
        3    1    3    3  502    0 -0.15769575704E+03 -0.28772646835E+02  0.12138167911E+04  0.12243557611E+04  0.10100000352E+00 0.  1.
       -3    1    3    3    0  502  0.15769575704E+03  0.28772646835E+02 -0.11743286561E+04  0.11852188067E+04  0.10100000352E+00 0. -1.
</event>
<event>
 5   0  0.2065692E-05  0.1810753E+04  0.7818609E-02  0.8700602E-01
       -1   -1    0    0    0  501  0.00000000000E+00  0.00000000000E+00  0.11950724815E+04  0.11950724815E+04  0.50400001928E-02 0. -1.
        1   -1    0    0  501    0  0.00000000000E+00  0.00000000000E+00 -0.68590502743E+03  0.68590502745E+03  0.50400001928E-02 0.  1.
    10030    2    1    2    0    0  0.00000000000E+00  0.00000000000E+00  0.50916745408E+03  0.18809775090E+04  0.18107525764E+04 0.  0.
        3    1    3    3  502    0  0.89779190933E+03 -0.65130438976E+02  0.35547898034E+03  0.96780039378E+03  0.10100000352E+00 0.  1.
       -3    1    3    3    0  502 -0.89779190933E+03  0.65130438976E+02  0.15368847373E+03  0.91317711519E+03  0.10100000352E+00 0. -1.
</event>
<event>
 5   0  0.4756705E-05  0.2387691E+04  0.7818609E-02  0.8444126E-01
        2   -1    0    0  501    0  0.00000000000E+00  0.00000000000E+00  0.26438350191E+04  0.26438350191E+04  0.25500000920E-02 0.  1.
       -2   -1    0    0    0  501  0.00000000000E+00  0.00000000000E+00 -0.53909075548E+03  0.53909075549E+03  0.25500000920E-02 0. -1.
    10030    2    1    2    0    0  0.00000000000E+00  0.00000000000E+00  0.21047442636E+04  0.31829257746E+04  0.23876909497E+04 0.  0.
        3    1    3    3  502    0 -0.58608995731E+03  0.23553228033E+03  0.24028375595E+04  0.24844728295E+04  0.10100000352E+00 0.  1.
       -3    1    3    3    0  502  0.58608995731E+03 -0.23553228033E+03 -0.29809329592E+03  0.69845294502E+03  0.10100000352E+00 0. -1.
</event>
<event>
 5   0  0.2090039E-05  0.2394742E+04  0.7818609E-02  0.8441475E-01
        1   -1    0    0  501    0  0.00000000000E+00  0.00000000000E+00  0.16867040783E+04  0.16867040784E+04  0.50400001928E-02 0. -1.
       -1   -1    0    0    0  501  0.00000000000E+00  0.00000000000E+00 -0.84999929283E+03  0.84999929284E+03  0.50400001928E-02 0.  1.
    10030    2    1    2    0    0  0.00000000000E+00  0.00000000000E+00  0.83670478551E+03  0.25367033712E+04  0.23947419684E+04 0.  0.
        1    1    3    3  502    0 -0.11138302515E+04  0.36429647749E+03  0.15808927248E+03  0.11825066472E+04  0.50400001928E-02 0. -1.
       -1    1    3    3    0  502  0.11138302515E+04 -0.36429647749E+03  0.67861551304E+03  0.13541967240E+04  0.50400001928E-02 0.  1.
</event>
<event>
 5   0  0.2057599E-05  0.2376742E+04  0.7818609E-02  0.8448263E-01
       -1   -1    0    0    0  501  0.00000000000E+00  0.00000000000E+00  0.98265428189E+03  0.98265428191E+03  0.50400001928E-02 0.  1.
        1   -1    0    0  501    0  0.00000000000E+00  0.00000000000E+00 -0.14371537711E+04  0.14371537711E+04  0.50400001928E-02 0. -1.
    10030    2    1    2    0    0  0.00000000000E+00  0.00000000000E+00 -0.45449948920E+03  0.24198080530E+04  0.23767417251E+04 0.  0.
        4    1    3    3  502    0 -0.10819813169E+04  0.11928905888E+03 -0.71265942325E+03  0.13010759072E+04  0.12699999809E+01 0. -1.
       -4    1    3    3    0  502  0.10819813169E+04 -0.11928905888E+03  0.25815993405E+03  0.11187321459E+04  0.12699999809E+01 0.  1.
</event>
<event>
 5   0  0.2149920E-05  0.2190242E+04  0.7818609E-02  0.8522501E-01
        1   -1    0    0  501    0  0.00000000000E+00  0.00000000000E+00  0.11675252520E+04  0.11675252520E+04  0.50400001928E-02 0. -1.
       -1   -1    0    0    0  501  0.00000000000E+00  0.00000000000E+00 -0.10272069005E+04  0.10272069005E+04  0.50400001928E-02 0.  1.
    10030    2    1    2    0    0  0.00000000000E+00  0.00000000000E+00  0.14031835150E+03  0.21947321525E+04  0.21902419915E+04 0.  0.
        5    1    3    3  502    0 -0.38434875533E+03  0.41032149979E+03 -0.87154411623E+03  0.10371590695E+04  0.46999998093E+01 0.  1.
       -5    1    3    3    0  502  0.38434875533E+03 -0.41032149979E+03  0.10118624677E+04  0.11575730830E+04  0.46999998093E+01 0. -1.
</event>
<event>
 5   0  0.2057599E-05  0.2378745E+04  0.7818609E-02  0.8447504E-01
       -1   -1    0    0    0  501  0.00000000000E+00  0.00000000000E+00  0.10580563896E+04  0.10580563896E+04  0.50400001928E-02 0. -1.
        1   -1    0    0  501    0  0.00000000000E+00  0.00000000000E+00 -0.13369861805E+04  0.13369861805E+04  0.50400001928E-02 0.  1.
    10030    2    1    2    0    0  0.00000000000E+00  0.00000000000E+00 -0.27892979085E+03  0.23950425701E+04  0.23787448548E+04 0.  0.
        4    1    3    3  502    0  0.16102657668E+03 -0.46856475139E+03 -0.12281327930E+04  0.13243089726E+04  0.12699999809E+01 0.  1.
       -4    1    3    3    0  502 -0.16102657668E+03  0.46856475139E+03  0.94920300218E+03  0.10707335975E+04  0.12699999809E+01 0. -1.
</event>
<event>
 5   0  0.2090039E-05  0.2415243E+04  0.7818609E-02  0.8433819E-01
        1   -1    0    0  501    0  0.00000000000E+00  0.00000000000E+00  0.10075312152E+04  0.10075312152E+04  0.50400001928E-02 0.  1.
       -1   -1    0    0    0  501  0.00000000000E+00  0.00000000000E+00 -0.14474490164E+04  0.14474490164E+04  0.50400001928E-02 0. -1.
    10030    2    1    2    0    0  0.00000000000E+00  0.00000000000E+00 -0.43991780112E+03  0.24549802316E+04  0.24152433140E+04 0.  0.
        1    1    3    3  502    0  0.71720248730E+03 -0.73044599372E+02  0.76481270197E+03  0.10510249238E+04  0.50400001928E-02 0.  1.
       -1    1    3    3    0  502 -0.71720248730E+03  0.73044599372E+02 -0.12047305031E+04  0.14039553078E+04  0.50400001928E-02 0. -1.
</event>
<event>
 5   0  0.4664127E-05  0.2414023E+04  0.7818609E-02  0.8434272E-01
        2   -1    0    0  501    0  0.00000000000E+00  0.00000000000E+00  0.13865182498E+04  0.13865182498E+04  0.25500000920E-02 0. -1.
       -2   -1    0    0    0  501  0.00000000000E+00  0.00000000000E+00 -0.10507451270E+04  0.10507451270E+04  0.25500000920E-02 0.  1.
    10030    2    1    2    0    0  0.00000000000E+00  0.00000000000E+00  0.33577312288E+03  0.24372633768E+04  0.24140234419E+04 0.  0.
        4    1    3    3  502    0 -0.13490891373E+03  0.77743895359E+03 -0.75428710354E+03  0.10915870964E+04  0.12699999809E+01 0.  1.
       -4    1    3    3    0  502  0.13490891373E+03 -0.77743895359E+03  0.10900602264E+04  0.13456762804E+04  0.12699999809E+01 0. -1.
</event>
<event>
 5   0  0.2057599E-05  0.2423115E+04  0.7818609E-02  0.8430900E-01
        1   -1    0    0  501    0  0.00000000000E+00  0.00000000000E+00  0.15525711584E+04  0.15525711584E+04  0.50400001928E-02 0.  1.
       -1   -1    0    0    0  501  0.00000000000E+00  0.00000000000E+00 -0.94544566877E+03  0.94544566878E+03  0.50400001928E-02 0. -1.
    10030    2    1    2    0    0  0.00000000000E+00  0.00000000000E+00  0.60712548963E+03  0.24980168272E+04  0.24231150837E+04 0.  0.
        4    1    3    3  502    0 -0.10113047462E+04  0.87516460633E+02 -0.37830047544E+03  0.10832863348E+04  0.12699999809E+01 0. -1.
       -4    1    3    3    0  502  0.10113047462E+04 -0.87516460633E+02  0.98542596507E+03  0.14147304924E+04  0.12699999809E+01 0.  1.
</event>
<event>
 5   0  0.2090039E-05  0.2392876E+04  0.7818609E-02  0.8442176E-01
       -1   -1    0    0    0  501  0.00000000000E+00  0.00000000000E+00  0.92820910907E+03  0.92820910908E+03  0.50400001928E-02 0.  1.
        1   -1    0    0  501    0  0.00000000000E+00  0.00000000000E+00 -0.15421778270E+04  0.15421778270E+04  0.50400001928E-02 0. -1.
    10030    2    1    2    0    0  0.00000000000E+00  0.00000000000E+00 -0.61396871792E+03  0.24703869361E+04  0.23928756816E+04 0.  0.
        1    1    3    3  502    0 -0.66329005492E+03  0.31185246869E+03 -0.12832684806E+04  0.14778307253E+04  0.50400001928E-02 0. -1.
       -1    1    3    3    0  502  0.66329005492E+03 -0.31185246869E+03  0.66929976272E+03  0.99255621079E+03  0.50400001928E-02 0.  1.
</event>
<event>
 5   0  0.2065692E-05  0.2352666E+04  0.7818609E-02  0.8457440E-01
        1   -1    0    0  501    0  0.00000000000E+00  0.00000000000E+00  0.15187242349E+04  0.15187242349E+04  0.50400001928E-02 0.  1.
       -1   -1    0    0    0  501  0.00000000000E+00  0.00000000000E+00 -0.91113260287E+03  0.91113260289E+03  0.50400001928E-02 0. -1.
    10030    2    1    2    0    0  0.00000000000E+00  0.00000000000E+00  0.60759163206E+03  0.24298568378E+04  0.23526658626E+04 0.  0.
        3    1    3    3  502    0 -0.46923588141E+03  0.70562348083E+03 -0.53886091350E+03  0.10042200473E+04  0.10100000352E+00 0. -1.
       -3    1    3    3    0  502  0.46923588141E+03 -0.70562348083E+03  0.11464525456E+04  0.14256367905E+04  0.10100000352E+00 0.  1.
</event>
<event>
 5   0  0.2065692E-05  0.2364852E+04  0.7818609E-02  0.8452781E-01
       -1   -1    0    0    0  501  0.00000000000E+00  0.00000000000E+00  0.82582676588E+03  0.82582676589E+03  0.50400001928E-02 0. -1.
        1   -1    0    0  501    0  0.00000000000E+00  0.00000000000E+00 -0.16930080951E+04  0.16930080951E+04  0.50400001928E-02 0.  1.
    10030    2    1    2    0    0  0.00000000000E+00  0.00000000000E+00 -0.86718132925E+03  0.25188348610E+04  0.23648521305E+04 0.  0.
        3    1    3    3  502    0 -0.85164338520E+03 -0.68352245322E+03 -0.91658389557E+03  0.14257017386E+04  0.10100000352E+00 0. -1.
       -3    1    3    3    0  502  0.85164338520E+03  0.68352245322E+03  0.49402566313E+02  0.10931331224E+04  0.10100000352E+00 0.  1.
</event>
<event>
 5   0  0.4664127E-05  0.2402519E+04  0.7818609E-02  0.8438561E-01
       -2   -1    0    0    0  501  0.00000000000E+00  0.00000000000E+00  0.15846120568E+04  0.15846120568E+04  0.25500000920E-02 0.  1.
        2   -1    0    0  501    0  0.00000000000E+00  0.00000000000E+00 -0.91064826757E+03  0.91064826758E+03  0.25500000920E-02 0. -1.
    10030    2    1    2    0    0  0.00000000000E+00  0.00000000000E+00  0.67396378919E+03  0.24952603243E+04  0.24025188651E+04 0.  0.
        4    1    3    3  502    0  0.24657453469E+03  0.77564276334E+03 -0.58064019692E+03  0.99978265071E+03  0.12699999809E+01 0. -1.
       -4    1    3    3    0  502 -0.24657453469E+03 -0.77564276334E+03  0.12546039861E+04  0.14954776736E+04  0.12699999809E+01 0.  1.
</event>
<event>
 5   0  0.2139556E-05  0.2389997E+04  0.7818609E-02  0.8443258E-01
       -1   -1    0    0    0  501  0.00000000000E+00  0.00000000000E+00  0.24451643238E+04  0.24451643238E+04  0.50400001928E-02 0. -1.
        1   -1    0    0  501    0  0.00000000000E+00  0.00000000000E+00 -0.58401880964E+03  0.58401880966E+03  0.50400001928E-02 0.  1.
    10030    2    1    2    0    0  0.00000000000E+00  0.00000000000E+00  0.18611455142E+04  0.30291831335E+04  0.23899974542E+04 0.  0.
        2    1    3    3  502    0  0.96515168452E+03 -0.58947976060E+03  0.14198411476E+04  0.18152005528E+04  0.25500000920E-02 0. -1.
       -2    1    3    3    0  502 -0.96515168452E+03  0.58947976060E+03  0.44130436652E+03  0.12139825807E+04  0.25500000920E-02 0.  1.
</event>
<event>
 5   0  0.2057599E-05  0.2353589E+04  0.7818609E-02  0.8457086E-01
        1   -1    0    0  501    0  0.00000000000E+00  0.00000000000E+00  0.13384806899E+04  0.13384806899E+04  0.50400001928E-02 0. -1.
       -1   -1    0    0    0  501  0.00000000000E+00  0.00000000000E+00 -0.10346400849E+04  0.10346400849E+04  0.50400001928E-02 0.  1.
    10030    2    1    2    0    0  0.00000000000E+00  0.00000000000E+00  0.30384060505E+03  0.23731207748E+04  0.23535894074E+04 0.  0.
        4    1    3    3  502    0 -0.76950628573E+03  0.58247076916E+03 -0.52704134540E+03  0.10996300802E+04  0.12699999809E+01 0.  1.
       -4    1    3    3    0  502  0.76950628573E+03 -0.58247076916E+03  0.83088195046E+03  0.12734906946E+04  0.12699999809E+01 0. -1.
</event>
<event>
 5   0  0.4664127E-05  0.2410092E+04  0.7818609E-02  0.8435735E-01
        2   -1    0    0  501    0  0.00000000000E+00  0.00000000000E+00  0.10830796325E+04  0.10830796325E+04  0.25500000920E-02 0. -1.
       -2   -1    0    0    0  501  0.00000000000E+00  0.00000000000E+00 -0.13407473893E+04  0.13407473894E+04  0.25500000920E-02 0.  1.
    10030    2    1    2    0    0  0.00000000000E+00  0.00000000000E+00 -0.25766775687E+03  0.24238270218E+04  0.24100922719E+04 0.  0.
        4    1    3    3  502    0 -0.63863846734E+03 -0.10071087439E+04 -0.30304769316E+03  0.12304335136E+04  0.12699999809E+01 0. -1.
       -4    1    3    3    0  502  0.63863846734E+03  0.10071087439E+04  0.45379936290E+02  0.11933935083E+04  0.12699999809E+01 0.  1.
</event>
<event>
 5   0  0.4713971E-05  0.2387110E+04  0.7818609E-02  0.8444345E-01
       -2   -1    0    0    0  501  0.00000000000E+00  0.00000000000E+00  0.54604993295E+03  0.54604993295E+03  0.25500000920E-02 0. -1.
        2   -1    0    0  501    0  0.00000000000E+00  0.00000000000E+00 -0.26088703321E+04  0.26088703321E+04  0.25500000920E-02 0.  1.
    10030    2    1    2    0    0  0.00000000000E+00  0.00000000000E+00 -0.20628203992E+04  0.31549202651E+04  0.23871099429E+04 0.  0.
        5    1    3    3  502    0  0.60554985596E+03 -0.80217003528E+02 -0.23866162091E+04  0.24635511797E+04  0.46999998093E+01 0.  1.
       -5    1    3    3    0  502 -0.60554985596E+03  0.80217003528E+02  0.32379580988E+03  0.69136908537E+03  0.46999998093E+01 0. -1.
</event>
<event>
 5   0  0.2057599E-05  0.2394299E+04  0.7818609E-02  0.8441641E-01
       -1   -1    0    0    0  501  0.00000000000E+00  0.00000000000E+00  0.11429758341E+04  0.11429758341E+04  0.50400001928E-02 0. -1.
        1   -1    0    0  501    0  0.00000000000E+00  0.00000000000E+00 -0.12538905433E+04  0.12538905434E+04  0.50400001928E-02 0.  1.
    10030    2    1    2    0    0  0.00000000000E+00  0.00000000000E+00 -0.11091470924E+03  0.23968663775E+04  0.23942987196E+04 0.  0.
        4    1    3    3  502    0  0.66861006784E+03 -0.36692664372E+03  0.86829459066E+03  0.11556866763E+04  0.12699999809E+01 0. -1.
       -4    1    3    3    0  502 -0.66861006784E+03  0.36692664372E+03 -0.97920929991E+03  0.12411797012E+04  0.12699999809E+01 0.  1.
</event>
<event>
 5   0  0.4664127E-05  0.2368739E+04  0.7818609E-02  0.8451301E-01
       -2   -1    0    0    0  501  0.00000000000E+00  0.00000000000E+00  0.65745630473E+03  0.65745630474E+03  0.25500000920E-02 0.  1.
        2   -1    0    0  501    0  0.00000000000E+00  0.00000000000E+00 -0.21335731136E+04  0.21335731136E+04  0.25500000920E-02 0. -1.
    10030    2    1    2    0    0  0.00000000000E+00  0.00000000000E+00 -0.14761168089E+04  0.27910294183E+04  0.23687389853E+04 0.  0.
        4    1    3    3  502    0 -0.78404533917E+03 -0.16749078074E+03 -0.17652217070E+04  0.19387597952E+04  0.12699999809E+01 0. -1.
       -4    1    3    3    0  502  0.78404533917E+03  0.16749078074E+03  0.28910489817E+03  0.85226962316E+03  0.12699999809E+01 0.  1.
</event>
<event>
 5   0  0.4756705E-05  0.2461528E+04  0.7818609E-02  0.8416821E-01
       -2   -1    0    0    0  501  0.00000000000E+00  0.00000000000E+00  0.47252406146E+03  0.47252406147E+03  0.25500000920E-02 0. -1.
        2   -1    0    0  501    0  0.00000000000E+00  0.00000000000E+00 -0.32057210705E+04  0.32057210705E+04  0.25500000920E-02 0.  1.
    10030    2    1    2    0    0  0.00000000000E+00  0.00000000000E+00 -0.27331970090E+04  0.36782451319E+04  0.24615282571E+04 0.  0.
        3    1    3    3  502    0 -0.90916216181E+03  0.82303016433E+03 -0.12111213131E+04  0.17235919857E+04  0.10100000352E+00 0. -1.
       -3    1    3    3    0  502  0.90916216181E+03 -0.82303016433E+03 -0.15220756959E+04  0.19546531462E+04  0.10100000352E+00 0.  1.
</event>
<event>
 5   0  0.2149920E-05  0.2432314E+04  0.7818609E-02  0.8427504E-01
       -1   -1    0    0    0  501  0.00000000000E+00  0.00000000000E+00  0.10584985064E+04  0.10584985064E+04  0.50400001928E-02 0. -1.
        1   -1    0    0  501    0  0.00000000000E+00  0.00000000000E+00 -0.13972982166E+04  0.13972982166E+04  0.50400001928E-02 0.  1.
    10030    2    1    2    0    0  0.00000000000E+00  0.00000000000E+00 -0.33879971014E+03  0.24557967230E+04  0.24323141864E+04 0.  0.
        5    1    3    3  502    0  0.29079326850E+03  0.11691290243E+04 -0.33711370822E+03  0.12510360277E+04  0.46999998093E+01 0.  1.
       -5    1    3    3    0  502 -0.29079326850E+03 -0.11691290243E+04 -0.16860019170E+01  0.12047606953E+04  0.46999998093E+01 0. -1.
</event>
<event>
 5   0  0.4914005E-05  0.2047662E+04  0.7818609E-02  0.8584656E-01
        2   -1    0    0  501    0  0.00000000000E+00  0.00000000000E+00  0.55291582256E+03  0.55291582256E+03  0.25500000920E-02 0.  1.
       -2   -1    0    0    0  501  0.00000000000E+00  0.00000000000E+00 -0.18958214280E+04  0.18958214280E+04  0.25500000920E-02 0. -1.
    10030    2    1    2    0    0  0.00000000000E+00  0.00000000000E+00 -0.13429056054E+04  0.24487372505E+04  0.20476617536E+04 0.  0.
        2    1    3    3  502    0  0.14479937043E+03 -0.84350315456E+03 -0.13434479330E+04  0.15928957211E+04  0.25500000920E-02 0. -1.
       -2    1    3    3    0  502 -0.14479937043E+03  0.84350315456E+03  0.54232762199E+00  0.85584152947E+03  0.25500000920E-02 0.  1.
</event>
<event>
 5   0  0.2149920E-05  0.2314155E+04  0.7818609E-02  0.8472361E-01
        1   -1    0    0  501    0  0.00000000000E+00  0.00000000000E+00  0.10646257695E+04  0.10646257695E+04  0.50400001928E-02 0. -1.
       -1   -1    0    0    0  501  0.00000000000E+00  0.00000000000E+00 -0.12575576787E+04  0.12575576787E+04  0.50400001928E-02 0.  1.
    10030    2    1    2    0    0  0.00000000000E+00  0.00000000000E+00 -0.19293190918E+03  0.23221834482E+04  0.23141549744E+04 0.  0.
        5    1    3    3  502    0 -0.17956261094E+03  0.72568773871E+03 -0.98267240028E+03  0.12347196288E+04  0.46999998093E+01 0.  1.
       -5    1    3    3    0  502  0.17956261094E+03 -0.72568773871E+03  0.78974049110E+03  0.10874638195E+04  0.46999998093E+01 0. -1.
</event>
<event>
 5   0  0.4914005E-05  0.2377820E+04  0.7818609E-02  0.8447854E-01
        2   -1    0    0  501    0  0.00000000000E+00  0.00000000000E+00  0.22235601219E+04  0.22235601219E+04  0.25500000920E-02 0.  1.
       -2   -1    0    0    0  501  0.00000000000E+00  0.00000000000E+00 -0.63569552497E+03  0.63569552497E+03  0.25500000920E-02 0. -1.
    10030    2    1    2    0    0  0.00000000000E+00  0.00000000000E+00  0.15878645969E+04  0.28592556468E+04  0.23778201942E+04 0.  0.
        2    1    3    3  502    0  0.22879712479E+03 -0.11219640576E+04  0.40922529293E+03  0.12159838861E+04  0.25500000920E-02 0. -1.
       -2    1    3    3    0  502 -0.22879712479E+03  0.11219640576E+04  0.11786393040E+04  0.16432717608E+04  0.25500000920E-02 0.  1.
</event>
<event>
 5   0  0.2065692E-05  0.2375596E+04  0.7818609E-02  0.8448697E-01
       -1   -1    0    0    0  501  0.00000000000E+00  0.00000000000E+00  0.16093302501E+04  0.16093302501E+04  0.50400001928E-02 0. -1.
        1   -1    0    0  501    0  0.00000000000E+00  0.00000000000E+00 -0.87667814924E+03  0.87667814925E+03  0.50400001928E-02 0.  1.
    10030    2    1    2    0    0  0.00000000000E+00  0.00000000000E+00  0.73265210089E+03  0.24860083994E+04  0.23755964853E+04 0.  0.
        3    1    3    3  502    0 -0.11107497632E+04 -0.34385690650E+03  0.11243488078E+03  0.11681798753E+04  0.10100000352E+00 0. -1.
       -3    1    3    3    0  502  0.11107497632E+04  0.34385690650E+03  0.62021722011E+03  0.13178285241E+04  0.10100000352E+00 0.  1.
</event>
<event>
 5   0  0.4756705E-05  0.2210666E+04  0.7818609E-02  0.8514002E-01
        2   -1    0    0  501    0  0.00000000000E+00  0.00000000000E+00  0.11583714991E+04  0.11583714991E+04  0.25500000920E-02 0. -1.
       -2   -1    0    0    0  501  0.00000000000E+00  0.00000000000E+00 -0.10547234242E+04  0.10547234242E+04  0.25500000920E-02 0.  1.
    10030    2    1    2    0    0  0.00000000000E+00  0.00000000000E+00  0.10364807482E+03  0.22130949233E+04  0.22106664642E+04 0.  0.
        3    1    3    3  502    0  0.98613543892E+03  0.14901254030E+03 -0.42524294982E+03  0.10842045091E+04  0.10100000352E+00 0.  1.
       -3    1    3    3    0  502 -0.98613543892E+03 -0.14901254030E+03  0.52889102464E+03  0.11288904142E+04  0.10100000352E+00 0. -1.
</event>
<event>
 5   0  0.2057599E-05  0.2432828E+04  0.7818609E-02  0.8427315E-01
        1   -1    0    0  501    0  0.00000000000E+00  0.00000000000E+00  0.10519721657E+04  0.10519721657E+04  0.50400001928E-02 0.  1.
       -1   -1    0    0    0  501  0.00000000000E+00  0.00000000000E+00 -0.14065609576E+04  0.14065609576E+04  0.50400001928E-02 0. -1.
    10030    2    1    2    0    0  0.00000000000E+00  0.00000000000E+00 -0.35458879186E+03  0.24585331233E+04  0.24328279650E+04 0.  0.
        4    1    3    3  502    0  0.73687277057E+03 -0.14199119120E+02  0.80064854572E+03  0.10882200153E+04  0.12699999809E+01 0.  1.
       -4    1    3    3    0  502 -0.73687277057E+03  0.14199119120E+02 -0.11552373376E+04  0.13703131080E+04  0.12699999809E+01 0. -1.
</event>
<event>
 5   0  0.2090039E-05  0.2420310E+04  0.7818609E-02  0.8431939E-01
       -1   -1    0    0    0  501  0.00000000000E+00  0.00000000000E+00  0.23571592731E+04  0.23571592731E+04  0.50400001928E-02 0. -1.
        1   -1    0    0  501    0  0.00000000000E+00  0.00000000000E+00 -0.62128819820E+03  0.62128819822E+03  0.50400001928E-02 0.  1.
    10030    2    1    2    0    0  0.00000000000E+00  0.00000000000E+00  0.17358710749E+04  0.29784474713E+04  0.24203100939E+04 0.  0.
        1    1    3    3  502    0  0.21071554823E+02 -0.91761987413E+03  0.18384809673E+04  0.20548680033E+04  0.50400001928E-02 0. -1.
       -1    1    3    3    0  502 -0.21071554823E+02  0.91761987413E+03 -0.10260989235E+03  0.92357946808E+03  0.50400001928E-02 0.  1.
</event>
<event>
 5   0  0.4914005E-05  0.2367099E+04  0.7818609E-02  0.8451925E-01
       -2   -1    0    0    0  501  0.00000000000E+00  0.00000000000E+00  0.13232892064E+04  0.13232892064E+04  0.25500000920E-02 0. -1.
        2   -1    0    0  501    0  0.00000000000E+00  0.00000000000E+00 -0.10585665930E+04  0.10585665930E+04  0.25500000920E-02 0.  1.
    10030    2    1    2    0    0  0.00000000000E+00  0.00000000000E+00  0.26472261338E+03  0.23818557994E+04  0.23670992770E+04 0.  0.
        2    1    3    3  502    0 -0.95098713577E+03  0.70441897878E+03  0.14684257493E+03  0.11925373671E+04  0.25500000920E-02 0.  1.
       -2    1    3    3    0  502  0.95098713577E+03 -0.70441897878E+03  0.11788003845E+03  0.11893184324E+04  0.25500000920E-02 0. -1.
</event>
<event>
 5   0  0.2065692E-05  0.2324864E+04  0.7818609E-02  0.8468182E-01
       -1   -1    0    0    0  501  0.00000000000E+00  0.00000000000E+00  0.67865316457E+03  0.67865316458E+03  0.50400001928E-02 0.  1.
        1   -1    0    0  501    0  0.00000000000E+00  0.00000000000E+00 -0.19910733248E+04  0.19910733248E+04  0.50400001928E-02 0. -1.
    10030    2    1    2    0    0  0.00000000000E+00  0.00000000000E+00 -0.13124201603E+04  0.26697264894E+04  0.23248640500E+04 0.  0.
        3    1    3    3  502    0  0.31614348138E+03 -0.46209891703E+03  0.51360966396E+03  0.75978747492E+03  0.10100000352E+00 0.  1.
       -3    1    3    3    0  502 -0.31614348138E+03  0.46209891703E+03 -0.18260298242E+04  0.19099390145E+04  0.10100000352E+00 0. -1.
</event>
<event>
 5   0  0.4664127E-05  0.2401753E+04  0.7818609E-02  0.8438848E-01
       -2   -1    0    0    0  501  0.00000000000E+00  0.00000000000E+00  0.93043635560E+03  0.93043635560E+03  0.25500000920E-02 0. -1.
        2   -1    0    0  501    0  0.00000000000E+00  0.00000000000E+00 -0.15499221378E+04  0.15499221378E+04  0.25500000920E-02 0.  1.
    10030    2    1    2    0    0  0.00000000000E+00  0.00000000000E+00 -0.61948578216E+03  0.24803584934E+04  0.24017526145E+04 0.  0.
        4    1    3    3  502    0  0.73208218055E+03  0.56540455939E+03 -0.11006239571E+04  0.14377069739E+04  0.12699999809E+01 0.  1.
       -4    1    3    3    0  502 -0.73208218055E+03 -0.56540455939E+03  0.48113817493E+03  0.10426515195E+04  0.12699999809E+01 0. -1.
</event>
<event>
 5   0  0.4756705E-05  0.2417627E+04  0.7818609E-02  0.8432933E-01
        2   -1    0    0  501    0  0.00000000000E+00  0.00000000000E+00  0.13447181960E+04  0.13447181960E+04  0.25500000920E-02 0. -1.
       -2   -1    0    0    0  501  0.00000000000E+00  0.00000000000E+00 -0.10866444808E+04  0.10866444808E+04  0.25500000920E-02 0.  1.
    10030    2    1    2    0    0  0.00000000000E+00  0.00000000000E+00  0.25807371524E+03  0.24313626769E+04  0.24176274370E+04 0.  0.
        3    1    3    3  502    0  0.30439508717E+03  0.35976227546E+03  0.12485301417E+04  0.13345084446E+04  0.10100000352E+00 0. -1.
       -3    1    3    3    0  502 -0.30439508717E+03 -0.35976227546E+03 -0.99045642642E+03  0.10968542322E+04  0.10100000352E+00 0.  1.
</event>
<event>
 5   0  0.4713971E-05  0.2365809E+04  0.7818609E-02  0.8452416E-01
       -2   -1    0    0    0  501  0.00000000000E+00  0.00000000000E+00  0.75154428093E+03  0.75154428093E+03  0.25500000920E-02 0. -1.
        2   -1    0    0  501    0  0.00000000000E+00  0.00000000000E+00 -0.18618507746E+04  0.18618507747E+04  0.25500000920E-02 0.  1.
    10030    2    1    2    0    0  0.00000000000E+00  0.00000000000E+00 -0.11103064937E+04  0.26133950556E+04  0.23658092076E+04 0.  0.
        5    1    3    3  502    0 -0.37326989397E+03  0.25696966621E+03 -0.17621475238E+04  0.18194916347E+04  0.46999998093E+01 0.  1.
       -5    1    3    3    0  502  0.37326989397E+03 -0.25696966621E+03  0.65184103011E+03  0.79390342085E+03  0.46999998093E+01 0. -1.
</event>
<event>
 5   0  0.2057599E-05  0.1833006E+04  0.7818609E-02  0.8688941E-01
       -1   -1    0    0    0  501  0.00000000000E+00  0.00000000000E+00  0.51579522440E+03  0.51579522443E+03  0.50400001928E-02 0.  1.
        1   -1    0    0  501    0  0.00000000000E+00  0.00000000000E+00 -0.16285110162E+04  0.16285110162E+04  0.50400001928E-02 0. -1.
    10030    2    1    2    0    0  0.00000000000E+00  0.00000000000E+00 -0.11127157918E+04  0.21443062406E+04  0.18330064976E+04 0.  0.
        4    1    3    3  502    0 -0.52394806298E+03 -0.27289351657E+03 -0.13760609259E+04  0.14975105104E+04  0.12699999809E+01 0. -1.
       -4    1    3    3    0  502  0.52394806298E+03  0.27289351657E+03  0.26334513410E+03  0.64679573023E+03  0.12699999809E+01 0.  1.
</event>
<event>
 5   0  0.2065692E-05  0.2295315E+04  0.7818609E-02  0.8479771E-01
        1   -1    0    0  501    0  0.00000000000E+00  0.00000000000E+00  0.10819153947E+04  0.10819153947E+04  0.50400001928E-02 0.  1.
       -1   -1    0    0    0  501  0.00000000000E+00  0.00000000000E+00 -0.12173942545E+04  0.12173942545E+04  0.50400001928E-02 0. -1.
    10030    2    1    2    0    0  0.00000000000E+00  0.00000000000E+00 -0.13547885974E+03  0.22993096492E+04  0.22953148676E+04 0.  0.
        3    1    3    3  502    0 -0.90926566035E+03 -0.88260587152E+02 -0.76361641504E+03  0.11906569665E+04  0.10100000352E+00 0. -1.
       -3    1    3    3    0  502  0.90926566035E+03  0.88260587152E+02  0.62813755530E+03  0.11086526827E+04  0.10100000352E+00 0.  1.
</event>
<event>
 5   0  0.2149920E-05  0.2431635E+04  0.7818609E-02  0.8427754E-01
       -1   -1    0    0    0  501  0.00000000000E+00  0.00000000000E+00  0.13581004732E+04  0.13581004732E+04  0.50400001928E-02 0.  1.
        1   -1    0    0  501    0  0.00000000000E+00  0.00000000000E+00 -0.10884407136E+04  0.10884407136E+04  0.50400001928E-02 0. -1.
    10030    2    1    2    0    0  0.00000000000E+00  0.00000000000E+00  0.26965975961E+03  0.24465411868E+04  0.24316347162E+04 0.  0.
        5    1    3    3  502    0 -0.42623242361E+03  0.28235785795E+03 -0.97501418047E+03  0.11009426783E+04  0.46999998093E+01 0. -1.
       -5    1    3    3    0  502  0.42623242361E+03 -0.28235785795E+03  0.12446739401E+04  0.13455985085E+04  0.46999998093E+01 0.  1.
</event>
<event>
 5   0  0.4664127E-05  0.2320839E+04  0.7818609E-02  0.8469750E-01
       -2   -1    0    0    0  501  0.00000000000E+00  0.00000000000E+00  0.11920291816E+04  0.11920291816E+04  0.25500000920E-02 0.  1.
        2   -1    0    0  501    0  0.00000000000E+00  0.00000000000E+00 -0.11296477967E+04  0.11296477967E+04  0.25500000920E-02 0. -1.
    10030    2    1    2    0    0  0.00000000000E+00  0.00000000000E+00  0.62381384848E+02  0.23216769783E+04  0.23208387610E+04 0.  0.
        4    1    3    3  502    0 -0.62225922996E+03  0.33891503538E+03 -0.88810887935E+03  0.11361377315E+04  0.12699999809E+01 0.  1.
       -4    1    3    3    0  502  0.62225922996E+03 -0.33891503538E+03  0.95049026420E+03  0.11855392468E+04  0.12699999809E+01 0. -1.
</event>
<event>
 5   0  0.4856882E-05  0.2403211E+04  0.7818609E-02  0.8438302E-01
       -2   -1    0    0    0  501  0.00000000000E+00  0.00000000000E+00  0.10273333773E+04  0.10273333773E+04  0.25500000920E-02 0.  1.
        2   -1    0    0  501    0  0.00000000000E+00  0.00000000000E+00 -0.14054406891E+04  0.14054406891E+04  0.25500000920E-02 0. -1.
    10030    2    1    2    0    0  0.00000000000E+00  0.00000000000E+00 -0.37810731181E+03  0.24327740664E+04  0.24032112930E+04 0.  0.
        1    1    3    3  502    0 -0.69552488942E+03 -0.47147490701E+03 -0.10585802631E+04  0.13515308481E+04  0.50400001928E-02 0. -1.
       -1    1    3    3    0  502  0.69552488942E+03  0.47147490701E+03  0.68047295133E+03  0.10812432184E+04  0.50400001928E-02 0.  1.
</event>
<event>
 5   0  0.4713971E-05  0.2404439E+04  0.7818609E-02  0.8437843E-01
        2   -1    0    0  501    0  0.00000000000E+00  0.00000000000E+00  0.14050037904E+04  0.14050037904E+04  0.25500000920E-02 0. -1.
       -2   -1    0    0    0  501  0.00000000000E+00  0.00000000000E+00 -0.10287032640E+04  0.10287032640E+04  0.25500000920E-02 0.  1.
    10030    2    1    2    0    0  0.00000000000E+00  0.00000000000E+00  0.37630052637E+03  0.24337070544E+04  0.24044392154E+04 0.  0.
        5    1    3    3  502    0  0.45405444877E+03 -0.54230342534E+03 -0.79582056773E+03  0.10647116575E+04  0.46999998093E+01 0.  1.
       -5    1    3    3    0  502 -0.45405444877E+03  0.54230342534E+03  0.11721210941E+04  0.13689953969E+04  0.46999998093E+01 0. -1.
</event>
<event>
 5   0  0.4664127E-05  0.2449688E+04  0.7818609E-02  0.8421132E-01
        2   -1    0    0  501    0  0.00000000000E+00  0.00000000000E+00  0.13538179245E+04  0.13538179245E+04  0.25500000920E-02 0. -1.
       -2   -1    0    0    0  501  0.00000000000E+00  0.00000000000E+00 -0.11081568408E+04  0.11081568408E+04  0.25500000920E-02 0.  1.
    10030    2    1    2    0    0  0.00000000000E+00  0.00000000000E+00  0.24566108364E+03  0.24619747653E+04  0.24496878121E+04 0.  0.
        4    1    3    3  502    0 -0.78504711061E+02 -0.51749254860E+02 -0.11045236947E+04  0.11085193639E+04  0.12699999809E+01 0.  1.
       -4    1    3    3    0  502  0.78504711061E+02  0.51749254860E+02  0.13501847783E+04  0.13534554014E+04  0.12699999809E+01 0. -1.
</event>
<event>
 5   0  0.4914005E-05  0.2428933E+04  0.7818609E-02  0.8428750E-01
       -2   -1    0    0    0  501  0.00000000000E+00  0.00000000000E+00  0.88185283563E+03  0.88185283563E+03  0.25500000920E-02 0. -1.
        2   -1    0    0  501    0  0.00000000000E+00  0.00000000000E+00 -0.16725335045E+04  0.16725335046E+04  0.25500000920E-02 0.  1.
    10030    2    1    2    0    0  0.00000000000E+00  0.00000000000E+00 -0.79068066892E+03  0.25543863402E+04  0.24289326163E+04 0.  0.
        2    1    3    3  502    0 -0.64948758249E+03 -0.95053018683E+03  0.11400285085E+02  0.11512913282E+04  0.25500000920E-02 0. -1.
       -2    1    3    3    0  502  0.64948758249E+03  0.95053018683E+03 -0.80208095401E+03  0.14030950120E+04  0.25500000920E-02 0.  1.
</event>
<event>
 5   0  0.4713971E-05  0.2412339E+04  0.7818609E-02  0.8434898E-01
        2   -1    0    0  501    0  0.00000000000E+00  0.00000000000E+00  0.16465761786E+04  0.16465761786E+04  0.25500000920E-02 0.  1.
       -2   -1    0    0    0  501  0.00000000000E+00  0.00000000000E+00 -0.88355778455E+03  0.88355778455E+03  0.25500000920E-02 0. -1.
    10030    2    1    2    0    0  0.00000000000E+00  0.00000000000E+00  0.76301839405E+03  0.25301339631E+04  0.24123392800E+04 0.  0.
        5    1    3    3  502    0 -0.11792121076E+04  0.24825962659E+03  0.32752680361E+03  0.12487873854E+04  0.46999998093E+01 0.  1.
       -5    1    3    3    0  502  0.11792121076E+04 -0.24825962659E+03  0.43549159044E+03  0.12813465777E+04  0.46999998093E+01 0. -1.
</event>
<event>
 5   0  0.4713971E-05  0.2416076E+04  0.7818609E-02  0.8433509E-01
        2   -1    0    0  501    0  0.00000000000E+00  0.00000000000E+00  0.81473285548E+03  0.81473285549E+03  0.25500000920E-02 0. -1.
       -2   -1    0    0    0  501  0.00000000000E+00  0.00000000000E+00 -0.17912084886E+04  0.17912084886E+04  0.25500000920E-02 0.  1.
    10030    2    1    2    0    0  0.00000000000E+00  0.00000000000E+00 -0.97647563315E+03  0.26059413441E+04  0.24160764944E+04 0.  0.
        5    1    3    3  502    0  0.67305211926E+03 -0.98865097127E+03 -0.67161110537E+03  0.13716827130E+04  0.46999998093E+01 0. -1.
       -5    1    3    3    0  502 -0.67305211926E+03  0.98865097127E+03 -0.30486452777E+03  0.12342586311E+04  0.46999998093E+01 0.  1.
</event>
<event>
 5   0  0.2139556E-05  0.2383782E+04  0.7818609E-02  0.8445600E-01
       -1   -1    0    0    0  501  0.00000000000E+00  0.00000000000E+00  0.96266367596E+03  0.96266367598E+03  0.50400001928E-02 0.  1.
        1   -1    0    0  501    0  0.00000000000E+00  0.00000000000E+00 -0.14757011456E+04  0.14757011456E+04  0.50400001928E-02 0. -1.
    10030    2    1    2    0    0  0.00000000000E+00  0.00000000000E+00 -0.51303746961E+03  0.24383648216E+04  0.23837817765E+04 0.  0.
        2    1    3    3  502    0  0.10839640915E+04  0.10409894632E+03  0.23912679982E+03  0.11148974700E+04  0.25500000920E-02 0. -1.
       -2    1    3    3    0  502 -0.10839640915E+04 -0.10409894632E+03 -0.75216426944E+03  0.13234673515E+04  0.25500000920E-02 0.  1.
</event>
<event>
 5   0  0.2139556E-05  0.2351403E+04  0.7818609E-02  0.8457925E-01
       -1   -1    0    0    0  501  0.00000000000E+00  0.00000000000E+00  0.97679796394E+03  0.97679796395E+03  0.50400001928E-02 0.  1.
        1   -1    0    0  501    0  0.00000000000E+00  0.00000000000E+00 -0.14151078304E+04  0.14151078304E+04  0.50400001928E-02 0. -1.
    10030    2    1    2    0    0  0.00000000000E+00  0.00000000000E+00 -0.43830986645E+03  0.23919057944E+04  0.23514033661E+04 0.  0.
        2    1    3    3  502    0  0.10272855175E+04 -0.12624675976E+03 -0.78645333594E+03  0.12999087000E+04  0.25500000920E-02 0. -1.
       -2    1    3    3    0  502 -0.10272855175E+04  0.12624675976E+03  0.34814346948E+03  0.10919970944E+04  0.25500000920E-02 0.  1.
</event>
<event>
 5   0  0.1672125E-05  0.2354431E+04  0.7818609E-02  0.8456764E-01
        4   -1    0    0  501    0  0.00000000000E+00  0.00000000000E+00  0.86090530210E+03  0.86090623884E+03  0.12699999809E+01 0.  1.
       -4   -1    0    0    0  501  0.00000000000E+00  0.00000000000E+00 -0.16097407139E+04  0.16097412148E+04  0.12699999809E+01 0. -1.
    10030    2    1    2    0    0  0.00000000000E+00  0.00000000000E+00 -0.74883541175E+03  0.24706474537E+04  0.23544307946E+04 0.  0.
        1    1    3    3  502    0 -0.66100633025E+03 -0.84368391430E+03 -0.88538658560E+03  0.13901947065E+04  0.50400001928E-02 0. -1.
       -1    1    3    3    0  502  0.66100633025E+03  0.84368391430E+03  0.13655117385E+03  0.10804527472E+04  0.50400001928E-02 0.  1.
</event>
<event>
 5   0  0.2149920E-05  0.2405351E+04  0.7818609E-02  0.8437503E-01
       -1   -1    0    0    0  501  0.00000000000E+00  0.00000000000E+00  0.80724914889E+03  0.80724914891E+03  0.50400001928E-02 0. -1.
        1   -1    0    0  501    0  0.00000000000E+00  0.00000000000E+00 -0.17917997518E+04  0.17917997518E+04  0.50400001928E-02 0.  1.
    10030    2    1    2    0    0  0.00000000000E+00  0.00000000000E+00 -0.98455060294E+03  0.25990489007E+04  0.24053513878E+04 0.  0.
        5    1    3    3  502    0  0.50565754822E+03 -0.98699894450E+03  0.10547864340E+02  0.11090490611E+04  0.46999998093E+01 0. -1.
       -5    1    3    3    0  502 -0.50565754822E+03  0.98699894450E+03 -0.99509846728E+03  0.14899998396E+04  0.46999998093E+01 0.  1.
</event>
<event>
 5   0  0.4756705E-05  0.2405529E+04  0.7818609E-02  0.8437437E-01
        2   -1    0    0  501    0  0.00000000000E+00  0.00000000000E+00  0.20801251090E+04  0.20801251090E+04  0.25500000920E-02 0.  1.
       -2   -1    0    0    0  501  0.00000000000E+00  0.00000000000E+00 -0.69545913693E+03  0.69545913693E+03  0.25500000920E-02 0. -1.
    10030    2    1    2    0    0  0.00000000000E+00  0.00000000000E+00  0.13846659720E+04  0.27755842459E+04  0.24055286429E+04 0.  0.
        3    1    3    3  502    0 -0.57322411709E+03 -0.27352794680E+03 -0.48618360350E+03  0.79986119584E+03  0.10100000352E+00 0. -1.
       -3    1    3    3    0  502  0.57322411709E+03  0.27352794680E+03  0.18708495755E+04  0.19757230501E+04  0.10100000352E+00 0.  1.
</event>
<event>
 5   0  0.2090039E-05  0.2411056E+04  0.7818609E-02  0.8435376E-01
        1   -1    0    0  501    0  0.00000000000E+00  0.00000000000E+00  0.14850739455E+04  0.14850739456E+04  0.50400001928E-02 0. -1.
       -1   -1    0    0    0  501  0.00000000000E+00  0.00000000000E+00 -0.97860276215E+03  0.97860276216E+03  0.50400001928E-02 0.  1.
    10030    2    1    2    0    0  0.00000000000E+00  0.00000000000E+00  0.50647118340E+03  0.24636767077E+04  0.24110557564E+04 0.  0.
        1    1    3    3  502    0 -0.42303683365E+03 -0.11161140550E+04  0.42612255657E+03  0.12673796509E+04  0.50400001928E-02 0. -1.
       -1    1    3    3    0  502  0.42303683365E+03  0.11161140550E+04  0.80348626824E+02  0.11962970568E+04  0.50400001928E-02 0.  1.
</event>
<event>
 5   0  0.2139556E-05  0.2435958E+04  0.7818609E-02  0.8426163E-01
       -1   -1    0    0    0  501  0.00000000000E+00  0.00000000000E+00  0.14687403734E+04  0.14687403734E+04  0.50400001928E-02 0.  1.
        1   -1    0    0  501    0  0.00000000000E+00  0.00000000000E+00 -0.10100309672E+04  0.10100309672E+04  0.50400001928E-02 0. -1.
    10030    2    1    2    0    0  0.00000000000E+00  0.00000000000E+00  0.45870940620E+03  0.24787713406E+04  0.24359583411E+04 0.  0.
        2    1    3    3  502    0  0.11281823068E+04 -0.43933506680E+03  0.94118042218E+02  0.12143594295E+04  0.25500000920E-02 0. -1.
       -2    1    3    3    0  502 -0.11281823068E+04  0.43933506680E+03  0.36459136399E+03  0.12644119111E+04  0.25500000920E-02 0.  1.
</event>
<event>
 5   0  0.2149920E-05  0.2394159E+04  0.7818609E-02  0.8441694E-01
       -1   -1    0    0    0  501  0.00000000000E+00  0.00000000000E+00  0.77130575133E+03  0.77130575135E+03  0.50400001928E-02 0. -1.
        1   -1    0    0  501    0  0.00000000000E+00  0.00000000000E+00 -0.18578869819E+04  0.18578869820E+04  0.50400001928E-02 0.  1.
    10030    2    1    2    0    0  0.00000000000E+00  0.00000000000E+00 -0.10865812306E+04  0.26291927333E+04  0.23941586535E+04 0.  0.
        5    1    3    3  502    0  0.22848925225E+03  0.79546293673E+03 -0.14930698648E+04  0.17071169653E+04  0.46999998093E+01 0.  1.
       -5    1    3    3    0  502 -0.22848925225E+03 -0.79546293673E+03  0.40648863421E+03  0.92207576795E+03  0.46999998093E+01 0. -1.
</event>
<event>
 5   0  0.4914005E-05  0.2382499E+04  0.7818609E-02  0.8446085E-01
       -2   -1    0    0    0  501  0.00000000000E+00  0.00000000000E+00  0.61705692685E+03  0.61705692685E+03  0.25500000920E-02 0.  1.
        2   -1    0    0  501    0  0.00000000000E+00  0.00000000000E+00 -0.22997479964E+04  0.22997479964E+04  0.25500000920E-02 0. -1.
    10030    2    1    2    0    0  0.00000000000E+00  0.00000000000E+00 -0.16826910695E+04  0.29168049232E+04  0.23824990503E+04 0.  0.
        2    1    3    3  502    0  0.86897683123E+03  0.33999666782E+03  0.65234874043E+02  0.93540047902E+03  0.25500000920E-02 0.  1.
       -2    1    3    3    0  502 -0.86897683123E+03 -0.33999666782E+03 -0.17479259436E+04  0.19814044442E+04  0.25500000920E-02 0. -1.
</event>
<event>
 5   0  0.4664127E-05  0.2412676E+04  0.7818609E-02  0.8434773E-01
        2   -1    0    0  501    0  0.00000000000E+00  0.00000000000E+00  0.12820371640E+04  0.12820371640E+04  0.25500000920E-02 0.  1.
       -2   -1    0    0    0  501  0.00000000000E+00  0.00000000000E+00 -0.11351088307E+04  0.11351088307E+04  0.25500000920E-02 0. -1.
    10030    2    1    2    0    0  0.00000000000E+00  0.00000000000E+00  0.14692833335E+03  0.24171459947E+04  0.24126762784E+04 0.  0.
        4    1    3    3  502    0  0.36316359894E+03  0.84022369124E+02  0.12228919410E+04  0.12784419699E+04  0.12699999809E+01 0.  1.
       -4    1    3    3    0  502 -0.36316359894E+03 -0.84022369124E+02 -0.10759636077E+04  0.11387040248E+04  0.12699999809E+01 0. -1.
</event>
<event>
 5   0  0.2065692E-05  0.2396836E+04  0.7818609E-02  0.8440689E-01
       -1   -1    0    0    0  501  0.00000000000E+00  0.00000000000E+00  0.67358533607E+03  0.67358533609E+03  0.50400001928E-02 0. -1.
        1   -1    0    0  501    0  0.00000000000E+00  0.00000000000E+00 -0.21321800510E+04  0.21321800510E+04  0.50400001928E-02 0.  1.
    10030    2    1    2    0    0  0.00000000000E+00  0.00000000000E+00 -0.14585947149E+04  0.28057653871E+04  0.23968355940E+04 0.  0.
        3    1    3    3  502    0  0.75929411104E+03 -0.75051983397E+03 -0.91987733413E+02  0.10715732927E+04  0.10100000352E+00 0. -1.
       -3    1    3    3    0  502 -0.75929411104E+03  0.75051983397E+03 -0.13666069815E+04  0.17341920944E+04  0.10100000352E+00 0.  1.
</event>
<event>
 5   0  0.4914005E-05  0.2394428E+04  0.7818609E-02  0.8441593E-01
       -2   -1    0    0    0  501  0.00000000000E+00  0.00000000000E+00  0.86268601861E+03  0.86268601862E+03  0.25500000920E-02 0. -1.
        2   -1    0    0  501    0  0.00000000000E+00  0.00000000000E+00 -0.16614637443E+04  0.16614637443E+04  0.25500000920E-02 0.  1.
    10030    2    1    2    0    0  0.00000000000E+00  0.00000000000E+00 -0.79877772568E+03  0.25241497629E+04  0.23944281511E+04 0.  0.
        2    1    3    3  502    0 -0.80979939408E+03  0.65199911797E+03  0.22644368296E+03  0.10640275608E+04  0.25500000920E-02 0. -1.
       -2    1    3    3    0  502  0.80979939408E+03 -0.65199911797E+03 -0.10252214086E+04  0.14601222022E+04  0.25500000920E-02 0.  1.
</event>
<event>
 5   0  0.2149920E-05  0.2363289E+04  0.7818609E-02  0.8453377E-01
        1   -1    0    0  501    0  0.00000000000E+00  0.00000000000E+00  0.10450069103E+04  0.10450069103E+04  0.50400001928E-02 0.  1.
       -1   -1    0    0    0  501  0.00000000000E+00  0.00000000000E+00 -0.13361481317E+04  0.13361481317E+04  0.50400001928E-02 0. -1.
    10030    2    1    2    0    0  0.00000000000E+00  0.00000000000E+00 -0.29114122144E+03  0.23811550420E+04  0.23632892593E+04 0.  0.
        5    1    3    3  502    0 -0.74800827124E+03  0.63931723840E+03 -0.80474805012E+03  0.12711744252E+04  0.46999998093E+01 0. -1.
       -5    1    3    3    0  502  0.74800827124E+03 -0.63931723840E+03  0.51360682868E+03  0.11099806168E+04  0.46999998093E+01 0.  1.
</event>
<event>
 5   0  0.2057599E-05  0.2315399E+04  0.7818609E-02  0.8471874E-01
       -1   -1    0    0    0  501  0.00000000000E+00  0.00000000000E+00  0.69966956978E+03  0.69966956980E+03  0.50400001928E-02 0. -1.
        1   -1    0    0  501    0  0.00000000000E+00  0.00000000000E+00 -0.19155732249E+04  0.19155732249E+04  0.50400001928E-02 0.  1.
    10030    2    1    2    0    0  0.00000000000E+00  0.00000000000E+00 -0.12159036551E+04  0.26152427947E+04  0.23153991398E+04 0.  0.
        4    1    3    3  502    0  0.40546270128E+03  0.10158536232E+04 -0.17947359951E+03  0.11084092077E+04  0.12699999809E+01 0. -1.
       -4    1    3    3    0  502 -0.40546270128E+03 -0.10158536232E+04 -0.10364300556E+04  0.15068335870E+04  0.12699999809E+01 0.  1.
</event>
<event>
 5   0  0.2139556E-05  0.2376656E+04  0.7818609E-02  0.8448295E-01
       -1   -1    0    0    0  501  0.00000000000E+00  0.00000000000E+00  0.12392989535E+04  0.12392989535E+04  0.50400001928E-02 0. -1.
        1   -1    0    0  501    0  0.00000000000E+00  0.00000000000E+00 -0.11394533827E+04  0.11394533827E+04  0.50400001928E-02 0.  1.
    10030    2    1    2    0    0  0.00000000000E+00  0.00000000000E+00  0.99845570766E+02  0.23787523362E+04  0.23766559572E+04 0.  0.
        2    1    3    3  502    0  0.30106428611E+03 -0.19895794108E+03  0.11831314457E+04  0.12369413828E+04  0.25500000920E-02 0. -1.
       -2    1    3    3    0  502 -0.30106428611E+03  0.19895794108E+03 -0.10832858749E+04  0.11418109535E+04  0.25500000920E-02 0.  1.
</event>
<event>
 5   0  0.2149920E-05  0.2440467E+04  0.7818609E-02  0.8424507E-01
        1   -1    0    0  501    0  0.00000000000E+00  0.00000000000E+00  0.15979266793E+04  0.15979266793E+04  0.50400001928E-02 0. -1.
       -1   -1    0    0    0  501  0.00000000000E+00  0.00000000000E+00 -0.93181333389E+03  0.93181333391E+03  0.50400001928E-02 0.  1.
    10030    2    1    2    0    0  0.00000000000E+00  0.00000000000E+00  0.66611334538E+03  0.25297400132E+04  0.24404666655E+04 0.  0.
        5    1    3    3  502    0 -0.65141293253E+02  0.20165364678E+03  0.15786967676E+04  0.15928631942E+04  0.46999998093E+01 0. -1.
       -5    1    3    3    0  502  0.65141293253E+02 -0.20165364678E+03 -0.91258342226E+03  0.93687681897E+03  0.46999998093E+01 0.  1.
</event>
<event>
 5   0  0.2090039E-05  0.2377048E+04  0.7818609E-02  0.8448147E-01
        1   -1    0    0  501    0  0.00000000000E+00  0.00000000000E+00  0.15674604904E+04  0.15674604904E+04  0.50400001928E-02 0. -1.
       -1   -1    0    0    0  501  0.00000000000E+00  0.00000000000E+00 -0.90119622169E+03  0.90119622170E+03  0.50400001928E-02 0.  1.
    10030    2    1    2    0    0  0.00000000000E+00  0.00000000000E+00  0.66626426868E+03  0.24686567121E+04  0.23770481456E+04 0.  0.
        1    1    3    3  502    0  0.19506056751E+03 -0.84416002986E+03  0.11780807420E+04  0.14623710253E+04  0.50400001928E-02 0. -1.
       -1    1    3    3    0  502 -0.19506056751E+03  0.84416002986E+03 -0.51181647330E+03  0.10062856868E+04  0.50400001928E-02 0.  1.
</event>
<event>
 5   0  0.4756705E-05  0.2422185E+04  0.7818609E-02  0.8431244E-01
       -2   -1    0    0    0  501  0.00000000000E+00  0.00000000000E+00  0.82673745417E+03  0.82673745418E+03  0.25500000920E-02 0. -1.
        2   -1    0    0  501    0  0.00000000000E+00  0.00000000000E+00 -0.17741361356E+04  0.17741361356E+04  0.25500000920E-02 0.  1.
    10030    2    1    2    0    0  0.00000000000E+00  0.00000000000E+00 -0.94739868140E+03  0.26008735898E+04  0.24221847924E+04 0.  0.
        3    1    3    3  502    0 -0.27109406050E+03  0.20637799251E+03 -0.17216147233E+04  0.17550045957E+04  0.10100000352E+00 0.  1.
       -3    1    3    3    0  502  0.27109406050E+03 -0.20637799251E+03  0.77421604185E+03  0.84586899405E+03  0.10100000352E+00 0. -1.
</event>
<event>
 5   0  0.4756705E-05  0.2223309E+04  0.7818609E-02  0.8508789E-01
        2   -1    0    0  501    0  0.00000000000E+00  0.00000000000E+00  0.14766877323E+04  0.14766877323E+04  0.25500000920E-02 0. -1.
       -2   -1    0    0    0  501  0.00000000000E+00  0.00000000000E+00 -0.83685640366E+03  0.83685640366E+03  0.25500000920E-02 0.  1.
    10030    2    1    2    0    0  0.00000000000E+00  0.00000000000E+00  0.63983132867E+03  0.23135441360E+04  0.22233088719E+04 0.  0.
        3    1    3    3  502    0  0.79410945739E+03  0.77459284403E+03  0.24508262049E+03  0.11360763202E+04  0.10100000352E+00 0. -1.
       -3    1    3    3    0  502 -0.79410945739E+03 -0.77459284403E+03  0.39474870818E+03  0.11774678158E+04  0.10100000352E+00 0.  1.
</event>
<event>
 5   0  0.2149920E-05  0.2412289E+04  0.7818609E-02  0.8434917E-01
       -1   -1    0    0    0  501  0.00000000000E+00  0.00000000000E+00  0.82860667193E+03  0.82860667194E+03  0.50400001928E-02 0. -1.
        1   -1    0    0  501    0  0.00000000000E+00  0.00000000000E+00 -0.17557000455E+04  0.17557000455E+04  0.50400001928E-02 0.  1.
    10030    2    1    2    0    0  0.00000000000E+00  0.00000000000E+00 -0.92709337358E+03  0.25843067175E+04  0.24122891797E+04 0.  0.
        5    1    3    3  502    0  0.89567452288E+03  0.72288492435E+03 -0.84976387447E+03  0.14307047903E+04  0.46999998093E+01 0.  1.
       -5    1    3    3    0  502 -0.89567452288E+03 -0.72288492435E+03 -0.77329499112E+02  0.11536019271E+04  0.46999998093E+01 0. -1.
</event>
<event>
 5   0  0.2065692E-05  0.2231576E+04  0.7818609E-02  0.8505399E-01
        1   -1    0    0  501    0  0.00000000000E+00  0.00000000000E+00  0.54264919485E+03  0.54264919488E+03  0.50400001928E-02 0. -1.
       -1   -1    0    0    0  501  0.00000000000E+00  0.00000000000E+00 -0.22942675032E+04  0.22942675032E+04  0.50400001928E-02 0.  1.
    10030    2    1    2    0    0  0.00000000000E+00  0.00000000000E+00 -0.17516183084E+04  0.28369166981E+04  0.22315755989E+04 0.  0.
        3    1    3    3  502    0 -0.82908041080E+03 -0.34310079848E+03 -0.32655000950E+02  0.89786348895E+03  0.10100000352E+00 0. -1.
       -3    1    3    3    0  502  0.82908041080E+03  0.34310079848E+03 -0.17189633074E+04  0.19390532092E+04  0.10100000352E+00 0.  1.
</event>
<event>
 5   0  0.2065692E-05  0.2459464E+04  0.7818609E-02  0.8417571E-01
        1   -1    0    0  501    0  0.00000000000E+00  0.00000000000E+00  0.19510333059E+04  0.19510333059E+04  0.50400001928E-02 0. -1.
       -1   -1    0    0    0  501  0.00000000000E+00  0.00000000000E+00 -0.77509745851E+03  0.77509745853E+03  0.50400001928E-02 0.  1.
    10030    2    1    2    0    0  0.00000000000E+00  0.00000000000E+00  0.11759358474E+04  0.27261307644E+04  0.24594641342E+04 0.  0.
        3    1    3    3  502    0 -0.94194597419E+03  0.67910091217E+03  0.13936299618E+03  0.11695564638E+04  0.10100000352E+00 0.  1.
       -3    1    3    3    0  502  0.94194597419E+03 -0.67910091217E+03  0.10365728512E+04  0.15565743006E+04  0.10100000352E+00 0. -1.
</event>
<event>
 5   0  0.4914005E-05  0.2407692E+04  0.7818609E-02  0.8436629E-01
        2   -1    0    0  501    0  0.00000000000E+00  0.00000000000E+00  0.18778386453E+04  0.18778386453E+04  0.25500000920E-02 0.  1.
       -2   -1    0    0    0  501  0.00000000000E+00  0.00000000000E+00 -0.77176235504E+03  0.77176235504E+03  0.25500000920E-02 0. -1.
    10030    2    1    2    0    0  0.00000000000E+00  0.00000000000E+00  0.11060762902E+04  0.26496010003E+04  0.24076919863E+04 0.  0.
        2    1    3    3  502    0 -0.48198190910E+03 -0.21743982105E+03  0.17432084207E+04  0.18216372401E+04  0.25500000920E-02 0.  1.
       -2    1    3    3    0  502  0.48198190910E+03  0.21743982105E+03 -0.63713213050E+03  0.82796376020E+03  0.25500000920E-02 0. -1.
</event>
<event>
 5   0  0.4914005E-05  0.2478966E+04  0.7818609E-02  0.8410518E-01
       -2   -1    0    0    0  501  0.00000000000E+00  0.00000000000E+00  0.13477135907E+04  0.13477135907E+04  0.25500000920E-02 0.  1.
        2   -1    0    0  501    0  0.00000000000E+00  0.00000000000E+00 -0.11399437774E+04  0.11399437774E+04  0.25500000920E-02 0. -1.
    10030    2    1    2    0    0  0.00000000000E+00  0.00000000000E+00  0.20776981333E+03  0.24876573681E+04  0.24789656887E+04 0.  0.
        2    1    3    3  502    0  0.72602670959E+03 -0.90532362696E+03 -0.33306347039E+03  0.12073346379E+04  0.25500000920E-02 0. -1.
       -2    1    3    3    0  502 -0.72602670959E+03  0.90532362696E+03  0.54083328373E+03  0.12803227302E+04  0.25500000920E-02 0.  1.
</event>
<event>
 5   0  0.2057599E-05  0.2403247E+04  0.7818609E-02  0.8438289E-01
       -1   -1    0    0    0  501  0.00000000000E+00  0.00000000000E+00  0.12202327674E+04  0.12202327674E+04  0.50400001928E-02 0.  1.
        1   -1    0    0  501    0  0.00000000000E+00  0.00000000000E+00 -0.11832979642E+04  0.11832979642E+04  0.50400001928E-02 0. -1.
    10030    2    1    2    0    0  0.00000000000E+00  0.00000000000E+00  0.36934803202E+02  0.24035307315E+04  0.24032469282E+04 0.  0.
        4    1    3    3  502    0  0.40512179725E+03  0.10842810639E+04  0.34116359080E+03  0.12067242041E+04  0.12699999809E+01 0. -1.
       -4    1    3    3    0  502 -0.40512179725E+03 -0.10842810639E+04 -0.30422878760E+03  0.11968065275E+04  0.12699999809E+01 0.  1.
</event>
<event>
 5   0  0.4856882E-05  0.2381414E+04  0.7818609E-02  0.8446495E-01
        2   -1    0    0  501    0  0.00000000000E+00  0.00000000000E+00  0.11511873097E+04  0.11511873097E+04  0.25500000920E-02 0.  1.
       -2   -1    0    0    0  501  0.00000000000E+00  0.00000000000E+00 -0.12315830726E+04  0.12315830726E+04  0.25500000920E-02 0. -1.
    10030    2    1    2    0    0  0.00000000000E+00  0.00000000000E+00 -0.80395762834E+02  0.23827703823E+04  0.23814137011E+04 0.  0.
        1    1    3    3  502    0 -0.45705199667E+03 -0.10158854803E+04 -0.46098825758E+03  0.12055828509E+04  0.50400001928E-02 0. -1.
       -1    1    3    3    0  502  0.45705199667E+03  0.10158854803E+04  0.38059249475E+03  0.11771875313E+04  0.50400001928E-02 0.  1.
</event>
<event>
 5   0  0.1672125E-05  0.2416928E+04  0.7818609E-02  0.8433193E-01
        3   -1    0    0  501    0  0.00000000000E+00  0.00000000000E+00  0.85647290835E+03  0.85647291430E+03  0.10100000352E+00 0.  1.
       -3   -1    0    0    0  501  0.00000000000E+00  0.00000000000E+00 -0.17051149961E+04  0.17051149991E+04  0.10100000352E+00 0. -1.
    10030    2    1    2    0    0  0.00000000000E+00  0.00000000000E+00 -0.84864208776E+03  0.25615879134E+04  0.24169276458E+04 0.  0.
        5    1    3    3  502    0 -0.32691376407E+03  0.31473309871E+03 -0.16113720593E+04  0.16740584029E+04  0.46999998093E+01 0. -1.
       -5    1    3    3    0  502  0.32691376407E+03 -0.31473309871E+03  0.76272997157E+03  0.88752951055E+03  0.46999998093E+01 0.  1.
</event>
<event>
 5   0  0.4713971E-05  0.2440058E+04  0.7818609E-02  0.8424657E-01
        2   -1    0    0  501    0  0.00000000000E+00  0.00000000000E+00  0.82840407368E+03  0.82840407368E+03  0.25500000920E-02 0. -1.
       -2   -1    0    0    0  501  0.00000000000E+00  0.00000000000E+00 -0.17967927522E+04  0.17967927522E+04  0.25500000920E-02 0.  1.
    10030    2    1    2    0    0  0.00000000000E+00  0.00000000000E+00 -0.96838867856E+03  0.26251968259E+04  0.24400577333E+04 0.  0.
        5    1    3    3  502    0 -0.62361883787E+03 -0.90108913501E+03  0.92765834459E+02  0.10997680093E+04  0.46999998093E+01 0. -1.
       -5    1    3    3    0  502  0.62361883787E+03  0.90108913501E+03 -0.10611545130E+04  0.15254288166E+04  0.46999998093E+01 0.  1.
</event>
<event>
 5   0  0.4713971E-05  0.2387284E+04  0.7818609E-02  0.8444280E-01
        2   -1    0    0  501    0  0.00000000000E+00  0.00000000000E+00  0.12700167513E+04  0.12700167513E+04  0.25500000920E-02 0.  1.
       -2   -1    0    0    0  501  0.00000000000E+00  0.00000000000E+00 -0.11218597666E+04  0.11218597666E+04  0.25500000920E-02 0. -1.
    10030    2    1    2    0    0  0.00000000000E+00  0.00000000000E+00  0.14815698467E+03  0.23918765179E+04  0.23872835577E+04 0.  0.
        5    1    3    3  502    0  0.10490801072E+04  0.50438730669E+03  0.33875140890E+03  0.12123325590E+04  0.46999998093E+01 0. -1.
       -5    1    3    3    0  502 -0.10490801072E+04 -0.50438730669E+03 -0.19059442422E+03  0.11795439590E+04  0.46999998093E+01 0.  1.
</event>
<event>
 5   0  0.4914005E-05  0.2349603E+04  0.7818609E-02  0.8458616E-01
        2   -1    0    0  501    0  0.00000000000E+00  0.00000000000E+00  0.87092437926E+03  0.87092437926E+03  0.25500000920E-02 0.  1.
       -2   -1    0    0    0  501  0.00000000000E+00  0.00000000000E+00 -0.15847049312E+04  0.15847049312E+04  0.25500000920E-02 0. -1.
    10030    2    1    2    0    0  0.00000000000E+00  0.00000000000E+00 -0.71378055197E+03  0.24556293105E+04  0.23496026545E+04 0.  0.
        2    1    3    3  502    0  0.48426750354E+03 -0.64034406731E+03  0.53948530652E+03  0.96726414980E+03  0.25500000920E-02 0.  1.
       -2    1    3    3    0  502 -0.48426750354E+03  0.64034406731E+03 -0.12532658585E+04  0.14883651607E+04  0.25500000920E-02 0. -1.
</event>
<event>
 5   0  0.2149920E-05  0.2416364E+04  0.7818609E-02  0.8433402E-01
       -1   -1    0    0    0  501  0.00000000000E+00  0.00000000000E+00  0.10190191053E+04  0.10190191053E+04  0.50400001928E-02 0.  1.
        1   -1    0    0  501    0  0.00000000000E+00  0.00000000000E+00 -0.14324602341E+04  0.14324602341E+04  0.50400001928E-02 0. -1.
    10030    2    1    2    0    0  0.00000000000E+00  0.00000000000E+00 -0.41344112880E+03  0.24514793395E+04  0.24163644975E+04 0.  0.
        5    1    3    3  502    0  0.10207878435E+03 -0.36175124682E+03 -0.13716217684E+04  0.14221998483E+04  0.46999998093E+01 0. -1.
       -5    1    3    3    0  502 -0.10207878435E+03  0.36175124682E+03  0.95818063964E+03  0.10292794912E+04  0.46999998093E+01 0.  1.
</event>
<event>
 5   0  0.4756705E-05  0.2607835E+04  0.7818609E-02  0.8365545E-01
        2   -1    0    0  501    0  0.00000000000E+00  0.00000000000E+00  0.12944610392E+04  0.12944610392E+04  0.25500000920E-02 0.  1.
       -2   -1    0    0    0  501  0.00000000000E+00  0.00000000000E+00 -0.13134432418E+04  0.13134432418E+04  0.25500000920E-02 0. -1.
    10030    2    1    2    0    0  0.00000000000E+00  0.00000000000E+00 -0.18982202604E+02  0.26079042810E+04  0.26078351970E+04 0.  0.
        3    1    3    3  502    0 -0.42003612233E+03  0.78656054222E+03  0.94189799734E+03  0.12970272465E+04  0.10100000352E+00 0.  1.
       -3    1    3    3    0  502  0.42003612233E+03 -0.78656054222E+03 -0.96088019994E+03  0.13108770345E+04  0.10100000352E+00 0. -1.
</event>
<event>
 5   0  0.2065692E-05  0.2423306E+04  0.7818609E-02  0.8430829E-01
       -1   -1    0    0    0  501  0.00000000000E+00  0.00000000000E+00  0.11920838362E+04  0.11920838362E+04  0.50400001928E-02 0.  1.
        1   -1    0    0  501    0  0.00000000000E+00  0.00000000000E+00 -0.12315439050E+04  0.12315439050E+04  0.50400001928E-02 0. -1.
    10030    2    1    2    0    0  0.00000000000E+00  0.00000000000E+00 -0.39460068791E+02  0.24236277413E+04  0.24233064873E+04 0.  0.
        3    1    3    3  502    0 -0.48877810668E+03  0.65277494734E+02 -0.11266461024E+04  0.12298360213E+04  0.10100000352E+00 0. -1.
       -3    1    3    3    0  502  0.48877810668E+03 -0.65277494734E+02  0.10871860336E+04  0.11937917200E+04  0.10100000352E+00 0.  1.
</event>
<event>
 5   0  0.4664127E-05  0.2409964E+04  0.7818609E-02  0.8435783E-01
       -2   -1    0    0    0  501  0.00000000000E+00  0.00000000000E+00  0.15517469088E+04  0.15517469088E+04  0.25500000920E-02 0.  1.
        2   -1    0    0  501    0  0.00000000000E+00  0.00000000000E+00 -0.93570791517E+03  0.93570791517E+03  0.25500000920E-02 0. -1.
    10030    2    1    2    0    0  0.00000000000E+00  0.00000000000E+00  0.61603899359E+03  0.24874548239E+04  0.24099642029E+04 0.  0.
        4    1    3    3  502    0  0.36061324052E+03 -0.60279553239E+03  0.13185696233E+04  0.14939986036E+04  0.12699999809E+01 0.  1.
       -4    1    3    3    0  502 -0.36061324052E+03  0.60279553239E+03 -0.70253062973E+03  0.99345622033E+03  0.12699999809E+01 0. -1.
</event>
<event>
 5   0  0.2139556E-05  0.2340615E+04  0.7818609E-02  0.8462077E-01
        1   -1    0    0  501    0  0.00000000000E+00  0.00000000000E+00  0.95608981163E+03  0.95608981165E+03  0.50400001928E-02 0.  1.
       -1   -1    0    0    0  501  0.00000000000E+00  0.00000000000E+00 -0.14325219100E+04  0.14325219100E+04  0.50400001928E-02 0. -1.
    10030    2    1    2    0    0  0.00000000000E+00  0.00000000000E+00 -0.47643209839E+03  0.23886117217E+04  0.23406149646E+04 0.  0.
        2    1    3    3  502    0 -0.74317506918E+03  0.89967304546E+03 -0.14751819936E+03  0.11762152827E+04  0.25500000920E-02 0.  1.
       -2    1    3    3    0  502  0.74317506918E+03 -0.89967304546E+03 -0.32891389904E+03  0.12123964389E+04  0.25500000920E-02 0. -1.
</event>
<event>
 5   0  0.2090039E-05  0.2359930E+04  0.7818609E-02  0.8454659E-01
        1   -1    0    0  501    0  0.00000000000E+00  0.00000000000E+00  0.13407950959E+04  0.13407950959E+04  0.50400001928E-02 0.  1.
       -1   -1    0    0    0  501  0.00000000000E+00  0.00000000000E+00 -0.10384266886E+04  0.10384266886E+04  0.50400001928E-02 0. -1.
    10030    2    1    2    0    0  0.00000000000E+00  0.00000000000E+00  0.30236840727E+03  0.23792217846E+04  0.23599300088E+04 0.  0.
        1    1    3    3  502    0 -0.12055917538E+03  0.20979008776E+03  0.13155151556E+04  0.13375823415E+04  0.50400001928E-02 0.  1.
       -1    1    3    3    0  502  0.12055917538E+03 -0.20979008776E+03 -0.10131467483E+04  0.10416394431E+04  0.50400001928E-02 0. -1.
</event>
<event>
 5   0  0.4713971E-05  0.2400522E+04  0.7818609E-02  0.8439308E-01
        2   -1    0    0  501    0  0.00000000000E+00  0.00000000000E+00  0.77828467991E+03  0.77828467992E+03  0.25500000920E-02 0.  1.
       -2   -1    0    0    0  501  0.00000000000E+00  0.00000000000E+00 -0.18510270339E+04  0.18510270339E+04  0.25500000920E-02 0. -1.
    10030    2    1    2    0    0  0.00000000000E+00  0.00000000000E+00 -0.10727423540E+04  0.26293117138E+04  0.24005215955E+04 0.  0.
        5    1    3    3  502    0  0.16578847548E+03 -0.70711764172E+03 -0.15830086406E+04  0.17416772445E+04  0.46999998093E+01 0.  1.
       -5    1    3    3    0  502 -0.16578847548E+03  0.70711764172E+03  0.51026628662E+03  0.88763446930E+03  0.46999998093E+01 0. -1.
</event>
<event>
 5   0  0.2149920E-05  0.2342943E+04  0.7818609E-02  0.8461179E-01
        1   -1    0    0  501    0  0.00000000000E+00  0.00000000000E+00  0.82532287887E+03  0.82532287888E+03  0.50400001928E-02 0.  1.
       -1   -1    0    0    0  501  0.00000000000E+00  0.00000000000E+00 -0.16627979838E+04  0.16627979838E+04  0.50400001928E-02 0. -1.
    10030    2    1    2    0    0  0.00000000000E+00  0.00000000000E+00 -0.83747510497E+03  0.24881208627E+04  0.23429427812E+04 0.  0.
        5    1    3    3  502    0 -0.36313112781E+03 -0.25126377348E+03 -0.15710176283E+04  0.16319056892E+04  0.46999998093E+01 0. -1.
       -5    1    3    3    0  502  0.36313112781E+03  0.25126377348E+03  0.73354252336E+03  0.85621517355E+03  0.46999998093E+01 0.  1.
</event>
<event>
 5   0  0.4756705E-05  0.2472546E+04  0.7818609E-02  0.8412832E-01
        2   -1    0    0  501    0  0.00000000000E+00  0.00000000000E+00  0.15113574409E+04  0.15113574409E+04  0.25500000920E-02 0. -1.
       -2   -1    0    0    0  501  0.00000000000E+00  0.00000000000E+00 -0.10112570154E+04  0.10112570154E+04  0.25500000920E-02 0.  1.
    10030    2    1    2    0    0  0.00000000000E+00  0.00000000000E+00  0.50010042553E+03  0.25226144563E+04  0.24725459064E+04 0.  0.
        3    1    3    3  502    0 -0.26928544809E+03 -0.38546873514E+03  0.14165620899E+04  0.14925645591E+04  0.10100000352E+00 0. -1.
       -3    1    3    3    0  502  0.26928544809E+03  0.38546873514E+03 -0.91646166434E+03  0.10300498972E+04  0.10100000352E+00 0.  1.
</event>
<event>
 5   0  0.4856882E-05  0.2283852E+04  0.7818609E-02  0.8484315E-01
        2   -1    0    0  501    0  0.00000000000E+00  0.00000000000E+00  0.23119880244E+04  0.23119880244E+04  0.25500000920E-02 0.  1.
       -2   -1    0    0    0  501  0.00000000000E+00  0.00000000000E+00 -0.56401449490E+03  0.56401449491E+03  0.25500000920E-02 0. -1.
    10030    2    1    2    0    0  0.00000000000E+00  0.00000000000E+00  0.17479735295E+04  0.28760025193E+04  0.22838517971E+04 0.  0.
        1    1    3    3  502    0 -0.65773134497E+03  0.68139161774E+03  0.70522806003E+02  0.94967285161E+03  0.50400001928E-02 0. -1.
       -1    1    3    3    0  502  0.65773134497E+03 -0.68139161774E+03  0.16774507235E+04  0.19263296677E+04  0.50400001928E-02 0.  1.
</event>
<event>
 5   0  0.2139556E-05  0.2386999E+04  0.7818609E-02  0.8444387E-01
       -1   -1    0    0    0  501  0.00000000000E+00  0.00000000000E+00  0.13779215428E+04  0.13779215429E+04  0.50400001928E-02 0. -1.
        1   -1    0    0  501    0  0.00000000000E+00  0.00000000000E+00 -0.10337607397E+04  0.10337607397E+04  0.50400001928E-02 0.  1.
    10030    2    1    2    0    0  0.00000000000E+00  0.00000000000E+00  0.34416080311E+03  0.24116822826E+04  0.23869991148E+04 0.  0.
        2    1    3    3  502    0 -0.11906864071E+04  0.38864612044E+02  0.99247414970E+02  0.11954474591E+04  0.25500000920E-02 0.  1.
       -2    1    3    3    0  502  0.11906864071E+04 -0.38864612044E+02  0.24491338814E+03  0.12162348235E+04  0.25500000920E-02 0. -1.
</event>
<event>
 5   0  0.2139556E-05  0.2390537E+04  0.7818609E-02  0.8443055E-01
       -1   -1    0    0    0  501  0.00000000000E+00  0.00000000000E+00  0.10550869790E+04  0.10550869790E+04  0.50400001928E-02 0.  1.
        1   -1    0    0  501    0  0.00000000000E+00  0.00000000000E+00 -0.13540743764E+04  0.13540743764E+04  0.50400001928E-02 0. -1.
    10030    2    1    2    0    0  0.00000000000E+00  0.00000000000E+00 -0.29898739740E+03  0.24091613554E+04  0.23905365449E+04 0.  0.
        2    1    3    3  502    0 -0.18243141540E+03  0.11120436651E+04  0.25203726005E+03  0.11547489402E+04  0.25500000920E-02 0.  1.
       -2    1    3    3    0  502  0.18243141540E+03 -0.11120436651E+04 -0.55102465746E+03  0.12544124152E+04  0.25500000920E-02 0. -1.
</event>
<event>
 5   0  0.4756705E-05  0.2454528E+04  0.7818609E-02  0.8419366E-01
        2   -1    0    0  501    0  0.00000000000E+00  0.00000000000E+00  0.16620429478E+04  0.16620429478E+04  0.25500000920E-02 0. -1.
       -2   -1    0    0    0  501  0.00000000000E+00  0.00000000000E+00 -0.90622045520E+03  0.90622045520E+03  0.25500000920E-02 0.  1.
    10030    2    1    2    0    0  0.00000000000E+00  0.00000000000E+00  0.75582249261E+03  0.25682634030E+04  0.24545283186E+04 0.  0.
        3    1    3    3  502    0 -0.21048538118E+03  0.17844896225E+03 -0.87333839419E+03  0.91589742263E+03  0.10100000352E+00 0.  1.
       -3    1    3    3    0  502  0.21048538118E+03 -0.17844896225E+03  0.16291608868E+04  0.16523659804E+04  0.10100000352E+00 0. -1.
</event>
<event>
 5   0  0.4756705E-05  0.2444855E+04  0.7818609E-02  0.8422899E-01
       -2   -1    0    0    0  501  0.00000000000E+00  0.00000000000E+00  0.66059974516E+03  0.66059974517E+03  0.25500000920E-02 0. -1.
        2   -1    0    0  501    0  0.00000000000E+00  0.00000000000E+00 -0.22620790490E+04  0.22620790490E+04  0.25500000920E-02 0.  1.
    10030    2    1    2    0    0  0.00000000000E+00  0.00000000000E+00 -0.16014793038E+04  0.29226787941E+04  0.24448548777E+04 0.  0.
        3    1    3    3  502    0  0.33636681640E+02  0.12148736421E+04 -0.95788185665E+03  0.15474453315E+04  0.10100000352E+00 0. -1.
       -3    1    3    3    0  502 -0.33636681640E+02 -0.12148736421E+04 -0.64359744716E+03  0.13752334626E+04  0.10100000352E+00 0.  1.
</event>
<event>
 5   0  0.2057599E-05  0.2513068E+04  0.7818609E-02  0.8398345E-01
        1   -1    0    0  501    0  0.00000000000E+00  0.00000000000E+00  0.13506180437E+04  0.13506180438E+04  0.50400001928E-02 0. -1.
       -1   -1    0    0    0  501  0.00000000000E+00  0.00000000000E+00 -0.11690039551E+04  0.11690039551E+04  0.50400001928E-02 0.  1.
    10030    2    1    2    0    0  0.00000000000E+00  0.00000000000E+00  0.18161408868E+03  0.25196219988E+04  0.25130681128E+04 0.  0.
        4    1    3    3  502    0  0.88913209261E+02 -0.85782768504E+03  0.10070295989E+04  0.13258522248E+04  0.12699999809E+01 0. -1.
       -4    1    3    3    0  502 -0.88913209261E+02  0.85782768504E+03 -0.82541551023E+03  0.11937697740E+04  0.12699999809E+01 0.  1.
</event>
<event>
 5   0  0.2057599E-05  0.2410175E+04  0.7818609E-02  0.8435704E-01
       -1   -1    0    0    0  501  0.00000000000E+00  0.00000000000E+00  0.81777087458E+03  0.81777087460E+03  0.50400001928E-02 0. -1.
        1   -1    0    0  501    0  0.00000000000E+00  0.00000000000E+00 -0.17758465697E+04  0.17758465697E+04  0.50400001928E-02 0.  1.
    10030    2    1    2    0    0  0.00000000000E+00  0.00000000000E+00 -0.95807569513E+03  0.25936174443E+04  0.24101747675E+04 0.  0.
        4    1    3    3  502    0  0.32243519138E+03  0.11577251453E+04 -0.38313687621E+03  0.12613831470E+04  0.12699999809E+01 0. -1.
       -4    1    3    3    0  502 -0.32243519138E+03 -0.11577251453E+04 -0.57493881893E+03  0.13322342974E+04  0.12699999809E+01 0.  1.
</event>
<event>
 5   0  0.2090039E-05  0.2376694E+04  0.7818609E-02  0.8448281E-01
        1   -1    0    0  501    0  0.00000000000E+00  0.00000000000E+00  0.17661356486E+04  0.17661356486E+04  0.50400001928E-02 0. -1.
       -1   -1    0    0    0  501  0.00000000000E+00  0.00000000000E+00 -0.79958101498E+03  0.79958101500E+03  0.50400001928E-02 0.  1.
    10030    2    1    2    0    0  0.00000000000E+00  0.00000000000E+00  0.96655463361E+03  0.25657166636E+04  0.23766939513E+04 0.  0.
        1    1    3    3  502    0 -0.88157321470E+03 -0.79515008260E+03  0.42683578813E+03  0.12615957264E+04  0.50400001928E-02 0.  1.
       -1    1    3    3    0  502  0.88157321470E+03  0.79515008260E+03  0.53971884548E+03  0.13041209372E+04  0.50400001928E-02 0. -1.
</event>
<event>
 5   0  0.2090039E-05  0.2285673E+04  0.7818609E-02  0.8483592E-01
        1   -1    0    0  501    0  0.00000000000E+00  0.00000000000E+00  0.72264384451E+03  0.72264384453E+03  0.50400001928E-02 0. -1.
       -1   -1    0    0    0  501  0.00000000000E+00  0.00000000000E+00 -0.18073564030E+04  0.18073564030E+04  0.50400001928E-02 0.  1.
    10030    2    1    2    0    0  0.00000000000E+00  0.00000000000E+00 -0.10847125585E+04  0.25300002475E+04  0.22856727495E+04 0.  0.
        1    1    3    3  502    0 -0.89892579280E+03 -0.28705205510E+03 -0.12559462411E+04  0.15709447552E+04  0.50400001928E-02 0.  1.
       -1    1    3    3    0  502  0.89892579280E+03  0.28705205510E+03  0.17123368261E+03  0.95905549234E+03  0.50400001928E-02 0. -1.
</event>
<event>
 5   0  0.2139556E-05  0.2570187E+04  0.7818609E-02  0.8378399E-01
       -1   -1    0    0    0  501  0.00000000000E+00  0.00000000000E+00  0.87009868853E+03  0.87009868854E+03  0.50400001928E-02 0.  1.
        1   -1    0    0  501    0  0.00000000000E+00  0.00000000000E+00 -0.18980205336E+04  0.18980205336E+04  0.50400001928E-02 0. -1.
    10030    2    1    2    0    0  0.00000000000E+00  0.00000000000E+00 -0.10279218451E+04  0.27681192222E+04  0.25701869015E+04 0.  0.
        2    1    3    3  502    0 -0.31149129856E+03  0.23800491372E+03  0.80413142851E+03  0.89459517233E+03  0.25500000920E-02 0.  1.
       -2    1    3    3    0  502  0.31149129856E+03 -0.23800491372E+03 -0.18320532736E+04  0.18735240499E+04  0.25500000920E-02 0. -1.
</event>
<event>
 5   0  0.2149920E-05  0.2430032E+04  0.7818609E-02  0.8428345E-01
        1   -1    0    0  501    0  0.00000000000E+00  0.00000000000E+00  0.12262401208E+04  0.12262401208E+04  0.50400001928E-02 0.  1.
       -1   -1    0    0    0  501  0.00000000000E+00  0.00000000000E+00 -0.12038949019E+04  0.12038949019E+04  0.50400001928E-02 0. -1.
    10030    2    1    2    0    0  0.00000000000E+00  0.00000000000E+00  0.22345218908E+02  0.24301350227E+04  0.24300322878E+04 0.  0.
        5    1    3    3  502    0  0.35644444991E+03 -0.91570184467E+03 -0.70347612023E+03  0.12084962788E+04  0.46999998093E+01 0. -1.
       -5    1    3    3    0  502 -0.35644444991E+03  0.91570184467E+03  0.72582133914E+03  0.12216387439E+04  0.46999998093E+01 0.  1.
</event>
<event>
 5   0  0.2139556E-05  0.2387668E+04  0.7818609E-02  0.8444135E-01
       -1   -1    0    0    0  501  0.00000000000E+00  0.00000000000E+00  0.70836186024E+03  0.70836186026E+03  0.50400001928E-02 0. -1.
        1   -1    0    0  501    0  0.00000000000E+00  0.00000000000E+00 -0.20120216162E+04  0.20120216162E+04  0.50400001928E-02 0.  1.
    10030    2    1    2    0    0  0.00000000000E+00  0.00000000000E+00 -0.13036597559E+04  0.27203834764E+04  0.23876677951E+04 0.  0.
        2    1    3    3  502    0  0.60744109506E+03 -0.13451011799E+02 -0.18226855194E+04  0.19212881399E+04  0.25500000920E-02 0.  1.
       -2    1    3    3    0  502 -0.60744109506E+03  0.13451011799E+02  0.51902576351E+03  0.79909533654E+03  0.25500000920E-02 0. -1.
</event>
<event>
 5   0  0.4856882E-05  0.2400845E+04  0.7818609E-02  0.8439187E-01
        2   -1    0    0  501    0  0.00000000000E+00  0.00000000000E+00  0.20659067631E+04  0.20659067631E+04  0.25500000920E-02 0. -1.
       -2   -1    0    0    0  501  0.00000000000E+00  0.00000000000E+00 -0.69752148299E+03  0.69752148300E+03  0.25500000920E-02 0.  1.
    10030    2    1    2    0    0  0.00000000000E+00  0.00000000000E+00  0.13683852801E+04  0.27634282461E+04  0.24008451421E+04 0.  0.
        1    1    3    3  502    0  0.65293978939E+03 -0.98811231792E+03  0.90950531185E+03  0.14932837084E+04  0.50400001928E-02 0.  1.
       -1    1    3    3    0  502 -0.65293978939E+03  0.98811231792E+03  0.45887996825E+03  0.12701445377E+04  0.50400001928E-02 0. -1.
</event>
<event>
 5   0  0.4856882E-05  0.2403479E+04  0.7818609E-02  0.8438202E-01
        2   -1    0    0  501    0  0.00000000000E+00  0.00000000000E+00  0.15089208359E+04  0.15089208359E+04  0.25500000920E-02 0.  1.
       -2   -1    0    0    0  501  0.00000000000E+00  0.00000000000E+00 -0.95709289229E+03  0.95709289229E+03  0.25500000920E-02 0. -1.
    10030    2    1    2    0    0  0.00000000000E+00  0.00000000000E+00  0.55182794364E+03  0.24660137282E+04  0.24034786515E+04 0.  0.
        1    1    3    3  502    0 -0.90675081936E+03 -0.19526336485E+03 -0.50806934637E+03  0.10575723572E+04  0.50400001928E-02 0. -1.
       -1    1    3    3    0  502  0.90675081936E+03  0.19526336485E+03  0.10598972900E+04  0.14084413710E+04  0.50400001928E-02 0.  1.
</event>
<event>
 5   0  0.4914005E-05  0.2375669E+04  0.7818609E-02  0.8448669E-01
        2   -1    0    0  501    0  0.00000000000E+00  0.00000000000E+00  0.10290636885E+04  0.10290636885E+04  0.25500000920E-02 0. -1.
       -2   -1    0    0    0  501  0.00000000000E+00  0.00000000000E+00 -0.13711018576E+04  0.13711018576E+04  0.25500000920E-02 0.  1.
    10030    2    1    2    0    0  0.00000000000E+00  0.00000000000E+00 -0.34203816907E+03  0.24001655462E+04  0.23756692825E+04 0.  0.
        2    1    3    3  502    0 -0.64318656244E+03  0.85936133367E+03 -0.68494914438E+03  0.12733209282E+04  0.25500000920E-02 0.  1.
       -2    1    3    3    0  502  0.64318656244E+03 -0.85936133367E+03  0.34291097532E+03  0.11268446179E+04  0.25500000920E-02 0. -1.
</event>
<event>
 5   0  0.2057599E-05  0.2398804E+04  0.7818609E-02  0.8439951E-01
       -1   -1    0    0    0  501  0.00000000000E+00  0.00000000000E+00  0.84685138927E+03  0.84685138929E+03  0.50400001928E-02 0. -1.
        1   -1    0    0  501    0  0.00000000000E+00  0.00000000000E+00 -0.16987225384E+04  0.16987225384E+04  0.50400001928E-02 0.  1.
    10030    2    1    2    0    0  0.00000000000E+00  0.00000000000E+00 -0.85187114915E+03  0.25455739277E+04  0.23988043202E+04 0.  0.
        4    1    3    3  502    0 -0.60590071185E+03 -0.10350017866E+04 -0.41021148759E+03  0.12675249301E+04  0.12699999809E+01 0. -1.
       -4    1    3    3    0  502  0.60590071185E+03  0.10350017866E+04 -0.44165966156E+03  0.12780489977E+04  0.12699999809E+01 0.  1.
</event>
<event>
 5   0  0.2057599E-05  0.2349534E+04  0.7818609E-02  0.8458643E-01
       -1   -1    0    0    0  501  0.00000000000E+00  0.00000000000E+00  0.91959487030E+03  0.91959487031E+03  0.50400001928E-02 0.  1.
        1   -1    0    0  501    0  0.00000000000E+00  0.00000000000E+00 -0.15007453732E+04  0.15007453733E+04  0.50400001928E-02 0. -1.
    10030    2    1    2    0    0  0.00000000000E+00  0.00000000000E+00 -0.58115050295E+03  0.24203402436E+04  0.23495342065E+04 0.  0.
        4    1    3    3  502    0 -0.59852067758E+03 -0.90023168816E+03 -0.76424980009E+03  0.13239046279E+04  0.12699999809E+01 0. -1.
       -4    1    3    3    0  502  0.59852067758E+03  0.90023168816E+03  0.18309929714E+03  0.10964356157E+04  0.12699999809E+01 0.  1.
</event>
<event>
 5   0  0.2090039E-05  0.2378583E+04  0.7818609E-02  0.8447565E-01
       -1   -1    0    0    0  501  0.00000000000E+00  0.00000000000E+00  0.13946965876E+04  0.13946965876E+04  0.50400001928E-02 0.  1.
        1   -1    0    0  501    0  0.00000000000E+00  0.00000000000E+00 -0.10141379267E+04  0.10141379267E+04  0.50400001928E-02 0. -1.
    10030    2    1    2    0    0  0.00000000000E+00  0.00000000000E+00  0.38055866088E+03  0.24088345144E+04  0.23785833648E+04 0.  0.
        1    1    3    3  502    0  0.68384809347E+03  0.74890568103E+03  0.81939396476E+03  0.13038076559E+04  0.50400001928E-02 0.  1.
       -1    1    3    3    0  502 -0.68384809347E+03 -0.74890568103E+03 -0.43883530388E+03  0.11050268585E+04  0.50400001928E-02 0. -1.
</event>
<event>
 5   0  0.2139556E-05  0.2153054E+04  0.7818609E-02  0.8538226E-01
       -1   -1    0    0    0  501  0.00000000000E+00  0.00000000000E+00  0.57486778759E+03  0.57486778761E+03  0.50400001928E-02 0. -1.
        1   -1    0    0  501    0  0.00000000000E+00  0.00000000000E+00 -0.20159591841E+04  0.20159591841E+04  0.50400001928E-02 0.  1.
    10030    2    1    2    0    0  0.00000000000E+00  0.00000000000E+00 -0.14410913966E+04  0.25908269718E+04  0.21530536418E+04 0.  0.
        2    1    3    3  502    0  0.74327888664E+03 -0.70085799091E+03 -0.11290473286E+04  0.15226336713E+04  0.25500000920E-02 0. -1.
       -2    1    3    3    0  502 -0.74327888664E+03  0.70085799091E+03 -0.31204406792E+03  0.10681933004E+04  0.25500000920E-02 0.  1.
</event>
<event>
 5   0  0.2139556E-05  0.2373411E+04  0.7818609E-02  0.8449526E-01
        1   -1    0    0  501    0  0.00000000000E+00  0.00000000000E+00  0.75958921541E+03  0.75958921543E+03  0.50400001928E-02 0. -1.
       -1   -1    0    0    0  501  0.00000000000E+00  0.00000000000E+00 -0.18539888894E+04  0.18539888894E+04  0.50400001928E-02 0.  1.
    10030    2    1    2    0    0  0.00000000000E+00  0.00000000000E+00 -0.10943996740E+04  0.26135781048E+04  0.23734110187E+04 0.  0.
        2    1    3    3  502    0 -0.10839542185E+04  0.60277878705E+02 -0.10749445914E+04  0.15277748673E+04  0.25500000920E-02 0.  1.
       -2    1    3    3    0  502  0.10839542185E+04 -0.60277878705E+02 -0.19455082551E+02  0.10858032375E+04  0.25500000920E-02 0. -1.
</event>
<event>
 5   0  0.4756705E-05  0.2411418E+04  0.7818609E-02  0.8435241E-01
        2   -1    0    0  501    0  0.00000000000E+00  0.00000000000E+00  0.11488757824E+04  0.11488757824E+04  0.25500000920E-02 0. -1.
       -2   -1    0    0    0  501  0.00000000000E+00  0.00000000000E+00 -0.12653535784E+04  0.12653535784E+04  0.25500000920E-02 0.  1.
    10030    2    1    2    0    0  0.00000000000E+00  0.00000000000E+00 -0.11647779599E+03  0.24142293607E+04  0.24114179085E+04 0.  0.
        3    1    3    3  502    0 -0.31115542656E+03 -0.47806632504E+02  0.11070041865E+04  0.11508959348E+04  0.10100000352E+00 0. -1.
       -3    1    3    3    0  502  0.31115542656E+03  0.47806632504E+02 -0.12234819825E+04  0.12633334260E+04  0.10100000352E+00 0.  1.
</event>
<event>
 5   0  0.4856882E-05  0.2437196E+04  0.7818609E-02  0.8425708E-01
        2   -1    0    0  501    0  0.00000000000E+00  0.00000000000E+00  0.18523810177E+04  0.18523810177E+04  0.25500000920E-02 0. -1.
       -2   -1    0    0    0  501  0.00000000000E+00  0.00000000000E+00 -0.80166049686E+03  0.80166049686E+03  0.25500000920E-02 0.  1.
    10030    2    1    2    0    0  0.00000000000E+00  0.00000000000E+00  0.10507205208E+04  0.26540415146E+04  0.24371956729E+04 0.  0.
        1    1    3    3  502    0 -0.39588433929E+03  0.36912421743E+03  0.17142897384E+04  0.17977114354E+04  0.50400001928E-02 0. -1.
       -1    1    3    3    0  502  0.39588433929E+03 -0.36912421743E+03 -0.66356921751E+03  0.85633007914E+03  0.50400001928E-02 0.  1.
</event>
<event>
 5   0  0.4756705E-05  0.2383511E+04  0.7818609E-02  0.8445703E-01
       -2   -1    0    0    0  501  0.00000000000E+00  0.00000000000E+00  0.10911569868E+04  0.10911569869E+04  0.25500000920E-02 0.  1.
        2   -1    0    0  501    0  0.00000000000E+00  0.00000000000E+00 -0.13016285472E+04  0.13016285472E+04  0.25500000920E-02 0. -1.
    10030    2    1    2    0    0  0.00000000000E+00  0.00000000000E+00 -0.21047156033E+03  0.23927855340E+04  0.23835109260E+04 0.  0.
        3    1    3    3  502    0  0.60535148212E+03  0.62935739435E+03 -0.91940322007E+03  0.12680076648E+04  0.10100000352E+00 0. -1.
       -3    1    3    3    0  502 -0.60535148212E+03 -0.62935739435E+03  0.70893165974E+03  0.11247778692E+04  0.10100000352E+00 0.  1.
</event>
<event>
 5   0  0.2090039E-05  0.2380886E+04  0.7818609E-02  0.8446694E-01
       -1   -1    0    0    0  501  0.00000000000E+00  0.00000000000E+00  0.10567597668E+04  0.10567597669E+04  0.50400001928E-02 0.  1.
        1   -1    0    0  501    0  0.00000000000E+00  0.00000000000E+00 -0.13410373505E+04  0.13410373505E+04  0.50400001928E-02 0. -1.
    10030    2    1    2    0    0  0.00000000000E+00  0.00000000000E+00 -0.28427758368E+03  0.23977971174E+04  0.23808858166E+04 0.  0.
        1    1    3    3  502    0 -0.77186979601E+03  0.87514843762E+03  0.95090176043E+02  0.11707732109E+04  0.50400001928E-02 0.  1.
       -1    1    3    3    0  502  0.77186979601E+03 -0.87514843762E+03 -0.37936775972E+03  0.12270239065E+04  0.50400001928E-02 0. -1.
</event>
<event>
 5   0  0.4914005E-05  0.2364870E+04  0.7818609E-02  0.8452774E-01
        2   -1    0    0  501    0  0.00000000000E+00  0.00000000000E+00  0.13904500475E+04  0.13904500475E+04  0.25500000920E-02 0. -1.
       -2   -1    0    0    0  501  0.00000000000E+00  0.00000000000E+00 -0.10055399134E+04  0.10055399134E+04  0.25500000920E-02 0.  1.
    10030    2    1    2    0    0  0.00000000000E+00  0.00000000000E+00  0.38491013414E+03  0.23959899610E+04  0.23648704154E+04 0.  0.
        2    1    3    3  502    0  0.81195929668E+03  0.41630332715E+03  0.95439291348E+03  0.13203984978E+04  0.25500000920E-02 0. -1.
       -2    1    3    3    0  502 -0.81195929668E+03 -0.41630332715E+03 -0.56948277934E+03  0.10755914632E+04  0.25500000920E-02 0.  1.
</event>
<event>
 5   0  0.4914005E-05  0.2368200E+04  0.7818609E-02  0.8451506E-01
        2   -1    0    0  501    0  0.00000000000E+00  0.00000000000E+00  0.14088021719E+04  0.14088021719E+04  0.25500000920E-02 0. -1.
       -2   -1    0    0    0  501  0.00000000000E+00  0.00000000000E+00 -0.99523791989E+03  0.99523791989E+03  0.25500000920E-02 0.  1.
    10030    2    1    2    0    0  0.00000000000E+00  0.00000000000E+00  0.41356425201E+03  0.24040400918E+04  0.23682004502E+04 0.  0.
        2    1    3    3  502    0 -0.36458289319E+03 -0.73782268127E+03 -0.65744809182E+03  0.10533475155E+04  0.25500000920E-02 0.  1.
       -2    1    3    3    0  502  0.36458289319E+03  0.73782268127E+03  0.10710123438E+04  0.13506925763E+04  0.25500000920E-02 0. -1.
</event>
<event>
 5   0  0.2090039E-05  0.2423781E+04  0.7818609E-02  0.8430654E-01
        1   -1    0    0  501    0  0.00000000000E+00  0.00000000000E+00  0.14008070417E+04  0.14008070417E+04  0.50400001928E-02 0.  1.
       -1   -1    0    0    0  501  0.00000000000E+00  0.00000000000E+00 -0.10484514978E+04  0.10484514978E+04  0.50400001928E-02 0. -1.
    10030    2    1    2    0    0  0.00000000000E+00  0.00000000000E+00  0.35235554397E+03  0.24492585395E+04  0.24237807170E+04 0.  0.
        1    1    3    3  502    0  0.40408274062E+03  0.17401712793E+03 -0.96490122839E+03  0.10604712173E+04  0.50400001928E-02 0. -1.
       -1    1    3    3    0  502 -0.40408274062E+03 -0.17401712793E+03  0.13172567724E+04  0.13887873222E+04  0.50400001928E-02 0.  1.
</event>
<event>
 5   0  0.2057599E-05  0.2386160E+04  0.7818609E-02  0.8444703E-01
       -1   -1    0    0    0  501  0.00000000000E+00  0.00000000000E+00  0.73474534860E+03  0.73474534861E+03  0.50400001928E-02 0. -1.
        1   -1    0    0  501    0  0.00000000000E+00  0.00000000000E+00 -0.19373246866E+04  0.19373246867E+04  0.50400001928E-02 0.  1.
    10030    2    1    2    0    0  0.00000000000E+00  0.00000000000E+00 -0.12025793381E+04  0.26720700353E+04  0.23861603486E+04 0.  0.
        4    1    3    3  502    0 -0.62272971299E+03 -0.43984508992E+03 -0.16289542009E+04  0.17985409086E+04  0.12699999809E+01 0.  1.
       -4    1    3    3    0  502  0.62272971299E+03  0.43984508992E+03  0.42637486281E+03  0.87352912665E+03  0.12699999809E+01 0. -1.
</event>
<event>
 5   0  0.2149920E-05  0.1963281E+04  0.7818609E-02  0.8623983E-01
       -1   -1    0    0    0  501  0.00000000000E+00  0.00000000000E+00  0.50859052939E+03  0.50859052942E+03  0.50400001928E-02 0.  1.
        1   -1    0    0  501    0  0.00000000000E+00  0.00000000000E+00 -0.18946843984E+04  0.18946843984E+04  0.50400001928E-02 0. -1.
    10030    2    1    2    0    0  0.00000000000E+00  0.00000000000E+00 -0.13860938690E+04  0.24032749278E+04  0.19632814788E+04 0.  0.
        5    1    3    3  502    0 -0.47053282102E+03  0.77176538136E+03 -0.11616969468E+04  0.14719323441E+04  0.46999998093E+01 0. -1.
       -5    1    3    3    0  502  0.47053282102E+03 -0.77176538136E+03 -0.22439692225E+03  0.93134258372E+03  0.46999998093E+01 0.  1.
</event>
<event>
 5   0  0.4664127E-05  0.2330586E+04  0.7818609E-02  0.8465958E-01
       -2   -1    0    0    0  501  0.00000000000E+00  0.00000000000E+00  0.11387332615E+04  0.11387332615E+04  0.25500000920E-02 0.  1.
        2   -1    0    0  501    0  0.00000000000E+00  0.00000000000E+00 -0.11924717947E+04  0.11924717947E+04  0.25500000920E-02 0. -1.
    10030    2    1    2    0    0  0.00000000000E+00  0.00000000000E+00 -0.53738533200E+02  0.23312050562E+04  0.23305855882E+04 0.  0.
        4    1    3    3  502    0 -0.61403533371E+03 -0.61910600242E+03 -0.80010387624E+03  0.11834269977E+04  0.12699999809E+01 0. -1.
       -4    1    3    3    0  502  0.61403533371E+03  0.61910600242E+03  0.74636534304E+03  0.11477780584E+04  0.12699999809E+01 0.  1.
</event>
<event>
 5   0  0.2149920E-05  0.2343226E+04  0.7818609E-02  0.8461070E-01
       -1   -1    0    0    0  501  0.00000000000E+00  0.00000000000E+00  0.86803707075E+03  0.86803707077E+03  0.50400001928E-02 0.  1.
        1   -1    0    0  501    0  0.00000000000E+00  0.00000000000E+00 -0.15813576751E+04  0.15813576751E+04  0.50400001928E-02 0. -1.
    10030    2    1    2    0    0  0.00000000000E+00  0.00000000000E+00 -0.71332060431E+03  0.24493947458E+04  0.23432260532E+04 0.  0.
        5    1    3    3  502    0 -0.44282099546E+03 -0.91845136035E+03  0.24655772748E+03  0.10490262810E+04  0.46999998093E+01 0.  1.
       -5    1    3    3    0  502  0.44282099546E+03  0.91845136035E+03 -0.95987833179E+03  0.14003684648E+04  0.46999998093E+01 0. -1.
</event>
<event>
 5   0  0.4856882E-05  0.2396597E+04  0.7818609E-02  0.8440779E-01
        2   -1    0    0  501    0  0.00000000000E+00  0.00000000000E+00  0.14383066650E+04  0.14383066651E+04  0.25500000920E-02 0. -1.
       -2   -1    0    0    0  501  0.00000000000E+00  0.00000000000E+00 -0.99833983053E+03  0.99833983054E+03  0.25500000920E-02 0.  1.
    10030    2    1    2    0    0  0.00000000000E+00  0.00000000000E+00  0.43996683451E+03  0.24366464956E+04  0.23965966137E+04 0.  0.
        1    1    3    3  502    0  0.22307197268E+03  0.56021466501E+03 -0.83284896260E+03  0.10282212653E+04  0.50400001928E-02 0.  1.
       -1    1    3    3    0  502 -0.22307197268E+03 -0.56021466501E+03  0.12728157971E+04  0.14084252303E+04  0.50400001928E-02 0. -1.
</event>
<event>
 5   0  0.2149920E-05  0.2385487E+04  0.7818609E-02  0.8444957E-01
        1   -1    0    0  501    0  0.00000000000E+00  0.00000000000E+00  0.23049046102E+04  0.23049046102E+04  0.50400001928E-02 0. -1.
       -1   -1    0    0    0  501  0.00000000000E+00  0.00000000000E+00 -0.61722142222E+03  0.61722142224E+03  0.50400001928E-02 0.  1.
    10030    2    1    2    0    0  0.00000000000E+00  0.00000000000E+00  0.16876831880E+04  0.29221260325E+04  0.23854865346E+04 0.  0.
        5    1    3    3  502    0 -0.39062813253E+03  0.71700693287E+03 -0.22118724071E+03  0.84595222392E+03  0.46999998093E+01 0.  1.
       -5    1    3    3    0  502  0.39062813253E+03 -0.71700693287E+03  0.19088704287E+04  0.20761738086E+04  0.46999998093E+01 0. -1.
</event>
<event>
 5   0  0.2065692E-05  0.2393608E+04  0.7818609E-02  0.8441901E-01
        1   -1    0    0  501    0  0.00000000000E+00  0.00000000000E+00  0.19797736646E+04  0.19797736646E+04  0.50400001928E-02 0.  1.
       -1   -1    0    0    0  501  0.00000000000E+00  0.00000000000E+00 -0.72348644909E+03  0.72348644911E+03  0.50400001928E-02 0. -1.
    10030    2    1    2    0    0  0.00000000000E+00  0.00000000000E+00  0.12562872155E+04  0.27032601137E+04  0.23936076693E+04 0.  0.
        3    1    3    3  502    0 -0.20190616243E+03  0.59420725827E+03 -0.52275283200E+03  0.81677346784E+03  0.10100000352E+00 0. -1.
       -3    1    3    3    0  502  0.20190616243E+03 -0.59420725827E+03  0.17790400475E+04  0.18864866459E+04  0.10100000352E+00 0.  1.
</event>
<event>
 5   0  0.2065692E-05  0.2393048E+04  0.7818609E-02  0.8442111E-01
       -1   -1    0    0    0  501  0.00000000000E+00  0.00000000000E+00  0.95432373608E+03  0.95432373609E+03  0.50400001928E-02 0.  1.
        1   -1    0    0  501    0  0.00000000000E+00  0.00000000000E+00 -0.15001934840E+04  0.15001934840E+04  0.50400001928E-02 0. -1.
    10030    2    1    2    0    0  0.00000000000E+00  0.00000000000E+00 -0.54586974791E+03  0.24545172201E+04  0.23930484746E+04 0.  0.
        3    1    3    3  502    0  0.31865174225E+03 -0.51437769132E+03  0.78583328484E+03  0.99179499088E+03  0.10100000352E+00 0.  1.
       -3    1    3    3    0  502 -0.31865174225E+03  0.51437769132E+03 -0.13317030328E+04  0.14627222292E+04  0.10100000352E+00 0. -1.
</event>
<event>
 5   0  0.2149920E-05  0.2366406E+04  0.7818609E-02  0.8452189E-01
        1   -1    0    0  501    0  0.00000000000E+00  0.00000000000E+00  0.13559389918E+04  0.13559389918E+04  0.50400001928E-02 0.  1.
       -1   -1    0    0    0  501  0.00000000000E+00  0.00000000000E+00 -0.10324718509E+04  0.10324718509E+04  0.50400001928E-02 0. -1.
    10030    2    1    2    0    0  0.00000000000E+00  0.00000000000E+00  0.32346714093E+03  0.23884108427E+04  0.23664055786E+04 0.  0.
        5    1    3    3  502    0  0.84680892336E+03  0.74765979810E+03 -0.19348552438E+03  0.11460974062E+04  0.46999998093E+01 0. -1.
       -5    1    3    3    0  502 -0.84680892336E+03 -0.74765979810E+03  0.51695266531E+03  0.12423134365E+04  0.46999998093E+01 0.  1.
</event>
<event>
 5   0  0.4664127E-05  0.2390259E+04  0.7818609E-02  0.8443159E-01
       -2   -1    0    0    0  501  0.00000000000E+00  0.00000000000E+00  0.82545319928E+03  0.82545319929E+03  0.25500000920E-02 0. -1.
        2   -1    0    0  501    0  0.00000000000E+00  0.00000000000E+00 -0.17303646129E+04  0.17303646129E+04  0.25500000920E-02 0.  1.
    10030    2    1    2    0    0  0.00000000000E+00  0.00000000000E+00 -0.90491141357E+03  0.25558178121E+04  0.23902594048E+04 0.  0.
        4    1    3    3  502    0  0.58560747123E+03 -0.25726541913E+03 -0.15319418590E+04  0.16601111645E+04  0.12699999809E+01 0.  1.
       -4    1    3    3    0  502 -0.58560747123E+03  0.25726541913E+03  0.62703044543E+03  0.89570664764E+03  0.12699999809E+01 0. -1.
</event>
<event>
 5   0  0.4756705E-05  0.2425621E+04  0.7818609E-02  0.8429973E-01
        2   -1    0    0  501    0  0.00000000000E+00  0.00000000000E+00  0.20222736043E+04  0.20222736043E+04  0.25500000920E-02 0. -1.
       -2   -1    0    0    0  501  0.00000000000E+00  0.00000000000E+00 -0.72735397744E+03  0.72735397744E+03  0.25500000920E-02 0.  1.
    10030    2    1    2    0    0  0.00000000000E+00  0.00000000000E+00  0.12949196268E+04  0.27496275817E+04  0.24256205388E+04 0.  0.
        3    1    3    3  502    0 -0.54729701748E+03 -0.35451973859E+02 -0.57875291671E+03  0.79733670215E+03  0.10100000352E+00 0.  1.
       -3    1    3    3    0  502  0.54729701748E+03  0.35451973859E+02  0.18736725436E+04  0.19522908796E+04  0.10100000352E+00 0. -1.
</event>
<event>
 5   0  0.4914005E-05  0.2414905E+04  0.7818609E-02  0.8433944E-01
       -2   -1    0    0    0  501  0.00000000000E+00  0.00000000000E+00  0.95023044035E+03  0.95023044035E+03  0.25500000920E-02 0.  1.
        2   -1    0    0  501    0  0.00000000000E+00  0.00000000000E+00 -0.15343036044E+04  0.15343036044E+04  0.25500000920E-02 0. -1.
    10030    2    1    2    0    0  0.00000000000E+00  0.00000000000E+00 -0.58407316406E+03  0.24845340448E+04  0.24149053726E+04 0.  0.
        2    1    3    3  502    0 -0.72443736275E+03 -0.67566186253E+03 -0.10023140282E+04  0.14092415890E+04  0.25500000920E-02 0. -1.
       -2    1    3    3    0  502  0.72443736275E+03  0.67566186253E+03  0.41824086412E+03  0.10752924558E+04  0.25500000920E-02 0.  1.
</event>
<event>
 5   0  0.4856882E-05  0.2330524E+04  0.7818609E-02  0.8465982E-01
       -2   -1    0    0    0  501  0.00000000000E+00  0.00000000000E+00  0.14320935761E+04  0.14320935761E+04  0.25500000920E-02 0. -1.
        2   -1    0    0  501    0  0.00000000000E+00  0.00000000000E+00 -0.94814710081E+03  0.94814710081E+03  0.25500000920E-02 0.  1.
    10030    2    1    2    0    0  0.00000000000E+00  0.00000000000E+00  0.48394647530E+03  0.23802406769E+04  0.23305238658E+04 0.  0.
        1    1    3    3  502    0  0.10450047084E+04 -0.30634408165E+03 -0.18154610662E+03  0.11040111076E+04  0.50400001928E-02 0.  1.
       -1    1    3    3    0  502 -0.10450047084E+04  0.30634408165E+03  0.66549258192E+03  0.12762295693E+04  0.50400001928E-02 0. -1.
</event>
<event>
 5   0  0.4713971E-05  0.2387656E+04  0.7818609E-02  0.8444140E-01
       -2   -1    0    0    0  501  0.00000000000E+00  0.00000000000E+00  0.50613215872E+03  0.50613215872E+03  0.25500000920E-02 0.  1.
        2   -1    0    0  501    0  0.00000000000E+00  0.00000000000E+00 -0.28159143799E+04  0.28159143799E+04  0.25500000920E-02 0. -1.
    10030    2    1    2    0    0  0.00000000000E+00  0.00000000000E+00 -0.23097822211E+04  0.33220465386E+04  0.23876556065E+04 0.  0.
        5    1    3    3  502    0 -0.59331080969E+03 -0.97958848991E+03 -0.16238197608E+04  0.19870641741E+04  0.46999998093E+01 0. -1.
       -5    1    3    3    0  502  0.59331080969E+03  0.97958848991E+03 -0.68596246031E+03  0.13349823645E+04  0.46999998093E+01 0.  1.
</event>
<event>
 5   0  0.4756705E-05  0.2474828E+04  0.7818609E-02  0.8412008E-01
       -2   -1    0    0    0  501  0.00000000000E+00  0.00000000000E+00  0.62283936740E+03  0.62283936740E+03  0.25500000920E-02 0.  1.
        2   -1    0    0  501    0  0.00000000000E+00  0.00000000000E+00 -0.24584080532E+04  0.24584080532E+04  0.25500000920E-02 0. -1.
    10030    2    1    2    0    0  0.00000000000E+00  0.00000000000E+00 -0.18355686858E+04  0.30812474206E+04  0.24748279267E+04 0.  0.
        3    1    3    3  502    0  0.63461507746E+03  0.25297526570E+03 -0.22023205352E+04  0.23058509344E+04  0.10100000352E+00 0. -1.
       -3    1    3    3    0  502 -0.63461507746E+03 -0.25297526570E+03  0.36675184941E+03  0.77539648622E+03  0.10100000352E+00 0.  1.
</event>
<event>
 5   0  0.2090039E-05  0.2381729E+04  0.7818609E-02  0.8446376E-01
        1   -1    0    0  501    0  0.00000000000E+00  0.00000000000E+00  0.25509622566E+04  0.25509622566E+04  0.50400001928E-02 0. -1.
       -1   -1    0    0    0  501  0.00000000000E+00  0.00000000000E+00 -0.55593068004E+03  0.55593068006E+03  0.50400001928E-02 0.  1.
    10030    2    1    2    0    0  0.00000000000E+00  0.00000000000E+00  0.19950315766E+04  0.31068929367E+04  0.23817289368E+04 0.  0.
        1    1    3    3  502    0 -0.20322315167E+03 -0.55071016609E+03  0.23491230697E+04  0.24213551026E+04  0.50400001928E-02 0. -1.
       -1    1    3    3    0  502  0.20322315167E+03  0.55071016609E+03 -0.35409149311E+03  0.68553783406E+03  0.50400001928E-02 0.  1.
</event>
<event>
 5   0  0.2065692E-05  0.2446666E+04  0.7818609E-02  0.8422236E-01
        1   -1    0    0  501    0  0.00000000000E+00  0.00000000000E+00  0.18827316211E+04  0.18827316211E+04  0.50400001928E-02 0. -1.
       -1   -1    0    0    0  501  0.00000000000E+00  0.00000000000E+00 -0.79487872186E+03  0.79487872187E+03  0.50400001928E-02 0.  1.
    10030    2    1    2    0    0  0.00000000000E+00  0.00000000000E+00  0.10878528992E+04  0.26776103429E+04  0.24466657349E+04 0.  0.
        3    1    3    3  502    0 -0.83181697598E+03  0.50758701380E+03 -0.26546415235E+03  0.10099679621E+04  0.10100000352E+00 0.  1.
       -3    1    3    3    0  502  0.83181697598E+03 -0.50758701380E+03  0.13533170515E+04  0.16676423808E+04  0.10100000352E+00 0. -1.
</event>
<event>
 5   0  0.2149920E-05  0.2152391E+04  0.7818609E-02  0.8538509E-01
       -1   -1    0    0    0  501  0.00000000000E+00  0.00000000000E+00  0.12002469311E+04  0.12002469311E+04  0.50400001928E-02 0. -1.
        1   -1    0    0  501    0  0.00000000000E+00  0.00000000000E+00 -0.96496576002E+03  0.96496576003E+03  0.50400001928E-02 0.  1.
    10030    2    1    2    0    0  0.00000000000E+00  0.00000000000E+00  0.23528117109E+03  0.21652126912E+04  0.21523914069E+04 0.  0.
        5    1    3    3  502    0  0.60720635208E+02  0.25946948957E+03  0.11665229517E+04  0.11965823408E+04  0.46999998093E+01 0. -1.
       -5    1    3    3    0  502 -0.60720635208E+02 -0.25946948957E+03 -0.93124178062E+03  0.96863035030E+03  0.46999998093E+01 0.  1.
</event>
<event>
 5   0  0.2065692E-05  0.1750672E+04  0.7818609E-02  0.8732980E-01
        1   -1    0    0  501    0  0.00000000000E+00  0.00000000000E+00  0.11137834342E+04  0.11137834342E+04  0.50400001928E-02 0. -1.
       -1   -1    0    0    0  501  0.00000000000E+00  0.00000000000E+00 -0.68793752969E+03  0.68793752970E+03  0.50400001928E-02 0.  1.
    10030    2    1    2    0    0  0.00000000000E+00  0.00000000000E+00  0.42584590450E+03  0.18017209639E+04  0.17506723558E+04 0.  0.
        3    1    3    3  502    0  0.69396117307E+03 -0.16627009633E+03  0.73464239035E+03  0.10241715220E+04  0.10100000352E+00 0. -1.
       -3    1    3    3    0  502 -0.69396117307E+03  0.16627009633E+03 -0.30879648585E+03  0.77754944186E+03  0.10100000352E+00 0.  1.
</event>
<event>
 5   0  0.4914005E-05  0.2264823E+04  0.7818609E-02  0.8491921E-01
        2   -1    0    0  501    0  0.00000000000E+00  0.00000000000E+00  0.65285897565E+03  0.65285897566E+03  0.25500000920E-02 0. -1.
       -2   -1    0    0    0  501  0.00000000000E+00  0.00000000000E+00 -0.19642164637E+04  0.19642164637E+04  0.25500000920E-02 0.  1.
    10030    2    1    2    0    0  0.00000000000E+00  0.00000000000E+00 -0.13113574881E+04  0.26170754394E+04  0.22648234796E+04 0.  0.
        2    1    3    3  502    0  0.10785235973E+04  0.34442614062E+03 -0.62948530443E+03  0.12954127778E+04  0.25500000920E-02 0. -1.
       -2    1    3    3    0  502 -0.10785235973E+04 -0.34442614062E+03 -0.68187218364E+03  0.13216626616E+04  0.25500000920E-02 0.  1.
</event>
<event>
 5   0  0.4756705E-05  0.2392154E+04  0.7818609E-02  0.8442447E-01
       -2   -1    0    0    0  501  0.00000000000E+00  0.00000000000E+00  0.84115371883E+03  0.84115371884E+03  0.25500000920E-02 0. -1.
        2   -1    0    0  501    0  0.00000000000E+00  0.00000000000E+00 -0.17007602057E+04  0.17007602057E+04  0.25500000920E-02 0.  1.
    10030    2    1    2    0    0  0.00000000000E+00  0.00000000000E+00 -0.85960648687E+03  0.25419139245E+04  0.23921544866E+04 0.  0.
        3    1    3    3  502    0  0.10934671781E+04  0.11749015105E+03 -0.92948313445E+03  0.14399351765E+04  0.10100000352E+00 0.  1.
       -3    1    3    3    0  502 -0.10934671781E+04 -0.11749015105E+03  0.69876647583E+02  0.11019787480E+04  0.10100000352E+00 0. -1.
</event>
<event>
 5   0  0.2065692E-05  0.2397408E+04  0.7818609E-02  0.8440475E-01
       -1   -1    0    0    0  501  0.00000000000E+00  0.00000000000E+00  0.12504806155E+04  0.12504806155E+04  0.50400001928E-02 0. -1.
        1   -1    0    0  501    0  0.00000000000E+00  0.00000000000E+00 -0.11490713444E+04  0.11490713444E+04  0.50400001928E-02 0.  1.
    10030    2    1    2    0    0  0.00000000000E+00  0.00000000000E+00  0.10140927108E+03  0.23995519599E+04  0.23974081355E+04 0.  0.
        3    1    3    3  502    0 -0.11788765130E+04  0.87282838495E+02  0.24968710247E+03  0.12081853277E+04  0.10100000352E+00 0. -1.
       -3    1    3    3    0  502  0.11788765130E+04 -0.87282838495E+02 -0.14827783139E+03  0.11913666322E+04  0.10100000352E+00 0.  1.
</event>
<event>
 5   0  0.2139556E-05  0.2285977E+04  0.7818609E-02  0.8483471E-01
        1   -1    0    0  501    0  0.00000000000E+00  0.00000000000E+00  0.15702620078E+04  0.15702620078E+04  0.50400001928E-02 0. -1.
       -1   -1    0    0    0  501  0.00000000000E+00  0.00000000000E+00 -0.83197736752E+03  0.83197736754E+03  0.50400001928E-02 0.  1.
    10030    2    1    2    0    0  0.00000000000E+00  0.00000000000E+00  0.73828464029E+03  0.24022393753E+04  0.22859767729E+04 0.  0.
        2    1    3    3  502    0  0.11649545704E+03 -0.87925438030E+02 -0.82214459856E+03  0.83499929048E+03  0.25500000920E-02 0.  1.
       -2    1    3    3    0  502 -0.11649545704E+03  0.87925438030E+02  0.15604292388E+04  0.15672400849E+04  0.25500000920E-02 0. -1.
</event>
<event>
 5   0  0.4914005E-05  0.2395387E+04  0.7818609E-02  0.8441233E-01
        2   -1    0    0  501    0  0.00000000000E+00  0.00000000000E+00  0.10392307929E+04  0.10392307929E+04  0.25500000920E-02 0.  1.
       -2   -1    0    0    0  501  0.00000000000E+00  0.00000000000E+00 -0.13803182383E+04  0.13803182383E+04  0.25500000920E-02 0. -1.
    10030    2    1    2    0    0  0.00000000000E+00  0.00000000000E+00 -0.34108744538E+03  0.24195490311E+04  0.23953865802E+04 0.  0.
        2    1    3    3  502    0 -0.90350838946E+03  0.54909082288E+03  0.39784105887E+03  0.11296484629E+04  0.25500000920E-02 0.  1.
       -2    1    3    3    0  502  0.90350838946E+03 -0.54909082288E+03 -0.73892850425E+03  0.12899005683E+04  0.25500000920E-02 0. -1.
</event>
<event>
 5   0  0.2057599E-05  0.2421482E+04  0.7818609E-02  0.8431505E-01
       -1   -1    0    0    0  501  0.00000000000E+00  0.00000000000E+00  0.10644486302E+04  0.10644486302E+04  0.50400001928E-02 0. -1.
        1   -1    0    0  501    0  0.00000000000E+00  0.00000000000E+00 -0.13771385869E+04  0.13771385869E+04  0.50400001928E-02 0.  1.
    10030    2    1    2    0    0  0.00000000000E+00  0.00000000000E+00 -0.31268995671E+03  0.24415872172E+04  0.24214815981E+04 0.  0.
        4    1    3    3  502    0 -0.97555714646E+03  0.36431138360E+03 -0.77909527538E+03  0.13005481887E+04  0.12699999809E+01 0.  1.
       -4    1    3    3    0  502  0.97555714646E+03 -0.36431138360E+03  0.46640531867E+03  0.11410390284E+04  0.12699999809E+01 0. -1.
</event>
<event>
 5   0  0.4856882E-05  0.2367753E+04  0.7818609E-02  0.8451676E-01
       -2   -1    0    0    0  501  0.00000000000E+00  0.00000000000E+00  0.15050964898E+04  0.15050964898E+04  0.25500000920E-02 0. -1.
        2   -1    0    0  501    0  0.00000000000E+00  0.00000000000E+00 -0.93121187706E+03  0.93121187706E+03  0.25500000920E-02 0.  1.
    10030    2    1    2    0    0  0.00000000000E+00  0.00000000000E+00  0.57388461271E+03  0.24363083668E+04  0.23677531353E+04 0.  0.
        1    1    3    3  502    0 -0.10729534962E+04  0.29778946341E+03 -0.12676357404E+03  0.11207036956E+04  0.50400001928E-02 0.  1.
       -1    1    3    3    0  502  0.10729534962E+04 -0.29778946341E+03  0.70064818675E+03  0.13156046713E+04  0.50400001928E-02 0. -1.
</event>
<event>
 5   0  0.2057599E-05  0.2399741E+04  0.7818609E-02  0.8439601E-01
       -1   -1    0    0    0  501  0.00000000000E+00  0.00000000000E+00  0.16627633063E+04  0.16627633063E+04  0.50400001928E-02 0.  1.
        1   -1    0    0  501    0  0.00000000000E+00  0.00000000000E+00 -0.86584114125E+03  0.86584114127E+03  0.50400001928E-02 0. -1.
    10030    2    1    2    0    0  0.00000000000E+00  0.00000000000E+00  0.79692216504E+03  0.25286044476E+04  0.23997407183E+04 0.  0.
        4    1    3    3  502    0 -0.47095447855E+03  0.53666627008E+02 -0.76300446311E+03  0.89825144105E+03  0.12699999809E+01 0. -1.
       -4    1    3    3    0  502  0.47095447855E+03 -0.53666627008E+02  0.15599266281E+04  0.16303530065E+04  0.12699999809E+01 0.  1.
</event>
<event>
 5   0  0.2065692E-05  0.2420164E+04  0.7818609E-02  0.8431993E-01
        1   -1    0    0  501    0  0.00000000000E+00  0.00000000000E+00  0.11148598577E+04  0.11148598577E+04  0.50400001928E-02 0.  1.
       -1   -1    0    0    0  501  0.00000000000E+00  0.00000000000E+00 -0.13134369004E+04  0.13134369004E+04  0.50400001928E-02 0. -1.
    10030    2    1    2    0    0  0.00000000000E+00  0.00000000000E+00 -0.19857704273E+03  0.24282967581E+04  0.24201636935E+04 0.  0.
        3    1    3    3  502    0  0.82809970594E+03 -0.59364948263E+03  0.55569094262E+03  0.11605866039E+04  0.10100000352E+00 0.  1.
       -3    1    3    3    0  502 -0.82809970594E+03  0.59364948263E+03 -0.75426798535E+03  0.12677101542E+04  0.10100000352E+00 0. -1.
</event>
<event>
 5   0  0.2139556E-05  0.2415935E+04  0.7818609E-02  0.8433562E-01
        1   -1    0    0  501    0  0.00000000000E+00  0.00000000000E+00  0.17534554592E+04  0.17534554592E+04  0.50400001928E-02 0.  1.
       -1   -1    0    0    0  501  0.00000000000E+00  0.00000000000E+00 -0.83217744206E+03  0.83217744207E+03  0.50400001928E-02 0. -1.
    10030    2    1    2    0    0  0.00000000000E+00  0.00000000000E+00  0.92127801713E+03  0.25856329013E+04  0.24159354948E+04 0.  0.
        2    1    3    3  502    0 -0.10894151717E+04 -0.50545010001E+03  0.32158650887E+03  0.12432711300E+04  0.25500000920E-02 0. -1.
       -2    1    3    3    0  502  0.10894151717E+04  0.50545010001E+03  0.59969150825E+03  0.13423617713E+04  0.25500000920E-02 0.  1.
</event>
<event>
 5   0  0.4856882E-05  0.2399399E+04  0.7818609E-02  0.8439728E-01
       -2   -1    0    0    0  501  0.00000000000E+00  0.00000000000E+00  0.62150381514E+03  0.62150381514E+03  0.25500000920E-02 0. -1.
        2   -1    0    0  501    0  0.00000000000E+00  0.00000000000E+00 -0.23158012409E+04  0.23158012409E+04  0.25500000920E-02 0.  1.
    10030    2    1    2    0    0  0.00000000000E+00  0.00000000000E+00 -0.16942974258E+04  0.29373050561E+04  0.23993993468E+04 0.  0.
        1    1    3    3  502    0  0.99738335533E+03 -0.41569709156E+03 -0.14852544892E+04  0.18367249459E+04  0.50400001928E-02 0. -1.
       -1    1    3    3    0  502 -0.99738335533E+03  0.41569709156E+03 -0.20904293661E+03  0.11005801101E+04  0.50400001928E-02 0.  1.
</event>
<event>
 5   0  0.4713971E-05  0.2403682E+04  0.7818609E-02  0.8438126E-01
        2   -1    0    0  501    0  0.00000000000E+00  0.00000000000E+00  0.20810170543E+04  0.20810170543E+04  0.25500000920E-02 0. -1.
       -2   -1    0    0    0  501  0.00000000000E+00  0.00000000000E+00 -0.69409429427E+03  0.69409429427E+03  0.25500000920E-02 0.  1.
    10030    2    1    2    0    0  0.00000000000E+00  0.00000000000E+00  0.13869227601E+04  0.27751113486E+04  0.24036822283E+04 0.  0.
        5    1    3    3  502    0 -0.56465147473E+03 -0.17012248043E+03  0.19024795661E+04  0.19917890289E+04  0.46999998093E+01 0. -1.
       -5    1    3    3    0  502  0.56465147473E+03  0.17012248043E+03 -0.51555680605E+03  0.78332231968E+03  0.46999998093E+01 0.  1.
</event>
<event>
 5   0  0.2149920E-05  0.2400758E+04  0.7818609E-02  0.8439220E-01
       -1   -1    0    0    0  501  0.00000000000E+00  0.00000000000E+00  0.11344430295E+04  0.11344430295E+04  0.50400001928E-02 0. -1.
        1   -1    0    0  501    0  0.00000000000E+00  0.00000000000E+00 -0.12701475609E+04  0.12701475609E+04  0.50400001928E-02 0.  1.
    10030    2    1    2    0    0  0.00000000000E+00  0.00000000000E+00 -0.13570453134E+03  0.24045905904E+04  0.24007582526E+04 0.  0.
        5    1    3    3  502    0  0.61409999367E+03 -0.92386352178E+03 -0.52710939860E+03  0.12282137506E+04  0.46999998093E+01 0.  1.
       -5    1    3    3    0  502 -0.61409999367E+03  0.92386352178E+03  0.39140486726E+03  0.11763768398E+04  0.46999998093E+01 0. -1.
</event>
<event>
 5   0  0.4664127E-05  0.2397376E+04  0.7818609E-02  0.8440487E-01
        2   -1    0    0  501    0  0.00000000000E+00  0.00000000000E+00  0.14244457453E+04  0.14244457453E+04  0.25500000920E-02 0. -1.
       -2   -1    0    0    0  501  0.00000000000E+00  0.00000000000E+00 -0.10087099360E+04  0.10087099360E+04  0.25500000920E-02 0.  1.
    10030    2    1    2    0    0  0.00000000000E+00  0.00000000000E+00  0.41573580934E+03  0.24331556813E+04  0.23973757124E+04 0.  0.
        4    1    3    3  502    0 -0.18952437938E+03  0.36760860932E+01  0.14091365669E+04  0.14218299761E+04  0.12699999809E+01 0. -1.
       -4    1    3    3    0  502  0.18952437938E+03 -0.36760860932E+01 -0.99340075753E+03  0.10113257052E+04  0.12699999809E+01 0.  1.
</event>
<event>
 5   0  0.2090039E-05  0.2399903E+04  0.7818609E-02  0.8439540E-01
        1   -1    0    0  501    0  0.00000000000E+00  0.00000000000E+00  0.98138993756E+03  0.98138993757E+03  0.50400001928E-02 0. -1.
       -1   -1    0    0    0  501  0.00000000000E+00  0.00000000000E+00 -0.14671877408E+04  0.14671877408E+04  0.50400001928E-02 0.  1.
    10030    2    1    2    0    0  0.00000000000E+00  0.00000000000E+00 -0.48579780326E+03  0.24485776784E+04  0.23999027358E+04 0.  0.
        1    1    3    3  502    0  0.44694686930E+03 -0.87324422385E+03 -0.94797677308E+03  0.13641762866E+04  0.50400001928E-02 0.  1.
       -1    1    3    3    0  502 -0.44694686930E+03  0.87324422385E+03  0.46217896982E+03  0.10844013918E+04  0.50400001928E-02 0. -1.
</event>
<event>
 5   0  0.2149920E-05  0.2387580E+04  0.7818609E-02  0.8444168E-01
        1   -1    0    0  501    0  0.00000000000E+00  0.00000000000E+00  0.18959475419E+04  0.18959475419E+04  0.50400001928E-02 0.  1.
       -1   -1    0    0    0  501  0.00000000000E+00  0.00000000000E+00 -0.75167381599E+03  0.75167381600E+03  0.50400001928E-02 0. -1.
    10030    2    1    2    0    0  0.00000000000E+00  0.00000000000E+00  0.11442737259E+04  0.26476213579E+04  0.23875796311E+04 0.  0.
        5    1    3    3  502    0 -0.14614653221E+03 -0.30246252590E+03  0.18424463811E+04  0.18728249105E+04  0.46999998093E+01 0.  1.
       -5    1    3    3    0  502  0.14614653221E+03  0.30246252590E+03 -0.69817265515E+03  0.77479644737E+03  0.46999998093E+01 0. -1.
</event>
<event>
 5   0  0.2139556E-05  0.2398348E+04  0.7818609E-02  0.8440122E-01
       -1   -1    0    0    0  501  0.00000000000E+00  0.00000000000E+00  0.75586190312E+03  0.75586190314E+03  0.50400001928E-02 0.  1.
        1   -1    0    0  501    0  0.00000000000E+00  0.00000000000E+00 -0.19024873655E+04  0.19024873655E+04  0.50400001928E-02 0. -1.
    10030    2    1    2    0    0  0.00000000000E+00  0.00000000000E+00 -0.11466254624E+04  0.26583492686E+04  0.23983475318E+04 0.  0.
        2    1    3    3  502    0  0.42641666045E+03  0.49639303373E+03 -0.16871286419E+04  0.18095967138E+04  0.25500000920E-02 0. -1.
       -2    1    3    3    0  502 -0.42641666045E+03 -0.49639303373E+03  0.54050317953E+03  0.84875255484E+03  0.25500000920E-02 0.  1.
</event>
<event>
 5   0  0.2139556E-05  0.2331422E+04  0.7818609E-02  0.8465634E-01
        1   -1    0    0  501    0  0.00000000000E+00  0.00000000000E+00  0.13133793845E+04  0.13133793845E+04  0.50400001928E-02 0. -1.
       -1   -1    0    0    0  501  0.00000000000E+00  0.00000000000E+00 -0.10346455650E+04  0.10346455650E+04  0.50400001928E-02 0.  1.
    10030    2    1    2    0    0  0.00000000000E+00  0.00000000000E+00  0.27873381950E+03  0.23480249495E+04  0.23314220170E+04 0.  0.
        2    1    3    3  502    0  0.72012602655E+03  0.72182851908E+03 -0.42969164870E+03  0.11064595872E+04  0.25500000920E-02 0.  1.
       -2    1    3    3    0  502 -0.72012602655E+03 -0.72182851908E+03  0.70842546820E+03  0.12415653624E+04  0.25500000920E-02 0. -1.
</event>
<event>
 5   0  0.2149920E-05  0.2354534E+04  0.7818609E-02  0.8456724E-01
       -1   -1    0    0    0  501  0.00000000000E+00  0.00000000000E+00  0.76875827801E+03  0.76875827802E+03  0.50400001928E-02 0. -1.
        1   -1    0    0  501    0  0.00000000000E+00  0.00000000000E+00 -0.18028518965E+04  0.18028518966E+04  0.50400001928E-02 0.  1.
    10030    2    1    2    0    0  0.00000000000E+00  0.00000000000E+00 -0.10340936185E+04  0.25716101746E+04  0.23545337708E+04 0.  0.
        5    1    3    3  502    0  0.23793121824E+03  0.87696875565E+03 -0.13345530066E+04  0.16145399594E+04  0.46999998093E+01 0.  1.
       -5    1    3    3    0  502 -0.23793121824E+03 -0.87696875565E+03  0.30045938804E+03  0.95707021522E+03  0.46999998093E+01 0. -1.
</event>
<event>
 5   0  0.2149920E-05  0.2255314E+04  0.7818609E-02  0.8495752E-01
        1   -1    0    0  501    0  0.00000000000E+00  0.00000000000E+00  0.73994323183E+03  0.73994323185E+03  0.50400001928E-02 0. -1.
       -1   -1    0    0    0  501  0.00000000000E+00  0.00000000000E+00 -0.17185236562E+04  0.17185236562E+04  0.50400001928E-02 0.  1.
    10030    2    1    2    0    0  0.00000000000E+00  0.00000000000E+00 -0.97858042433E+03  0.24584668880E+04  0.22553136794E+04 0.  0.
        5    1    3    3  502    0 -0.36468779307E+03 -0.86939587681E+03  0.18509831882E+03  0.96079646890E+03  0.46999998093E+01 0. -1.
       -5    1    3    3    0  502  0.36468779307E+03  0.86939587681E+03 -0.11636787432E+04  0.14976704191E+04  0.46999998093E+01 0.  1.
</event>
<event>
 5   0  0.2139556E-05  0.2391029E+04  0.7818609E-02  0.8442870E-01
        1   -1    0    0  501    0  0.00000000000E+00  0.00000000000E+00  0.19191663759E+04  0.19191663759E+04  0.50400001928E-02 0.  1.
       -1   -1    0    0    0  501  0.00000000000E+00  0.00000000000E+00 -0.74472712112E+03  0.74472712114E+03  0.50400001928E-02 0. -1.
    10030    2    1    2    0    0  0.00000000000E+00  0.00000000000E+00  0.11744392548E+04  0.26638934970E+04  0.23910292764E+04 0.  0.
        2    1    3    3  502    0  0.46311642567E+03  0.69120699498E+03  0.15436845384E+04  0.17536264960E+04  0.25500000920E-02 0.  1.
       -2    1    3    3    0  502 -0.46311642567E+03 -0.69120699498E+03 -0.36924528359E+03  0.91026700099E+03  0.25500000920E-02 0. -1.
</event>
<event>
 5   0  0.2139556E-05  0.2341532E+04  0.7818609E-02  0.8461723E-01
       -1   -1    0    0    0  501  0.00000000000E+00  0.00000000000E+00  0.27138725008E+04  0.27138725008E+04  0.50400001928E-02 0. -1.
        1   -1    0    0  501    0  0.00000000000E+00  0.00000000000E+00 -0.50506903474E+03  0.50506903477E+03  0.50400001928E-02 0.  1.
    10030    2    1    2    0    0  0.00000000000E+00  0.00000000000E+00  0.22088034660E+04  0.32189415355E+04  0.23415319468E+04 0.  0.
        2    1    3    3  502    0  0.58146957956E+03  0.12225756065E+03  0.24911892103E+04  0.25610695939E+04  0.25500000920E-02 0. -1.
       -2    1    3    3    0  502 -0.58146957956E+03 -0.12225756065E+03 -0.28238574426E+03  0.65787194168E+03  0.25500000920E-02 0.  1.
</event>
<event>
 5   0  0.1672125E-05  0.2401532E+04  0.7818609E-02  0.8438930E-01
       -4   -1    0    0    0  501  0.00000000000E+00  0.00000000000E+00  0.12706150563E+04  0.12706156910E+04  0.12699999809E+01 0. -1.
        4   -1    0    0  501    0  0.00000000000E+00  0.00000000000E+00 -0.11347550181E+04  0.11347557287E+04  0.12699999809E+01 0.  1.
    10030    2    1    2    0    0  0.00000000000E+00  0.00000000000E+00  0.13586003825E+03  0.24053714197E+04  0.24015315357E+04 0.  0.
        4    1    3    3  502    0  0.41493776946E+03 -0.77111403817E+03 -0.75499588040E+03  0.11562052606E+04  0.12699999809E+01 0.  1.
       -4    1    3    3    0  502 -0.41493776946E+03  0.77111403817E+03  0.89085591865E+03  0.12491661591E+04  0.12699999809E+01 0. -1.
</event>
<event>
 5   0  0.4856882E-05  0.2406324E+04  0.7818609E-02  0.8437140E-01
        2   -1    0    0  501    0  0.00000000000E+00  0.00000000000E+00  0.10736746438E+04  0.10736746438E+04  0.25500000920E-02 0.  1.
       -2   -1    0    0    0  501  0.00000000000E+00  0.00000000000E+00 -0.13482657882E+04  0.13482657882E+04  0.25500000920E-02 0. -1.
    10030    2    1    2    0    0  0.00000000000E+00  0.00000000000E+00 -0.27459114441E+03  0.24219404319E+04  0.24063239930E+04 0.  0.
        1    1    3    3  502    0 -0.58257683980E+03 -0.50481641010E+03 -0.10670673600E+04  0.13163844928E+04  0.50400001928E-02 0. -1.
       -1    1    3    3    0  502  0.58257683980E+03  0.50481641010E+03  0.79247621558E+03  0.11055559391E+04  0.50400001928E-02 0.  1.
</event>
<event>
 5   0  0.2149920E-05  0.2377551E+04  0.7818609E-02  0.8447956E-01
       -1   -1    0    0    0  501  0.00000000000E+00  0.00000000000E+00  0.19465472375E+04  0.19465472375E+04  0.50400001928E-02 0.  1.
        1   -1    0    0  501    0  0.00000000000E+00  0.00000000000E+00 -0.72599677722E+03  0.72599677724E+03  0.50400001928E-02 0. -1.
    10030    2    1    2    0    0  0.00000000000E+00  0.00000000000E+00  0.12205504603E+04  0.26725440147E+04  0.23775508585E+04 0.  0.
        5    1    3    3  502    0  0.73331032562E+03  0.48672861080E+03 -0.28794120273E+03  0.92605669398E+03  0.46999998093E+01 0. -1.
       -5    1    3    3    0  502 -0.73331032562E+03 -0.48672861080E+03  0.15084916630E+04  0.17464873208E+04  0.46999998093E+01 0.  1.
</event>
<event>
 5   0  0.2139556E-05  0.2417990E+04  0.7818609E-02  0.8432799E-01
       -1   -1    0    0    0  501  0.00000000000E+00  0.00000000000E+00  0.14628478169E+04  0.14628478169E+04  0.50400001928E-02 0. -1.
        1   -1    0    0  501    0  0.00000000000E+00  0.00000000000E+00 -0.99919435087E+03  0.99919435088E+03  0.50400001928E-02 0.  1.
    10030    2    1    2    0    0  0.00000000000E+00  0.00000000000E+00  0.46365346599E+03  0.24620421678E+04  0.24179903017E+04 0.  0.
        2    1    3    3  502    0 -0.92632281194E+01 -0.50477727311E+03 -0.88672375341E+03  0.10203748908E+04  0.25500000920E-02 0.  1.
       -2    1    3    3    0  502  0.92632281194E+01  0.50477727311E+03  0.13503772194E+04  0.14416672770E+04  0.25500000920E-02 0. -1.
</event>
<event>
 5   0  0.2090039E-05  0.2395364E+04  0.7818609E-02  0.8441241E-01
        1   -1    0    0  501    0  0.00000000000E+00  0.00000000000E+00  0.14380660679E+04  0.14380660679E+04  0.50400001928E-02 0. -1.
       -1   -1    0    0    0  501  0.00000000000E+00  0.00000000000E+00 -0.99747968669E+03  0.99747968670E+03  0.50400001928E-02 0.  1.
    10030    2    1    2    0    0  0.00000000000E+00  0.00000000000E+00  0.44058638124E+03  0.24355457546E+04  0.23953635974E+04 0.  0.
        1    1    3    3  502    0 -0.56653014313E+03 -0.61908416075E+03  0.10891570560E+04  0.13749489786E+04  0.50400001928E-02 0. -1.
       -1    1    3    3    0  502  0.56653014313E+03  0.61908416075E+03 -0.64857067474E+03  0.10605967760E+04  0.50400001928E-02 0.  1.
</event>
<event>
 5   0  0.4713971E-05  0.2285267E+04  0.7818609E-02  0.8483753E-01
       -2   -1    0    0    0  501  0.00000000000E+00  0.00000000000E+00  0.78168033841E+03  0.78168033841E+03  0.25500000920E-02 0.  1.
        2   -1    0    0  501    0  0.00000000000E+00  0.00000000000E+00 -0.16702621433E+04  0.16702621433E+04  0.25500000920E-02 0. -1.
    10030    2    1    2    0    0  0.00000000000E+00  0.00000000000E+00 -0.88858180489E+03  0.24519424817E+04  0.22852667918E+04 0.  0.
        5    1    3    3  502    0  0.69049505810E+03 -0.64021633011E+02  0.53007741776E+03  0.87286101618E+03  0.46999998093E+01 0.  1.
       -5    1    3    3    0  502 -0.69049505810E+03  0.64021633011E+02 -0.14186592227E+04  0.15790814655E+04  0.46999998093E+01 0. -1.
</event>
<event>
 5   0  0.4713971E-05  0.2452615E+04  0.7818609E-02  0.8420064E-01
        2   -1    0    0  501    0  0.00000000000E+00  0.00000000000E+00  0.26406681697E+04  0.26406681697E+04  0.25500000920E-02 0.  1.
       -2   -1    0    0    0  501  0.00000000000E+00  0.00000000000E+00 -0.56948869480E+03  0.56948869480E+03  0.25500000920E-02 0. -1.
    10030    2    1    2    0    0  0.00000000000E+00  0.00000000000E+00  0.20711794749E+04  0.32101568645E+04  0.24526154769E+04 0.  0.
        5    1    3    3  502    0  0.22383612891E+02 -0.12260944019E+04  0.10359380927E+04  0.16053031895E+04  0.46999998093E+01 0. -1.
       -5    1    3    3    0  502 -0.22383612891E+02  0.12260944019E+04  0.10352413823E+04  0.16048536750E+04  0.46999998093E+01 0.  1.
</event>
<event>
 5   0  0.4664127E-05  0.2391345E+04  0.7818609E-02  0.8442751E-01
        2   -1    0    0  501    0  0.00000000000E+00  0.00000000000E+00  0.17266042424E+04  0.17266042424E+04  0.25500000920E-02 0. -1.
       -2   -1    0    0    0  501  0.00000000000E+00  0.00000000000E+00 -0.82800250143E+03  0.82800250144E+03  0.25500000920E-02 0.  1.
    10030    2    1    2    0    0  0.00000000000E+00  0.00000000000E+00  0.89860174093E+03  0.25546067438E+04  0.23913449201E+04 0.  0.
        4    1    3    3  502    0 -0.37070971870E+03  0.94485450244E+03 -0.22587345964E+03  0.10398058275E+04  0.12699999809E+01 0.  1.
       -4    1    3    3    0  502  0.37070971870E+03 -0.94485450244E+03  0.11244752006E+04  0.15148009163E+04  0.12699999809E+01 0. -1.
</event>
<event>
 5   0  0.2149920E-05  0.2460571E+04  0.7818609E-02  0.8417169E-01
        1   -1    0    0  501    0  0.00000000000E+00  0.00000000000E+00  0.16701627830E+04  0.16701627830E+04  0.50400001928E-02 0. -1.
       -1   -1    0    0    0  501  0.00000000000E+00  0.00000000000E+00 -0.90626023292E+03  0.90626023293E+03  0.50400001928E-02 0.  1.
    10030    2    1    2    0    0  0.00000000000E+00  0.00000000000E+00  0.76390255011E+03  0.25764230160E+04  0.24605707572E+04 0.  0.
        5    1    3    3  502    0 -0.11512450732E+04 -0.43380602832E+03  0.37649699110E+03  0.12865943273E+04  0.46999998093E+01 0.  1.
       -5    1    3    3    0  502  0.11512450732E+04  0.43380602832E+03  0.38740555901E+03  0.12898286886E+04  0.46999998093E+01 0. -1.
</event>
<event>
 5   0  0.4914005E-05  0.2294928E+04  0.7818609E-02  0.8479923E-01
        2   -1    0    0  501    0  0.00000000000E+00  0.00000000000E+00  0.89557261580E+03  0.89557261581E+03  0.25500000920E-02 0. -1.
       -2   -1    0    0    0  501  0.00000000000E+00  0.00000000000E+00 -0.14702035589E+04  0.14702035589E+04  0.25500000920E-02 0.  1.
    10030    2    1    2    0    0  0.00000000000E+00  0.00000000000E+00 -0.57463094306E+03  0.23657761747E+04  0.22949283623E+04 0.  0.
        2    1    3    3  502    0  0.75215623327E+03  0.52457033289E+03 -0.99836351515E+03  0.13555968213E+04  0.25500000920E-02 0.  1.
       -2    1    3    3    0  502 -0.75215623327E+03 -0.52457033289E+03  0.42373257210E+03  0.10101793534E+04  0.25500000920E-02 0. -1.
</event>
<event>
 5   0  0.2139556E-05  0.2209150E+04  0.7818609E-02  0.8514629E-01
        1   -1    0    0  501    0  0.00000000000E+00  0.00000000000E+00  0.25386295475E+04  0.25386295475E+04  0.50400001928E-02 0. -1.
       -1   -1    0    0    0  501  0.00000000000E+00  0.00000000000E+00 -0.48060811085E+03  0.48060811088E+03  0.50400001928E-02 0.  1.
    10030    2    1    2    0    0  0.00000000000E+00  0.00000000000E+00  0.20580214367E+04  0.30192376584E+04  0.22091500185E+04 0.  0.
        2    1    3    3  502    0 -0.10390449020E+04 -0.16522783251E+02  0.15407443871E+04  0.18584349806E+04  0.25500000920E-02 0. -1.
       -2    1    3    3    0  502  0.10390449020E+04  0.16522783251E+02  0.51727704956E+03  0.11608026778E+04  0.25500000920E-02 0.  1.
</event>
<event>
 5   0  0.4914005E-05  0.2386756E+04  0.7818609E-02  0.8444479E-01
        2   -1    0    0  501    0  0.00000000000E+00  0.00000000000E+00  0.14393858854E+04  0.14393858854E+04  0.25500000920E-02 0. -1.
       -2   -1    0    0    0  501  0.00000000000E+00  0.00000000000E+00 -0.98941558838E+03  0.98941558838E+03  0.25500000920E-02 0.  1.
    10030    2    1    2    0    0  0.00000000000E+00  0.00000000000E+00  0.44997029707E+03  0.24288014738E+04  0.23867558172E+04 0.  0.
        2    1    3    3  502    0  0.88513614938E+03  0.75028744512E+03 -0.58770309444E+02  0.11618309699E+04  0.25500000920E-02 0.  1.
       -2    1    3    3    0  502 -0.88513614938E+03 -0.75028744512E+03  0.50874060651E+03  0.12669705040E+04  0.25500000920E-02 0. -1.
</event>
<event>
 5   0  0.2149920E-05  0.2486610E+04  0.7818609E-02  0.8407771E-01
        1   -1    0    0  501    0  0.00000000000E+00  0.00000000000E+00  0.10583843638E+04  0.10583843638E+04  0.50400001928E-02 0.  1.
       -1   -1    0    0    0  501  0.00000000000E+00  0.00000000000E+00 -0.14605353396E+04  0.14605353396E+04  0.50400001928E-02 0. -1.
    10030    2    1    2    0    0  0.00000000000E+00  0.00000000000E+00 -0.40215097577E+03  0.25189197034E+04  0.24866103564E+04 0.  0.
        5    1    3    3  502    0  0.18857262813E+03  0.11476342182E+04 -0.64628777465E+03  0.13305389557E+04  0.46999998093E+01 0. -1.
       -5    1    3    3    0  502 -0.18857262813E+03 -0.11476342182E+04  0.24413679888E+03  0.11883807477E+04  0.46999998093E+01 0.  1.
</event>
<event>
 5   0  0.4664127E-05  0.2478441E+04  0.7818609E-02  0.8410706E-01
        2   -1    0    0  501    0  0.00000000000E+00  0.00000000000E+00  0.14814178087E+04  0.14814178087E+04  0.25500000920E-02 0. -1.
       -2   -1    0    0    0  501  0.00000000000E+00  0.00000000000E+00 -0.10366204978E+04  0.10366204978E+04  0.25500000920E-02 0.  1.
    10030    2    1    2    0    0  0.00000000000E+00  0.00000000000E+00  0.44479731093E+03  0.25180383065E+04  0.24784414992E+04 0.  0.
        4    1    3    3  502    0  0.11704539371E+04  0.10615334777E+03 -0.17686265820E+03  0.11884918867E+04  0.12699999809E+01 0.  1.
       -4    1    3    3    0  502 -0.11704539371E+04 -0.10615334777E+03  0.62165996914E+03  0.13295464197E+04  0.12699999809E+01 0. -1.
</event>
<event>
 5   0  0.2090039E-05  0.2442566E+04  0.7818609E-02  0.8423737E-01
        1   -1    0    0  501    0  0.00000000000E+00  0.00000000000E+00  0.14919709194E+04  0.14919709194E+04  0.50400001928E-02 0.  1.
       -1   -1    0    0    0  501  0.00000000000E+00  0.00000000000E+00 -0.99970604883E+03  0.99970604884E+03  0.50400001928E-02 0. -1.
    10030    2    1    2    0    0  0.00000000000E+00  0.00000000000E+00  0.49226487058E+03  0.24916769683E+04  0.24425661529E+04 0.  0.
        1    1    3    3  502    0  0.82306178682E+03 -0.88398840052E+03  0.61760668896E+02  0.12094133195E+04  0.50400001928E-02 0. -1.
       -1    1    3    3    0  502 -0.82306178682E+03  0.88398840052E+03  0.43050420168E+03  0.12822636487E+04  0.50400001928E-02 0.  1.
</event>
<event>
 5   0  0.2149920E-05  0.2427657E+04  0.7818609E-02  0.8429221E-01
       -1   -1    0    0    0  501  0.00000000000E+00  0.00000000000E+00  0.96581930279E+03  0.96581930280E+03  0.50400001928E-02 0. -1.
        1   -1    0    0  501    0  0.00000000000E+00  0.00000000000E+00 -0.15255234919E+04  0.15255234919E+04  0.50400001928E-02 0.  1.
    10030    2    1    2    0    0  0.00000000000E+00  0.00000000000E+00 -0.55970418907E+03  0.24913427947E+04  0.24276573361E+04 0.  0.
        5    1    3    3  502    0 -0.73398605167E+03  0.75064552005E+03  0.34535372749E+03  0.11052128790E+04  0.46999998093E+01 0. -1.
       -5    1    3    3    0  502  0.73398605167E+03 -0.75064552005E+03 -0.90505791656E+03  0.13861299157E+04  0.46999998093E+01 0.  1.
</event>
<event>
 5   0  0.2090039E-05  0.2389507E+04  0.7818609E-02  0.8443442E-01
        1   -1    0    0  501    0  0.00000000000E+00  0.00000000000E+00  0.14202713880E+04  0.14202713880E+04  0.50400001928E-02 0.  1.
       -1   -1    0    0    0  501  0.00000000000E+00  0.00000000000E+00 -0.10050447618E+04  0.10050447619E+04  0.50400001928E-02 0. -1.
    10030    2    1    2    0    0  0.00000000000E+00  0.00000000000E+00  0.41522662613E+03  0.24253161498E+04  0.23895073291E+04 0.  0.
        1    1    3    3  502    0  0.67100522909E+03 -0.26977267279E+03 -0.75764357902E+03  0.10474011196E+04  0.50400001928E-02 0. -1.
       -1    1    3    3    0  502 -0.67100522909E+03  0.26977267279E+03  0.11728702052E+04  0.13779150303E+04  0.50400001928E-02 0.  1.
</event>
<event>
 5   0  0.4914005E-05  0.2407104E+04  0.7818609E-02  0.8436849E-01
       -2   -1    0    0    0  501  0.00000000000E+00  0.00000000000E+00  0.84589594964E+03  0.84589594964E+03  0.25500000920E-02 0.  1.
        2   -1    0    0  501    0  0.00000000000E+00  0.00000000000E+00 -0.17124292797E+04  0.17124292797E+04  0.25500000920E-02 0. -1.
    10030    2    1    2    0    0  0.00000000000E+00  0.00000000000E+00 -0.86653333002E+03  0.25583252293E+04  0.24071036469E+04 0.  0.
        2    1    3    3  502    0 -0.96922592801E+03 -0.53964018680E+03  0.62886819269E+02  0.11111098878E+04  0.25500000920E-02 0.  1.
       -2    1    3    3    0  502  0.96922592801E+03  0.53964018680E+03 -0.92942014929E+03  0.14472153415E+04  0.25500000920E-02 0. -1.
</event>
<event>
 5   0  0.4756705E-05  0.2363943E+04  0.7818609E-02  0.8453127E-01
        2   -1    0    0  501    0  0.00000000000E+00  0.00000000000E+00  0.20677910497E+04  0.20677910497E+04  0.25500000920E-02 0.  1.
       -2   -1    0    0    0  501  0.00000000000E+00  0.00000000000E+00 -0.67562759680E+03  0.67562759680E+03  0.25500000920E-02 0. -1.
    10030    2    1    2    0    0  0.00000000000E+00  0.00000000000E+00  0.13921634529E+04  0.27434186465E+04  0.23639430599E+04 0.  0.
        3    1    3    3  502    0  0.59121279000E+00  0.64532198736E+03  0.18453053199E+04  0.19548893960E+04  0.10100000352E+00 0.  1.
       -3    1    3    3    0  502 -0.59121279000E+00 -0.64532198736E+03 -0.45314186704E+03  0.78852925042E+03  0.10100000352E+00 0. -1.
</event>
<event>
 5   0  0.2149920E-05  0.2566604E+04  0.7818609E-02  0.8379634E-01
        1   -1    0    0  501    0  0.00000000000E+00  0.00000000000E+00  0.22350119603E+04  0.22350119603E+04  0.50400001928E-02 0.  1.
       -1   -1    0    0    0  501  0.00000000000E+00  0.00000000000E+00 -0.73684824102E+03  0.73684824103E+03  0.50400001928E-02 0. -1.
    10030    2    1    2    0    0  0.00000000000E+00  0.00000000000E+00  0.14981637193E+04  0.29718602014E+04  0.25666044741E+04 0.  0.
        5    1    3    3  502    0  0.46778236395E+03  0.19398971462E+02  0.21325834969E+04  0.21833760834E+04  0.46999998093E+01 0.  1.
       -5    1    3    3    0  502 -0.46778236395E+03 -0.19398971462E+02 -0.63441977761E+03  0.78848411800E+03  0.46999998093E+01 0. -1.
</event>
<event>
 5   0  0.4713971E-05  0.2414414E+04  0.7818609E-02  0.8434127E-01
       -2   -1    0    0    0  501  0.00000000000E+00  0.00000000000E+00  0.53069866534E+03  0.53069866535E+03  0.25500000920E-02 0. -1.
        2   -1    0    0  501    0  0.00000000000E+00  0.00000000000E+00 -0.27460938937E+04  0.27460938937E+04  0.25500000920E-02 0.  1.
    10030    2    1    2    0    0  0.00000000000E+00  0.00000000000E+00 -0.22153952284E+04  0.32767925590E+04  0.24144136881E+04 0.  0.
        5    1    3    3  502    0 -0.89423388050E+02  0.25922323815E+03 -0.27032541210E+04  0.27171305015E+04  0.46999998093E+01 0.  1.
       -5    1    3    3    0  502  0.89423388050E+02 -0.25922323815E+03  0.48785889264E+03  0.55966205754E+03  0.46999998093E+01 0. -1.
</event>
<event>
 5   0  0.4713971E-05  0.2349604E+04  0.7818609E-02  0.8458616E-01
        2   -1    0    0  501    0  0.00000000000E+00  0.00000000000E+00  0.11462693263E+04  0.11462693263E+04  0.25500000920E-02 0.  1.
       -2   -1    0    0    0  501  0.00000000000E+00  0.00000000000E+00 -0.12040451464E+04  0.12040451464E+04  0.25500000920E-02 0. -1.
    10030    2    1    2    0    0  0.00000000000E+00  0.00000000000E+00 -0.57775820084E+02  0.23503144727E+04  0.23496042380E+04 0.  0.
        5    1    3    3  502    0  0.19758520330E+03  0.11410532487E+04  0.16889767810E+03  0.11702952382E+04  0.46999998093E+01 0.  1.
       -5    1    3    3    0  502 -0.19758520330E+03 -0.11410532487E+04 -0.22667349818E+03  0.11800192345E+04  0.46999998093E+01 0. -1.
</event>
<event>
 5   0  0.4713971E-05  0.2379199E+04  0.7818609E-02  0.8447332E-01
       -2   -1    0    0    0  501  0.00000000000E+00  0.00000000000E+00  0.68069687781E+03  0.68069687782E+03  0.25500000920E-02 0.  1.
        2   -1    0    0  501    0  0.00000000000E+00  0.00000000000E+00 -0.20789677794E+04  0.20789677794E+04  0.25500000920E-02 0. -1.
    10030    2    1    2    0    0  0.00000000000E+00  0.00000000000E+00 -0.13982709015E+04  0.27596646572E+04  0.23791989211E+04 0.  0.
        5    1    3    3  502    0  0.53724430540E+03  0.10047300282E+04 -0.30236552894E+03  0.11787963676E+04  0.46999998093E+01 0. -1.
       -5    1    3    3    0  502 -0.53724430540E+03 -0.10047300282E+04 -0.10959053726E+04  0.15808682896E+04  0.46999998093E+01 0.  1.
</event>
<event>
 5   0  0.2090039E-05  0.2402336E+04  0.7818609E-02  0.8438630E-01
       -1   -1    0    0    0  501  0.00000000000E+00  0.00000000000E+00  0.72366501453E+03  0.72366501454E+03  0.50400001928E-02 0.  1.
        1   -1    0    0  501    0  0.00000000000E+00  0.00000000000E+00 -0.19937458151E+04  0.19937458151E+04  0.50400001928E-02 0. -1.
    10030    2    1    2    0    0  0.00000000000E+00  0.00000000000E+00 -0.12700808005E+04  0.27174108296E+04  0.24023356087E+04 0.  0.
        1    1    3    3  502    0  0.72896582700E+03 -0.84887113503E+03 -0.11291755637E+04  0.15896574582E+04  0.50400001928E-02 0. -1.
       -1    1    3    3    0  502 -0.72896582700E+03  0.84887113503E+03 -0.14090523681E+03  0.11277533714E+04  0.50400001928E-02 0.  1.
</event>
<event>
 5   0  0.4664127E-05  0.2297296E+04  0.7818609E-02  0.8478988E-01
       -2   -1    0    0    0  501  0.00000000000E+00  0.00000000000E+00  0.79775280100E+03  0.79775280101E+03  0.25500000920E-02 0.  1.
        2   -1    0    0  501    0  0.00000000000E+00  0.00000000000E+00 -0.16538866710E+04  0.16538866710E+04  0.25500000920E-02 0. -1.
    10030    2    1    2    0    0  0.00000000000E+00  0.00000000000E+00 -0.85613387003E+03  0.24516394720E+04  0.22972964322E+04 0.  0.
        4    1    3    3  502    0 -0.11429156336E+04  0.66798575913E+02 -0.32868163737E+03  0.11911135239E+04  0.12699999809E+01 0.  1.
       -4    1    3    3    0  502  0.11429156336E+04 -0.66798575913E+02 -0.52745223265E+03  0.12605259481E+04  0.12699999809E+01 0. -1.
</event>
<event>
 5   0  0.2090039E-05  0.2414976E+04  0.7818609E-02  0.8433918E-01
        1   -1    0    0  501    0  0.00000000000E+00  0.00000000000E+00  0.17724373595E+04  0.17724373595E+04  0.50400001928E-02 0.  1.
       -1   -1    0    0    0  501  0.00000000000E+00  0.00000000000E+00 -0.82261164300E+03  0.82261164301E+03  0.50400001928E-02 0. -1.
    10030    2    1    2    0    0  0.00000000000E+00  0.00000000000E+00  0.94982571648E+03  0.25950490025E+04  0.24149762802E+04 0.  0.
        1    1    3    3  502    0 -0.10294838702E+04  0.62426785548E+03  0.37595823215E+03  0.12613056674E+04  0.50400001928E-02 0. -1.
       -1    1    3    3    0  502  0.10294838702E+04 -0.62426785548E+03  0.57386748433E+03  0.13337433351E+04  0.50400001928E-02 0.  1.
</event>
<event>
 5   0  0.2090039E-05  0.2429452E+04  0.7818609E-02  0.8428559E-01
       -1   -1    0    0    0  501  0.00000000000E+00  0.00000000000E+00  0.17313469637E+04  0.17313469637E+04  0.50400001928E-02 0.  1.
        1   -1    0    0  501    0  0.00000000000E+00  0.00000000000E+00 -0.85226109428E+03  0.85226109429E+03  0.50400001928E-02 0. -1.
    10030    2    1    2    0    0  0.00000000000E+00  0.00000000000E+00  0.87908586938E+03  0.25836080580E+04  0.24294523316E+04 0.  0.
        1    1    3    3  502    0 -0.82785272041E+03 -0.82154734698E+03  0.78470555777E+02  0.11689473034E+04  0.50400001928E-02 0. -1.
       -1    1    3    3    0  502  0.82785272041E+03  0.82154734698E+03  0.80061531360E+03  0.14146607545E+04  0.50400001928E-02 0.  1.
</event>
<event>
 5   0  0.2139556E-05  0.2351441E+04  0.7818609E-02  0.8457910E-01
       -1   -1    0    0    0  501  0.00000000000E+00  0.00000000000E+00  0.12830241916E+04  0.12830241916E+04  0.50400001928E-02 0. -1.
        1   -1    0    0  501    0  0.00000000000E+00  0.00000000000E+00 -0.10773911375E+04  0.10773911375E+04  0.50400001928E-02 0.  1.
    10030    2    1    2    0    0  0.00000000000E+00  0.00000000000E+00  0.20563305406E+03  0.23604153292E+04  0.23514411694E+04 0.  0.
        2    1    3    3  502    0  0.28088208945E+03  0.74823321117E+03  0.96841322478E+03  0.12556161278E+04  0.25500000920E-02 0. -1.
       -2    1    3    3    0  502 -0.28088208945E+03 -0.74823321117E+03 -0.76278017072E+03  0.11047992014E+04  0.25500000920E-02 0.  1.
</event>
<event>
 5   0  0.4664127E-05  0.2387357E+04  0.7818609E-02  0.8444252E-01
        2   -1    0    0  501    0  0.00000000000E+00  0.00000000000E+00  0.14570759114E+04  0.14570759114E+04  0.25500000920E-02 0. -1.
       -2   -1    0    0    0  501  0.00000000000E+00  0.00000000000E+00 -0.97789604207E+03  0.97789604208E+03  0.25500000920E-02 0.  1.
    10030    2    1    2    0    0  0.00000000000E+00  0.00000000000E+00  0.47917986931E+03  0.24349719535E+04  0.23873573396E+04 0.  0.
        4    1    3    3  502    0 -0.68344343033E+03  0.65638874144E+03 -0.50078442434E+03  0.10717871780E+04  0.12699999809E+01 0.  1.
       -4    1    3    3    0  502  0.68344343033E+03 -0.65638874144E+03  0.97996429365E+03  0.13631847755E+04  0.12699999809E+01 0. -1.
</event>
<event>
 5   0  0.2057599E-05  0.2405145E+04  0.7818609E-02  0.8437580E-01
        1   -1    0    0  501    0  0.00000000000E+00  0.00000000000E+00  0.12433646315E+04  0.12433646315E+04  0.50400001928E-02 0.  1.
       -1   -1    0    0    0  501  0.00000000000E+00  0.00000000000E+00 -0.11631183348E+04  0.11631183348E+04  0.50400001928E-02 0. -1.
    10030    2    1    2    0    0  0.00000000000E+00  0.00000000000E+00  0.80246296740E+02  0.24064829663E+04  0.24051446524E+04 0.  0.
        4    1    3    3  502    0 -0.80278314210E+03 -0.16526690271E+03  0.92061546556E+03  0.12326022760E+04  0.12699999809E+01 0. -1.
       -4    1    3    3    0  502  0.80278314210E+03  0.16526690271E+03 -0.84036916882E+03  0.11738806903E+04  0.12699999809E+01 0.  1.
</event>
<event>
 5   0  0.2065692E-05  0.2388599E+04  0.7818609E-02  0.8443784E-01
        1   -1    0    0  501    0  0.00000000000E+00  0.00000000000E+00  0.11037952556E+04  0.11037952557E+04  0.50400001928E-02 0. -1.
       -1   -1    0    0    0  501  0.00000000000E+00  0.00000000000E+00 -0.12922247700E+04  0.12922247701E+04  0.50400001928E-02 0.  1.
    10030    2    1    2    0    0  0.00000000000E+00  0.00000000000E+00 -0.18842951441E+03  0.23960200257E+04  0.23885992300E+04 0.  0.
        3    1    3    3  502    0  0.14247998691E+03 -0.65732598487E+02  0.10934103675E+04  0.11046119514E+04  0.10100000352E+00 0. -1.
       -3    1    3    3    0  502 -0.14247998691E+03  0.65732598487E+02 -0.12818398820E+04  0.12914080743E+04  0.10100000352E+00 0.  1.
</event>
<event>
 5   0  0.4856882E-05  0.2373529E+04  0.7818609E-02  0.8449481E-01
       -2   -1    0    0    0  501  0.00000000000E+00  0.00000000000E+00  0.17474435882E+04  0.17474435882E+04  0.25500000920E-02 0. -1.
        2   -1    0    0  501    0  0.00000000000E+00  0.00000000000E+00 -0.80598319682E+03  0.80598319682E+03  0.25500000920E-02 0.  1.
    10030    2    1    2    0    0  0.00000000000E+00  0.00000000000E+00  0.94146039140E+03  0.25534267850E+04  0.23735291610E+04 0.  0.
        1    1    3    3  502    0 -0.20207056256E+03 -0.28129707601E+03 -0.75040165070E+03  0.82647637269E+03  0.50400001928E-02 0.  1.
       -1    1    3    3    0  502  0.20207056256E+03  0.28129707601E+03  0.16918620421E+04  0.17269504124E+04  0.50400001928E-02 0. -1.
</event>
<event>
 5   0  0.4713971E-05  0.1949526E+04  0.7818609E-02  0.8630589E-01
        2   -1    0    0  501    0  0.00000000000E+00  0.00000000000E+00  0.19682444676E+04  0.19682444676E+04  0.25500000920E-02 0.  1.
       -2   -1    0    0    0  501  0.00000000000E+00  0.00000000000E+00 -0.48274636380E+03  0.48274636381E+03  0.25500000920E-02 0. -1.
    10030    2    1    2    0    0  0.00000000000E+00  0.00000000000E+00  0.14854981038E+04  0.24509908314E+04  0.19495259525E+04 0.  0.
        5    1    3    3  502    0  0.29795538081E+03 -0.73111031699E+03  0.14615042099E+04  0.16611190054E+04  0.46999998093E+01 0.  1.
       -5    1    3    3    0  502 -0.29795538081E+03  0.73111031699E+03  0.23993893885E+02  0.78987182600E+03  0.46999998093E+01 0. -1.
</event>
<event>
 5   0  0.2057599E-05  0.2406828E+04  0.7818609E-02  0.8436952E-01
       -1   -1    0    0    0  501  0.00000000000E+00  0.00000000000E+00  0.10737548502E+04  0.10737548502E+04  0.50400001928E-02 0. -1.
        1   -1    0    0  501    0  0.00000000000E+00  0.00000000000E+00 -0.13487304429E+04  0.13487304429E+04  0.50400001928E-02 0.  1.
    10030    2    1    2    0    0  0.00000000000E+00  0.00000000000E+00 -0.27497559264E+03  0.24224852931E+04  0.24068284980E+04 0.  0.
        4    1    3    3  502    0  0.78871500428E+03 -0.51628223080E+03 -0.89040851231E+03  0.12967064554E+04  0.12699999809E+01 0.  1.
       -4    1    3    3    0  502 -0.78871500428E+03  0.51628223080E+03  0.61543291968E+03  0.11257788377E+04  0.12699999809E+01 0. -1.
</event>
<event>
 5   0  0.4664127E-05  0.2411238E+04  0.7818609E-02  0.8435308E-01
        2   -1    0    0  501    0  0.00000000000E+00  0.00000000000E+00  0.14247808726E+04  0.14247808726E+04  0.25500000920E-02 0.  1.
       -2   -1    0    0    0  501  0.00000000000E+00  0.00000000000E+00 -0.10201687428E+04  0.10201687428E+04  0.25500000920E-02 0. -1.
    10030    2    1    2    0    0  0.00000000000E+00  0.00000000000E+00  0.40461212982E+03  0.24449496154E+04  0.24112377830E+04 0.  0.
        4    1    3    3  502    0  0.54344900705E+03  0.47822577927E+03  0.11798798938E+04  0.13842524682E+04  0.12699999809E+01 0.  1.
       -4    1    3    3    0  502 -0.54344900705E+03 -0.47822577927E+03 -0.77526776396E+03  0.10606971471E+04  0.12699999809E+01 0. -1.
</event>
<event>
 5   0  0.4914005E-05  0.2471163E+04  0.7818609E-02  0.8413331E-01
       -2   -1    0    0    0  501  0.00000000000E+00  0.00000000000E+00  0.12121227376E+04  0.12121227376E+04  0.25500000920E-02 0. -1.
        2   -1    0    0  501    0  0.00000000000E+00  0.00000000000E+00 -0.12594942971E+04  0.12594942971E+04  0.25500000920E-02 0.  1.
    10030    2    1    2    0    0  0.00000000000E+00  0.00000000000E+00 -0.47371559450E+02  0.24716170347E+04  0.24711630261E+04 0.  0.
        2    1    3    3  502    0 -0.54389212015E+03 -0.51275468875E+03 -0.10076986651E+04  0.12546683262E+04  0.25500000920E-02 0.  1.
       -2    1    3    3    0  502  0.54389212015E+03  0.51275468875E+03  0.96032710565E+03  0.12169487085E+04  0.25500000920E-02 0. -1.
</event>
<event>
 5   0  0.2090039E-05  0.2379887E+04  0.7818609E-02  0.8447072E-01
       -1   -1    0    0    0  501  0.00000000000E+00  0.00000000000E+00  0.93100536807E+03  0.93100536808E+03  0.50400001928E-02 0. -1.
        1   -1    0    0  501    0  0.00000000000E+00  0.00000000000E+00 -0.15208989485E+04  0.15208989485E+04  0.50400001928E-02 0.  1.
    10030    2    1    2    0    0  0.00000000000E+00  0.00000000000E+00 -0.58989358042E+03  0.24519043166E+04  0.23798866237E+04 0.  0.
        1    1    3    3  502    0 -0.28069750491E+03 -0.11554091692E+04 -0.34331036029E+03  0.12375877508E+04  0.50400001928E-02 0.  1.
       -1    1    3    3    0  502  0.28069750491E+03  0.11554091692E+04 -0.24658322014E+03  0.12143165658E+04  0.50400001928E-02 0. -1.
</event>
<event>
 5   0  0.4914005E-05  0.2499861E+04  0.7818609E-02  0.8403035E-01
        2   -1    0    0  501    0  0.00000000000E+00  0.00000000000E+00  0.15189587253E+04  0.15189587253E+04  0.25500000920E-02 0. -1.
       -2   -1    0    0    0  501  0.00000000000E+00  0.00000000000E+00 -0.10285507255E+04  0.10285507255E+04  0.25500000920E-02 0.  1.
    10030    2    1    2    0    0  0.00000000000E+00  0.00000000000E+00  0.49040799983E+03  0.25475094509E+04  0.24998608753E+04 0.  0.
        2    1    3    3  502    0 -0.29698031012E+03 -0.48745888406E+03  0.13783848920E+04  0.14918975765E+04  0.25500000920E-02 0. -1.
       -2    1    3    3    0  502  0.29698031012E+03  0.48745888406E+03 -0.88797689218E+03  0.10556118744E+04  0.25500000920E-02 0.  1.
</event>
<event>
 5   0  0.2139556E-05  0.2397538E+04  0.7818609E-02  0.8440426E-01
       -1   -1    0    0    0  501  0.00000000000E+00  0.00000000000E+00  0.71081453615E+03  0.71081453617E+03  0.50400001928E-02 0.  1.
        1   -1    0    0  501    0  0.00000000000E+00  0.00000000000E+00 -0.20216913198E+04  0.20216913198E+04  0.50400001928E-02 0. -1.
    10030    2    1    2    0    0  0.00000000000E+00  0.00000000000E+00 -0.13108767836E+04  0.27325058560E+04  0.23975383857E+04 0.  0.
        2    1    3    3  502    0 -0.74201222415E+02 -0.11932908408E+04 -0.55608884020E+03  0.13185915404E+04  0.25500000920E-02 0. -1.
       -2    1    3    3    0  502  0.74201222415E+02  0.11932908408E+04 -0.75478794344E+03  0.14139143156E+04  0.25500000920E-02 0.  1.
</event>
<event>
 5   0  0.2057599E-05  0.2423504E+04  0.7818609E-02  0.8430756E-01
       -1   -1    0    0    0  501  0.00000000000E+00  0.00000000000E+00  0.12832079930E+04  0.12832079930E+04  0.50400001928E-02 0.  1.
        1   -1    0    0  501    0  0.00000000000E+00  0.00000000000E+00 -0.11442747986E+04  0.11442747986E+04  0.50400001928E-02 0. -1.
    10030    2    1    2    0    0  0.00000000000E+00  0.00000000000E+00  0.13893319441E+03  0.24274827916E+04  0.24235037180E+04 0.  0.
        4    1    3    3  502    0 -0.43552782759E+03 -0.99154405187E+03  0.61395533887E+03  0.12449043604E+04  0.12699999809E+01 0.  1.
       -4    1    3    3    0  502  0.43552782759E+03  0.99154405187E+03 -0.47502214446E+03  0.11825784312E+04  0.12699999809E+01 0. -1.
</event>
<event>
 5   0  0.4856882E-05  0.2377702E+04  0.7818609E-02  0.8447899E-01
        2   -1    0    0  501    0  0.00000000000E+00  0.00000000000E+00  0.17648870865E+04  0.17648870865E+04  0.25500000920E-02 0. -1.
       -2   -1    0    0    0  501  0.00000000000E+00  0.00000000000E+00 -0.80082587721E+03  0.80082587722E+03  0.25500000920E-02 0.  1.
    10030    2    1    2    0    0  0.00000000000E+00  0.00000000000E+00  0.96406120928E+03  0.25657129637E+04  0.23777024618E+04 0.  0.
        1    1    3    3  502    0  0.69925624888E+02 -0.30988030101E+03  0.17182406026E+04  0.17473597690E+04  0.50400001928E-02 0. -1.
       -1    1    3    3    0  502 -0.69925624888E+02  0.30988030101E+03 -0.75417939330E+03  0.81835319470E+03  0.50400001928E-02 0.  1.
</event>
<event>
 5   0  0.4914005E-05  0.2378438E+04  0.7818609E-02  0.8447620E-01
       -2   -1    0    0    0  501  0.00000000000E+00  0.00000000000E+00  0.17045332350E+04  0.17045332350E+04  0.25500000920E-02 0. -1.
        2   -1    0    0  501    0  0.00000000000E+00  0.00000000000E+00 -0.82969475095E+03  0.82969475095E+03  0.25500000920E-02 0.  1.
    10030    2    1    2    0    0  0.00000000000E+00  0.00000000000E+00  0.87483848403E+03  0.25342279859E+04  0.23784383766E+04 0.  0.
        2    1    3    3  502    0 -0.40936778357E+03 -0.53309307261E+03 -0.60789735760E+03  0.90626122265E+03  0.25500000920E-02 0.  1.
       -2    1    3    3    0  502  0.40936778357E+03  0.53309307261E+03  0.14827358416E+04  0.16279667633E+04  0.25500000920E-02 0. -1.
</event>
<event>
 5   0  0.2090039E-05  0.2411022E+04  0.7818609E-02  0.8435388E-01
       -1   -1    0    0    0  501  0.00000000000E+00  0.00000000000E+00  0.11229828556E+04  0.11229828556E+04  0.50400001928E-02 0.  1.
        1   -1    0    0  501    0  0.00000000000E+00  0.00000000000E+00 -0.12941045281E+04  0.12941045282E+04  0.50400001928E-02 0. -1.
    10030    2    1    2    0    0  0.00000000000E+00  0.00000000000E+00 -0.17112167256E+03  0.24170873838E+04  0.24110223545E+04 0.  0.
        1    1    3    3  502    0  0.34791672792E+03 -0.16286563630E+03  0.10599797403E+04  0.11274432647E+04  0.50400001928E-02 0.  1.
       -1    1    3    3    0  502 -0.34791672792E+03  0.16286563630E+03 -0.12311014129E+04  0.12896441191E+04  0.50400001928E-02 0. -1.
</event>
<event>
 5   0  0.2139556E-05  0.2410984E+04  0.7818609E-02  0.8435403E-01
        1   -1    0    0  501    0  0.00000000000E+00  0.00000000000E+00  0.14230877257E+04  0.14230877257E+04  0.50400001928E-02 0.  1.
       -1   -1    0    0    0  501  0.00000000000E+00  0.00000000000E+00 -0.10211679200E+04  0.10211679200E+04  0.50400001928E-02 0. -1.
    10030    2    1    2    0    0  0.00000000000E+00  0.00000000000E+00  0.40191980570E+03  0.24442556457E+04  0.24109844735E+04 0.  0.
        2    1    3    3  502    0  0.11076070721E+03  0.11956466962E+04  0.30907383041E+03  0.12399054759E+04  0.25500000920E-02 0.  1.
       -2    1    3    3    0  502 -0.11076070721E+03 -0.11956466962E+04  0.92845975292E+02  0.12043501699E+04  0.25500000920E-02 0. -1.
</event>
<event>
 5   0  0.4856882E-05  0.2240775E+04  0.7818609E-02  0.8501646E-01
       -2   -1    0    0    0  501  0.00000000000E+00  0.00000000000E+00  0.74972560845E+03  0.74972560846E+03  0.25500000920E-02 0. -1.
        2   -1    0    0  501    0  0.00000000000E+00  0.00000000000E+00 -0.16743027604E+04  0.16743027604E+04  0.25500000920E-02 0.  1.
    10030    2    1    2    0    0  0.00000000000E+00  0.00000000000E+00 -0.92457715199E+03  0.24240283689E+04  0.22407745588E+04 0.  0.
        1    1    3    3  502    0  0.10354701411E+04 -0.26212709157E+03 -0.82811410256E+03  0.13515479984E+04  0.50400001928E-02 0.  1.
       -1    1    3    3    0  502 -0.10354701411E+04  0.26212709157E+03 -0.96463049438E+02  0.10724803705E+04  0.50400001928E-02 0. -1.
</event>
<event>
 5   0  0.2139556E-05  0.2502454E+04  0.7818609E-02  0.8402112E-01
        1   -1    0    0  501    0  0.00000000000E+00  0.00000000000E+00  0.14526368753E+04  0.14526368754E+04  0.50400001928E-02 0. -1.
       -1   -1    0    0    0  501  0.00000000000E+00  0.00000000000E+00 -0.10777424959E+04  0.10777424959E+04  0.50400001928E-02 0.  1.
    10030    2    1    2    0    0  0.00000000000E+00  0.00000000000E+00  0.37489437944E+03  0.25303793713E+04  0.25024535893E+04 0.  0.
        2    1    3    3  502    0  0.66294605706E+03 -0.92421820164E+03 -0.33980404802E+03  0.11870735234E+04  0.25500000920E-02 0.  1.
       -2    1    3    3    0  502 -0.66294605706E+03  0.92421820164E+03  0.71469842746E+03  0.13433058479E+04  0.25500000920E-02 0. -1.
</event>
<event>
 5   0  0.2065692E-05  0.2758242E+04  0.7818609E-02  0.8316351E-01
       -1   -1    0    0    0  501  0.00000000000E+00  0.00000000000E+00  0.13067844585E+04  0.13067844585E+04  0.50400001928E-02 0.  1.
        1   -1    0    0  501    0  0.00000000000E+00  0.00000000000E+00 -0.14554614315E+04  0.14554614315E+04  0.50400001928E-02 0. -1.
    10030    2    1    2    0    0  0.00000000000E+00  0.00000000000E+00 -0.14867697297E+03  0.27622458900E+04  0.27582417433E+04 0.  0.
        3    1    3    3  502    0 -0.11933543920E+04 -0.56774005121E+03 -0.46931045130E+03  0.14023821806E+04  0.10100000352E+00 0. -1.
       -3    1    3    3    0  502  0.11933543920E+04  0.56774005121E+03  0.32063347833E+03  0.13598637094E+04  0.10100000352E+00 0.  1.
</event>
<event>
 5   0  0.4664127E-05  0.2418933E+04  0.7818609E-02  0.8432449E-01
       -2   -1    0    0    0  501  0.00000000000E+00  0.00000000000E+00  0.87099777354E+03  0.87099777355E+03  0.25500000920E-02 0. -1.
        2   -1    0    0  501    0  0.00000000000E+00  0.00000000000E+00 -0.16794635135E+04  0.16794635135E+04  0.25500000920E-02 0.  1.
    10030    2    1    2    0    0  0.00000000000E+00  0.00000000000E+00 -0.80846573999E+03  0.25504612871E+04  0.24189328069E+04 0.  0.
        4    1    3    3  502    0 -0.93490988715E+03  0.75307325168E+03 -0.55930678012E+03  0.13243872193E+04  0.12699999809E+01 0. -1.
       -4    1    3    3    0  502  0.93490988715E+03 -0.75307325168E+03 -0.24915895987E+03  0.12260740678E+04  0.12699999809E+01 0.  1.
</event>
<event>
 5   0  0.4664127E-05  0.2284425E+04  0.7818609E-02  0.8484087E-01
        2   -1    0    0  501    0  0.00000000000E+00  0.00000000000E+00  0.12873377392E+04  0.12873377392E+04  0.25500000920E-02 0.  1.
       -2   -1    0    0    0  501  0.00000000000E+00  0.00000000000E+00 -0.10134478580E+04  0.10134478581E+04  0.25500000920E-02 0. -1.
    10030    2    1    2    0    0  0.00000000000E+00  0.00000000000E+00  0.27388988116E+03  0.23007855973E+04  0.22844252445E+04 0.  0.
        4    1    3    3  502    0  0.86834530702E+03 -0.47543486718E+03  0.71074978333E+03  0.12186996154E+04  0.12699999809E+01 0.  1.
       -4    1    3    3    0  502 -0.86834530702E+03  0.47543486718E+03 -0.43685990217E+03  0.10820859819E+04  0.12699999809E+01 0. -1.
</event>
<event>
 5   0  0.4664127E-05  0.2382753E+04  0.7818609E-02  0.8445989E-01
        2   -1    0    0  501    0  0.00000000000E+00  0.00000000000E+00  0.14193257055E+04  0.14193257055E+04  0.25500000920E-02 0. -1.
       -2   -1    0    0    0  501  0.00000000000E+00  0.00000000000E+00 -0.10000371527E+04  0.10000371527E+04  0.25500000920E-02 0.  1.
    10030    2    1    2    0    0  0.00000000000E+00  0.00000000000E+00  0.41928855282E+03  0.24193628582E+04  0.23827533966E+04 0.  0.
        4    1    3    3  502    0 -0.24051541007E+03  0.16064614559E+03 -0.96384722234E+03  0.10063090616E+04  0.12699999809E+01 0.  1.
       -4    1    3    3    0  502  0.24051541007E+03 -0.16064614559E+03  0.13831357752E+04  0.14130537966E+04  0.12699999809E+01 0. -1.
</event>
<event>
 5   0  0.4756705E-05  0.2393227E+04  0.7818609E-02  0.8442044E-01
        2   -1    0    0  501    0  0.00000000000E+00  0.00000000000E+00  0.17217842194E+04  0.17217842194E+04  0.25500000920E-02 0. -1.
       -2   -1    0    0    0  501  0.00000000000E+00  0.00000000000E+00 -0.83162769581E+03  0.83162769582E+03  0.25500000920E-02 0.  1.
    10030    2    1    2    0    0  0.00000000000E+00  0.00000000000E+00  0.89015652362E+03  0.25534119153E+04  0.23932266446E+04 0.  0.
        3    1    3    3  502    0  0.90824457053E+03  0.55364624135E+03 -0.13974404644E+03  0.10728283969E+04  0.10100000352E+00 0.  1.
       -3    1    3    3    0  502 -0.90824457053E+03 -0.55364624135E+03  0.10299005701E+04  0.14805835184E+04  0.10100000352E+00 0. -1.
</event>
<event>
 5   0  0.2090039E-05  0.2408863E+04  0.7818609E-02  0.8436193E-01
        1   -1    0    0  501    0  0.00000000000E+00  0.00000000000E+00  0.18302275735E+04  0.18302275735E+04  0.50400001928E-02 0.  1.
       -1   -1    0    0    0  501  0.00000000000E+00  0.00000000000E+00 -0.79260919320E+03  0.79260919322E+03  0.50400001928E-02 0. -1.
    10030    2    1    2    0    0  0.00000000000E+00  0.00000000000E+00  0.10376183803E+04  0.26228367667E+04  0.24088629687E+04 0.  0.
        1    1    3    3  502    0  0.11645604317E+04 -0.10222514126E+03  0.83438937349E+03  0.14362648103E+04  0.50400001928E-02 0.  1.
       -1    1    3    3    0  502 -0.11645604317E+04  0.10222514126E+03  0.20322900681E+03  0.11865719565E+04  0.50400001928E-02 0. -1.
</event>
<event>
 5   0  0.4914005E-05  0.2356659E+04  0.7818609E-02  0.8455910E-01
        2   -1    0    0  501    0  0.00000000000E+00  0.00000000000E+00  0.24395955021E+04  0.24395955021E+04  0.25500000920E-02 0.  1.
       -2   -1    0    0    0  501  0.00000000000E+00  0.00000000000E+00 -0.56913548852E+03  0.56913548852E+03  0.25500000920E-02 0. -1.
    10030    2    1    2    0    0  0.00000000000E+00  0.00000000000E+00  0.18704600135E+04  0.30087309906E+04  0.23566589722E+04 0.  0.
        2    1    3    3  502    0 -0.38009853774E+03  0.10687681112E+04  0.52804645196E+03  0.12512286878E+04  0.25500000920E-02 0.  1.
       -2    1    3    3    0  502  0.38009853774E+03 -0.10687681112E+04  0.13424135616E+04  0.17575023028E+04  0.25500000920E-02 0. -1.
</event>
<event>
 5   0  0.4856882E-05  0.2515604E+04  0.7818609E-02  0.8397448E-01
       -2   -1    0    0    0  501  0.00000000000E+00  0.00000000000E+00  0.53997025687E+03  0.53997025687E+03  0.25500000920E-02 0.  1.
        2   -1    0    0  501    0  0.00000000000E+00  0.00000000000E+00 -0.29299119306E+04  0.29299119306E+04  0.25500000920E-02 0. -1.
    10030    2    1    2    0    0  0.00000000000E+00  0.00000000000E+00 -0.23899416737E+04  0.34698821875E+04  0.25156035441E+04 0.  0.
        1    1    3    3  502    0  0.10056874467E+04  0.88009957340E+02 -0.22298577679E+04  0.24477374570E+04  0.50400001928E-02 0. -1.
       -1    1    3    3    0  502 -0.10056874467E+04 -0.88009957340E+02 -0.16008390581E+03  0.10221447305E+04  0.50400001928E-02 0.  1.
</event>
<event>
 5   0  0.2139556E-05  0.2373439E+04  0.7818609E-02  0.8449515E-01
        1   -1    0    0  501    0  0.00000000000E+00  0.00000000000E+00  0.17102912148E+04  0.17102912148E+04  0.50400001928E-02 0. -1.
       -1   -1    0    0    0  501  0.00000000000E+00  0.00000000000E+00 -0.82342859179E+03  0.82342859181E+03  0.50400001928E-02 0.  1.
    10030    2    1    2    0    0  0.00000000000E+00  0.00000000000E+00  0.88686262296E+03  0.25337198066E+04  0.23734385912E+04 0.  0.
        2    1    3    3  502    0  0.76017056051E+03 -0.78390319656E+03  0.93950513915E+03  0.14404976255E+04  0.25500000920E-02 0. -1.
       -2    1    3    3    0  502 -0.76017056051E+03  0.78390319656E+03 -0.52642516188E+02  0.10932221811E+04  0.25500000920E-02 0.  1.
</event>
<event>
 5   0  0.2139556E-05  0.2399638E+04  0.7818609E-02  0.8439639E-01
       -1   -1    0    0    0  501  0.00000000000E+00  0.00000000000E+00  0.11357637482E+04  0.11357637482E+04  0.50400001928E-02 0. -1.
        1   -1    0    0  501    0  0.00000000000E+00  0.00000000000E+00 -0.12674869885E+04  0.12674869885E+04  0.50400001928E-02 0.  1.
    10030    2    1    2    0    0  0.00000000000E+00  0.00000000000E+00 -0.13172324037E+03  0.24032507367E+04  0.23996381168E+04 0.  0.
        2    1    3    3  502    0  0.67337152550E+03  0.45938850722E+03 -0.94758397857E+03  0.12499529625E+04  0.25500000920E-02 0.  1.
       -2    1    3    3    0  502 -0.67337152550E+03 -0.45938850722E+03  0.81586073820E+03  0.11532977742E+04  0.25500000920E-02 0. -1.
</event>
<event>
 5   0  0.4664127E-05  0.2378177E+04  0.7818609E-02  0.8447719E-01
        2   -1    0    0  501    0  0.00000000000E+00  0.00000000000E+00  0.12514203965E+04  0.12514203965E+04  0.25500000920E-02 0.  1.
       -2   -1    0    0    0  501  0.00000000000E+00  0.00000000000E+00 -0.11298614497E+04  0.11298614497E+04  0.25500000920E-02 0. -1.
    10030    2    1    2    0    0  0.00000000000E+00  0.00000000000E+00  0.12155894681E+03  0.23812818462E+04  0.23781771703E+04 0.  0.
        4    1    3    3  502    0  0.52872506615E+03  0.39166123702E+03  0.10525175013E+04  0.12412668624E+04  0.12699999809E+01 0.  1.
       -4    1    3    3    0  502 -0.52872506615E+03 -0.39166123702E+03 -0.93095855452E+03  0.11400149838E+04  0.12699999809E+01 0. -1.
</event>
<event>
 5   0  0.4664127E-05  0.2281468E+04  0.7818609E-02  0.8485264E-01
       -2   -1    0    0    0  501  0.00000000000E+00  0.00000000000E+00  0.10077213654E+04  0.10077213654E+04  0.25500000920E-02 0. -1.
        2   -1    0    0  501    0  0.00000000000E+00  0.00000000000E+00 -0.12913030546E+04  0.12913030546E+04  0.25500000920E-02 0.  1.
    10030    2    1    2    0    0  0.00000000000E+00  0.00000000000E+00 -0.28358168924E+03  0.22990244200E+04  0.22814676656E+04 0.  0.
        4    1    3    3  502    0 -0.51459970272E+03  0.45088343136E+03 -0.10615928305E+04  0.12629685955E+04  0.12699999809E+01 0.  1.
       -4    1    3    3    0  502  0.51459970272E+03 -0.45088343136E+03  0.77801114121E+03  0.10360558245E+04  0.12699999809E+01 0. -1.
</event>
<event>
 5   0  0.4664127E-05  0.2424718E+04  0.7818609E-02  0.8430307E-01
       -2   -1    0    0    0  501  0.00000000000E+00  0.00000000000E+00  0.77414347122E+03  0.77414347122E+03  0.25500000920E-02 0. -1.
        2   -1    0    0  501    0  0.00000000000E+00  0.00000000000E+00 -0.18986333050E+04  0.18986333050E+04  0.25500000920E-02 0.  1.
    10030    2    1    2    0    0  0.00000000000E+00  0.00000000000E+00 -0.11244898338E+04  0.26727767762E+04  0.24247181917E+04 0.  0.
        4    1    3    3  502    0 -0.74126529053E+03  0.79402300055E+03 -0.11557168884E+04  0.15860737358E+04  0.12699999809E+01 0.  1.
       -4    1    3    3    0  502  0.74126529053E+03 -0.79402300055E+03  0.31227054556E+02  0.10867030405E+04  0.12699999809E+01 0. -1.
</event>
<event>
 5   0  0.2065692E-05  0.2412190E+04  0.7818609E-02  0.8434954E-01
        1   -1    0    0  501    0  0.00000000000E+00  0.00000000000E+00  0.12339192775E+04  0.12339192776E+04  0.50400001928E-02 0. -1.
       -1   -1    0    0    0  501  0.00000000000E+00  0.00000000000E+00 -0.11788978524E+04  0.11788978524E+04  0.50400001928E-02 0.  1.
    10030    2    1    2    0    0  0.00000000000E+00  0.00000000000E+00  0.55021425156E+02  0.24128171300E+04  0.24121896993E+04 0.  0.
        3    1    3    3  502    0 -0.67343597487E+03  0.98380213716E+03  0.20999204033E+03  0.12105698346E+04  0.10100000352E+00 0. -1.
       -3    1    3    3    0  502  0.67343597487E+03 -0.98380213716E+03 -0.15497061517E+03  0.12022472953E+04  0.10100000352E+00 0.  1.
</event>
<event>
 5   0  0.2149920E-05  0.2364023E+04  0.7818609E-02  0.8453097E-01
       -1   -1    0    0    0  501  0.00000000000E+00  0.00000000000E+00  0.11542120693E+04  0.11542120693E+04  0.50400001928E-02 0. -1.
        1   -1    0    0  501    0  0.00000000000E+00  0.00000000000E+00 -0.12104803028E+04  0.12104803028E+04  0.50400001928E-02 0.  1.
    10030    2    1    2    0    0  0.00000000000E+00  0.00000000000E+00 -0.56268233477E+02  0.23646923721E+04  0.23640228215E+04 0.  0.
        5    1    3    3  502    0 -0.56152284587E+03  0.61332517237E+02  0.10104563003E+04  0.11576327609E+04  0.46999998093E+01 0. -1.
       -5    1    3    3    0  502  0.56152284587E+03 -0.61332517237E+02 -0.10667245338E+04  0.12070596113E+04  0.46999998093E+01 0.  1.
</event>
<event>
 5   0  0.4914005E-05  0.2403170E+04  0.7818609E-02  0.8438318E-01
        2   -1    0    0  501    0  0.00000000000E+00  0.00000000000E+00  0.21546781493E+04  0.21546781493E+04  0.25500000920E-02 0.  1.
       -2   -1    0    0    0  501  0.00000000000E+00  0.00000000000E+00 -0.67007967590E+03  0.67007967590E+03  0.25500000920E-02 0. -1.
    10030    2    1    2    0    0  0.00000000000E+00  0.00000000000E+00  0.14845984734E+04  0.28247578252E+04  0.24031696036E+04 0.  0.
        2    1    3    3  502    0  0.11363293332E+04  0.32214775225E+03  0.10019136865E+04  0.15488236061E+04  0.25500000920E-02 0.  1.
       -2    1    3    3    0  502 -0.11363293332E+04 -0.32214775225E+03  0.48268478696E+03  0.12759342191E+04  0.25500000920E-02 0. -1.
</event>
<event>
 5   0  0.2139556E-05  0.2405299E+04  0.7818609E-02  0.8437522E-01
       -1   -1    0    0    0  501  0.00000000000E+00  0.00000000000E+00  0.11338442798E+04  0.11338442798E+04  0.50400001928E-02 0. -1.
        1   -1    0    0  501    0  0.00000000000E+00  0.00000000000E+00 -0.12756297025E+04  0.12756297025E+04  0.50400001928E-02 0.  1.
    10030    2    1    2    0    0  0.00000000000E+00  0.00000000000E+00 -0.14178542271E+03  0.24094739824E+04  0.24052986853E+04 0.  0.
        2    1    3    3  502    0  0.59840231315E+03  0.75612336224E+03 -0.79085971687E+03  0.12471034276E+04  0.25500000920E-02 0.  1.
       -2    1    3    3    0  502 -0.59840231315E+03 -0.75612336224E+03  0.64907429416E+03  0.11623705548E+04  0.25500000920E-02 0. -1.
</event>
<event>
 5   0  0.2139556E-05  0.2276863E+04  0.7818609E-02  0.8487100E-01
       -1   -1    0    0    0  501  0.00000000000E+00  0.00000000000E+00  0.76765052987E+03  0.76765052989E+03  0.50400001928E-02 0. -1.
        1   -1    0    0  501    0  0.00000000000E+00  0.00000000000E+00 -0.16883022773E+04  0.16883022773E+04  0.50400001928E-02 0.  1.
    10030    2    1    2    0    0  0.00000000000E+00  0.00000000000E+00 -0.92065174741E+03  0.24559528072E+04  0.22768628749E+04 0.  0.
        2    1    3    3  502    0  0.63072551633E+03 -0.72817334899E+02  0.55893831353E+03  0.84588951971E+03  0.25500000920E-02 0. -1.
       -2    1    3    3    0  502 -0.63072551633E+03  0.72817334899E+02 -0.14795900609E+04  0.16100632875E+04  0.25500000920E-02 0.  1.
</event>
<event>
 5   0  0.2090039E-05  0.2388159E+04  0.7818609E-02  0.8443950E-01
       -1   -1    0    0    0  501  0.00000000000E+00  0.00000000000E+00  0.19674238209E+04  0.19674238209E+04  0.50400001928E-02 0. -1.
        1   -1    0    0  501    0  0.00000000000E+00  0.00000000000E+00 -0.72471700541E+03  0.72471700543E+03  0.50400001928E-02 0.  1.
    10030    2    1    2    0    0  0.00000000000E+00  0.00000000000E+00  0.12427068155E+04  0.26921408263E+04  0.23881587048E+04 0.  0.
        1    1    3    3  502    0  0.90491652419E+03 -0.55797565164E+03  0.84420852655E+01  0.10631472205E+04  0.50400001928E-02 0.  1.
       -1    1    3    3    0  502 -0.90491652419E+03  0.55797565164E+03  0.12342647302E+04  0.16289936058E+04  0.50400001928E-02 0. -1.
</event>
<event>
 5   0  0.4914005E-05  0.2417727E+04  0.7818609E-02  0.8432897E-01
       -2   -1    0    0    0  501  0.00000000000E+00  0.00000000000E+00  0.93028266804E+03  0.93028266805E+03  0.25500000920E-02 0. -1.
        2   -1    0    0  501    0  0.00000000000E+00  0.00000000000E+00 -0.15708670798E+04  0.15708670798E+04  0.25500000920E-02 0.  1.
    10030    2    1    2    0    0  0.00000000000E+00  0.00000000000E+00 -0.64058441173E+03  0.25011497478E+04  0.24177265504E+04 0.  0.
        2    1    3    3  502    0  0.11953244174E+02  0.85629564377E+03  0.56235643403E+03  0.10245144550E+04  0.25500000920E-02 0. -1.
       -2    1    3    3    0  502 -0.11953244174E+02 -0.85629564377E+03 -0.12029408458E+04  0.14766352928E+04  0.25500000920E-02 0.  1.
</event>
<event>
 5   0  0.4664127E-05  0.2380890E+04  0.7818609E-02  0.8446693E-01
       -2   -1    0    0    0  501  0.00000000000E+00  0.00000000000E+00  0.57478989521E+03  0.57478989521E+03  0.25500000920E-02 0.  1.
        2   -1    0    0  501    0  0.00000000000E+00  0.00000000000E+00 -0.24655263880E+04  0.24655263880E+04  0.25500000920E-02 0. -1.
    10030    2    1    2    0    0  0.00000000000E+00  0.00000000000E+00 -0.18907364928E+04  0.30403162832E+04  0.23808902992E+04 0.  0.
        4    1    3    3  502    0 -0.23532175854E+03  0.11604101007E+04 -0.11029590585E+04  0.16181619910E+04  0.12699999809E+01 0.  1.
       -4    1    3    3    0  502  0.23532175854E+03 -0.11604101007E+04 -0.78777743430E+03  0.14221542921E+04  0.12699999809E+01 0. -1.
</event>
<event>
 5   0  0.2090039E-05  0.2395467E+04  0.7818609E-02  0.8441202E-01
       -1   -1    0    0    0  501  0.00000000000E+00  0.00000000000E+00  0.10673162376E+04  0.10673162377E+04  0.50400001928E-02 0. -1.
        1   -1    0    0  501    0  0.00000000000E+00  0.00000000000E+00 -0.13440870652E+04  0.13440870653E+04  0.50400001928E-02 0.  1.
    10030    2    1    2    0    0  0.00000000000E+00  0.00000000000E+00 -0.27677082759E+03  0.24114033029E+04  0.23954673444E+04 0.  0.
        1    1    3    3  502    0  0.16886388258E+03 -0.30954336214E+03 -0.12906547467E+04  0.13379543263E+04  0.50400001928E-02 0.  1.
       -1    1    3    3    0  502 -0.16886388258E+03  0.30954336214E+03  0.10138839192E+04  0.10734489766E+04  0.50400001928E-02 0. -1.
</event>
<event>
 5   0  0.4856882E-05  0.2395873E+04  0.7818609E-02  0.8441050E-01
        2   -1    0    0  501    0  0.00000000000E+00  0.00000000000E+00  0.13284243025E+04  0.13284243025E+04  0.25500000920E-02 0.  1.
       -2   -1    0    0    0  501  0.00000000000E+00  0.00000000000E+00 -0.10802660012E+04  0.10802660012E+04  0.25500000920E-02 0. -1.
    10030    2    1    2    0    0  0.00000000000E+00  0.00000000000E+00  0.24815830131E+03  0.24086903038E+04  0.23958727923E+04 0.  0.
        1    1    3    3  502    0  0.10511263517E+04  0.56259928073E+03  0.65475582301E+01  0.11922363140E+04  0.50400001928E-02 0. -1.
       -1    1    3    3    0  502 -0.10511263517E+04 -0.56259928073E+03  0.24161074308E+03  0.12164539897E+04  0.50400001928E-02 0.  1.
</event>
<event>
 5   0  0.2139556E-05  0.2401530E+04  0.7818609E-02  0.8438931E-01
       -1   -1    0    0    0  501  0.00000000000E+00  0.00000000000E+00  0.18466195489E+04  0.18466195489E+04  0.50400001928E-02 0.  1.
        1   -1    0    0  501    0  0.00000000000E+00  0.00000000000E+00 -0.78079801764E+03  0.78079801766E+03  0.50400001928E-02 0. -1.
    10030    2    1    2    0    0  0.00000000000E+00  0.00000000000E+00  0.10658215313E+04  0.26274175666E+04  0.24015302481E+04 0.  0.
        2    1    3    3  502    0 -0.16518303124E+03  0.95271534231E+03  0.13118359148E+04  0.16296826147E+04  0.25500000920E-02 0. -1.
       -2    1    3    3    0  502  0.16518303124E+03 -0.95271534231E+03 -0.24601438353E+03  0.99773495188E+03  0.25500000920E-02 0.  1.
</event>
<event>
 5   0  0.2090039E-05  0.2406047E+04  0.7818609E-02  0.8437243E-01
        1   -1    0    0  501    0  0.00000000000E+00  0.00000000000E+00  0.12385065316E+04  0.12385065316E+04  0.50400001928E-02 0.  1.
       -1   -1    0    0    0  501  0.00000000000E+00  0.00000000000E+00 -0.11685572223E+04  0.11685572223E+04  0.50400001928E-02 0. -1.
    10030    2    1    2    0    0  0.00000000000E+00  0.00000000000E+00  0.69949309274E+02  0.24070637539E+04  0.24060471752E+04 0.  0.
        1    1    3    3  502    0 -0.11986392046E+04  0.82159981975E+02  0.96478648933E+02  0.12053191839E+04  0.50400001928E-02 0.  1.
       -1    1    3    3    0  502  0.11986392046E+04 -0.82159981975E+02 -0.26529339659E+02  0.12017445699E+04  0.50400001928E-02 0. -1.
</event>
<event>
 5   0  0.2090039E-05  0.2376843E+04  0.7818609E-02  0.8448224E-01
       -1   -1    0    0    0  501  0.00000000000E+00  0.00000000000E+00  0.98293426204E+03  0.98293426206E+03  0.50400001928E-02 0. -1.
        1   -1    0    0  501    0  0.00000000000E+00  0.00000000000E+00 -0.14368665524E+04  0.14368665524E+04  0.50400001928E-02 0.  1.
    10030    2    1    2    0    0  0.00000000000E+00  0.00000000000E+00 -0.45393229034E+03  0.24198008145E+04  0.23768427498E+04 0.  0.
        1    1    3    3  502    0  0.29784119947E+03 -0.13250330213E+03  0.93652710569E+03  0.99163981611E+03  0.50400001928E-02 0. -1.
       -1    1    3    3    0  502 -0.29784119947E+03  0.13250330213E+03 -0.13904593960E+04  0.14281609983E+04  0.50400001928E-02 0.  1.
</event>
<event>
 5   0  0.2090039E-05  0.2376714E+04  0.7818609E-02  0.8448273E-01
        1   -1    0    0  501    0  0.00000000000E+00  0.00000000000E+00  0.22166338005E+04  0.22166338005E+04  0.50400001928E-02 0. -1.
       -1   -1    0    0    0  501  0.00000000000E+00  0.00000000000E+00 -0.63708891354E+03  0.63708891356E+03  0.50400001928E-02 0.  1.
    10030    2    1    2    0    0  0.00000000000E+00  0.00000000000E+00  0.15795448869E+04  0.28537227140E+04  0.23767143873E+04 0.  0.
        1    1    3    3  502    0  0.76400320635E+03  0.35662970327E+03  0.17952882869E+04  0.19834176760E+04  0.50400001928E-02 0. -1.
       -1    1    3    3    0  502 -0.76400320635E+03 -0.35662970327E+03 -0.21574339994E+03  0.87030503802E+03  0.50400001928E-02 0.  1.
</event>
<event>
 5   0  0.2090039E-05  0.2404590E+04  0.7818609E-02  0.8437787E-01
       -1   -1    0    0    0  501  0.00000000000E+00  0.00000000000E+00  0.83131799042E+03  0.83131799043E+03  0.50400001928E-02 0.  1.
        1   -1    0    0  501    0  0.00000000000E+00  0.00000000000E+00 -0.17388216528E+04  0.17388216528E+04  0.50400001928E-02 0. -1.
    10030    2    1    2    0    0  0.00000000000E+00  0.00000000000E+00 -0.90750366242E+03  0.25701396433E+04  0.24045903786E+04 0.  0.
        1    1    3    3  502    0  0.94030032021E+03  0.34566041833E+03  0.25674450769E+03  0.10341970602E+04  0.50400001928E-02 0.  1.
       -1    1    3    3    0  502 -0.94030032021E+03 -0.34566041833E+03 -0.11642481701E+04  0.15359425831E+04  0.50400001928E-02 0. -1.
</event>
<event>
 5   0  0.2139556E-05  0.2394356E+04  0.7818609E-02  0.8441620E-01
        1   -1    0    0  501    0  0.00000000000E+00  0.00000000000E+00  0.10269486816E+04  0.10269486816E+04  0.50400001928E-02 0.  1.
       -1   -1    0    0    0  501  0.00000000000E+00  0.00000000000E+00 -0.13956249368E+04  0.13956249369E+04  0.50400001928E-02 0. -1.
    10030    2    1    2    0    0  0.00000000000E+00  0.00000000000E+00 -0.36867625529E+03  0.24225736184E+04  0.23943560210E+04 0.  0.
        2    1    3    3  502    0  0.58155039799E+03  0.10463307810E+04 -0.16912025344E+03  0.12089708966E+04  0.25500000920E-02 0. -1.
       -2    1    3    3    0  502 -0.58155039799E+03 -0.10463307810E+04 -0.19955600185E+03  0.12136027219E+04  0.25500000920E-02 0.  1.
</event>
<event>
 5   0  0.2057599E-05  0.2424819E+04  0.7818609E-02  0.8430270E-01
        1   -1    0    0  501    0  0.00000000000E+00  0.00000000000E+00  0.11146382236E+04  0.11146382236E+04  0.50400001928E-02 0. -1.
       -1   -1    0    0    0  501  0.00000000000E+00  0.00000000000E+00 -0.13187563626E+04  0.13187563626E+04  0.50400001928E-02 0.  1.
    10030    2    1    2    0    0  0.00000000000E+00  0.00000000000E+00 -0.20411813896E+03  0.24333945862E+04  0.24248185494E+04 0.  0.
        4    1    3    3  502    0 -0.11097775597E+04  0.47708662464E+03 -0.20594697379E+03  0.12254116240E+04  0.12699999809E+01 0.  1.
       -4    1    3    3    0  502  0.11097775597E+04 -0.47708662464E+03  0.18288348273E+01  0.12079829622E+04  0.12699999809E+01 0. -1.
</event>
<event>
 5   0  0.4914005E-05  0.2363186E+04  0.7818609E-02  0.8453416E-01
        2   -1    0    0  501    0  0.00000000000E+00  0.00000000000E+00  0.20818789177E+04  0.20818789177E+04  0.25500000920E-02 0.  1.
       -2   -1    0    0    0  501  0.00000000000E+00  0.00000000000E+00 -0.67062589014E+03  0.67062589014E+03  0.25500000920E-02 0. -1.
    10030    2    1    2    0    0  0.00000000000E+00  0.00000000000E+00  0.14112530276E+04  0.27525048079E+04  0.23631859024E+04 0.  0.
        2    1    3    3  502    0 -0.61290376412E+03 -0.10069293284E+04  0.80028084703E+03  0.14247831872E+04  0.25500000920E-02 0. -1.
       -2    1    3    3    0  502  0.61290376412E+03  0.10069293284E+04  0.61097218054E+03  0.13277216206E+04  0.25500000920E-02 0.  1.
</event>
<event>
 5   0  0.2139556E-05  0.2410094E+04  0.7818609E-02  0.8435734E-01
       -1   -1    0    0    0  501  0.00000000000E+00  0.00000000000E+00  0.12290091198E+04  0.12290091199E+04  0.50400001928E-02 0. -1.
        1   -1    0    0  501    0  0.00000000000E+00  0.00000000000E+00 -0.11815521367E+04  0.11815521367E+04  0.50400001928E-02 0.  1.
    10030    2    1    2    0    0  0.00000000000E+00  0.00000000000E+00  0.47456983189E+02  0.24105612565E+04  0.24100940658E+04 0.  0.
        2    1    3    3  502    0  0.90392649721E+03  0.58935415417E+03  0.56022497561E+03  0.12158426932E+04  0.25500000920E-02 0. -1.
       -2    1    3    3    0  502 -0.90392649721E+03 -0.58935415417E+03 -0.51276799243E+03  0.11947185633E+04  0.25500000920E-02 0.  1.
</event>
<event>
 5   0  0.2149920E-05  0.2419384E+04  0.7818609E-02  0.8432282E-01
       -1   -1    0    0    0  501  0.00000000000E+00  0.00000000000E+00  0.51880451537E+03  0.51880451539E+03  0.50400001928E-02 0. -1.
        1   -1    0    0  501    0  0.00000000000E+00  0.00000000000E+00 -0.28206292465E+04  0.28206292465E+04  0.50400001928E-02 0.  1.
    10030    2    1    2    0    0  0.00000000000E+00  0.00000000000E+00 -0.23018247311E+04  0.33394337619E+04  0.24193843757E+04 0.  0.
        5    1    3    3  502    0 -0.90597988519E+03 -0.75940923216E+03 -0.79676523083E+03  0.14256082412E+04  0.46999998093E+01 0.  1.
       -5    1    3    3    0  502  0.90597988519E+03  0.75940923216E+03 -0.15050595003E+04  0.19138255207E+04  0.46999998093E+01 0. -1.
</event>
<event>
 5   0  0.4856882E-05  0.2426117E+04  0.7818609E-02  0.8429790E-01
        2   -1    0    0  501    0  0.00000000000E+00  0.00000000000E+00  0.14228083255E+04  0.14228083255E+04  0.25500000920E-02 0. -1.
       -2   -1    0    0    0  501  0.00000000000E+00  0.00000000000E+00 -0.10342295320E+04  0.10342295320E+04  0.25500000920E-02 0.  1.
    10030    2    1    2    0    0  0.00000000000E+00  0.00000000000E+00  0.38857879348E+03  0.24570378575E+04  0.24261165583E+04 0.  0.
        1    1    3    3  502    0  0.20174996491E+02  0.55455466972E+03 -0.89814887371E+03  0.10557505916E+04  0.50400001928E-02 0.  1.
       -1    1    3    3    0  502 -0.20174996491E+02 -0.55455466972E+03  0.12867276672E+04  0.14012872660E+04  0.50400001928E-02 0. -1.
</event>
<event>
 5   0  0.4856882E-05  0.2395614E+04  0.7818609E-02  0.8441147E-01
        2   -1    0    0  501    0  0.00000000000E+00  0.00000000000E+00  0.16914710671E+04  0.16914710671E+04  0.25500000920E-02 0. -1.
       -2   -1    0    0    0  501  0.00000000000E+00  0.00000000000E+00 -0.84822144579E+03  0.84822144579E+03  0.25500000920E-02 0.  1.
    10030    2    1    2    0    0  0.00000000000E+00  0.00000000000E+00  0.84324962136E+03  0.25396925129E+04  0.23956143547E+04 0.  0.
        1    1    3    3  502    0  0.41338734709E+02 -0.10843414506E+04  0.95931331165E+03  0.14483740202E+04  0.50400001928E-02 0. -1.
       -1    1    3    3    0  502 -0.41338734709E+02  0.10843414506E+04 -0.11606369030E+03  0.10913184928E+04  0.50400001928E-02 0.  1.
</event>
<event>
 5   0  0.4914005E-05  0.2415435E+04  0.7818609E-02  0.8433748E-01
        2   -1    0    0  501    0  0.00000000000E+00  0.00000000000E+00  0.25311109922E+04  0.25311109922E+04  0.25500000920E-02 0. -1.
       -2   -1    0    0    0  501  0.00000000000E+00  0.00000000000E+00 -0.57626131600E+03  0.57626131600E+03  0.25500000920E-02 0.  1.
    10030    2    1    2    0    0  0.00000000000E+00  0.00000000000E+00  0.19548496762E+04  0.31073723082E+04  0.24154348274E+04 0.  0.
        2    1    3    3  502    0 -0.52124549753E+03  0.64078057399E+01  0.23789299328E+04  0.24353738017E+04  0.25500000920E-02 0. -1.
       -2    1    3    3    0  502  0.52124549753E+03 -0.64078057399E+01 -0.42408025663E+03  0.67199850650E+03  0.25500000920E-02 0.  1.
</event>
<event>
 5   0  0.4713971E-05  0.2380394E+04  0.7818609E-02  0.8446880E-01
       -2   -1    0    0    0  501  0.00000000000E+00  0.00000000000E+00  0.11342569790E+04  0.11342569790E+04  0.25500000920E-02 0. -1.
        2   -1    0    0  501    0  0.00000000000E+00  0.00000000000E+00 -0.12488956556E+04  0.12488956556E+04  0.25500000920E-02 0.  1.
    10030    2    1    2    0    0  0.00000000000E+00  0.00000000000E+00 -0.11463867659E+03  0.23831526347E+04  0.23803937603E+04 0.  0.
        5    1    3    3  502    0  0.11213661880E+03  0.23590746172E+03  0.11051980962E+04  0.11356548215E+04  0.46999998093E+01 0. -1.
       -5    1    3    3    0  502 -0.11213661880E+03 -0.23590746172E+03 -0.12198367728E+04  0.12474978132E+04  0.46999998093E+01 0.  1.
</event>
<event>
 5   0  0.2057599E-05  0.2414059E+04  0.7818609E-02  0.8434259E-01
        1   -1    0    0  501    0  0.00000000000E+00  0.00000000000E+00  0.16032305943E+04  0.16032305944E+04  0.50400001928E-02 0.  1.
       -1   -1    0    0    0  501  0.00000000000E+00  0.00000000000E+00 -0.90874014457E+03  0.90874014458E+03  0.50400001928E-02 0. -1.
    10030    2    1    2    0    0  0.00000000000E+00  0.00000000000E+00  0.69449044978E+03  0.25119707389E+04  0.24140588246E+04 0.  0.
        4    1    3    3  502    0 -0.33580688968E+03  0.38813519856E+03 -0.78954025990E+03  0.94169561665E+03  0.12699999809E+01 0. -1.
       -4    1    3    3    0  502  0.33580688968E+03 -0.38813519856E+03  0.14840307097E+04  0.15702751223E+04  0.12699999809E+01 0.  1.
</event>
<event>
 5   0  0.4856882E-05  0.2381293E+04  0.7818609E-02  0.8446540E-01
       -2   -1    0    0    0  501  0.00000000000E+00  0.00000000000E+00  0.57830034320E+03  0.57830034321E+03  0.25500000920E-02 0. -1.
        2   -1    0    0  501    0  0.00000000000E+00  0.00000000000E+00 -0.24513898423E+04  0.24513898423E+04  0.25500000920E-02 0.  1.
    10030    2    1    2    0    0  0.00000000000E+00  0.00000000000E+00 -0.18730894991E+04  0.30296901855E+04  0.23812934193E+04 0.  0.
        1    1    3    3  502    0  0.42690502554E+03 -0.95785151837E+03 -0.21918191174E+03  0.10713394152E+04  0.50400001928E-02 0. -1.
       -1    1    3    3    0  502 -0.42690502554E+03  0.95785151837E+03 -0.16539075874E+04  0.19583507703E+04  0.50400001928E-02 0.  1.
</event>
<event>
 5   0  0.2090039E-05  0.2383662E+04  0.7818609E-02  0.8445646E-01
        1   -1    0    0  501    0  0.00000000000E+00  0.00000000000E+00  0.12110829595E+04  0.12110829595E+04  0.50400001928E-02 0.  1.
       -1   -1    0    0    0  501  0.00000000000E+00  0.00000000000E+00 -0.11728847816E+04  0.11728847816E+04  0.50400001928E-02 0. -1.
    10030    2    1    2    0    0  0.00000000000E+00  0.00000000000E+00  0.38198177931E+02  0.23839677411E+04  0.23836616978E+04 0.  0.
        1    1    3    3  502    0  0.97363092759E+03  0.34560732502E+03  0.61336319854E+03  0.12015057302E+04  0.50400001928E-02 0.  1.
       -1    1    3    3    0  502 -0.97363092759E+03 -0.34560732502E+03 -0.57516502061E+03  0.11824620109E+04  0.50400001928E-02 0. -1.
</event>
<event>
 5   0  0.2139556E-05  0.2405456E+04  0.7818609E-02  0.8437464E-01
        1   -1    0    0  501    0  0.00000000000E+00  0.00000000000E+00  0.11315368314E+04  0.11315368314E+04  0.50400001928E-02 0.  1.
       -1   -1    0    0    0  501  0.00000000000E+00  0.00000000000E+00 -0.12783979692E+04  0.12783979692E+04  0.50400001928E-02 0. -1.
    10030    2    1    2    0    0  0.00000000000E+00  0.00000000000E+00 -0.14686113778E+03  0.24099348005E+04  0.24054557882E+04 0.  0.
        2    1    3    3  502    0  0.94590893716E+03 -0.46860014007E+03 -0.65089307815E+03  0.12401578963E+04  0.25500000920E-02 0. -1.
       -2    1    3    3    0  502 -0.94590893716E+03  0.46860014007E+03  0.50403194037E+03  0.11697769042E+04  0.25500000920E-02 0.  1.
</event>
<event>
 5   0  0.2090039E-05  0.2410470E+04  0.7818609E-02  0.8435594E-01
       -1   -1    0    0    0  501  0.00000000000E+00  0.00000000000E+00  0.66894536420E+03  0.66894536422E+03  0.50400001928E-02 0.  1.
        1   -1    0    0  501    0  0.00000000000E+00  0.00000000000E+00 -0.21714650782E+04  0.21714650782E+04  0.50400001928E-02 0. -1.
    10030    2    1    2    0    0  0.00000000000E+00  0.00000000000E+00 -0.15025197140E+04  0.28404104424E+04  0.24104700767E+04 0.  0.
        1    1    3    3  502    0  0.87342865865E+03 -0.58467749437E+03 -0.56258884468E+02  0.10525637540E+04  0.50400001928E-02 0.  1.
       -1    1    3    3    0  502 -0.87342865865E+03  0.58467749437E+03 -0.14462608295E+04  0.17878466884E+04  0.50400001928E-02 0. -1.
</event>
<event>
 5   0  0.2149920E-05  0.2509074E+04  0.7818609E-02  0.8399760E-01
        1   -1    0    0  501    0  0.00000000000E+00  0.00000000000E+00  0.15672475140E+04  0.15672475140E+04  0.50400001928E-02 0. -1.
       -1   -1    0    0    0  501  0.00000000000E+00  0.00000000000E+00 -0.10042212428E+04  0.10042212428E+04  0.50400001928E-02 0.  1.
    10030    2    1    2    0    0  0.00000000000E+00  0.00000000000E+00  0.56302627120E+03  0.25714687569E+04  0.25090741291E+04 0.  0.
        5    1    3    3  502    0  0.92169561855E+03  0.75848897258E+03  0.67713435634E+03  0.13723561350E+04  0.46999998093E+01 0. -1.
       -5    1    3    3    0  502 -0.92169561855E+03 -0.75848897258E+03 -0.11410808513E+03  0.11991126218E+04  0.46999998093E+01 0.  1.
</event>
<event>
 5   0  0.2139556E-05  0.2374320E+04  0.7818609E-02  0.8449181E-01
       -1   -1    0    0    0  501  0.00000000000E+00  0.00000000000E+00  0.90144234081E+03  0.90144234082E+03  0.50400001928E-02 0.  1.
        1   -1    0    0  501    0  0.00000000000E+00  0.00000000000E+00 -0.15634377577E+04  0.15634377577E+04  0.50400001928E-02 0. -1.
    10030    2    1    2    0    0  0.00000000000E+00  0.00000000000E+00 -0.66199541688E+03  0.24648800985E+04  0.23743201065E+04 0.  0.
        2    1    3    3  502    0 -0.29144810607E+03  0.45321251023E+03 -0.14291754120E+04  0.15273787796E+04  0.25500000920E-02 0. -1.
       -2    1    3    3    0  502  0.29144810607E+03 -0.45321251023E+03  0.76717999517E+03  0.93750131891E+03  0.25500000920E-02 0.  1.
</event>
<event>
 5   0  0.4856882E-05  0.2412057E+04  0.7818609E-02  0.8435003E-01
        2   -1    0    0  501    0  0.00000000000E+00  0.00000000000E+00  0.17998618171E+04  0.17998618171E+04  0.25500000920E-02 0.  1.
       -2   -1    0    0    0  501  0.00000000000E+00  0.00000000000E+00 -0.80812024901E+03  0.80812024901E+03  0.25500000920E-02 0. -1.
    10030    2    1    2    0    0  0.00000000000E+00  0.00000000000E+00  0.99174156808E+03  0.26079820661E+04  0.24120570307E+04 0.  0.
        1    1    3    3  502    0 -0.35468388675E+03 -0.90388737098E+03 -0.27755960519E+03  0.10098774051E+04  0.50400001928E-02 0. -1.
       -1    1    3    3    0  502  0.35468388675E+03  0.90388737098E+03  0.12693011733E+04  0.15981046610E+04  0.50400001928E-02 0.  1.
</event>
<event>
 5   0  0.4756705E-05  0.2412280E+04  0.7818609E-02  0.8434920E-01
        2   -1    0    0  501    0  0.00000000000E+00  0.00000000000E+00  0.17113555450E+04  0.17113555450E+04  0.25500000920E-02 0.  1.
       -2   -1    0    0    0  501  0.00000000000E+00  0.00000000000E+00 -0.85007106767E+03  0.85007106768E+03  0.25500000920E-02 0. -1.
    10030    2    1    2    0    0  0.00000000000E+00  0.00000000000E+00  0.86128447730E+03  0.25614266127E+04  0.24122801125E+04 0.  0.
        3    1    3    3  502    0 -0.23993803340E+03 -0.11567790069E+04  0.17258112122E+03  0.11939397741E+04  0.10100000352E+00 0. -1.
       -3    1    3    3    0  502  0.23993803340E+03  0.11567790069E+04  0.68870335608E+03  0.13674868385E+04  0.10100000352E+00 0.  1.
</event>
<event>
 5   0  0.2090039E-05  0.2398294E+04  0.7818609E-02  0.8440142E-01
        1   -1    0    0  501    0  0.00000000000E+00  0.00000000000E+00  0.14168329774E+04  0.14168329774E+04  0.50400001928E-02 0. -1.
       -1   -1    0    0    0  501  0.00000000000E+00  0.00000000000E+00 -0.10149069508E+04  0.10149069508E+04  0.50400001928E-02 0.  1.
    10030    2    1    2    0    0  0.00000000000E+00  0.00000000000E+00  0.40192602655E+03  0.24317399282E+04  0.23982940911E+04 0.  0.
        1    1    3    3  502    0 -0.10629639512E+04  0.58369981981E+02 -0.35868928025E+03  0.11233687801E+04  0.50400001928E-02 0. -1.
       -1    1    3    3    0  502  0.10629639512E+04 -0.58369981981E+02  0.76061530679E+03  0.13083711481E+04  0.50400001928E-02 0.  1.
</event>
<event>
 5   0  0.2139556E-05  0.2379746E+04  0.7818609E-02  0.8447125E-01
        1   -1    0    0  501    0  0.00000000000E+00  0.00000000000E+00  0.75476351576E+03  0.75476351577E+03  0.50400001928E-02 0. -1.
       -1   -1    0    0    0  501  0.00000000000E+00  0.00000000000E+00 -0.18758164702E+04  0.18758164702E+04  0.50400001928E-02 0.  1.
    10030    2    1    2    0    0  0.00000000000E+00  0.00000000000E+00 -0.11210529545E+04  0.26305799860E+04  0.23797460654E+04 0.  0.
        2    1    3    3  502    0  0.20336014535E+03 -0.11720622201E+04 -0.59003552958E+03  0.13278656267E+04  0.25500000920E-02 0.  1.
       -2    1    3    3    0  502 -0.20336014535E+03  0.11720622201E+04 -0.53101742487E+03  0.13027143593E+04  0.25500000920E-02 0. -1.
</event>
<event>
 5   0  0.2090039E-05  0.2402910E+04  0.7818609E-02  0.8438415E-01
        1   -1    0    0  501    0  0.00000000000E+00  0.00000000000E+00  0.14435177961E+04  0.14435177961E+04  0.50400001928E-02 0.  1.
       -1   -1    0    0    0  501  0.00000000000E+00  0.00000000000E+00 -0.99998345705E+03  0.99998345706E+03  0.50400001928E-02 0. -1.
    10030    2    1    2    0    0  0.00000000000E+00  0.00000000000E+00  0.44353433902E+03  0.24435012531E+04  0.24029098327E+04 0.  0.
        1    1    3    3  502    0  0.31449595386E+03  0.11211775051E+04 -0.79114863251E+02  0.11671357524E+04  0.50400001928E-02 0. -1.
       -1    1    3    3    0  502 -0.31449595386E+03 -0.11211775051E+04  0.52264920227E+03  0.12763655008E+04  0.50400001928E-02 0.  1.
</event>
<event>
 5   0  0.2139556E-05  0.2345870E+04  0.7818609E-02  0.8460052E-01
        1   -1    0    0  501    0  0.00000000000E+00  0.00000000000E+00  0.15185665385E+04  0.15185665385E+04  0.50400001928E-02 0. -1.
       -1   -1    0    0    0  501  0.00000000000E+00  0.00000000000E+00 -0.90597065329E+03  0.90597065330E+03  0.50400001928E-02 0.  1.
    10030    2    1    2    0    0  0.00000000000E+00  0.00000000000E+00  0.61259588518E+03  0.24245371918E+04  0.23458701745E+04 0.  0.
        2    1    3    3  502    0  0.54546944596E+03  0.77115072028E+03 -0.41241078934E+03  0.10306759961E+04  0.25500000920E-02 0.  1.
       -2    1    3    3    0  502 -0.54546944596E+03 -0.77115072028E+03  0.10250066745E+04  0.13938611956E+04  0.25500000920E-02 0. -1.
</event>
<event>
 5   0  0.2065692E-05  0.2422533E+04  0.7818609E-02  0.8431115E-01
        1   -1    0    0  501    0  0.00000000000E+00  0.00000000000E+00  0.13784149399E+04  0.13784149400E+04  0.50400001928E-02 0.  1.
       -1   -1    0    0    0  501  0.00000000000E+00  0.00000000000E+00 -0.10643869767E+04  0.10643869767E+04  0.50400001928E-02 0. -1.
    10030    2    1    2    0    0  0.00000000000E+00  0.00000000000E+00  0.31402796321E+03  0.24428019167E+04  0.24225333109E+04 0.  0.
        3    1    3    3  502    0 -0.10198980611E+04 -0.47600496823E+03  0.60841338103E+03  0.12794294186E+04  0.10100000352E+00 0.  1.
       -3    1    3    3    0  502  0.10198980611E+04  0.47600496823E+03 -0.29438541781E+03  0.11633724981E+04  0.10100000352E+00 0. -1.
</event>
<event>
 5   0  0.4856882E-05  0.2830363E+04  0.7818609E-02  0.8293903E-01
       -2   -1    0    0    0  501  0.00000000000E+00  0.00000000000E+00  0.10470798927E+04  0.10470798928E+04  0.25500000920E-02 0.  1.
        2   -1    0    0  501    0  0.00000000000E+00  0.00000000000E+00 -0.19126900956E+04  0.19126900956E+04  0.25500000920E-02 0. -1.
    10030    2    1    2    0    0  0.00000000000E+00  0.00000000000E+00 -0.86561020285E+03  0.29597699884E+04  0.28303634679E+04 0.  0.
        1    1    3    3  502    0 -0.13274833166E+04  0.14409744724E+03 -0.92302772052E+03  0.16232548177E+04  0.50400001928E-02 0. -1.
       -1    1    3    3    0  502  0.13274833166E+04 -0.14409744724E+03  0.57417517663E+02  0.13365151707E+04  0.50400001928E-02 0.  1.
</event>
<event>
 5   0  0.2149920E-05  0.2408954E+04  0.7818609E-02  0.8436159E-01
        1   -1    0    0  501    0  0.00000000000E+00  0.00000000000E+00  0.12109303859E+04  0.12109303859E+04  0.50400001928E-02 0.  1.
       -1   -1    0    0    0  501  0.00000000000E+00  0.00000000000E+00 -0.11980575212E+04  0.11980575212E+04  0.50400001928E-02 0. -1.
    10030    2    1    2    0    0  0.00000000000E+00  0.00000000000E+00  0.12872864693E+02  0.24089879071E+04  0.24089535126E+04 0.  0.
        5    1    3    3  502    0  0.68854124968E+03 -0.35493827654E+02 -0.98119768779E+03  0.11992163511E+04  0.46999998093E+01 0. -1.
       -5    1    3    3    0  502 -0.68854124968E+03  0.35493827654E+02  0.99407055248E+03  0.12097715560E+04  0.46999998093E+01 0.  1.
</event>
<event>
 5   0  0.4914005E-05  0.2404341E+04  0.7818609E-02  0.8437880E-01
       -2   -1    0    0    0  501  0.00000000000E+00  0.00000000000E+00  0.69866810389E+03  0.69866810389E+03  0.25500000920E-02 0. -1.
        2   -1    0    0  501    0  0.00000000000E+00  0.00000000000E+00 -0.20685267196E+04  0.20685267196E+04  0.25500000920E-02 0.  1.
    10030    2    1    2    0    0  0.00000000000E+00  0.00000000000E+00 -0.13698586157E+04  0.27671948235E+04  0.24043407754E+04 0.  0.
        2    1    3    3  502    0  0.95266794991E+03 -0.51226005821E+03 -0.81134640223E+02  0.10846978473E+04  0.25500000920E-02 0. -1.
       -2    1    3    3    0  502 -0.95266794991E+03  0.51226005821E+03 -0.12887239755E+04  0.16824969762E+04  0.25500000920E-02 0.  1.
</event>
<event>
 5   0  0.2139556E-05  0.2412950E+04  0.7818609E-02  0.8434671E-01
        1   -1    0    0  501    0  0.00000000000E+00  0.00000000000E+00  0.12660232091E+04  0.12660232091E+04  0.50400001928E-02 0.  1.
       -1   -1    0    0    0  501  0.00000000000E+00  0.00000000000E+00 -0.11497275276E+04  0.11497275276E+04  0.50400001928E-02 0. -1.
    10030    2    1    2    0    0  0.00000000000E+00  0.00000000000E+00  0.11629568150E+03  0.24157507368E+04  0.24129498413E+04 0.  0.
        2    1    3    3  502    0 -0.10609891496E+04  0.49826809551E+03 -0.22786307121E+03  0.11941066325E+04  0.25500000920E-02 0.  1.
       -2    1    3    3    0  502  0.10609891496E+04 -0.49826809551E+03  0.34415875271E+03  0.12216441043E+04  0.25500000920E-02 0. -1.
</event>
<event>
 5   0  0.4756705E-05  0.2349093E+04  0.7818609E-02  0.8458812E-01
       -2   -1    0    0    0  501  0.00000000000E+00  0.00000000000E+00  0.70475968143E+03  0.70475968144E+03  0.25500000920E-02 0.  1.
        2   -1    0    0  501    0  0.00000000000E+00  0.00000000000E+00 -0.19574895174E+04  0.19574895174E+04  0.25500000920E-02 0. -1.
    10030    2    1    2    0    0  0.00000000000E+00  0.00000000000E+00 -0.12527298359E+04  0.26622491988E+04  0.23490931771E+04 0.  0.
        3    1    3    3  502    0  0.91959294374E+03 -0.69854402468E+02  0.19794047909E+03  0.94324507059E+03  0.10100000352E+00 0.  1.
       -3    1    3    3    0  502 -0.91959294374E+03  0.69854402468E+02 -0.14506703150E+04  0.17190041282E+04  0.10100000352E+00 0. -1.
</event>
<event>
 5   0  0.2090039E-05  0.2290965E+04  0.7818609E-02  0.8481492E-01
       -1   -1    0    0    0  501  0.00000000000E+00  0.00000000000E+00  0.12065568687E+04  0.12065568687E+04  0.50400001928E-02 0. -1.
        1   -1    0    0  501    0  0.00000000000E+00  0.00000000000E+00 -0.10874995036E+04  0.10874995036E+04  0.50400001928E-02 0.  1.
    10030    2    1    2    0    0  0.00000000000E+00  0.00000000000E+00  0.11905736511E+03  0.22940563723E+04  0.22909648586E+04 0.  0.
        1    1    3    3  502    0 -0.15863535233E+03 -0.10422952473E+04  0.50800070909E+03  0.11703030710E+04  0.50400001928E-02 0. -1.
       -1    1    3    3    0  502  0.15863535233E+03  0.10422952473E+04 -0.38894334398E+03  0.11237533014E+04  0.50400001928E-02 0.  1.
</event>
<event>
 5   0  0.4756705E-05  0.2777724E+04  0.7818609E-02  0.8310218E-01
        2   -1    0    0  501    0  0.00000000000E+00  0.00000000000E+00  0.17154868687E+04  0.17154868688E+04  0.25500000920E-02 0. -1.
       -2   -1    0    0    0  501  0.00000000000E+00  0.00000000000E+00 -0.11244255531E+04  0.11244255531E+04  0.25500000920E-02 0.  1.
    10030    2    1    2    0    0  0.00000000000E+00  0.00000000000E+00  0.59106131560E+03  0.28399124219E+04  0.27777237237E+04 0.  0.
        3    1    3    3  502    0 -0.57117138266E+03 -0.85736489459E+03  0.12478490366E+04  0.16181589969E+04  0.10100000352E+00 0. -1.
       -3    1    3    3    0  502  0.57117138266E+03  0.85736489459E+03 -0.65678772101E+03  0.12217534250E+04  0.10100000352E+00 0.  1.
</event>
<event>
 5   0  0.2065692E-05  0.2394839E+04  0.7818609E-02  0.8441438E-01
       -1   -1    0    0    0  501  0.00000000000E+00  0.00000000000E+00  0.72661512679E+03  0.72661512680E+03  0.50400001928E-02 0. -1.
        1   -1    0    0  501    0  0.00000000000E+00  0.00000000000E+00 -0.19732785455E+04  0.19732785455E+04  0.50400001928E-02 0.  1.
    10030    2    1    2    0    0  0.00000000000E+00  0.00000000000E+00 -0.12466634187E+04  0.26998936723E+04  0.23948394857E+04 0.  0.
        3    1    3    3  502    0 -0.10595350830E+04  0.54263533001E+03 -0.47744015092E+03  0.12825820837E+04  0.10100000352E+00 0. -1.
       -3    1    3    3    0  502  0.10595350830E+04 -0.54263533001E+03 -0.76922326780E+03  0.14173115887E+04  0.10100000352E+00 0.  1.
</event>
<event>
 5   0  0.2149920E-05  0.2435421E+04  0.7818609E-02  0.8426360E-01
       -1   -1    0    0    0  501  0.00000000000E+00  0.00000000000E+00  0.66405343694E+03  0.66405343696E+03  0.50400001928E-02 0. -1.
        1   -1    0    0  501    0  0.00000000000E+00  0.00000000000E+00 -0.22329807449E+04  0.22329807449E+04  0.50400001928E-02 0.  1.
    10030    2    1    2    0    0  0.00000000000E+00  0.00000000000E+00 -0.15689273080E+04  0.28970341819E+04  0.24354207344E+04 0.  0.
        5    1    3    3  502    0 -0.10377888776E+04 -0.42232066828E+03 -0.13517589391E+04  0.17557433812E+04  0.46999998093E+01 0.  1.
       -5    1    3    3    0  502  0.10377888776E+04  0.42232066828E+03 -0.21716836886E+03  0.11412908007E+04  0.46999998093E+01 0. -1.
</event>
<event>
 5   0  0.2065692E-05  0.2436930E+04  0.7818609E-02  0.8425805E-01
        1   -1    0    0  501    0  0.00000000000E+00  0.00000000000E+00  0.20589975284E+04  0.20589975284E+04  0.50400001928E-02 0.  1.
       -1   -1    0    0    0  501  0.00000000000E+00  0.00000000000E+00 -0.72105820369E+03  0.72105820370E+03  0.50400001928E-02 0. -1.
    10030    2    1    2    0    0  0.00000000000E+00  0.00000000000E+00  0.13379393247E+04  0.27800557321E+04  0.24369300846E+04 0.  0.
        3    1    3    3  502    0 -0.66419626672E+03  0.47104154940E+02  0.18330810111E+04  0.19502721568E+04  0.10100000352E+00 0.  1.
       -3    1    3    3    0  502  0.66419626672E+03 -0.47104154940E+02 -0.49514168635E+03  0.82978357534E+03  0.10100000352E+00 0. -1.
</event>
<event>
 5   0  0.4713971E-05  0.2375904E+04  0.7818609E-02  0.8448580E-01
        2   -1    0    0  501    0  0.00000000000E+00  0.00000000000E+00  0.87844596755E+03  0.87844596756E+03  0.25500000920E-02 0.  1.
       -2   -1    0    0    0  501  0.00000000000E+00  0.00000000000E+00 -0.16065079369E+04  0.16065079369E+04  0.25500000920E-02 0. -1.
    10030    2    1    2    0    0  0.00000000000E+00  0.00000000000E+00 -0.72806196935E+03  0.24849539045E+04  0.23759043912E+04 0.  0.
        5    1    3    3  502    0  0.10812095846E+04 -0.30609361781E+03  0.39014315993E+02  0.11243894679E+04  0.46999998093E+01 0. -1.
       -5    1    3    3    0  502 -0.10812095846E+04  0.30609361781E+03 -0.76707628534E+03  0.13605644366E+04  0.46999998093E+01 0.  1.
</event>
<event>
 5   0  0.4856882E-05  0.2369126E+04  0.7818609E-02  0.8451154E-01
        2   -1    0    0  501    0  0.00000000000E+00  0.00000000000E+00  0.89804960196E+03  0.89804960197E+03  0.25500000920E-02 0. -1.
       -2   -1    0    0    0  501  0.00000000000E+00  0.00000000000E+00 -0.15624852520E+04  0.15624852520E+04  0.25500000920E-02 0.  1.
    10030    2    1    2    0    0  0.00000000000E+00  0.00000000000E+00 -0.66443565001E+03  0.24605348539E+04  0.23691257954E+04 0.  0.
        1    1    3    3  502    0 -0.54258691580E+03 -0.68362668975E+03 -0.11640208939E+04  0.14548850998E+04  0.50400001928E-02 0. -1.
       -1    1    3    3    0  502  0.54258691580E+03  0.68362668975E+03  0.49958524387E+03  0.10056497542E+04  0.50400001928E-02 0.  1.
</event>
<event>
 5   0  0.4856882E-05  0.2326014E+04  0.7818609E-02  0.8467734E-01
        2   -1    0    0  501    0  0.00000000000E+00  0.00000000000E+00  0.16642138829E+04  0.16642138829E+04  0.25500000920E-02 0. -1.
       -2   -1    0    0    0  501  0.00000000000E+00  0.00000000000E+00 -0.81274756581E+03  0.81274756581E+03  0.25500000920E-02 0.  1.
    10030    2    1    2    0    0  0.00000000000E+00  0.00000000000E+00  0.85146631705E+03  0.24769614487E+04  0.23260144301E+04 0.  0.
        1    1    3    3  502    0 -0.51847859973E+03  0.64518959379E+03  0.12957571181E+04  0.15375552606E+04  0.50400001928E-02 0. -1.
       -1    1    3    3    0  502  0.51847859973E+03 -0.64518959379E+03 -0.44429080102E+03  0.93940618808E+03  0.50400001928E-02 0.  1.
</event>
<event>
 5   0  0.2139556E-05  0.1829948E+04  0.7818609E-02  0.8690534E-01
       -1   -1    0    0    0  501  0.00000000000E+00  0.00000000000E+00  0.20769835352E+04  0.20769835352E+04  0.50400001928E-02 0. -1.
        1   -1    0    0  501    0  0.00000000000E+00  0.00000000000E+00 -0.40307376586E+03  0.40307376589E+03  0.50400001928E-02 0.  1.
    10030    2    1    2    0    0  0.00000000000E+00  0.00000000000E+00  0.16739097693E+04  0.24800573011E+04  0.18299481689E+04 0.  0.
        2    1    3    3  502    0 -0.61906643170E+03 -0.38932554665E+03  0.15821758364E+04  0.17430140577E+04  0.25500000920E-02 0. -1.
       -2    1    3    3    0  502  0.61906643170E+03  0.38932554665E+03  0.91733932925E+02  0.73704324336E+03  0.25500000920E-02 0.  1.
</event>
<event>
 5   0  0.4713971E-05  0.2362880E+04  0.7818609E-02  0.8453533E-01
       -2   -1    0    0    0  501  0.00000000000E+00  0.00000000000E+00  0.73495574432E+03  0.73495574432E+03  0.25500000920E-02 0.  1.
        2   -1    0    0  501    0  0.00000000000E+00  0.00000000000E+00 -0.18991631690E+04  0.18991631690E+04  0.25500000920E-02 0. -1.
    10030    2    1    2    0    0  0.00000000000E+00  0.00000000000E+00 -0.11642074247E+04  0.26341189133E+04  0.23628803444E+04 0.  0.
        5    1    3    3  502    0  0.31158897506E+03 -0.89927515601E+03 -0.13624540128E+04  0.16619526234E+04  0.46999998093E+01 0. -1.
       -5    1    3    3    0  502 -0.31158897506E+03  0.89927515601E+03  0.19824658806E+03  0.97216628993E+03  0.46999998093E+01 0.  1.
</event>
<event>
 5   0  0.4914005E-05  0.2403020E+04  0.7818609E-02  0.8438374E-01
       -2   -1    0    0    0  501  0.00000000000E+00  0.00000000000E+00  0.11891883445E+04  0.11891883445E+04  0.25500000920E-02 0. -1.
        2   -1    0    0  501    0  0.00000000000E+00  0.00000000000E+00 -0.12139589935E+04  0.12139589935E+04  0.25500000920E-02 0.  1.
    10030    2    1    2    0    0  0.00000000000E+00  0.00000000000E+00 -0.24770648979E+02  0.24031473380E+04  0.24030196718E+04 0.  0.
        2    1    3    3  502    0  0.11630780726E+04 -0.19084247217E+03  0.22098181097E+03  0.11991682171E+04  0.25500000920E-02 0. -1.
       -2    1    3    3    0  502 -0.11630780726E+04  0.19084247217E+03 -0.24575245995E+03  0.12039791209E+04  0.25500000920E-02 0.  1.
</event>
<event>
 5   0  0.2149920E-05  0.2405697E+04  0.7818609E-02  0.8437374E-01
        1   -1    0    0  501    0  0.00000000000E+00  0.00000000000E+00  0.85840384535E+03  0.85840384537E+03  0.50400001928E-02 0. -1.
       -1   -1    0    0    0  501  0.00000000000E+00  0.00000000000E+00 -0.16855057036E+04  0.16855057036E+04  0.50400001928E-02 0.  1.
    10030    2    1    2    0    0  0.00000000000E+00  0.00000000000E+00 -0.82710185826E+03  0.25439095490E+04  0.24056970527E+04 0.  0.
        5    1    3    3  502    0  0.79951813830E+02  0.97148555289E+03  0.33166856511E+03  0.10296614002E+04  0.46999998093E+01 0.  1.
       -5    1    3    3    0  502 -0.79951813830E+02 -0.97148555289E+03 -0.11587704234E+04  0.15142481488E+04  0.46999998093E+01 0. -1.
</event>
<event>
 5   0  0.2057599E-05  0.2430139E+04  0.7818609E-02  0.8428306E-01
       -1   -1    0    0    0  501  0.00000000000E+00  0.00000000000E+00  0.12750985870E+04  0.12750985870E+04  0.50400001928E-02 0. -1.
        1   -1    0    0  501    0  0.00000000000E+00  0.00000000000E+00 -0.11578660802E+04  0.11578660802E+04  0.50400001928E-02 0.  1.
    10030    2    1    2    0    0  0.00000000000E+00  0.00000000000E+00  0.11723250676E+03  0.24329646672E+04  0.24301385992E+04 0.  0.
        4    1    3    3  502    0 -0.56599938956E+03  0.59729536179E+03  0.95367759495E+03  0.12596109027E+04  0.12699999809E+01 0. -1.
       -4    1    3    3    0  502  0.56599938956E+03 -0.59729536179E+03 -0.83644508819E+03  0.11733537645E+04  0.12699999809E+01 0.  1.
</event>
<event>
 5   0  0.2065692E-05  0.2402257E+04  0.7818609E-02  0.8438659E-01
        1   -1    0    0  501    0  0.00000000000E+00  0.00000000000E+00  0.13937813693E+04  0.13937813693E+04  0.50400001928E-02 0. -1.
       -1   -1    0    0    0  501  0.00000000000E+00  0.00000000000E+00 -0.10351048899E+04  0.10351048899E+04  0.50400001928E-02 0.  1.
    10030    2    1    2    0    0  0.00000000000E+00  0.00000000000E+00  0.35867647941E+03  0.24288862591E+04  0.24022571975E+04 0.  0.
        3    1    3    3  502    0 -0.87474673716E+03  0.79507913364E+03  0.39471885144E+03  0.12462486368E+04  0.10100000352E+00 0.  1.
       -3    1    3    3    0  502  0.87474673716E+03 -0.79507913364E+03 -0.36042372034E+02  0.11826376223E+04  0.10100000352E+00 0. -1.
</event>
<event>
 5   0  0.2149920E-05  0.2301024E+04  0.7818609E-02  0.8477517E-01
        1   -1    0    0  501    0  0.00000000000E+00  0.00000000000E+00  0.16292984266E+04  0.16292984266E+04  0.50400001928E-02 0. -1.
       -1   -1    0    0    0  501  0.00000000000E+00  0.00000000000E+00 -0.81242231148E+03  0.81242231149E+03  0.50400001928E-02 0.  1.
    10030    2    1    2    0    0  0.00000000000E+00  0.00000000000E+00  0.81687611516E+03  0.24417207381E+04  0.23010244622E+04 0.  0.
        5    1    3    3  502    0  0.32048006691E+03 -0.87725925151E+02  0.15772656132E+04  0.16118908821E+04  0.46999998093E+01 0. -1.
       -5    1    3    3    0  502 -0.32048006691E+03  0.87725925151E+02 -0.76038949804E+03  0.82982985603E+03  0.46999998093E+01 0.  1.
</event>
<event>
 5   0  0.4914005E-05  0.2413401E+04  0.7818609E-02  0.8434504E-01
        2   -1    0    0  501    0  0.00000000000E+00  0.00000000000E+00  0.13827497810E+04  0.13827497810E+04  0.25500000920E-02 0. -1.
       -2   -1    0    0    0  501  0.00000000000E+00  0.00000000000E+00 -0.10530652538E+04  0.10530652538E+04  0.25500000920E-02 0.  1.
    10030    2    1    2    0    0  0.00000000000E+00  0.00000000000E+00  0.32968452719E+03  0.24358150349E+04  0.24134007120E+04 0.  0.
        2    1    3    3  502    0  0.18052078992E+03 -0.83326333266E+03  0.10267112261E+04  0.13345604066E+04  0.25500000920E-02 0. -1.
       -2    1    3    3    0  502 -0.18052078992E+03  0.83326333266E+03 -0.69702669893E+03  0.11012546282E+04  0.25500000920E-02 0.  1.
</event>
<event>
 5   0  0.4914005E-05  0.2524615E+04  0.7818609E-02  0.8394268E-01
       -2   -1    0    0    0  501  0.00000000000E+00  0.00000000000E+00  0.91779575630E+03  0.91779575630E+03  0.25500000920E-02 0. -1.
        2   -1    0    0  501    0  0.00000000000E+00  0.00000000000E+00 -0.17361380074E+04  0.17361380074E+04  0.25500000920E-02 0.  1.
    10030    2    1    2    0    0  0.00000000000E+00  0.00000000000E+00 -0.81834225113E+03  0.26539337637E+04  0.25246148978E+04 0.  0.
        2    1    3    3  502    0 -0.38257993084E+03 -0.30124211011E+03  0.81508916099E+03  0.94946540366E+03  0.25500000920E-02 0. -1.
       -2    1    3    3    0  502  0.38257993084E+03  0.30124211011E+03 -0.16334314121E+04  0.17044683601E+04  0.25500000920E-02 0.  1.
</event>
<event>
 5   0  0.2057599E-05  0.2415058E+04  0.7818609E-02  0.8433887E-01
        1   -1    0    0  501    0  0.00000000000E+00  0.00000000000E+00  0.11854067464E+04  0.11854067464E+04  0.50400001928E-02 0.  1.
       -1   -1    0    0    0  501  0.00000000000E+00  0.00000000000E+00 -0.12300642838E+04  0.12300642838E+04  0.50400001928E-02 0. -1.
    10030    2    1    2    0    0  0.00000000000E+00  0.00000000000E+00 -0.44657537340E+02  0.24154710302E+04  0.24150581778E+04 0.  0.
        4    1    3    3  502    0  0.32757644700E+03 -0.85610680621E+03  0.76387156995E+03  0.11932001427E+04  0.12699999809E+01 0.  1.
       -4    1    3    3    0  502 -0.32757644700E+03  0.85610680621E+03 -0.80852910729E+03  0.12222708875E+04  0.12699999809E+01 0. -1.
</event>
<event>
 5   0  0.2090039E-05  0.2316707E+04  0.7818609E-02  0.8471363E-01
       -1   -1    0    0    0  501  0.00000000000E+00  0.00000000000E+00  0.93648475307E+03  0.93648475309E+03  0.50400001928E-02 0. -1.
        1   -1    0    0  501    0  0.00000000000E+00  0.00000000000E+00 -0.14327868053E+04  0.14327868053E+04  0.50400001928E-02 0.  1.
    10030    2    1    2    0    0  0.00000000000E+00  0.00000000000E+00 -0.49630205225E+03  0.23692715584E+04  0.23167071439E+04 0.  0.
        1    1    3    3  502    0  0.99644719244E+03  0.25614822183E+02 -0.85164158237E+03  0.13110516814E+04  0.50400001928E-02 0.  1.
       -1    1    3    3    0  502 -0.99644719244E+03 -0.25614822183E+02  0.35533953012E+03  0.10582198770E+04  0.50400001928E-02 0. -1.
</event>
<event>
 5   0  0.2090039E-05  0.2451862E+04  0.7818609E-02  0.8420338E-01
       -1   -1    0    0    0  501  0.00000000000E+00  0.00000000000E+00  0.64997312809E+03  0.64997312811E+03  0.50400001928E-02 0. -1.
        1   -1    0    0  501    0  0.00000000000E+00  0.00000000000E+00 -0.23122598450E+04  0.23122598450E+04  0.50400001928E-02 0.  1.
    10030    2    1    2    0    0  0.00000000000E+00  0.00000000000E+00 -0.16622867170E+04  0.29622329732E+04  0.24518619574E+04 0.  0.
        1    1    3    3  502    0 -0.48707851744E+03 -0.57258971194E+03 -0.20011244534E+04  0.21376631022E+04  0.50400001928E-02 0.  1.
       -1    1    3    3    0  502  0.48707851744E+03  0.57258971194E+03  0.33883773649E+03  0.82456987095E+03  0.50400001928E-02 0. -1.
</event>
<event>
 5   0  0.2149920E-05  0.2466339E+04  0.7818609E-02  0.8415076E-01
        1   -1    0    0  501    0  0.00000000000E+00  0.00000000000E+00  0.15102682285E+04  0.15102682285E+04  0.50400001928E-02 0.  1.
       -1   -1    0    0    0  501  0.00000000000E+00  0.00000000000E+00 -0.10069119870E+04  0.10069119870E+04  0.50400001928E-02 0. -1.
    10030    2    1    2    0    0  0.00000000000E+00  0.00000000000E+00  0.50335624147E+03  0.25171802155E+04  0.24663391355E+04 0.  0.
        5    1    3    3  502    0 -0.82949331771E+03  0.44529570517E+03 -0.56119313111E+03  0.10960416277E+04  0.46999998093E+01 0. -1.
       -5    1    3    3    0  502  0.82949331771E+03 -0.44529570517E+03  0.10645493726E+04  0.14211385878E+04  0.46999998093E+01 0.  1.
</event>
<event>
 5   0  0.4664127E-05  0.1964361E+04  0.7818609E-02  0.8623467E-01
       -2   -1    0    0    0  501  0.00000000000E+00  0.00000000000E+00  0.83777674058E+03  0.83777674059E+03  0.25500000920E-02 0.  1.
        2   -1    0    0  501    0  0.00000000000E+00  0.00000000000E+00 -0.11514743130E+04  0.11514743130E+04  0.25500000920E-02 0. -1.
    10030    2    1    2    0    0  0.00000000000E+00  0.00000000000E+00 -0.31369757244E+03  0.19892510536E+04  0.19643608598E+04 0.  0.
        4    1    3    3  502    0  0.11832504875E+03 -0.96975121493E+03 -0.25941664052E+03  0.10108001001E+04  0.12699999809E+01 0.  1.
       -4    1    3    3    0  502 -0.11832504875E+03  0.96975121493E+03 -0.54280931917E+02  0.97845095354E+03  0.12699999809E+01 0. -1.
</event>
<event>
 5   0  0.4756705E-05  0.2414869E+04  0.7818609E-02  0.8433958E-01
        2   -1    0    0  501    0  0.00000000000E+00  0.00000000000E+00  0.24483829392E+04  0.24483829392E+04  0.25500000920E-02 0.  1.
       -2   -1    0    0    0  501  0.00000000000E+00  0.00000000000E+00 -0.59545329725E+03  0.59545329725E+03  0.25500000920E-02 0. -1.
    10030    2    1    2    0    0  0.00000000000E+00  0.00000000000E+00  0.18529296419E+04  0.30438362364E+04  0.24148686872E+04 0.  0.
        3    1    3    3  502    0 -0.10747269793E+04  0.47341072216E+03  0.12801612586E+04  0.17372301661E+04  0.10100000352E+00 0. -1.
       -3    1    3    3    0  502  0.10747269793E+04 -0.47341072216E+03  0.57276838336E+03  0.13066060703E+04  0.10100000352E+00 0.  1.
</event>
<event>
 5   0  0.4856882E-05  0.2386160E+04  0.7818609E-02  0.8444703E-01
        2   -1    0    0  501    0  0.00000000000E+00  0.00000000000E+00  0.12509344609E+04  0.12509344609E+04  0.25500000920E-02 0. -1.
       -2   -1    0    0    0  501  0.00000000000E+00  0.00000000000E+00 -0.11379012995E+04  0.11379012995E+04  0.25500000920E-02 0.  1.
    10030    2    1    2    0    0  0.00000000000E+00  0.00000000000E+00  0.11303316145E+03  0.23888357604E+04  0.23861600522E+04 0.  0.
        1    1    3    3  502    0 -0.24519980744E+03  0.52316758701E+03 -0.98849907092E+03  0.11449706035E+04  0.50400001928E-02 0.  1.
       -1    1    3    3    0  502  0.24519980744E+03 -0.52316758701E+03  0.11015322324E+04  0.12438651569E+04  0.50400001928E-02 0. -1.
</event>
<event>
 5   0  0.4756705E-05  0.2412835E+04  0.7818609E-02  0.8434714E-01
        2   -1    0    0  501    0  0.00000000000E+00  0.00000000000E+00  0.14389073430E+04  0.14389073430E+04  0.25500000920E-02 0. -1.
       -2   -1    0    0    0  501  0.00000000000E+00  0.00000000000E+00 -0.10114922287E+04  0.10114922287E+04  0.25500000920E-02 0.  1.
    10030    2    1    2    0    0  0.00000000000E+00  0.00000000000E+00  0.42741511430E+03  0.24503995716E+04  0.24128353406E+04 0.  0.
        3    1    3    3  502    0  0.47180400373E+03 -0.10538329166E+04  0.56883830099E+03  0.12871440700E+04  0.10100000352E+00 0.  1.
       -3    1    3    3    0  502 -0.47180400373E+03  0.10538329166E+04 -0.14142318669E+03  0.11632555016E+04  0.10100000352E+00 0. -1.
</event>
<event>
 5   0  0.4713971E-05  0.2425258E+04  0.7818609E-02  0.8430108E-01
       -2   -1    0    0    0  501  0.00000000000E+00  0.00000000000E+00  0.54247915145E+03  0.54247915145E+03  0.25500000920E-02 0.  1.
        2   -1    0    0  501    0  0.00000000000E+00  0.00000000000E+00 -0.27106457439E+04  0.27106457439E+04  0.25500000920E-02 0. -1.
    10030    2    1    2    0    0  0.00000000000E+00  0.00000000000E+00 -0.21681665924E+04  0.32531248953E+04  0.24252577620E+04 0.  0.
        5    1    3    3  502    0 -0.44341743621E+03  0.24015956475E+03 -0.25633163334E+04  0.26124525554E+04  0.46999998093E+01 0. -1.
       -5    1    3    3    0  502  0.44341743621E+03 -0.24015956475E+03  0.39514974099E+03  0.64067233988E+03  0.46999998093E+01 0.  1.
</event>
<event>
 5   0  0.4713971E-05  0.2267928E+04  0.7818609E-02  0.8490675E-01
       -2   -1    0    0    0  501  0.00000000000E+00  0.00000000000E+00  0.43396966975E+03  0.43396966976E+03  0.25500000920E-02 0.  1.
        2   -1    0    0  501    0  0.00000000000E+00  0.00000000000E+00 -0.29630501345E+04  0.29630501345E+04  0.25500000920E-02 0. -1.
    10030    2    1    2    0    0  0.00000000000E+00  0.00000000000E+00 -0.25290804647E+04  0.33970198042E+04  0.22679275900E+04 0.  0.
        5    1    3    3  502    0  0.79633385550E+03  0.35894016961E+03 -0.18145120732E+03  0.89215037152E+03  0.46999998093E+01 0.  1.
       -5    1    3    3    0  502 -0.79633385550E+03 -0.35894016961E+03 -0.23476292574E+04  0.25048694327E+04  0.46999998093E+01 0. -1.
</event>
<event>
 5   0  0.2065692E-05  0.2500020E+04  0.7818609E-02  0.8402978E-01
        1   -1    0    0  501    0  0.00000000000E+00  0.00000000000E+00  0.12086676588E+04  0.12086676588E+04  0.50400001928E-02 0.  1.
       -1   -1    0    0    0  501  0.00000000000E+00  0.00000000000E+00 -0.12927667646E+04  0.12927667646E+04  0.50400001928E-02 0. -1.
    10030    2    1    2    0    0  0.00000000000E+00  0.00000000000E+00 -0.84099105775E+02  0.25014344234E+04  0.25000203029E+04 0.  0.
        3    1    3    3  502    0  0.72525392328E+03 -0.91504148585E+03  0.40455614114E+03  0.12357021711E+04  0.10100000352E+00 0.  1.
       -3    1    3    3    0  502 -0.72525392328E+03  0.91504148585E+03 -0.48865524691E+03  0.12657322523E+04  0.10100000352E+00 0. -1.
</event>
<event>
 5   0  0.4856882E-05  0.2493460E+04  0.7818609E-02  0.8405319E-01
       -2   -1    0    0    0  501  0.00000000000E+00  0.00000000000E+00  0.12591434083E+04  0.12591434083E+04  0.25500000920E-02 0. -1.
        2   -1    0    0  501    0  0.00000000000E+00  0.00000000000E+00 -0.12344392937E+04  0.12344392937E+04  0.25500000920E-02 0.  1.
    10030    2    1    2    0    0  0.00000000000E+00  0.00000000000E+00  0.24704114563E+02  0.24935827020E+04  0.24934603262E+04 0.  0.
        1    1    3    3  502    0  0.11822880044E+04  0.53490752441E+02  0.40437883932E+03  0.12506751903E+04  0.50400001928E-02 0.  1.
       -1    1    3    3    0  502 -0.11822880044E+04 -0.53490752441E+02 -0.37967472475E+03  0.12429075117E+04  0.50400001928E-02 0. -1.
</event>
<event>
 5   0  0.2065692E-05  0.2423909E+04  0.7818609E-02  0.8430606E-01
       -1   -1    0    0    0  501  0.00000000000E+00  0.00000000000E+00  0.89240645222E+03  0.89240645224E+03  0.50400001928E-02 0. -1.
        1   -1    0    0  501    0  0.00000000000E+00  0.00000000000E+00 -0.16459250014E+04  0.16459250014E+04  0.50400001928E-02 0.  1.
    10030    2    1    2    0    0  0.00000000000E+00  0.00000000000E+00 -0.75351854914E+03  0.25383314536E+04  0.24239093144E+04 0.  0.
        3    1    3    3  502    0  0.84521713513E+02 -0.72095849638E+03 -0.13930932378E+04  0.15708704125E+04  0.10100000352E+00 0.  1.
       -3    1    3    3    0  502 -0.84521713513E+02  0.72095849638E+03  0.63957468861E+03  0.96746104112E+03  0.10100000352E+00 0. -1.
</event>
<event>
 5   0  0.2139556E-05  0.2313962E+04  0.7818609E-02  0.8472436E-01
       -1   -1    0    0    0  501  0.00000000000E+00  0.00000000000E+00  0.83307578684E+03  0.83307578686E+03  0.50400001928E-02 0. -1.
        1   -1    0    0  501    0  0.00000000000E+00  0.00000000000E+00 -0.16068227620E+04  0.16068227620E+04  0.50400001928E-02 0.  1.
    10030    2    1    2    0    0  0.00000000000E+00  0.00000000000E+00 -0.77374697517E+03  0.24398985489E+04  0.23139620885E+04 0.  0.
        2    1    3    3  502    0 -0.10740057140E+04 -0.41916383302E+03 -0.48920453528E+03  0.12524007625E+04  0.25500000920E-02 0. -1.
       -2    1    3    3    0  502  0.10740057140E+04  0.41916383302E+03 -0.28454243989E+03  0.11874977864E+04  0.25500000920E-02 0.  1.
</event>
<event>
 5   0  0.2057599E-05  0.2379781E+04  0.7818609E-02  0.8447112E-01
       -1   -1    0    0    0  501  0.00000000000E+00  0.00000000000E+00  0.75971239981E+03  0.75971239982E+03  0.50400001928E-02 0. -1.
        1   -1    0    0  501    0  0.00000000000E+00  0.00000000000E+00 -0.18636512547E+04  0.18636512547E+04  0.50400001928E-02 0.  1.
    10030    2    1    2    0    0  0.00000000000E+00  0.00000000000E+00 -0.11039388549E+04  0.26233636545E+04  0.23797806345E+04 0.  0.
        4    1    3    3  502    0 -0.60352965768E+03 -0.95372545924E+03 -0.96736440352E+03  0.14864843764E+04  0.12699999809E+01 0. -1.
       -4    1    3    3    0  502  0.60352965768E+03  0.95372545924E+03 -0.13657445138E+03  0.11368792781E+04  0.12699999809E+01 0.  1.
</event>
<event>
 5   0  0.4664127E-05  0.2373479E+04  0.7818609E-02  0.8449500E-01
       -2   -1    0    0    0  501  0.00000000000E+00  0.00000000000E+00  0.77819108867E+03  0.77819108868E+03  0.25500000920E-02 0. -1.
        2   -1    0    0  501    0  0.00000000000E+00  0.00000000000E+00 -0.18097742975E+04  0.18097742975E+04  0.25500000920E-02 0.  1.
    10030    2    1    2    0    0  0.00000000000E+00  0.00000000000E+00 -0.10315832088E+04  0.25879653861E+04  0.23734786545E+04 0.  0.
        4    1    3    3  502    0 -0.31233395741E+03 -0.90255780436E+03 -0.12838516595E+04  0.16001374278E+04  0.12699999809E+01 0.  1.
       -4    1    3    3    0  502  0.31233395741E+03  0.90255780436E+03  0.25226845076E+03  0.98782795836E+03  0.12699999809E+01 0. -1.
</event>
<event>
 5   0  0.2149920E-05  0.2377083E+04  0.7818609E-02  0.8448134E-01
       -1   -1    0    0    0  501  0.00000000000E+00  0.00000000000E+00  0.17375931162E+04  0.17375931163E+04  0.50400001928E-02 0.  1.
        1   -1    0    0  501    0  0.00000000000E+00  0.00000000000E+00 -0.81298120255E+03  0.81298120256E+03  0.50400001928E-02 0. -1.
    10030    2    1    2    0    0  0.00000000000E+00  0.00000000000E+00  0.92461191370E+03  0.25505743188E+04  0.23770827005E+04 0.  0.
        5    1    3    3  502    0 -0.10020152222E+04  0.63665606945E+03  0.52340956019E+03  0.12974379037E+04  0.46999998093E+01 0.  1.
       -5    1    3    3    0  502  0.10020152222E+04 -0.63665606945E+03  0.40120235350E+03  0.12531364151E+04  0.46999998093E+01 0. -1.
</event>
<event>
 5   0  0.2149920E-05  0.2396708E+04  0.7818609E-02  0.8440737E-01
        1   -1    0    0  501    0  0.00000000000E+00  0.00000000000E+00  0.15722429007E+04  0.15722429007E+04  0.50400001928E-02 0.  1.
       -1   -1    0    0    0  501  0.00000000000E+00  0.00000000000E+00 -0.91337817723E+03  0.91337817724E+03  0.50400001928E-02 0. -1.
    10030    2    1    2    0    0  0.00000000000E+00  0.00000000000E+00  0.65886472351E+03  0.24856210780E+04  0.23967080380E+04 0.  0.
        5    1    3    3  502    0  0.28355854453E+02 -0.25573167629E+03 -0.88438329252E+03  0.92106386468E+03  0.46999998093E+01 0. -1.
       -5    1    3    3    0  502 -0.28355854453E+02  0.25573167629E+03  0.15432480160E+04  0.15645572133E+04  0.46999998093E+01 0.  1.
</event>
<event>
 5   0  0.2149920E-05  0.2413373E+04  0.7818609E-02  0.8434514E-01
        1   -1    0    0  501    0  0.00000000000E+00  0.00000000000E+00  0.16086510895E+04  0.16086510895E+04  0.50400001928E-02 0.  1.
       -1   -1    0    0    0  501  0.00000000000E+00  0.00000000000E+00 -0.90516342772E+03  0.90516342774E+03  0.50400001928E-02 0. -1.
    10030    2    1    2    0    0  0.00000000000E+00  0.00000000000E+00  0.70348766175E+03  0.25138145172E+04  0.24133728549E+04 0.  0.
        5    1    3    3  502    0 -0.68458841940E+03  0.47809137090E+03 -0.55562355421E+03  0.10029816982E+04  0.46999998093E+01 0. -1.
       -5    1    3    3    0  502  0.68458841940E+03 -0.47809137090E+03  0.12591112160E+04  0.15108328190E+04  0.46999998093E+01 0.  1.
</event>
<event>
 5   0  0.4713971E-05  0.2420589E+04  0.7818609E-02  0.8431836E-01
       -2   -1    0    0    0  501  0.00000000000E+00  0.00000000000E+00  0.16668968981E+04  0.16668968981E+04  0.25500000920E-02 0.  1.
        2   -1    0    0  501    0  0.00000000000E+00  0.00000000000E+00 -0.87876594712E+03  0.87876594712E+03  0.25500000920E-02 0. -1.
    10030    2    1    2    0    0  0.00000000000E+00  0.00000000000E+00  0.78813095094E+03  0.25456628452E+04  0.24205885494E+04 0.  0.
        5    1    3    3  502    0 -0.97659498949E+03 -0.64523528454E+03  0.71774069789E+03  0.13730404748E+04  0.46999998093E+01 0.  1.
       -5    1    3    3    0  502  0.97659498949E+03  0.64523528454E+03  0.70390253052E+02  0.11726223704E+04  0.46999998093E+01 0. -1.
</event>
<event>
 5   0  0.4856882E-05  0.2189944E+04  0.7818609E-02  0.8522625E-01
       -2   -1    0    0    0  501  0.00000000000E+00  0.00000000000E+00  0.86802111251E+03  0.86802111251E+03  0.25500000920E-02 0. -1.
        2   -1    0    0  501    0  0.00000000000E+00  0.00000000000E+00 -0.13812608254E+04  0.13812608254E+04  0.25500000920E-02 0.  1.
    10030    2    1    2    0    0  0.00000000000E+00  0.00000000000E+00 -0.51323971293E+03  0.22492819380E+04  0.21899438882E+04 0.  0.
        1    1    3    3  502    0 -0.25468361312E+03  0.25470225436E+03  0.80543214364E+03  0.88230262337E+03  0.50400001928E-02 0. -1.
       -1    1    3    3    0  502  0.25468361312E+03 -0.25470225436E+03 -0.13186718566E+04  0.13669793146E+04  0.50400001928E-02 0.  1.
</event>
<event>
 5   0  0.2139556E-05  0.2404783E+04  0.7818609E-02  0.8437715E-01
       -1   -1    0    0    0  501  0.00000000000E+00  0.00000000000E+00  0.64275481460E+03  0.64275481462E+03  0.50400001928E-02 0. -1.
        1   -1    0    0  501    0  0.00000000000E+00  0.00000000000E+00 -0.22492955124E+04  0.22492955124E+04  0.50400001928E-02 0.  1.
    10030    2    1    2    0    0  0.00000000000E+00  0.00000000000E+00 -0.16065406978E+04  0.28920503270E+04  0.24047831670E+04 0.  0.
        2    1    3    3  502    0  0.32050682823E+03 -0.10979239569E+04 -0.35718937921E+03  0.11982261451E+04  0.25500000920E-02 0. -1.
       -2    1    3    3    0  502 -0.32050682823E+03  0.10979239569E+04 -0.12493513186E+04  0.16938241820E+04  0.25500000920E-02 0.  1.
</event>
<event>
 5   0  0.4713971E-05  0.2405799E+04  0.7818609E-02  0.8437336E-01
       -2   -1    0    0    0  501  0.00000000000E+00  0.00000000000E+00  0.26584672736E+04  0.26584672736E+04  0.25500000920E-02 0.  1.
        2   -1    0    0  501    0  0.00000000000E+00  0.00000000000E+00 -0.54428605484E+03  0.54428605485E+03  0.25500000920E-02 0. -1.
    10030    2    1    2    0    0  0.00000000000E+00  0.00000000000E+00  0.21141812188E+04  0.32027533285E+04  0.24057985488E+04 0.  0.
        5    1    3    3  502    0 -0.10051665527E+04 -0.26507253688E+03  0.25134984943E+03  0.10694961829E+04  0.46999998093E+01 0.  1.
       -5    1    3    3    0  502  0.10051665527E+04  0.26507253688E+03  0.18628313694E+04  0.21332571456E+04  0.46999998093E+01 0. -1.
</event>
<event>
 5   0  0.4856882E-05  0.2299623E+04  0.7818609E-02  0.8478070E-01
       -2   -1    0    0    0  501  0.00000000000E+00  0.00000000000E+00  0.11633412526E+04  0.11633412526E+04  0.25500000920E-02 0. -1.
        2   -1    0    0  501    0  0.00000000000E+00  0.00000000000E+00 -0.11364388931E+04  0.11364388931E+04  0.25500000920E-02 0.  1.
    10030    2    1    2    0    0  0.00000000000E+00  0.00000000000E+00  0.26902359508E+02  0.22997801457E+04  0.22996227911E+04 0.  0.
        1    1    3    3  502    0 -0.22303098976E+03  0.93784990006E+03  0.64020052364E+03  0.11572216589E+04  0.50400001928E-02 0. -1.
       -1    1    3    3    0  502  0.22303098976E+03 -0.93784990006E+03 -0.61329816413E+03  0.11425584867E+04  0.50400001928E-02 0.  1.
</event>
<event>
 5   0  0.4856882E-05  0.2381510E+04  0.7818609E-02  0.8446459E-01
       -2   -1    0    0    0  501  0.00000000000E+00  0.00000000000E+00  0.17800286793E+04  0.17800286793E+04  0.25500000920E-02 0.  1.
        2   -1    0    0  501    0  0.00000000000E+00  0.00000000000E+00 -0.79655873269E+03  0.79655873269E+03  0.25500000920E-02 0. -1.
    10030    2    1    2    0    0  0.00000000000E+00  0.00000000000E+00  0.98346994657E+03  0.25765874119E+04  0.23815099319E+04 0.  0.
        1    1    3    3  502    0 -0.11249562956E+04 -0.37228714616E+03  0.61870663350E+03  0.13367581250E+04  0.50400001928E-02 0. -1.
       -1    1    3    3    0  502  0.11249562956E+04  0.37228714616E+03  0.36476331307E+03  0.12398292870E+04  0.50400001928E-02 0.  1.
</event>
<event>
 5   0  0.4756705E-05  0.2399560E+04  0.7818609E-02  0.8439668E-01
       -2   -1    0    0    0  501  0.00000000000E+00  0.00000000000E+00  0.93432986813E+03  0.93432986813E+03  0.25500000920E-02 0. -1.
        2   -1    0    0  501    0  0.00000000000E+00  0.00000000000E+00 -0.15406468166E+04  0.15406468166E+04  0.25500000920E-02 0.  1.
    10030    2    1    2    0    0  0.00000000000E+00  0.00000000000E+00 -0.60631694846E+03  0.24749766847E+04  0.23995602405E+04 0.  0.
        3    1    3    3  502    0  0.60692612521E+03 -0.61116710725E+02 -0.13687690649E+04  0.14985404022E+04  0.10100000352E+00 0.  1.
       -3    1    3    3    0  502 -0.60692612521E+03  0.61116710725E+02  0.76245211643E+03  0.97643628253E+03  0.10100000352E+00 0. -1.
</event>
<event>
 5   0  0.2057599E-05  0.2389390E+04  0.7818609E-02  0.8443486E-01
       -1   -1    0    0    0  501  0.00000000000E+00  0.00000000000E+00  0.83407353979E+03  0.83407353981E+03  0.50400001928E-02 0. -1.
        1   -1    0    0  501    0  0.00000000000E+00  0.00000000000E+00 -0.17112354875E+04  0.17112354875E+04  0.50400001928E-02 0.  1.
    10030    2    1    2    0    0  0.00000000000E+00  0.00000000000E+00 -0.87716194772E+03  0.25453090273E+04  0.23893900816E+04 0.  0.
        4    1    3    3  502    0  0.95075280445E+03 -0.25262993363E+03 -0.11607119837E+04  0.15215146074E+04  0.12699999809E+01 0.  1.
       -4    1    3    3    0  502 -0.95075280445E+03  0.25262993363E+03  0.28355003596E+03  0.10237944199E+04  0.12699999809E+01 0. -1.
</event>
<event>
 5   0  0.2057599E-05  0.2620977E+04  0.7818609E-02  0.8361110E-01
        1   -1    0    0  501    0  0.00000000000E+00  0.00000000000E+00  0.16008286812E+04  0.16008286812E+04  0.50400001928E-02 0.  1.
       -1   -1    0    0    0  501  0.00000000000E+00  0.00000000000E+00 -0.10728070554E+04  0.10728070555E+04  0.50400001928E-02 0. -1.
    10030    2    1    2    0    0  0.00000000000E+00  0.00000000000E+00  0.52802162573E+03  0.26736357366E+04  0.26209771489E+04 0.  0.
        4    1    3    3  502    0  0.11020497064E+04 -0.68884050203E+03  0.92211286474E+02  0.13028888390E+04  0.12699999809E+01 0.  1.
       -4    1    3    3    0  502 -0.11020497064E+04  0.68884050203E+03  0.43581033926E+03  0.13707468976E+04  0.12699999809E+01 0. -1.
</event>
<event>
 5   0  0.2090039E-05  0.2354720E+04  0.7818609E-02  0.8456653E-01
        1   -1    0    0  501    0  0.00000000000E+00  0.00000000000E+00  0.12242301319E+04  0.12242301319E+04  0.50400001928E-02 0. -1.
       -1   -1    0    0    0  501  0.00000000000E+00  0.00000000000E+00 -0.11322843773E+04  0.11322843773E+04  0.50400001928E-02 0.  1.
    10030    2    1    2    0    0  0.00000000000E+00  0.00000000000E+00  0.91945754609E+02  0.23565145091E+04  0.23547200704E+04 0.  0.
        1    1    3    3  502    0 -0.13797205550E+03 -0.39201788745E+03  0.11483850089E+04  0.12212708303E+04  0.50400001928E-02 0. -1.
       -1    1    3    3    0  502  0.13797205550E+03  0.39201788745E+03 -0.10564392543E+04  0.11352436788E+04  0.50400001928E-02 0.  1.
</event>
<event>
 5   0  0.4713971E-05  0.2424582E+04  0.7818609E-02  0.8430357E-01
       -2   -1    0    0    0  501  0.00000000000E+00  0.00000000000E+00  0.10437898296E+04  0.10437898296E+04  0.25500000920E-02 0.  1.
        2   -1    0    0  501    0  0.00000000000E+00  0.00000000000E+00 -0.14079933943E+04  0.14079933943E+04  0.25500000920E-02 0. -1.
    10030    2    1    2    0    0  0.00000000000E+00  0.00000000000E+00 -0.36420356467E+03  0.24517832239E+04  0.24245817661E+04 0.  0.
        5    1    3    3  502    0  0.56800088513E+03 -0.10438277101E+04 -0.42442708617E+03  0.12618881628E+04  0.46999998093E+01 0.  1.
       -5    1    3    3    0  502 -0.56800088513E+03  0.10438277101E+04  0.60223521502E+02  0.11898950611E+04  0.46999998093E+01 0. -1.
</event>
<event>
 5   0  0.2090039E-05  0.2420963E+04  0.7818609E-02  0.8431697E-01
        1   -1    0    0  501    0  0.00000000000E+00  0.00000000000E+00  0.16355967066E+04  0.16355967067E+04  0.50400001928E-02 0.  1.
       -1   -1    0    0    0  501  0.00000000000E+00  0.00000000000E+00 -0.89585951837E+03  0.89585951839E+03  0.50400001928E-02 0. -1.
    10030    2    1    2    0    0  0.00000000000E+00  0.00000000000E+00  0.73973718827E+03  0.25314562250E+04  0.24209625176E+04 0.  0.
        1    1    3    3  502    0  0.11749498645E+04 -0.29090379752E+03  0.38191273267E+03  0.12692476271E+04  0.50400001928E-02 0. -1.
       -1    1    3    3    0  502 -0.11749498645E+04  0.29090379752E+03  0.35782445560E+03  0.12622085979E+04  0.50400001928E-02 0.  1.
</event>
<event>
 5   0  0.4713971E-05  0.2410146E+04  0.7818609E-02  0.8435715E-01
        2   -1    0    0  501    0  0.00000000000E+00  0.00000000000E+00  0.23663684951E+04  0.23663684951E+04  0.25500000920E-02 0. -1.
       -2   -1    0    0    0  501  0.00000000000E+00  0.00000000000E+00 -0.61368332953E+03  0.61368332954E+03  0.25500000920E-02 0.  1.
    10030    2    1    2    0    0  0.00000000000E+00  0.00000000000E+00  0.17526851656E+04  0.29800518247E+04  0.24101459682E+04 0.  0.
        5    1    3    3  502    0  0.25101382412E+03  0.22393545239E+03  0.23071283644E+04  0.23315270546E+04  0.46999998093E+01 0. -1.
       -5    1    3    3    0  502 -0.25101382412E+03 -0.22393545239E+03 -0.55444319876E+03  0.64852477007E+03  0.46999998093E+01 0.  1.
</event>
<event>
 5   0  0.4856882E-05  0.2461626E+04  0.7818609E-02  0.8416785E-01
       -2   -1    0    0    0  501  0.00000000000E+00  0.00000000000E+00  0.15795267513E+04  0.15795267513E+04  0.25500000920E-02 0. -1.
        2   -1    0    0  501    0  0.00000000000E+00  0.00000000000E+00 -0.95908530589E+03  0.95908530589E+03  0.25500000920E-02 0.  1.
    10030    2    1    2    0    0  0.00000000000E+00  0.00000000000E+00  0.62044144544E+03  0.25386120572E+04  0.24616262084E+04 0.  0.
        1    1    3    3  502    0 -0.11401320408E+04  0.20371934773E+03  0.73977869749E+03  0.13742907859E+04  0.50400001928E-02 0. -1.
       -1    1    3    3    0  502  0.11401320408E+04 -0.20371934773E+03 -0.11933725204E+03  0.11643212713E+04  0.50400001928E-02 0.  1.
</event>
<event>
 5   0  0.4664127E-05  0.2394288E+04  0.7818609E-02  0.8441645E-01
       -2   -1    0    0    0  501  0.00000000000E+00  0.00000000000E+00  0.73926827358E+03  0.73926827358E+03  0.25500000920E-02 0. -1.
        2   -1    0    0  501    0  0.00000000000E+00  0.00000000000E+00 -0.19386117250E+04  0.19386117250E+04  0.25500000920E-02 0.  1.
    10030    2    1    2    0    0  0.00000000000E+00  0.00000000000E+00 -0.11993434514E+04  0.26778799986E+04  0.23942883227E+04 0.  0.
        4    1    3    3  502    0 -0.45808168151E+03 -0.23344287442E+03 -0.18088438688E+04  0.18804925305E+04  0.12699999809E+01 0.  1.
       -4    1    3    3    0  502  0.45808168151E+03  0.23344287442E+03  0.60950041741E+03  0.79738746809E+03  0.12699999809E+01 0. -1.
</event>
<event>
 5   0  0.4713971E-05  0.2319278E+04  0.7818609E-02  0.8470359E-01
       -2   -1    0    0    0  501  0.00000000000E+00  0.00000000000E+00  0.72999023228E+03  0.72999023229E+03  0.25500000920E-02 0.  1.
        2   -1    0    0  501    0  0.00000000000E+00  0.00000000000E+00 -0.18421655506E+04  0.18421655506E+04  0.25500000920E-02 0. -1.
    10030    2    1    2    0    0  0.00000000000E+00  0.00000000000E+00 -0.11121753183E+04  0.25721557829E+04  0.23192782137E+04 0.  0.
        5    1    3    3  502    0  0.10378517254E+04  0.48204720627E+03 -0.76426425256E+03  0.13760914398E+04  0.46999998093E+01 0.  1.
       -5    1    3    3    0  502 -0.10378517254E+04 -0.48204720627E+03 -0.34791106572E+03  0.11960643430E+04  0.46999998093E+01 0. -1.
</event>
<event>
 5   0  0.2057599E-05  0.2411114E+04  0.7818609E-02  0.8435354E-01
       -1   -1    0    0    0  501  0.00000000000E+00  0.00000000000E+00  0.87699606068E+03  0.87699606069E+03  0.50400001928E-02 0.  1.
        1   -1    0    0  501    0  0.00000000000E+00  0.00000000000E+00 -0.16572114878E+04  0.16572114878E+04  0.50400001928E-02 0. -1.
    10030    2    1    2    0    0  0.00000000000E+00  0.00000000000E+00 -0.78021542716E+03  0.25342075485E+04  0.24111142209E+04 0.  0.
        4    1    3    3  502    0 -0.11883264261E+04  0.12619533652E+03 -0.22285697510E+03  0.12156116988E+04  0.12699999809E+01 0. -1.
       -4    1    3    3    0  502  0.11883264261E+04 -0.12619533652E+03 -0.55735845206E+03  0.13185958497E+04  0.12699999809E+01 0.  1.
</event>
<event>
 5   0  0.4856882E-05  0.2375012E+04  0.7818609E-02  0.8448919E-01
        2   -1    0    0  501    0  0.00000000000E+00  0.00000000000E+00  0.20346045561E+04  0.20346045561E+04  0.25500000920E-02 0. -1.
       -2   -1    0    0    0  501  0.00000000000E+00  0.00000000000E+00 -0.69309288983E+03  0.69309288984E+03  0.25500000920E-02 0.  1.
    10030    2    1    2    0    0  0.00000000000E+00  0.00000000000E+00  0.13415116663E+04  0.27276974460E+04  0.23750115381E+04 0.  0.
        1    1    3    3  502    0 -0.66449782367E+03 -0.62124926950E+03  0.15474311886E+04  0.17950073248E+04  0.50400001928E-02 0. -1.
       -1    1    3    3    0  502  0.66449782367E+03  0.62124926950E+03 -0.20591952228E+03  0.93269012121E+03  0.50400001928E-02 0.  1.
</event>
<event>
 5   0  0.2057599E-05  0.2413278E+04  0.7818609E-02  0.8434549E-01
       -1   -1    0    0    0  501  0.00000000000E+00  0.00000000000E+00  0.96712183591E+03  0.96712183593E+03  0.50400001928E-02 0.  1.
        1   -1    0    0  501    0  0.00000000000E+00  0.00000000000E+00 -0.15054755428E+04  0.15054755428E+04  0.50400001928E-02 0. -1.
    10030    2    1    2    0    0  0.00000000000E+00  0.00000000000E+00 -0.53835370689E+03  0.24725973787E+04  0.24132784928E+04 0.  0.
        4    1    3    3  502    0 -0.39229388397E+03  0.11325897888E+04 -0.41159916675E+03  0.12673080162E+04  0.12699999809E+01 0. -1.
       -4    1    3    3    0  502  0.39229388397E+03 -0.11325897888E+04 -0.12675454014E+03  0.12052893625E+04  0.12699999809E+01 0.  1.
</event>
<event>
 5   0  0.2139556E-05  0.1911296E+04  0.7818609E-02  0.8649254E-01
       -1   -1    0    0    0  501  0.00000000000E+00  0.00000000000E+00  0.85124343858E+03  0.85124343859E+03  0.50400001928E-02 0. -1.
        1   -1    0    0  501    0  0.00000000000E+00  0.00000000000E+00 -0.10728579272E+04  0.10728579273E+04  0.50400001928E-02 0.  1.
    10030    2    1    2    0    0  0.00000000000E+00  0.00000000000E+00 -0.22161448867E+03  0.19241013658E+04  0.19112961792E+04 0.  0.
        2    1    3    3  502    0 -0.68173354181E+03 -0.29443079355E+03 -0.71634626479E+03  0.10317955637E+04  0.25500000920E-02 0.  1.
       -2    1    3    3    0  502  0.68173354181E+03  0.29443079355E+03  0.49473177612E+03  0.89230580214E+03  0.25500000920E-02 0. -1.
</event>
<event>
 5   0  0.1672125E-05  0.2399290E+04  0.7818609E-02  0.8439770E-01
       -4   -1    0    0    0  501  0.00000000000E+00  0.00000000000E+00  0.69996807028E+03  0.69996922240E+03  0.12699999809E+01 0. -1.
        4   -1    0    0  501    0  0.00000000000E+00  0.00000000000E+00 -0.20560159349E+04  0.20560163271E+04  0.12699999809E+01 0.  1.
    10030    2    1    2    0    0  0.00000000000E+00  0.00000000000E+00 -0.13560478646E+04  0.27559855495E+04  0.23992895903E+04 0.  0.
        5    1    3    3  502    0  0.61453316985E+03  0.59119465441E+03  0.29119770972E+03  0.90109951303E+03  0.46999998093E+01 0. -1.
       -5    1    3    3    0  502 -0.61453316985E+03 -0.59119465441E+03 -0.16472455743E+04  0.18548860365E+04  0.46999998093E+01 0.  1.
</event>
<event>
 5   0  0.2090039E-05  0.2356435E+04  0.7818609E-02  0.8455996E-01
        1   -1    0    0  501    0  0.00000000000E+00  0.00000000000E+00  0.17667341079E+04  0.17667341079E+04  0.50400001928E-02 0. -1.
       -1   -1    0    0    0  501  0.00000000000E+00  0.00000000000E+00 -0.78574171327E+03  0.78574171328E+03  0.50400001928E-02 0.  1.
    10030    2    1    2    0    0  0.00000000000E+00  0.00000000000E+00  0.98099239465E+03  0.25524758212E+04  0.23564351762E+04 0.  0.
        1    1    3    3  502    0  0.11248265486E+04  0.19104301328E+03  0.17198476463E+03  0.11538244913E+04  0.50400001928E-02 0. -1.
       -1    1    3    3    0  502 -0.11248265486E+04 -0.19104301328E+03  0.80900763002E+03  0.13986513300E+04  0.50400001928E-02 0.  1.
</event>
<event>
 5   0  0.2057599E-05  0.2507011E+04  0.7818609E-02  0.8400492E-01
        1   -1    0    0  501    0  0.00000000000E+00  0.00000000000E+00  0.17619058892E+04  0.17619058892E+04  0.50400001928E-02 0. -1.
       -1   -1    0    0    0  501  0.00000000000E+00  0.00000000000E+00 -0.89180470015E+03  0.89180470016E+03  0.50400001928E-02 0.  1.
    10030    2    1    2    0    0  0.00000000000E+00  0.00000000000E+00  0.87010118903E+03  0.26537105893E+04  0.25070109319E+04 0.  0.
        4    1    3    3  502    0 -0.30523870458E+03 -0.82586565742E+03  0.13794754124E+04  0.16365142154E+04  0.12699999809E+01 0.  1.
       -4    1    3    3    0  502  0.30523870458E+03  0.82586565742E+03 -0.50937422336E+03  0.10171963740E+04  0.12699999809E+01 0. -1.
</event>
<event>
 5   0  0.4664127E-05  0.2295267E+04  0.7818609E-02  0.8479790E-01
        2   -1    0    0  501    0  0.00000000000E+00  0.00000000000E+00  0.13700764096E+04  0.13700764096E+04  0.25500000920E-02 0. -1.
       -2   -1    0    0    0  501  0.00000000000E+00  0.00000000000E+00 -0.96130573199E+03  0.96130573200E+03  0.25500000920E-02 0.  1.
    10030    2    1    2    0    0  0.00000000000E+00  0.00000000000E+00  0.40877067762E+03  0.23313821416E+04  0.22952666998E+04 0.  0.
        4    1    3    3  502    0 -0.57874299268E+03  0.37914590701E+03 -0.72564483794E+03  0.10026251114E+04  0.12699999809E+01 0.  1.
       -4    1    3    3    0  502  0.57874299268E+03 -0.37914590701E+03  0.11344155156E+04  0.13287570302E+04  0.12699999809E+01 0. -1.
</event>
<event>
 5   0  0.4664127E-05  0.2388686E+04  0.7818609E-02  0.8443751E-01
        2   -1    0    0  501    0  0.00000000000E+00  0.00000000000E+00  0.51090946079E+03  0.51090946079E+03  0.25500000920E-02 0. -1.
       -2   -1    0    0    0  501  0.00000000000E+00  0.00000000000E+00 -0.27919931126E+04  0.27919931126E+04  0.25500000920E-02 0.  1.
    10030    2    1    2    0    0  0.00000000000E+00  0.00000000000E+00 -0.22810836518E+04  0.33029025734E+04  0.23886864136E+04 0.  0.
        4    1    3    3  502    0  0.68310345471E+03  0.74922577396E+03 -0.20133972932E+04  0.22542714706E+04  0.12699999809E+01 0.  1.
       -4    1    3    3    0  502 -0.68310345471E+03 -0.74922577396E+03 -0.26768635864E+03  0.10486311028E+04  0.12699999809E+01 0. -1.
</event>
<event>
 5   0  0.2149920E-05  0.1793946E+04  0.7818609E-02  0.8709526E-01
        1   -1    0    0  501    0  0.00000000000E+00  0.00000000000E+00  0.17205750915E+04  0.17205750915E+04  0.50400001928E-02 0.  1.
       -1   -1    0    0    0  501  0.00000000000E+00  0.00000000000E+00 -0.46761130137E+03  0.46761130140E+03  0.50400001928E-02 0. -1.
    10030    2    1    2    0    0  0.00000000000E+00  0.00000000000E+00  0.12529637901E+04  0.21881863929E+04  0.17939457714E+04 0.  0.
        5    1    3    3  502    0  0.30595427839E+03 -0.71216854552E+01  0.16549077972E+04  0.16829737509E+04  0.46999998093E+01 0.  1.
       -5    1    3    3    0  502 -0.30595427839E+03  0.71216854552E+01 -0.40194400707E+03  0.50521264205E+03  0.46999998093E+01 0. -1.
</event>
<event>
 5   0  0.4914005E-05  0.2411361E+04  0.7818609E-02  0.8435262E-01
        2   -1    0    0  501    0  0.00000000000E+00  0.00000000000E+00  0.24083353952E+04  0.24083353952E+04  0.25500000920E-02 0. -1.
       -2   -1    0    0    0  501  0.00000000000E+00  0.00000000000E+00 -0.60359753516E+03  0.60359753516E+03  0.25500000920E-02 0.  1.
    10030    2    1    2    0    0  0.00000000000E+00  0.00000000000E+00  0.18047378600E+04  0.30119329303E+04  0.24113608675E+04 0.  0.
        2    1    3    3  502    0  0.10280271371E+04  0.62187629691E+03  0.77686869734E+03  0.14307672404E+04  0.25500000920E-02 0. -1.
       -2    1    3    3    0  502 -0.10280271371E+04 -0.62187629691E+03  0.10278691627E+04  0.15811656899E+04  0.25500000920E-02 0.  1.
</event>
<event>
 5   0  0.2149920E-05  0.2402428E+04  0.7818609E-02  0.8438595E-01
        1   -1    0    0  501    0  0.00000000000E+00  0.00000000000E+00  0.12965589215E+04  0.12965589215E+04  0.50400001928E-02 0. -1.
       -1   -1    0    0    0  501  0.00000000000E+00  0.00000000000E+00 -0.11128806308E+04  0.11128806309E+04  0.50400001928E-02 0.  1.
    10030    2    1    2    0    0  0.00000000000E+00  0.00000000000E+00  0.18367829066E+03  0.24094395524E+04  0.24024281971E+04 0.  0.
        5    1    3    3  502    0 -0.59348499040E+03  0.90953812438E+03  0.60657103780E+03  0.12439592226E+04  0.46999998093E+01 0. -1.
       -5    1    3    3    0  502  0.59348499040E+03 -0.90953812438E+03 -0.42289274714E+03  0.11654803298E+04  0.46999998093E+01 0.  1.
</event>
<event>
 5   0  0.4856882E-05  0.2380176E+04  0.7818609E-02  0.8446963E-01
       -2   -1    0    0    0  501  0.00000000000E+00  0.00000000000E+00  0.70311308271E+03  0.70311308272E+03  0.25500000920E-02 0.  1.
        2   -1    0    0  501    0  0.00000000000E+00  0.00000000000E+00 -0.20143409782E+04  0.20143409782E+04  0.25500000920E-02 0. -1.
    10030    2    1    2    0    0  0.00000000000E+00  0.00000000000E+00 -0.13112278954E+04  0.27174540609E+04  0.23801760395E+04 0.  0.
        1    1    3    3  502    0  0.41421945400E+03 -0.19653086518E+03  0.59823758572E+03  0.75371768324E+03  0.50400001928E-02 0.  1.
       -1    1    3    3    0  502 -0.41421945400E+03  0.19653086518E+03 -0.19094654812E+04  0.19637363776E+04  0.50400001928E-02 0. -1.
</event>
<event>
 5   0  0.4664127E-05  0.2379202E+04  0.7818609E-02  0.8447331E-01
       -2   -1    0    0    0  501  0.00000000000E+00  0.00000000000E+00  0.14399812240E+04  0.14399812240E+04  0.25500000920E-02 0. -1.
        2   -1    0    0  501    0  0.00000000000E+00  0.00000000000E+00 -0.98275631461E+03  0.98275631461E+03  0.25500000920E-02 0.  1.
    10030    2    1    2    0    0  0.00000000000E+00  0.00000000000E+00  0.45722490942E+03  0.24227375386E+04  0.23792020854E+04 0.  0.
        4    1    3    3  502    0 -0.39770650344E+03 -0.11004731698E+04  0.44686438266E+03  0.12525578030E+04  0.12699999809E+01 0. -1.
       -4    1    3    3    0  502  0.39770650344E+03  0.11004731698E+04  0.10360526766E+02  0.11701797357E+04  0.12699999809E+01 0.  1.
</event>
<event>
 5   0  0.2065692E-05  0.2481002E+04  0.7818609E-02  0.8409785E-01
       -1   -1    0    0    0  501  0.00000000000E+00  0.00000000000E+00  0.14343314540E+04  0.14343314540E+04  0.50400001928E-02 0.  1.
        1   -1    0    0  501    0  0.00000000000E+00  0.00000000000E+00 -0.10728636913E+04  0.10728636913E+04  0.50400001928E-02 0. -1.
    10030    2    1    2    0    0  0.00000000000E+00  0.00000000000E+00  0.36146776278E+03  0.25071951453E+04  0.24810015222E+04 0.  0.
        3    1    3    3  502    0  0.97664367616E+03 -0.71418644805E+03 -0.95920888695E+02  0.12137116543E+04  0.10100000352E+00 0.  1.
       -3    1    3    3    0  502 -0.97664367616E+03  0.71418644805E+03  0.45738865148E+03  0.12934834910E+04  0.10100000352E+00 0. -1.
</event>
<event>
 5   0  0.4664127E-05  0.2375456E+04  0.7818609E-02  0.8448750E-01
        2   -1    0    0  501    0  0.00000000000E+00  0.00000000000E+00  0.10230820272E+04  0.10230820272E+04  0.25500000920E-02 0. -1.
       -2   -1    0    0    0  501  0.00000000000E+00  0.00000000000E+00 -0.13788710957E+04  0.13788710957E+04  0.25500000920E-02 0.  1.
    10030    2    1    2    0    0  0.00000000000E+00  0.00000000000E+00 -0.35578906848E+03  0.24019531229E+04  0.23754563653E+04 0.  0.
        4    1    3    3  502    0 -0.70984669978E+03  0.61978459191E+03 -0.90892583091E+03  0.13092604999E+04  0.12699999809E+01 0.  1.
       -4    1    3    3    0  502  0.70984669978E+03 -0.61978459191E+03  0.55313676243E+03  0.10926926230E+04  0.12699999809E+01 0. -1.
</event>
<event>
 5   0  0.4713971E-05  0.2388771E+04  0.7818609E-02  0.8443720E-01
        2   -1    0    0  501    0  0.00000000000E+00  0.00000000000E+00  0.14525062751E+04  0.14525062751E+04  0.25500000920E-02 0.  1.
       -2   -1    0    0    0  501  0.00000000000E+00  0.00000000000E+00 -0.98213449595E+03  0.98213449595E+03  0.25500000920E-02 0. -1.
    10030    2    1    2    0    0  0.00000000000E+00  0.00000000000E+00  0.47037177911E+03  0.24346407710E+04  0.23887708290E+04 0.  0.
        5    1    3    3  502    0 -0.54833562357E+02 -0.93757256386E+03 -0.51687589619E+03  0.10720223011E+04  0.46999998093E+01 0. -1.
       -5    1    3    3    0  502  0.54833562357E+02  0.93757256386E+03  0.98724767530E+03  0.13626184699E+04  0.46999998093E+01 0.  1.
</event>
<event>
 5   0  0.4856882E-05  0.2397760E+04  0.7818609E-02  0.8440343E-01
       -2   -1    0    0    0  501  0.00000000000E+00  0.00000000000E+00  0.90327852174E+03  0.90327852174E+03  0.25500000920E-02 0. -1.
        2   -1    0    0  501    0  0.00000000000E+00  0.00000000000E+00 -0.15912178543E+04  0.15912178543E+04  0.25500000920E-02 0.  1.
    10030    2    1    2    0    0  0.00000000000E+00  0.00000000000E+00 -0.68793933257E+03  0.24944963760E+04  0.23977597137E+04 0.  0.
        1    1    3    3  502    0  0.90708321178E+03  0.10476674786E+03  0.46424946686E+03  0.10243552080E+04  0.50400001928E-02 0. -1.
       -1    1    3    3    0  502 -0.90708321178E+03 -0.10476674786E+03 -0.11521887994E+04  0.14701411681E+04  0.50400001928E-02 0.  1.
</event>
<event>
 5   0  0.2057599E-05  0.2403948E+04  0.7818609E-02  0.8438027E-01
       -1   -1    0    0    0  501  0.00000000000E+00  0.00000000000E+00  0.88505997971E+03  0.88505997972E+03  0.50400001928E-02 0.  1.
        1   -1    0    0  501    0  0.00000000000E+00  0.00000000000E+00 -0.16323659368E+04  0.16323659368E+04  0.50400001928E-02 0. -1.
    10030    2    1    2    0    0  0.00000000000E+00  0.00000000000E+00 -0.74730595712E+03  0.25174259166E+04  0.24039482215E+04 0.  0.
        4    1    3    3  502    0  0.92362447583E+03  0.60934755243E+03  0.11792407676E+03  0.11127867328E+04  0.12699999809E+01 0.  1.
       -4    1    3    3    0  502 -0.92362447583E+03 -0.60934755243E+03 -0.86523003388E+03  0.14046391837E+04  0.12699999809E+01 0. -1.
</event>
<event>
 5   0  0.4856882E-05  0.2302876E+04  0.7818609E-02  0.8476788E-01
       -2   -1    0    0    0  501  0.00000000000E+00  0.00000000000E+00  0.10953082914E+04  0.10953082914E+04  0.25500000920E-02 0. -1.
        2   -1    0    0  501    0  0.00000000000E+00  0.00000000000E+00 -0.12104437935E+04  0.12104437935E+04  0.25500000920E-02 0.  1.
    10030    2    1    2    0    0  0.00000000000E+00  0.00000000000E+00 -0.11513550211E+03  0.23057520849E+04  0.23028757007E+04 0.  0.
        1    1    3    3  502    0 -0.10565528626E+04  0.45734750928E+03 -0.75987128533E+02  0.11537957963E+04  0.50400001928E-02 0.  1.
       -1    1    3    3    0  502  0.10565528626E+04 -0.45734750928E+03 -0.39148373574E+02  0.11519562886E+04  0.50400001928E-02 0. -1.
</event>
<event>
 5   0  0.2139556E-05  0.2394945E+04  0.7818609E-02  0.8441398E-01
       -1   -1    0    0    0  501  0.00000000000E+00  0.00000000000E+00  0.12964743193E+04  0.12964743193E+04  0.50400001928E-02 0. -1.
        1   -1    0    0  501    0  0.00000000000E+00  0.00000000000E+00 -0.11060311150E+04  0.11060311150E+04  0.50400001928E-02 0.  1.
    10030    2    1    2    0    0  0.00000000000E+00  0.00000000000E+00  0.19044320429E+03  0.24025054343E+04  0.23949454582E+04 0.  0.
        2    1    3    3  502    0  0.58391350173E+03  0.72669630506E+03 -0.65874817734E+03  0.11414866002E+04  0.25500000920E-02 0.  1.
       -2    1    3    3    0  502 -0.58391350173E+03 -0.72669630506E+03  0.84919138163E+03  0.12610188341E+04  0.25500000920E-02 0. -1.
</event>
<event>
 5   0  0.4756705E-05  0.2377074E+04  0.7818609E-02  0.8448137E-01
        2   -1    0    0  501    0  0.00000000000E+00  0.00000000000E+00  0.23676897407E+04  0.23676897407E+04  0.25500000920E-02 0.  1.
       -2   -1    0    0    0  501  0.00000000000E+00  0.00000000000E+00 -0.59662401540E+03  0.59662401540E+03  0.25500000920E-02 0. -1.
    10030    2    1    2    0    0  0.00000000000E+00  0.00000000000E+00  0.17710657253E+04  0.29643137561E+04  0.23770743028E+04 0.  0.
        3    1    3    3  502    0 -0.11756148147E+04 -0.16794958371E+03  0.82516651702E+03  0.14460902621E+04  0.10100000352E+00 0.  1.
       -3    1    3    3    0  502  0.11756148147E+04  0.16794958371E+03  0.94589920826E+03  0.15182234940E+04  0.10100000352E+00 0. -1.
</event>
<event>
 5   0  0.2057599E-05  0.2239044E+04  0.7818609E-02  0.8502351E-01
       -1   -1    0    0    0  501  0.00000000000E+00  0.00000000000E+00  0.13643939689E+04  0.13643939689E+04  0.50400001928E-02 0.  1.
        1   -1    0    0  501    0  0.00000000000E+00  0.00000000000E+00 -0.91859817877E+03  0.91859817879E+03  0.50400001928E-02 0. -1.
    10030    2    1    2    0    0  0.00000000000E+00  0.00000000000E+00  0.44579579016E+03  0.22829921477E+04  0.22390442738E+04 0.  0.
        4    1    3    3  502    0  0.38759557542E+02 -0.11043605755E+04  0.40590227734E+03  0.11772310120E+04  0.12699999809E+01 0.  1.
       -4    1    3    3    0  502 -0.38759557542E+02  0.11043605755E+04  0.39893512819E+02  0.11057611357E+04  0.12699999809E+01 0. -1.
</event>
<event>
 5   0  0.2057599E-05  0.2347989E+04  0.7818609E-02  0.8459237E-01
        1   -1    0    0  501    0  0.00000000000E+00  0.00000000000E+00  0.15364146809E+04  0.15364146809E+04  0.50400001928E-02 0. -1.
       -1   -1    0    0    0  501  0.00000000000E+00  0.00000000000E+00 -0.89706431246E+03  0.89706431248E+03  0.50400001928E-02 0.  1.
    10030    2    1    2    0    0  0.00000000000E+00  0.00000000000E+00  0.63935036847E+03  0.24334789934E+04  0.23479887388E+04 0.  0.
        4    1    3    3  502    0 -0.99666326286E+03  0.78485272875E+02 -0.31817060373E+03  0.10491576352E+04  0.12699999809E+01 0.  1.
       -4    1    3    3    0  502  0.99666326286E+03 -0.78485272875E+02  0.95752097220E+03  0.13843213582E+04  0.12699999809E+01 0. -1.
</event>
<event>
 5   0  0.4856882E-05  0.2280339E+04  0.7818609E-02  0.8485714E-01
       -2   -1    0    0    0  501  0.00000000000E+00  0.00000000000E+00  0.61458259830E+03  0.61458259831E+03  0.25500000920E-02 0. -1.
        2   -1    0    0  501    0  0.00000000000E+00  0.00000000000E+00 -0.21152357097E+04  0.21152357097E+04  0.25500000920E-02 0.  1.
    10030    2    1    2    0    0  0.00000000000E+00  0.00000000000E+00 -0.15006531114E+04  0.27298183080E+04  0.22803394997E+04 0.  0.
        1    1    3    3  502    0  0.41496741474E+03  0.56808257922E+03 -0.18244430870E+04  0.19553793366E+04  0.50400001928E-02 0.  1.
       -1    1    3    3    0  502 -0.41496741474E+03 -0.56808257922E+03  0.32378997564E+03  0.77443897142E+03  0.50400001928E-02 0. -1.
</event>
<event>
 5   0  0.4664127E-05  0.2328548E+04  0.7818609E-02  0.8466749E-01
       -2   -1    0    0    0  501  0.00000000000E+00  0.00000000000E+00  0.66023296893E+03  0.66023296894E+03  0.25500000920E-02 0.  1.
        2   -1    0    0  501    0  0.00000000000E+00  0.00000000000E+00 -0.20531140878E+04  0.20531140878E+04  0.25500000920E-02 0. -1.
    10030    2    1    2    0    0  0.00000000000E+00  0.00000000000E+00 -0.13928811189E+04  0.27133470567E+04  0.23285477103E+04 0.  0.
        4    1    3    3  502    0  0.62615209140E+03 -0.53411376560E+03 -0.16560516741E+04  0.18492843795E+04  0.12699999809E+01 0. -1.
       -4    1    3    3    0  502 -0.62615209140E+03  0.53411376560E+03  0.26317055520E+03  0.86406267724E+03  0.12699999809E+01 0.  1.
</event>
<event>
 5   0  0.2149920E-05  0.2369907E+04  0.7818609E-02  0.8450856E-01
        1   -1    0    0  501    0  0.00000000000E+00  0.00000000000E+00  0.12937350316E+04  0.12937350316E+04  0.50400001928E-02 0.  1.
       -1   -1    0    0    0  501  0.00000000000E+00  0.00000000000E+00 -0.10853190972E+04  0.10853190972E+04  0.50400001928E-02 0. -1.
    10030    2    1    2    0    0  0.00000000000E+00  0.00000000000E+00  0.20841593442E+03  0.23790541287E+04  0.23699074551E+04 0.  0.
        5    1    3    3  502    0  0.15893763350E+03 -0.51758064698E+03 -0.95387250050E+03  0.10968344153E+04  0.46999998093E+01 0. -1.
       -5    1    3    3    0  502 -0.15893763350E+03  0.51758064698E+03  0.11622884349E+04  0.12822197134E+04  0.46999998093E+01 0.  1.
</event>
<event>
 5   0  0.4856882E-05  0.2420372E+04  0.7818609E-02  0.8431916E-01
        2   -1    0    0  501    0  0.00000000000E+00  0.00000000000E+00  0.11745299566E+04  0.11745299566E+04  0.25500000920E-02 0. -1.
       -2   -1    0    0    0  501  0.00000000000E+00  0.00000000000E+00 -0.12469245664E+04  0.12469245664E+04  0.25500000920E-02 0.  1.
    10030    2    1    2    0    0  0.00000000000E+00  0.00000000000E+00 -0.72394609788E+02  0.24214545229E+04  0.24203720844E+04 0.  0.
        1    1    3    3  502    0 -0.85890106977E+03 -0.76333395616E+03 -0.41605181939E+03  0.12220838321E+04  0.50400001928E-02 0.  1.
       -1    1    3    3    0  502  0.85890106977E+03  0.76333395616E+03  0.34365720961E+03  0.11993706908E+04  0.50400001928E-02 0. -1.
</event>
<event>
 5   0  0.4756705E-05  0.1822834E+04  0.7818609E-02  0.8694250E-01
        2   -1    0    0  501    0  0.00000000000E+00  0.00000000000E+00  0.88451368686E+03  0.88451368687E+03  0.25500000920E-02 0. -1.
       -2   -1    0    0    0  501  0.00000000000E+00  0.00000000000E+00 -0.93913864617E+03  0.93913864618E+03  0.25500000920E-02 0.  1.
    10030    2    1    2    0    0  0.00000000000E+00  0.00000000000E+00 -0.54624959310E+02  0.18236523330E+04  0.18228340423E+04 0.  0.
        3    1    3    3  502    0 -0.32553919388E+03 -0.14409510659E+03 -0.86670152320E+03  0.93696889330E+03  0.10100000352E+00 0.  1.
       -3    1    3    3    0  502  0.32553919388E+03  0.14409510659E+03  0.81207656389E+03  0.88668343974E+03  0.10100000352E+00 0. -1.
</event>
<event>
 5   0  0.2090039E-05  0.2724627E+04  0.7818609E-02  0.8327058E-01
       -1   -1    0    0    0  501  0.00000000000E+00  0.00000000000E+00  0.92985173339E+03  0.92985173340E+03  0.50400001928E-02 0.  1.
        1   -1    0    0  501    0  0.00000000000E+00  0.00000000000E+00 -0.19959071227E+04  0.19959071227E+04  0.50400001928E-02 0. -1.
    10030    2    1    2    0    0  0.00000000000E+00  0.00000000000E+00 -0.10660553893E+04  0.29257588561E+04  0.27246267251E+04 0.  0.
        1    1    3    3  502    0  0.11891461809E+04 -0.59285535098E+03 -0.21025304486E+03  0.13452704002E+04  0.50400001928E-02 0.  1.
       -1    1    3    3    0  502 -0.11891461809E+04  0.59285535098E+03 -0.85580234444E+03  0.15804884560E+04  0.50400001928E-02 0. -1.
</event>
<event>
 5   0  0.2057599E-05  0.2361786E+04  0.7818609E-02  0.8453950E-01
       -1   -1    0    0    0  501  0.00000000000E+00  0.00000000000E+00  0.11190938411E+04  0.11190938411E+04  0.50400001928E-02 0. -1.
        1   -1    0    0  501    0  0.00000000000E+00  0.00000000000E+00 -0.12461048562E+04  0.12461048562E+04  0.50400001928E-02 0.  1.
    10030    2    1    2    0    0  0.00000000000E+00  0.00000000000E+00 -0.12701101512E+03  0.23651986973E+04  0.23617859936E+04 0.  0.
        4    1    3    3  502    0 -0.10211009351E+04 -0.59163039792E+03 -0.20629982431E+02  0.11802969358E+04  0.12699999809E+01 0. -1.
       -4    1    3    3    0  502  0.10211009351E+04  0.59163039792E+03 -0.10638103269E+03  0.11849017615E+04  0.12699999809E+01 0.  1.
</event>
<event>
 5   0  0.2065692E-05  0.2299525E+04  0.7818609E-02  0.8478108E-01
        1   -1    0    0  501    0  0.00000000000E+00  0.00000000000E+00  0.96624578524E+03  0.96624578525E+03  0.50400001928E-02 0.  1.
       -1   -1    0    0    0  501  0.00000000000E+00  0.00000000000E+00 -0.13681346006E+04  0.13681346006E+04  0.50400001928E-02 0. -1.
    10030    2    1    2    0    0  0.00000000000E+00  0.00000000000E+00 -0.40188881537E+03  0.23343803859E+04  0.22995254219E+04 0.  0.
        3    1    3    3  502    0  0.10971344450E+04 -0.40386633030E+02  0.14572734755E+03  0.11075069032E+04  0.10100000352E+00 0. -1.
       -3    1    3    3    0  502 -0.10971344450E+04  0.40386633030E+02 -0.54761616291E+03  0.12268734827E+04  0.10100000352E+00 0.  1.
</event>
<event>
 5   0  0.2149920E-05  0.2406969E+04  0.7818609E-02  0.8436899E-01
       -1   -1    0    0    0  501  0.00000000000E+00  0.00000000000E+00  0.12902841551E+04  0.12902841551E+04  0.50400001928E-02 0. -1.
        1   -1    0    0  501    0  0.00000000000E+00  0.00000000000E+00 -0.11225235502E+04  0.11225235502E+04  0.50400001928E-02 0.  1.
    10030    2    1    2    0    0  0.00000000000E+00  0.00000000000E+00  0.16776060495E+03  0.24128077053E+04  0.24069685088E+04 0.  0.
        5    1    3    3  502    0  0.60380982169E+03 -0.56153246233E+03  0.96261815443E+03  0.12675017981E+04  0.46999998093E+01 0. -1.
       -5    1    3    3    0  502 -0.60380982169E+03  0.56153246233E+03 -0.79485754948E+03  0.11453059072E+04  0.46999998093E+01 0.  1.
</event>
<event>
 5   0  0.2065692E-05  0.2357840E+04  0.7818609E-02  0.8455458E-01
        1   -1    0    0  501    0  0.00000000000E+00  0.00000000000E+00  0.11574397562E+04  0.11574397562E+04  0.50400001928E-02 0. -1.
       -1   -1    0    0    0  501  0.00000000000E+00  0.00000000000E+00 -0.12007989582E+04  0.12007989582E+04  0.50400001928E-02 0.  1.
    10030    2    1    2    0    0  0.00000000000E+00  0.00000000000E+00 -0.43359202042E+02  0.23582387144E+04  0.23578400738E+04 0.  0.
        3    1    3    3  502    0  0.96798060608E+03  0.26711280166E+03  0.59609524293E+03  0.11677607852E+04  0.10100000352E+00 0. -1.
       -3    1    3    3    0  502 -0.96798060608E+03 -0.26711280166E+03 -0.63945444497E+03  0.11904779292E+04  0.10100000352E+00 0.  1.
</event>
<event>
 5   0  0.4664127E-05  0.2385309E+04  0.7818609E-02  0.8445024E-01
       -2   -1    0    0    0  501  0.00000000000E+00  0.00000000000E+00  0.77220105532E+03  0.77220105532E+03  0.25500000920E-02 0.  1.
        2   -1    0    0  501    0  0.00000000000E+00  0.00000000000E+00 -0.18420398983E+04  0.18420398983E+04  0.25500000920E-02 0. -1.
    10030    2    1    2    0    0  0.00000000000E+00  0.00000000000E+00 -0.10698388430E+04  0.26142409536E+04  0.23853093329E+04 0.  0.
        4    1    3    3  502    0 -0.10599309805E+04  0.24527200980E+03 -0.10705045667E+04  0.15263006527E+04  0.12699999809E+01 0.  1.
       -4    1    3    3    0  502  0.10599309805E+04 -0.24527200980E+03  0.66572371420E+00  0.10879403009E+04  0.12699999809E+01 0. -1.
</event>
<event>
 5   0  0.4856882E-05  0.2379365E+04  0.7818609E-02  0.8447270E-01
       -2   -1    0    0    0  501  0.00000000000E+00  0.00000000000E+00  0.12515885209E+04  0.12515885209E+04  0.25500000920E-02 0.  1.
        2   -1    0    0  501    0  0.00000000000E+00  0.00000000000E+00 -0.11308382002E+04  0.11308382002E+04  0.25500000920E-02 0. -1.
    10030    2    1    2    0    0  0.00000000000E+00  0.00000000000E+00  0.12075032064E+03  0.23824267211E+04  0.23793647139E+04 0.  0.
        1    1    3    3  502    0  0.50678670761E+03  0.94905721785E+03 -0.44802005827E+03  0.11654459843E+04  0.50400001928E-02 0. -1.
       -1    1    3    3    0  502 -0.50678670761E+03 -0.94905721785E+03  0.56877037890E+03  0.12169807368E+04  0.50400001928E-02 0.  1.
</event>
<event>
 5   0  0.2139556E-05  0.2424614E+04  0.7818609E-02  0.8430346E-01
        1   -1    0    0  501    0  0.00000000000E+00  0.00000000000E+00  0.11654498736E+04  0.11654498736E+04  0.50400001928E-02 0. -1.
       -1   -1    0    0    0  501  0.00000000000E+00  0.00000000000E+00 -0.12610480295E+04  0.12610480295E+04  0.50400001928E-02 0.  1.
    10030    2    1    2    0    0  0.00000000000E+00  0.00000000000E+00 -0.95598155902E+02  0.24264979031E+04  0.24246140035E+04 0.  0.
        2    1    3    3  502    0 -0.62830787482E+03 -0.81451019549E+03 -0.68977284577E+03  0.12385411672E+04  0.25500000920E-02 0.  1.
       -2    1    3    3    0  502  0.62830787482E+03  0.81451019549E+03  0.59417468987E+03  0.11879567358E+04  0.25500000920E-02 0. -1.
</event>
<event>
 5   0  0.4713971E-05  0.2396814E+04  0.7818609E-02  0.8440697E-01
       -2   -1    0    0    0  501  0.00000000000E+00  0.00000000000E+00  0.17149377878E+04  0.17149377878E+04  0.25500000920E-02 0. -1.
        2   -1    0    0  501    0  0.00000000000E+00  0.00000000000E+00 -0.83745247096E+03  0.83745247097E+03  0.25500000920E-02 0.  1.
    10030    2    1    2    0    0  0.00000000000E+00  0.00000000000E+00  0.87748531679E+03  0.25523902587E+04  0.23968136247E+04 0.  0.
        5    1    3    3  502    0 -0.46083016998E+03  0.39524238170E+03 -0.66156003589E+03  0.89792246711E+03  0.46999998093E+01 0.  1.
       -5    1    3    3    0  502  0.46083016998E+03 -0.39524238170E+03  0.15390453527E+04  0.16544677916E+04  0.46999998093E+01 0. -1.
</event>
<event>
 5   0  0.2139556E-05  0.2403019E+04  0.7818609E-02  0.8438374E-01
       -1   -1    0    0    0  501  0.00000000000E+00  0.00000000000E+00  0.14489051631E+04  0.14489051631E+04  0.50400001928E-02 0.  1.
        1   -1    0    0  501    0  0.00000000000E+00  0.00000000000E+00 -0.99635573128E+03  0.99635573129E+03  0.50400001928E-02 0. -1.
    10030    2    1    2    0    0  0.00000000000E+00  0.00000000000E+00  0.45254943185E+03  0.24452608944E+04  0.24030189041E+04 0.  0.
        2    1    3    3  502    0 -0.11266658078E+04 -0.10646261331E+03 -0.18444762719E+03  0.11466172237E+04  0.25500000920E-02 0. -1.
       -2    1    3    3    0  502  0.11266658078E+04  0.10646261331E+03  0.63699705904E+03  0.12986436708E+04  0.25500000920E-02 0.  1.
</event>
<event>
 5   0  0.4914005E-05  0.2458690E+04  0.7818609E-02  0.8417852E-01
        2   -1    0    0  501    0  0.00000000000E+00  0.00000000000E+00  0.11643182045E+04  0.11643182045E+04  0.25500000920E-02 0.  1.
       -2   -1    0    0    0  501  0.00000000000E+00  0.00000000000E+00 -0.12980035350E+04  0.12980035350E+04  0.25500000920E-02 0. -1.
    10030    2    1    2    0    0  0.00000000000E+00  0.00000000000E+00 -0.13368533056E+03  0.24623217395E+04  0.24586900132E+04 0.  0.
        2    1    3    3  502    0 -0.73311406582E+03 -0.98652588471E+03 -0.42319957451E+02  0.12298294733E+04  0.25500000920E-02 0. -1.
       -2    1    3    3    0  502  0.73311406582E+03  0.98652588471E+03 -0.91365373111E+02  0.12324922661E+04  0.25500000920E-02 0.  1.
</event>
<event>
 5   0  0.4756705E-05  0.2392420E+04  0.7818609E-02  0.8442347E-01
       -2   -1    0    0    0  501  0.00000000000E+00  0.00000000000E+00  0.87513602971E+03  0.87513602972E+03  0.25500000920E-02 0. -1.
        2   -1    0    0  501    0  0.00000000000E+00  0.00000000000E+00 -0.16350806948E+04  0.16350806948E+04  0.25500000920E-02 0.  1.
    10030    2    1    2    0    0  0.00000000000E+00  0.00000000000E+00 -0.75994466513E+03  0.25102167246E+04  0.23924197187E+04 0.  0.
        3    1    3    3  502    0 -0.82897133342E+03 -0.58661683395E+03 -0.10432409215E+04  0.14559067319E+04  0.10100000352E+00 0.  1.
       -3    1    3    3    0  502  0.82897133342E+03  0.58661683395E+03  0.28329625639E+03  0.10543099926E+04  0.10100000352E+00 0. -1.
</event>
<event>
 5   0  0.4856882E-05  0.2413079E+04  0.7818609E-02  0.8434623E-01
        2   -1    0    0  501    0  0.00000000000E+00  0.00000000000E+00  0.19283382405E+04  0.19283382405E+04  0.25500000920E-02 0. -1.
       -2   -1    0    0    0  501  0.00000000000E+00  0.00000000000E+00 -0.75491795512E+03  0.75491795513E+03  0.25500000920E-02 0.  1.
    10030    2    1    2    0    0  0.00000000000E+00  0.00000000000E+00  0.11734202854E+04  0.26832561957E+04  0.24130786654E+04 0.  0.
        1    1    3    3  502    0 -0.11862469989E+04  0.72487958287E+02  0.35532354822E+03  0.12404399503E+04  0.50400001928E-02 0. -1.
       -1    1    3    3    0  502  0.11862469989E+04 -0.72487958287E+02  0.81809673719E+03  0.14428162453E+04  0.50400001928E-02 0.  1.
</event>
<event>
 5   0  0.4664127E-05  0.2377529E+04  0.7818609E-02  0.8447964E-01
        2   -1    0    0  501    0  0.00000000000E+00  0.00000000000E+00  0.88815718367E+03  0.88815718367E+03  0.25500000920E-02 0. -1.
       -2   -1    0    0    0  501  0.00000000000E+00  0.00000000000E+00 -0.15911165843E+04  0.15911165843E+04  0.25500000920E-02 0.  1.
    10030    2    1    2    0    0  0.00000000000E+00  0.00000000000E+00 -0.70295940060E+03  0.24792737680E+04  0.23775294946E+04 0.  0.
        4    1    3    3  502    0 -0.76470451553E+03  0.87497380772E+03 -0.61281949156E+03  0.13137357049E+04  0.12699999809E+01 0. -1.
       -4    1    3    3    0  502  0.76470451553E+03 -0.87497380772E+03 -0.90139909046E+02  0.11655380630E+04  0.12699999809E+01 0.  1.
</event>
<event>
 5   0  0.2149920E-05  0.2395026E+04  0.7818609E-02  0.8441368E-01
       -1   -1    0    0    0  501  0.00000000000E+00  0.00000000000E+00  0.84821127850E+03  0.84821127852E+03  0.50400001928E-02 0. -1.
        1   -1    0    0  501    0  0.00000000000E+00  0.00000000000E+00 -0.16906608816E+04  0.16906608816E+04  0.50400001928E-02 0.  1.
    10030    2    1    2    0    0  0.00000000000E+00  0.00000000000E+00 -0.84244960309E+03  0.25388721601E+04  0.23950262027E+04 0.  0.
        5    1    3    3  502    0 -0.10209805271E+04  0.30895743461E+03  0.15566581534E+03  0.10780119986E+04  0.46999998093E+01 0.  1.
       -5    1    3    3    0  502  0.10209805271E+04 -0.30895743461E+03 -0.99811541843E+03  0.14608601615E+04  0.46999998093E+01 0. -1.
</event>
<event>
 5   0  0.2057599E-05  0.2399077E+04  0.7818609E-02  0.8439849E-01
       -1   -1    0    0    0  501  0.00000000000E+00  0.00000000000E+00  0.86574492462E+03  0.86574492464E+03  0.50400001928E-02 0.  1.
        1   -1    0    0  501    0  0.00000000000E+00  0.00000000000E+00 -0.16620282854E+04  0.16620282854E+04  0.50400001928E-02 0. -1.
    10030    2    1    2    0    0  0.00000000000E+00  0.00000000000E+00 -0.79628336082E+03  0.25277732101E+04  0.23990769498E+04 0.  0.
        4    1    3    3  502    0  0.89402002882E+03 -0.30458983613E+03  0.38101664905E+03  0.10184410047E+04  0.12699999809E+01 0.  1.
       -4    1    3    3    0  502 -0.89402002882E+03  0.30458983613E+03 -0.11773000099E+04  0.15093322054E+04  0.12699999809E+01 0. -1.
</event>
<event>
 5   0  0.2149920E-05  0.2411237E+04  0.7818609E-02  0.8435309E-01
        1   -1    0    0  501    0  0.00000000000E+00  0.00000000000E+00  0.11286406654E+04  0.11286406654E+04  0.50400001928E-02 0.  1.
       -1   -1    0    0    0  501  0.00000000000E+00  0.00000000000E+00 -0.12878463108E+04  0.12878463108E+04  0.50400001928E-02 0. -1.
    10030    2    1    2    0    0  0.00000000000E+00  0.00000000000E+00 -0.15920564545E+03  0.24164869762E+04  0.24112367923E+04 0.  0.
        5    1    3    3  502    0  0.84161193916E+03 -0.11273321119E+03  0.77810774571E+03  0.11517348597E+04  0.46999998093E+01 0.  1.
       -5    1    3    3    0  502 -0.84161193916E+03  0.11273321119E+03 -0.93731339116E+03  0.12647521165E+04  0.46999998093E+01 0. -1.
</event>
<event>
 5   0  0.4756705E-05  0.2413801E+04  0.7818609E-02  0.8434355E-01
        2   -1    0    0  501    0  0.00000000000E+00  0.00000000000E+00  0.14652088760E+04  0.14652088760E+04  0.25500000920E-02 0. -1.
       -2   -1    0    0    0  501  0.00000000000E+00  0.00000000000E+00 -0.99413023394E+03  0.99413023394E+03  0.25500000920E-02 0.  1.
    10030    2    1    2    0    0  0.00000000000E+00  0.00000000000E+00  0.47107864201E+03  0.24593391099E+04  0.24138006899E+04 0.  0.
        3    1    3    3  502    0  0.36854459197E+03  0.75750882573E+03  0.11161151418E+04  0.13983410733E+04  0.10100000352E+00 0. -1.
       -3    1    3    3    0  502 -0.36854459197E+03 -0.75750882573E+03 -0.64503649981E+03  0.10609980366E+04  0.10100000352E+00 0.  1.
</event>
<event>
 5   0  0.4914005E-05  0.2430645E+04  0.7818609E-02  0.8428119E-01
        2   -1    0    0  501    0  0.00000000000E+00  0.00000000000E+00  0.80726052659E+03  0.80726052659E+03  0.25500000920E-02 0. -1.
       -2   -1    0    0    0  501  0.00000000000E+00  0.00000000000E+00 -0.18296554489E+04  0.18296554489E+04  0.25500000920E-02 0.  1.
    10030    2    1    2    0    0  0.00000000000E+00  0.00000000000E+00 -0.10223949223E+04  0.26369159755E+04  0.24306448701E+04 0.  0.
        2    1    3    3  502    0 -0.13162087888E+03  0.11326770199E+04 -0.96726235545E+03  0.14952851740E+04  0.25500000920E-02 0.  1.
       -2    1    3    3    0  502  0.13162087888E+03 -0.11326770199E+04 -0.55132566893E+02  0.11416308016E+04  0.25500000920E-02 0. -1.
</event>
<event>
 5   0  0.4713971E-05  0.2378326E+04  0.7818609E-02  0.8447663E-01
       -2   -1    0    0    0  501  0.00000000000E+00  0.00000000000E+00  0.11928559654E+04  0.11928559654E+04  0.25500000920E-02 0. -1.
        2   -1    0    0  501    0  0.00000000000E+00  0.00000000000E+00 -0.11854819037E+04  0.11854819037E+04  0.25500000920E-02 0.  1.
    10030    2    1    2    0    0  0.00000000000E+00  0.00000000000E+00  0.73740617290E+01  0.23783378691E+04  0.23783264374E+04 0.  0.
        5    1    3    3  502    0 -0.53342685698E+03  0.76150921633E+03  0.74507212398E+03  0.11914676069E+04  0.46999998093E+01 0. -1.
       -5    1    3    3    0  502  0.53342685698E+03 -0.76150921633E+03 -0.73769806226E+03  0.11868702622E+04  0.46999998093E+01 0.  1.
</event>
<event>
 5   0  0.2057599E-05  0.2400821E+04  0.7818609E-02  0.8439196E-01
        1   -1    0    0  501    0  0.00000000000E+00  0.00000000000E+00  0.18470440204E+04  0.18470440204E+04  0.50400001928E-02 0.  1.
       -1   -1    0    0    0  501  0.00000000000E+00  0.00000000000E+00 -0.78015786317E+03  0.78015786319E+03  0.50400001928E-02 0. -1.
    10030    2    1    2    0    0  0.00000000000E+00  0.00000000000E+00  0.10668861572E+04  0.26272018835E+04  0.24008214562E+04 0.  0.
        4    1    3    3  502    0 -0.54608757776E+03 -0.41409140421E+03 -0.54503294447E+03  0.87564025552E+03  0.12699999809E+01 0. -1.
       -4    1    3    3    0  502  0.54608757776E+03  0.41409140421E+03  0.16119191017E+04  0.17515616280E+04  0.12699999809E+01 0.  1.
</event>
<event>
 5   0  0.2090039E-05  0.2443212E+04  0.7818609E-02  0.8423500E-01
       -1   -1    0    0    0  501  0.00000000000E+00  0.00000000000E+00  0.70777695668E+03  0.70777695670E+03  0.50400001928E-02 0.  1.
        1   -1    0    0  501    0  0.00000000000E+00  0.00000000000E+00 -0.21084629192E+04  0.21084629192E+04  0.50400001928E-02 0. -1.
    10030    2    1    2    0    0  0.00000000000E+00  0.00000000000E+00 -0.14006859625E+04  0.28162398759E+04  0.24432122039E+04 0.  0.
        1    1    3    3  502    0  0.10688325662E+04 -0.16156100446E+03 -0.13562736114E+04  0.17343538053E+04  0.50400001928E-02 0. -1.
       -1    1    3    3    0  502 -0.10688325662E+04  0.16156100446E+03 -0.44412351087E+02  0.10818860706E+04  0.50400001928E-02 0.  1.
</event>
<event>
 5   0  0.4914005E-05  0.2428402E+04  0.7818609E-02  0.8428946E-01
       -2   -1    0    0    0  501  0.00000000000E+00  0.00000000000E+00  0.11773413131E+04  0.11773413131E+04  0.25500000920E-02 0. -1.
        2   -1    0    0  501    0  0.00000000000E+00  0.00000000000E+00 -0.12522146793E+04  0.12522146793E+04  0.25500000920E-02 0.  1.
    10030    2    1    2    0    0  0.00000000000E+00  0.00000000000E+00 -0.74873366251E+02  0.24295559924E+04  0.24284020053E+04 0.  0.
        2    1    3    3  502    0  0.10772523920E+04 -0.53944039910E+03 -0.18855618485E+03  0.12194351541E+04  0.25500000920E-02 0.  1.
       -2    1    3    3    0  502 -0.10772523920E+04  0.53944039910E+03  0.11368281860E+03  0.12101208383E+04  0.25500000920E-02 0. -1.
</event>
<event>
 5   0  0.1672125E-05  0.2378911E+04  0.7818609E-02  0.8447442E-01
       -3   -1    0    0    0  501  0.00000000000E+00  0.00000000000E+00  0.17927185299E+04  0.17927185327E+04  0.10100000352E+00 0.  1.
        3   -1    0    0  501    0  0.00000000000E+00  0.00000000000E+00 -0.78919472065E+03  0.78919472711E+03  0.10100000352E+00 0. -1.
    10030    2    1    2    0    0  0.00000000000E+00  0.00000000000E+00  0.10035238092E+04  0.25819132598E+04  0.23789106847E+04 0.  0.
        3    1    3    3  502    0 -0.25792935696E+03  0.58384158237E+03  0.15911074456E+04  0.17143574482E+04  0.10100000352E+00 0.  1.
       -3    1    3    3    0  502  0.25792935696E+03 -0.58384158237E+03 -0.58758363634E+03  0.86755581168E+03  0.10100000352E+00 0. -1.
</event>
<event>
 5   0  0.2057599E-05  0.2398587E+04  0.7818609E-02  0.8440033E-01
        1   -1    0    0  501    0  0.00000000000E+00  0.00000000000E+00  0.13666205879E+04  0.13666205880E+04  0.50400001928E-02 0. -1.
       -1   -1    0    0    0  501  0.00000000000E+00  0.00000000000E+00 -0.10524540619E+04  0.10524540619E+04  0.50400001928E-02 0.  1.
    10030    2    1    2    0    0  0.00000000000E+00  0.00000000000E+00  0.31416652607E+03  0.24190746498E+04  0.23985874083E+04 0.  0.
        4    1    3    3  502    0 -0.11187229409E+04  0.95082333807E+02  0.58225505936E+03  0.12647546148E+04  0.12699999809E+01 0. -1.
       -4    1    3    3    0  502  0.11187229409E+04 -0.95082333807E+02 -0.26808853329E+03  0.11543200350E+04  0.12699999809E+01 0.  1.
</event>
<event>
 5   0  0.4664127E-05  0.2312978E+04  0.7818609E-02  0.8472822E-01
       -2   -1    0    0    0  501  0.00000000000E+00  0.00000000000E+00  0.72008486569E+03  0.72008486570E+03  0.25500000920E-02 0.  1.
        2   -1    0    0  501    0  0.00000000000E+00  0.00000000000E+00 -0.18573739944E+04  0.18573739944E+04  0.25500000920E-02 0. -1.
    10030    2    1    2    0    0  0.00000000000E+00  0.00000000000E+00 -0.11372891287E+04  0.25774588601E+04  0.23129780832E+04 0.  0.
        4    1    3    3  502    0  0.80998399249E+03 -0.13249760813E+03  0.33928152534E+03  0.88811218356E+03  0.12699999809E+01 0.  1.
       -4    1    3    3    0  502 -0.80998399249E+03  0.13249760813E+03 -0.14765706540E+04  0.16893466765E+04  0.12699999809E+01 0. -1.
</event>
<event>
 5   0  0.2149920E-05  0.2413446E+04  0.7818609E-02  0.8434487E-01
        1   -1    0    0  501    0  0.00000000000E+00  0.00000000000E+00  0.11449841717E+04  0.11449841717E+04  0.50400001928E-02 0. -1.
       -1   -1    0    0    0  501  0.00000000000E+00  0.00000000000E+00 -0.12717907853E+04  0.12717907853E+04  0.50400001928E-02 0.  1.
    10030    2    1    2    0    0  0.00000000000E+00  0.00000000000E+00 -0.12680661362E+03  0.24167749570E+04  0.24134459338E+04 0.  0.
        5    1    3    3  502    0 -0.74851837117E+02  0.70673257886E+03  0.91317750834E+03  0.11571469169E+04  0.46999998093E+01 0. -1.
       -5    1    3    3    0  502  0.74851837117E+02 -0.70673257886E+03 -0.10399841220E+04  0.12596280401E+04  0.46999998093E+01 0.  1.
</event>
<event>
 5   0  0.4756705E-05  0.2381772E+04  0.7818609E-02  0.8446360E-01
       -2   -1    0    0    0  501  0.00000000000E+00  0.00000000000E+00  0.10060972774E+04  0.10060972774E+04  0.25500000920E-02 0. -1.
        2   -1    0    0  501    0  0.00000000000E+00  0.00000000000E+00 -0.14096141284E+04  0.14096141284E+04  0.25500000920E-02 0.  1.
    10030    2    1    2    0    0  0.00000000000E+00  0.00000000000E+00 -0.40351685093E+03  0.24157114058E+04  0.23817715565E+04 0.  0.
        3    1    3    3  502    0  0.49900152265E+03 -0.40411893086E+03 -0.12189930124E+04  0.13777730598E+04  0.10100000352E+00 0.  1.
       -3    1    3    3    0  502 -0.49900152265E+03  0.40411893086E+03  0.81547616148E+03  0.10379383460E+04  0.10100000352E+00 0. -1.
</event>
<event>
 5   0  0.4856882E-05  0.2384940E+04  0.7818609E-02  0.8445163E-01
       -2   -1    0    0    0  501  0.00000000000E+00  0.00000000000E+00  0.71295471880E+03  0.71295471881E+03  0.25500000920E-02 0.  1.
        2   -1    0    0  501    0  0.00000000000E+00  0.00000000000E+00 -0.19944955070E+04  0.19944955070E+04  0.25500000920E-02 0. -1.
    10030    2    1    2    0    0  0.00000000000E+00  0.00000000000E+00 -0.12815407882E+04  0.27074502258E+04  0.23849402368E+04 0.  0.
        1    1    3    3  502    0 -0.53376330615E+03 -0.10655195837E+04 -0.59328403360E+03  0.13312479839E+04  0.50400001928E-02 0. -1.
       -1    1    3    3    0  502  0.53376330615E+03  0.10655195837E+04 -0.68825675456E+03  0.13762022418E+04  0.50400001928E-02 0.  1.
</event>
<event>
 5   0  0.2065692E-05  0.2394676E+04  0.7818609E-02  0.8441500E-01
        1   -1    0    0  501    0  0.00000000000E+00  0.00000000000E+00  0.13767784199E+04  0.13767784199E+04  0.50400001928E-02 0.  1.
       -1   -1    0    0    0  501  0.00000000000E+00  0.00000000000E+00 -0.10412842687E+04  0.10412842687E+04  0.50400001928E-02 0. -1.
    10030    2    1    2    0    0  0.00000000000E+00  0.00000000000E+00  0.33549415121E+03  0.24180626885E+04  0.23946755188E+04 0.  0.
        3    1    3    3  502    0 -0.47182924494E+03  0.99941908168E+03 -0.29735567929E+03  0.11445006542E+04  0.10100000352E+00 0. -1.
       -3    1    3    3    0  502  0.47182924494E+03 -0.99941908168E+03  0.63284983050E+03  0.12735620344E+04  0.10100000352E+00 0.  1.
</event>
<event>
 5   0  0.2057599E-05  0.2403790E+04  0.7818609E-02  0.8438086E-01
       -1   -1    0    0    0  501  0.00000000000E+00  0.00000000000E+00  0.90561282185E+03  0.90561282187E+03  0.50400001928E-02 0. -1.
        1   -1    0    0  501    0  0.00000000000E+00  0.00000000000E+00 -0.15951097045E+04  0.15951097045E+04  0.50400001928E-02 0.  1.
    10030    2    1    2    0    0  0.00000000000E+00  0.00000000000E+00 -0.68949688260E+03  0.25007225263E+04  0.24037901744E+04 0.  0.
        4    1    3    3  502    0  0.75512030883E+03 -0.21848498837E+03  0.60109379740E+03  0.98957452327E+03  0.12699999809E+01 0. -1.
       -4    1    3    3    0  502 -0.75512030883E+03  0.21848498837E+03 -0.12905906800E+04  0.15111480031E+04  0.12699999809E+01 0.  1.
</event>
<event>
 5   0  0.2057599E-05  0.2378201E+04  0.7818609E-02  0.8447710E-01
       -1   -1    0    0    0  501  0.00000000000E+00  0.00000000000E+00  0.11432457324E+04  0.11432457325E+04  0.50400001928E-02 0. -1.
        1   -1    0    0  501    0  0.00000000000E+00  0.00000000000E+00 -0.12367943354E+04  0.12367943354E+04  0.50400001928E-02 0.  1.
    10030    2    1    2    0    0  0.00000000000E+00  0.00000000000E+00 -0.93548602977E+02  0.23800400679E+04  0.23782008712E+04 0.  0.
        4    1    3    3  502    0  0.19936177078E+03  0.72482463009E+03 -0.96881323555E+03  0.12262612113E+04  0.12699999809E+01 0.  1.
       -4    1    3    3    0  502 -0.19936177078E+03 -0.72482463009E+03  0.87526463257E+03  0.11537788566E+04  0.12699999809E+01 0. -1.
</event>
<event>
 5   0  0.2057599E-05  0.2403618E+04  0.7818609E-02  0.8438150E-01
        1   -1    0    0  501    0  0.00000000000E+00  0.00000000000E+00  0.97491229202E+03  0.97491229203E+03  0.50400001928E-02 0. -1.
       -1   -1    0    0    0  501  0.00000000000E+00  0.00000000000E+00 -0.14815120277E+04  0.14815120278E+04  0.50400001928E-02 0.  1.
    10030    2    1    2    0    0  0.00000000000E+00  0.00000000000E+00 -0.50659973573E+03  0.24564243198E+04  0.24036175125E+04 0.  0.
        4    1    3    3  502    0  0.16619640487E+03  0.84044933750E+03 -0.11146489914E+04  0.14058521689E+04  0.12699999809E+01 0.  1.
       -4    1    3    3    0  502 -0.16619640487E+03 -0.84044933750E+03  0.60804925570E+03  0.10505721509E+04  0.12699999809E+01 0. -1.
</event>
<event>
 5   0  0.2090039E-05  0.2436375E+04  0.7818609E-02  0.8426009E-01
       -1   -1    0    0    0  501  0.00000000000E+00  0.00000000000E+00  0.80816699500E+03  0.80816699502E+03  0.50400001928E-02 0. -1.
        1   -1    0    0  501    0  0.00000000000E+00  0.00000000000E+00 -0.18362305658E+04  0.18362305658E+04  0.50400001928E-02 0.  1.
    10030    2    1    2    0    0  0.00000000000E+00  0.00000000000E+00 -0.10280635708E+04  0.26443975609E+04  0.24363751259E+04 0.  0.
        1    1    3    3  502    0  0.10371294115E+04  0.18604646809E+03  0.14949996267E+03  0.10642372589E+04  0.50400001928E-02 0. -1.
       -1    1    3    3    0  502 -0.10371294115E+04 -0.18604646809E+03 -0.11775635335E+04  0.15801603019E+04  0.50400001928E-02 0.  1.
</event>
<event>
 5   0  0.4713971E-05  0.2390129E+04  0.7818609E-02  0.8443208E-01
        2   -1    0    0  501    0  0.00000000000E+00  0.00000000000E+00  0.14897106032E+04  0.14897106032E+04  0.25500000920E-02 0. -1.
       -2   -1    0    0    0  501  0.00000000000E+00  0.00000000000E+00 -0.95869552660E+03  0.95869552660E+03  0.25500000920E-02 0.  1.
    10030    2    1    2    0    0  0.00000000000E+00  0.00000000000E+00  0.53101507657E+03  0.24484061298E+04  0.23901287758E+04 0.  0.
        5    1    3    3  502    0 -0.60311031253E+03  0.61520088069E+03  0.11139180763E+04  0.14082079901E+04  0.46999998093E+01 0. -1.
       -5    1    3    3    0  502  0.60311031253E+03 -0.61520088069E+03 -0.58290299973E+03  0.10401981397E+04  0.46999998093E+01 0.  1.
</event>
<event>
 5   0  0.4914005E-05  0.2471931E+04  0.7818609E-02  0.8413054E-01
       -2   -1    0    0    0  501  0.00000000000E+00  0.00000000000E+00  0.10417766672E+04  0.10417766672E+04  0.25500000920E-02 0.  1.
        2   -1    0    0  501    0  0.00000000000E+00  0.00000000000E+00 -0.14663515116E+04  0.14663515116E+04  0.25500000920E-02 0. -1.
    10030    2    1    2    0    0  0.00000000000E+00  0.00000000000E+00 -0.42457484446E+03  0.25081281788E+04  0.24719310595E+04 0.  0.
        2    1    3    3  502    0 -0.86517593503E+03  0.62391814486E+03 -0.84577556602E+03  0.13613006862E+04  0.25500000920E-02 0. -1.
       -2    1    3    3    0  502  0.86517593503E+03 -0.62391814486E+03  0.42120072156E+03  0.11468274926E+04  0.25500000920E-02 0.  1.
</event>
<event>
 5   0  0.2139556E-05  0.2381578E+04  0.7818609E-02  0.8446433E-01
        1   -1    0    0  501    0  0.00000000000E+00  0.00000000000E+00  0.12322844061E+04  0.12322844061E+04  0.50400001928E-02 0. -1.
       -1   -1    0    0    0  501  0.00000000000E+00  0.00000000000E+00 -0.11506913188E+04  0.11506913188E+04  0.50400001928E-02 0.  1.
    10030    2    1    2    0    0  0.00000000000E+00  0.00000000000E+00  0.81593087349E+02  0.23829757249E+04  0.23815784416E+04 0.  0.
        2    1    3    3  502    0 -0.10140908924E+04 -0.17226463806E+03  0.64108479636E+03  0.12120417319E+04  0.25500000920E-02 0. -1.
       -2    1    3    3    0  502  0.10140908924E+04  0.17226463806E+03 -0.55949170901E+03  0.11709339931E+04  0.25500000920E-02 0.  1.
</event>
<event>
 5   0  0.2090039E-05  0.2436622E+04  0.7818609E-02  0.8425919E-01
       -1   -1    0    0    0  501  0.00000000000E+00  0.00000000000E+00  0.13912716057E+04  0.13912716057E+04  0.50400001928E-02 0. -1.
        1   -1    0    0  501    0  0.00000000000E+00  0.00000000000E+00 -0.10668524806E+04  0.10668524806E+04  0.50400001928E-02 0.  1.
    10030    2    1    2    0    0  0.00000000000E+00  0.00000000000E+00  0.32441912512E+03  0.24581240863E+04  0.24366218941E+04 0.  0.
        1    1    3    3  502    0  0.75261728496E+03 -0.62428850113E+03 -0.57091698579E+03  0.11323052216E+04  0.50400001928E-02 0.  1.
       -1    1    3    3    0  502 -0.75261728496E+03  0.62428850113E+03  0.89533611091E+03  0.13258188646E+04  0.50400001928E-02 0. -1.
</event>
<event>
 5   0  0.2065692E-05  0.2414275E+04  0.7818609E-02  0.8434179E-01
        1   -1    0    0  501    0  0.00000000000E+00  0.00000000000E+00  0.93469244478E+03  0.93469244480E+03  0.50400001928E-02 0. -1.
       -1   -1    0    0    0  501  0.00000000000E+00  0.00000000000E+00 -0.15589949996E+04  0.15589949996E+04  0.50400001928E-02 0.  1.
    10030    2    1    2    0    0  0.00000000000E+00  0.00000000000E+00 -0.62430255482E+03  0.24936874444E+04  0.24142749202E+04 0.  0.
        3    1    3    3  502    0 -0.44509003372E+02  0.52356703841E+03  0.81036969756E+03  0.96581703858E+03  0.10100000352E+00 0. -1.
       -3    1    3    3    0  502  0.44509003372E+02 -0.52356703841E+03 -0.14346722524E+04  0.15278704058E+04  0.10100000352E+00 0.  1.
</event>
<event>
 5   0  0.2090039E-05  0.2420544E+04  0.7818609E-02  0.8431852E-01
       -1   -1    0    0    0  501  0.00000000000E+00  0.00000000000E+00  0.55516643978E+03  0.55516643981E+03  0.50400001928E-02 0.  1.
        1   -1    0    0  501    0  0.00000000000E+00  0.00000000000E+00 -0.26384129904E+04  0.26384129904E+04  0.50400001928E-02 0. -1.
    10030    2    1    2    0    0  0.00000000000E+00  0.00000000000E+00 -0.20832465506E+04  0.31935794302E+04  0.24205440269E+04 0.  0.
        1    1    3    3  502    0  0.79683800719E+03  0.90277737566E+03 -0.88111271268E+03  0.14920849212E+04  0.50400001928E-02 0.  1.
       -1    1    3    3    0  502 -0.79683800719E+03 -0.90277737566E+03 -0.12021338379E+04  0.17014945090E+04  0.50400001928E-02 0. -1.
</event>
<event>
 5   0  0.2057599E-05  0.2379353E+04  0.7818609E-02  0.8447274E-01
       -1   -1    0    0    0  501  0.00000000000E+00  0.00000000000E+00  0.90975941084E+03  0.90975941086E+03  0.50400001928E-02 0. -1.
        1   -1    0    0  501    0  0.00000000000E+00  0.00000000000E+00 -0.15557188419E+04  0.15557188419E+04  0.50400001928E-02 0.  1.
    10030    2    1    2    0    0  0.00000000000E+00  0.00000000000E+00 -0.64595943106E+03  0.24654782528E+04  0.23793527331E+04 0.  0.
        4    1    3    3  502    0 -0.39326127604E+03 -0.10719034905E+04 -0.66928774115E+03  0.13234724090E+04  0.12699999809E+01 0.  1.
       -4    1    3    3    0  502  0.39326127604E+03  0.10719034905E+04  0.23328310089E+02  0.11420058437E+04  0.12699999809E+01 0. -1.
</event>
<event>
 5   0  0.2057599E-05  0.2415367E+04  0.7818609E-02  0.8433773E-01
        1   -1    0    0  501    0  0.00000000000E+00  0.00000000000E+00  0.18935361950E+04  0.18935361950E+04  0.50400001928E-02 0.  1.
       -1   -1    0    0    0  501  0.00000000000E+00  0.00000000000E+00 -0.77025164029E+03  0.77025164030E+03  0.50400001928E-02 0. -1.
    10030    2    1    2    0    0  0.00000000000E+00  0.00000000000E+00  0.11232845547E+04  0.26637878353E+04  0.24153669371E+04 0.  0.
        4    1    3    3  502    0  0.78198992022E+03  0.75973540126E+03 -0.11194313975E+02  0.10903362054E+04  0.12699999809E+01 0.  1.
       -4    1    3    3    0  502 -0.78198992022E+03 -0.75973540126E+03  0.11344788687E+04  0.15734516299E+04  0.12699999809E+01 0. -1.
</event>
<event>
 5   0  0.2065692E-05  0.2373479E+04  0.7818609E-02  0.8449500E-01
       -1   -1    0    0    0  501  0.00000000000E+00  0.00000000000E+00  0.13867521577E+04  0.13867521577E+04  0.50400001928E-02 0. -1.
        1   -1    0    0  501    0  0.00000000000E+00  0.00000000000E+00 -0.10155750479E+04  0.10155750479E+04  0.50400001928E-02 0.  1.
    10030    2    1    2    0    0  0.00000000000E+00  0.00000000000E+00  0.37117710982E+03  0.24023272056E+04  0.23734792091E+04 0.  0.
        3    1    3    3  502    0 -0.11765571911E+04 -0.13127001160E+03  0.26925055717E+03  0.12140899936E+04  0.10100000352E+00 0.  1.
       -3    1    3    3    0  502  0.11765571911E+04  0.13127001160E+03  0.10192655265E+03  0.11882372121E+04  0.10100000352E+00 0. -1.
</event>
<event>
 5   0  0.4914005E-05  0.2425486E+04  0.7818609E-02  0.8430023E-01
       -2   -1    0    0    0  501  0.00000000000E+00  0.00000000000E+00  0.57543169119E+03  0.57543169120E+03  0.25500000920E-02 0.  1.
        2   -1    0    0  501    0  0.00000000000E+00  0.00000000000E+00 -0.25558989175E+04  0.25558989175E+04  0.25500000920E-02 0. -1.
    10030    2    1    2    0    0  0.00000000000E+00  0.00000000000E+00 -0.19804672263E+04  0.31313306087E+04  0.24254857135E+04 0.  0.
        2    1    3    3  502    0  0.71368282198E+03 -0.96028948912E+03 -0.12459913649E+04  0.17274239650E+04  0.25500000920E-02 0. -1.
       -2    1    3    3    0  502 -0.71368282198E+03  0.96028948912E+03 -0.73447586138E+03  0.14039066437E+04  0.25500000920E-02 0.  1.
</event>
<event>
 5   0  0.2149920E-05  0.2229411E+04  0.7818609E-02  0.8506286E-01
       -1   -1    0    0    0  501  0.00000000000E+00  0.00000000000E+00  0.13064801935E+04  0.13064801935E+04  0.50400001928E-02 0. -1.
        1   -1    0    0  501    0  0.00000000000E+00  0.00000000000E+00 -0.95108059245E+03  0.95108059247E+03  0.50400001928E-02 0.  1.
    10030    2    1    2    0    0  0.00000000000E+00  0.00000000000E+00  0.35539960102E+03  0.22575607859E+04  0.22294106454E+04 0.  0.
        5    1    3    3  502    0 -0.56822198342E+02 -0.11131442381E+04  0.19295688055E+03  0.11311822597E+04  0.46999998093E+01 0.  1.
       -5    1    3    3    0  502  0.56822198342E+02  0.11131442381E+04  0.16244272047E+03  0.11263785262E+04  0.46999998093E+01 0. -1.
</event>
<event>
 5   0  0.4856882E-05  0.2404911E+04  0.7818609E-02  0.8437667E-01
       -2   -1    0    0    0  501  0.00000000000E+00  0.00000000000E+00  0.10526639678E+04  0.10526639678E+04  0.25500000920E-02 0.  1.
        2   -1    0    0  501    0  0.00000000000E+00  0.00000000000E+00 -0.13735624640E+04  0.13735624640E+04  0.25500000920E-02 0. -1.
    10030    2    1    2    0    0  0.00000000000E+00  0.00000000000E+00 -0.32089849620E+03  0.24262264317E+04  0.24049114024E+04 0.  0.
        1    1    3    3  502    0 -0.46847701158E+03 -0.66215776080E+03  0.73509855235E+03  0.10946659272E+04  0.50400001928E-02 0.  1.
       -1    1    3    3    0  502  0.46847701158E+03  0.66215776080E+03 -0.10559970485E+04  0.13315605045E+04  0.50400001928E-02 0. -1.
</event>
<event>
 5   0  0.2065692E-05  0.2591472E+04  0.7818609E-02  0.8371104E-01
       -1   -1    0    0    0  501  0.00000000000E+00  0.00000000000E+00  0.24586500687E+04  0.24586500687E+04  0.50400001928E-02 0.  1.
        1   -1    0    0  501    0  0.00000000000E+00  0.00000000000E+00 -0.68286755712E+03  0.68286755714E+03  0.50400001928E-02 0. -1.
    10030    2    1    2    0    0  0.00000000000E+00  0.00000000000E+00  0.17757825115E+04  0.31415176258E+04  0.25914724511E+04 0.  0.
        3    1    3    3  502    0 -0.81618551980E+03 -0.74190061607E+02  0.21045414284E+04  0.22584856878E+04  0.10100000352E+00 0.  1.
       -3    1    3    3    0  502  0.81618551980E+03  0.74190061607E+02 -0.32875891684E+03  0.88303193802E+03  0.10100000352E+00 0. -1.
</event>
<event>
 5   0  0.4856882E-05  0.2411630E+04  0.7818609E-02  0.8435162E-01
       -2   -1    0    0    0  501  0.00000000000E+00  0.00000000000E+00  0.96504713282E+03  0.96504713283E+03  0.25500000920E-02 0.  1.
        2   -1    0    0  501    0  0.00000000000E+00  0.00000000000E+00 -0.15066513103E+04  0.15066513103E+04  0.25500000920E-02 0. -1.
    10030    2    1    2    0    0  0.00000000000E+00  0.00000000000E+00 -0.54160417749E+03  0.24716984431E+04  0.24116297620E+04 0.  0.
        1    1    3    3  502    0 -0.71853688626E+03  0.10277786383E+03  0.71605756986E+03  0.10196062915E+04  0.50400001928E-02 0.  1.
       -1    1    3    3    0  502  0.71853688626E+03 -0.10277786383E+03 -0.12576617474E+04  0.14520921517E+04  0.50400001928E-02 0. -1.
</event>
<event>
 5   0  0.2090039E-05  0.2123033E+04  0.7818609E-02  0.8551164E-01
       -1   -1    0    0    0  501  0.00000000000E+00  0.00000000000E+00  0.76116418024E+03  0.76116418025E+03  0.50400001928E-02 0. -1.
        1   -1    0    0  501    0  0.00000000000E+00  0.00000000000E+00 -0.14803870437E+04  0.14803870437E+04  0.50400001928E-02 0.  1.
    10030    2    1    2    0    0  0.00000000000E+00  0.00000000000E+00 -0.71922286344E+03  0.22415512239E+04  0.21230332928E+04 0.  0.
        1    1    3    3  502    0  0.46226672142E+03 -0.10103452206E+03 -0.13628778641E+04  0.14426831145E+04  0.50400001928E-02 0.  1.
       -1    1    3    3    0  502 -0.46226672142E+03  0.10103452206E+03  0.64365500066E+03  0.79886810944E+03  0.50400001928E-02 0. -1.
</event>
<event>
 5   0  0.4713971E-05  0.2388115E+04  0.7818609E-02  0.8443966E-01
        2   -1    0    0  501    0  0.00000000000E+00  0.00000000000E+00  0.58214610109E+03  0.58214610110E+03  0.25500000920E-02 0. -1.
       -2   -1    0    0    0  501  0.00000000000E+00  0.00000000000E+00 -0.24491684812E+04  0.24491684812E+04  0.25500000920E-02 0.  1.
    10030    2    1    2    0    0  0.00000000000E+00  0.00000000000E+00 -0.18670223801E+04  0.30313145823E+04  0.23881154765E+04 0.  0.
        5    1    3    3  502    0  0.80897988155E+02 -0.11910676692E+04 -0.90333640609E+03  0.14970722861E+04  0.46999998093E+01 0.  1.
       -5    1    3    3    0  502 -0.80897988155E+02  0.11910676692E+04 -0.96368597402E+03  0.15342422963E+04  0.46999998093E+01 0. -1.
</event>
<event>
 5   0  0.2139556E-05  0.2334394E+04  0.7818609E-02  0.8464482E-01
       -1   -1    0    0    0  501  0.00000000000E+00  0.00000000000E+00  0.10730188055E+04  0.10730188055E+04  0.50400001928E-02 0.  1.
        1   -1    0    0  501    0  0.00000000000E+00  0.00000000000E+00 -0.12696407009E+04  0.12696407009E+04  0.50400001928E-02 0. -1.
    10030    2    1    2    0    0  0.00000000000E+00  0.00000000000E+00 -0.19662189546E+03  0.23426595064E+04  0.23343935815E+04 0.  0.
        2    1    3    3  502    0  0.88095446934E+03 -0.73179824433E+03  0.12773962811E+03  0.11523570888E+04  0.25500000920E-02 0.  1.
       -2    1    3    3    0  502 -0.88095446934E+03  0.73179824433E+03 -0.32436152357E+03  0.11903024176E+04  0.25500000920E-02 0. -1.
</event>
<event>
 5   0  0.4756705E-05  0.2403522E+04  0.7818609E-02  0.8438186E-01
       -2   -1    0    0    0  501  0.00000000000E+00  0.00000000000E+00  0.88169254134E+03  0.88169254135E+03  0.25500000920E-02 0. -1.
        2   -1    0    0  501    0  0.00000000000E+00  0.00000000000E+00 -0.16380196624E+04  0.16380196624E+04  0.25500000920E-02 0.  1.
    10030    2    1    2    0    0  0.00000000000E+00  0.00000000000E+00 -0.75632712102E+03  0.25197122037E+04  0.24035221812E+04 0.  0.
        3    1    3    3  502    0 -0.66439685820E+03 -0.99305931605E+02  0.66647335756E+03  0.94629361183E+03  0.10100000352E+00 0. -1.
       -3    1    3    3    0  502  0.66439685820E+03  0.99305931605E+02 -0.14228004786E+04  0.15734185919E+04  0.10100000352E+00 0.  1.
</event>
<event>
 5   0  0.4914005E-05  0.2402350E+04  0.7818609E-02  0.8438624E-01
       -2   -1    0    0    0  501  0.00000000000E+00  0.00000000000E+00  0.12237273785E+04  0.12237273785E+04  0.25500000920E-02 0.  1.
        2   -1    0    0  501    0  0.00000000000E+00  0.00000000000E+00 -0.11790386424E+04  0.11790386424E+04  0.25500000920E-02 0. -1.
    10030    2    1    2    0    0  0.00000000000E+00  0.00000000000E+00  0.44688736115E+02  0.24027660209E+04  0.24023504049E+04 0.  0.
        2    1    3    3  502    0 -0.23416707284E+03 -0.50714740332E+03 -0.10412253081E+04  0.11816018149E+04  0.25500000920E-02 0. -1.
       -2    1    3    3    0  502  0.23416707284E+03  0.50714740332E+03  0.10859140442E+04  0.12211642060E+04  0.25500000920E-02 0.  1.
</event>
<event>
 5   0  0.2139556E-05  0.2391889E+04  0.7818609E-02  0.8442546E-01
       -1   -1    0    0    0  501  0.00000000000E+00  0.00000000000E+00  0.12529567807E+04  0.12529567807E+04  0.50400001928E-02 0. -1.
        1   -1    0    0  501    0  0.00000000000E+00  0.00000000000E+00 -0.11415262804E+04  0.11415262804E+04  0.50400001928E-02 0.  1.
    10030    2    1    2    0    0  0.00000000000E+00  0.00000000000E+00  0.11143050030E+03  0.23944830611E+04  0.23918888715E+04 0.  0.
        2    1    3    3  502    0 -0.34454438489E+03 -0.56330537505E+02  0.12008086050E+04  0.12505299950E+04  0.25500000920E-02 0. -1.
       -2    1    3    3    0  502  0.34454438489E+03  0.56330537505E+02 -0.10893781047E+04  0.11439530661E+04  0.25500000920E-02 0.  1.
</event>
<event>
 5   0  0.4713971E-05  0.2233537E+04  0.7818609E-02  0.8504597E-01
       -2   -1    0    0    0  501  0.00000000000E+00  0.00000000000E+00  0.55513438882E+03  0.55513438883E+03  0.25500000920E-02 0. -1.
        2   -1    0    0  501    0  0.00000000000E+00  0.00000000000E+00 -0.22466130028E+04  0.22466130028E+04  0.25500000920E-02 0.  1.
    10030    2    1    2    0    0  0.00000000000E+00  0.00000000000E+00 -0.16914786139E+04  0.28017473916E+04  0.22335372271E+04 0.  0.
        5    1    3    3  502    0  0.47304500526E+03  0.32630360266E+03 -0.20468908843E+04  0.21260362181E+04  0.46999998093E+01 0.  1.
       -5    1    3    3    0  502 -0.47304500526E+03 -0.32630360266E+03  0.35541227038E+03  0.67571117354E+03  0.46999998093E+01 0. -1.
</event>
<event>
 5   0  0.4713971E-05  0.2412693E+04  0.7818609E-02  0.8434767E-01
        2   -1    0    0  501    0  0.00000000000E+00  0.00000000000E+00  0.15511629494E+04  0.15511629494E+04  0.25500000920E-02 0. -1.
       -2   -1    0    0    0  501  0.00000000000E+00  0.00000000000E+00 -0.93818154517E+03  0.93818154517E+03  0.25500000920E-02 0.  1.
    10030    2    1    2    0    0  0.00000000000E+00  0.00000000000E+00  0.61298140426E+03  0.24893444946E+04  0.24126934763E+04 0.  0.
        5    1    3    3  502    0 -0.32785324194E+03 -0.84466337508E+03 -0.51524545657E+03  0.10423262138E+04  0.46999998093E+01 0.  1.
       -5    1    3    3    0  502  0.32785324194E+03  0.84466337508E+03  0.11282268608E+04  0.14470182808E+04  0.46999998093E+01 0. -1.
</event>
<event>
 5   0  0.4756705E-05  0.2385814E+04  0.7818609E-02  0.8444834E-01
       -2   -1    0    0    0  501  0.00000000000E+00  0.00000000000E+00  0.24271224595E+04  0.24271224595E+04  0.25500000920E-02 0. -1.
        2   -1    0    0  501    0  0.00000000000E+00  0.00000000000E+00 -0.58630236750E+03  0.58630236750E+03  0.25500000920E-02 0.  1.
    10030    2    1    2    0    0  0.00000000000E+00  0.00000000000E+00  0.18408200920E+04  0.30134248270E+04  0.23858144473E+04 0.  0.
        3    1    3    3  502    0 -0.10856321057E+03  0.29350005700E+03 -0.53353476975E+03  0.61853667222E+03  0.10100000352E+00 0.  1.
       -3    1    3    3    0  502  0.10856321057E+03 -0.29350005700E+03  0.23743548618E+04  0.23948881548E+04  0.10100000352E+00 0. -1.
</event>
<event>
 5   0  0.4856882E-05  0.2401335E+04  0.7818609E-02  0.8439004E-01
       -2   -1    0    0    0  501  0.00000000000E+00  0.00000000000E+00  0.74177319174E+03  0.74177319175E+03  0.25500000920E-02 0. -1.
        2   -1    0    0  501    0  0.00000000000E+00  0.00000000000E+00 -0.19434542043E+04  0.19434542043E+04  0.25500000920E-02 0.  1.
    10030    2    1    2    0    0  0.00000000000E+00  0.00000000000E+00 -0.12016810126E+04  0.26852273961E+04  0.24013348189E+04 0.  0.
        1    1    3    3  502    0  0.19019351782E+03 -0.10554342613E+04  0.28829867317E+01  0.10724380476E+04  0.50400001928E-02 0. -1.
       -1    1    3    3    0  502 -0.19019351782E+03  0.10554342613E+04 -0.12045639993E+04  0.16127893485E+04  0.50400001928E-02 0.  1.
</event>
<event>
 5   0  0.2149920E-05  0.2386471E+04  0.7818609E-02  0.8444586E-01
        1   -1    0    0  501    0  0.00000000000E+00  0.00000000000E+00  0.12518245738E+04  0.12518245738E+04  0.50400001928E-02 0. -1.
       -1   -1    0    0    0  501  0.00000000000E+00  0.00000000000E+00 -0.11373889458E+04  0.11373889458E+04  0.50400001928E-02 0.  1.
    10030    2    1    2    0    0  0.00000000000E+00  0.00000000000E+00  0.11443562802E+03  0.23892135196E+04  0.23864713972E+04 0.  0.
        5    1    3    3  502    0 -0.37340132195E+03 -0.10046670702E+04  0.58222944525E+03  0.12197531250E+04  0.46999998093E+01 0. -1.
       -5    1    3    3    0  502  0.37340132195E+03  0.10046670702E+04 -0.46779381723E+03  0.11694603946E+04  0.46999998093E+01 0.  1.
</event>
<event>
 5   0  0.2090039E-05  0.2355616E+04  0.7818609E-02  0.8456310E-01
       -1   -1    0    0    0  501  0.00000000000E+00  0.00000000000E+00  0.10933158961E+04  0.10933158961E+04  0.50400001928E-02 0.  1.
        1   -1    0    0  501    0  0.00000000000E+00  0.00000000000E+00 -0.12688299945E+04  0.12688299945E+04  0.50400001928E-02 0. -1.
    10030    2    1    2    0    0  0.00000000000E+00  0.00000000000E+00 -0.17551409836E+03  0.23621458906E+04  0.23556162696E+04 0.  0.
        1    1    3    3  502    0 -0.11479720073E+04 -0.72266547411E+02 -0.34177685443E+03  0.11999473329E+04  0.50400001928E-02 0. -1.
       -1    1    3    3    0  502  0.11479720073E+04  0.72266547411E+02  0.16626275607E+03  0.11621985577E+04  0.50400001928E-02 0.  1.
</event>
<event>
 5   0  0.4914005E-05  0.2419887E+04  0.7818609E-02  0.8432095E-01
        2   -1    0    0  501    0  0.00000000000E+00  0.00000000000E+00  0.15751925537E+04  0.15751925537E+04  0.25500000920E-02 0. -1.
       -2   -1    0    0    0  501  0.00000000000E+00  0.00000000000E+00 -0.92938722374E+03  0.92938722374E+03  0.25500000920E-02 0.  1.
    10030    2    1    2    0    0  0.00000000000E+00  0.00000000000E+00  0.64580532996E+03  0.25045797774E+04  0.24198874638E+04 0.  0.
        2    1    3    3  502    0 -0.44483315926E+03  0.10149514479E+04 -0.17985613251E+03  0.11226536463E+04  0.25500000920E-02 0.  1.
       -2    1    3    3    0  502  0.44483315926E+03 -0.10149514479E+04  0.82566146247E+03  0.13819261311E+04  0.25500000920E-02 0. -1.
</event>
<event>
 5   0  0.2139556E-05  0.2387364E+04  0.7818609E-02  0.8444249E-01
       -1   -1    0    0    0  501  0.00000000000E+00  0.00000000000E+00  0.84854747910E+03  0.84854747912E+03  0.50400001928E-02 0.  1.
        1   -1    0    0  501    0  0.00000000000E+00  0.00000000000E+00 -0.16791956219E+04  0.16791956219E+04  0.50400001928E-02 0. -1.
    10030    2    1    2    0    0  0.00000000000E+00  0.00000000000E+00 -0.83064814281E+03  0.25277431010E+04  0.23873644145E+04 0.  0.
        2    1    3    3  502    0  0.61405032775E+03  0.94467075000E+03  0.20859705449E+01  0.11267053662E+04  0.25500000920E-02 0. -1.
       -2    1    3    3    0  502 -0.61405032775E+03 -0.94467075000E+03 -0.83273411335E+03  0.14010377348E+04  0.25500000920E-02 0.  1.
</event>
<event>
 5   0  0.4856882E-05  0.2421049E+04  0.7818609E-02  0.8431665E-01
        2   -1    0    0  501    0  0.00000000000E+00  0.00000000000E+00  0.28646431843E+04  0.28646431843E+04  0.25500000920E-02 0.  1.
       -2   -1    0    0    0  501  0.00000000000E+00  0.00000000000E+00 -0.51153664599E+03  0.51153664600E+03  0.25500000920E-02 0. -1.
    10030    2    1    2    0    0  0.00000000000E+00  0.00000000000E+00  0.23531065383E+04  0.33761798303E+04  0.24210493316E+04 0.  0.
        1    1    3    3  502    0  0.60825818427E+03  0.48142784837E+02  0.26345171266E+04  0.27042515114E+04  0.50400001928E-02 0.  1.
       -1    1    3    3    0  502 -0.60825818427E+03 -0.48142784837E+02 -0.28141058833E+03  0.67192831888E+03  0.50400001928E-02 0. -1.
</event>
<event>
 5   0  0.4713971E-05  0.2414931E+04  0.7818609E-02  0.8433935E-01
        2   -1    0    0  501    0  0.00000000000E+00  0.00000000000E+00  0.11983927612E+04  0.11983927613E+04  0.25500000920E-02 0.  1.
       -2   -1    0    0    0  501  0.00000000000E+00  0.00000000000E+00 -0.12166064718E+04  0.12166064718E+04  0.25500000920E-02 0. -1.
    10030    2    1    2    0    0  0.00000000000E+00  0.00000000000E+00 -0.18213710597E+02  0.24149992331E+04  0.24149305490E+04 0.  0.
        5    1    3    3  502    0 -0.59751696082E+03 -0.84688326979E+03 -0.62856979609E+03  0.12121715513E+04  0.46999998093E+01 0. -1.
       -5    1    3    3    0  502  0.59751696082E+03  0.84688326979E+03  0.61035608550E+03  0.12028276818E+04  0.46999998093E+01 0.  1.
</event>
<event>
 5   0  0.2065692E-05  0.2396773E+04  0.7818609E-02  0.8440713E-01
       -1   -1    0    0    0  501  0.00000000000E+00  0.00000000000E+00  0.23220141465E+04  0.23220141465E+04  0.50400001928E-02 0.  1.
        1   -1    0    0  501    0  0.00000000000E+00  0.00000000000E+00 -0.61848472514E+03  0.61848472516E+03  0.50400001928E-02 0. -1.
    10030    2    1    2    0    0  0.00000000000E+00  0.00000000000E+00  0.17035294213E+04  0.29404988716E+04  0.23967730649E+04 0.  0.
        3    1    3    3  502    0 -0.38260472264E+02  0.30078345705E+02  0.23208012197E+04  0.23213114574E+04  0.10100000352E+00 0.  1.
       -3    1    3    3    0  502  0.38260472264E+02 -0.30078345705E+02 -0.61727179841E+03  0.61918741422E+03  0.10100000352E+00 0. -1.
</event>
<event>
 5   0  0.2149920E-05  0.2401252E+04  0.7818609E-02  0.8439035E-01
       -1   -1    0    0    0  501  0.00000000000E+00  0.00000000000E+00  0.99829423802E+03  0.99829423803E+03  0.50400001928E-02 0. -1.
        1   -1    0    0  501    0  0.00000000000E+00  0.00000000000E+00 -0.14439659585E+04  0.14439659585E+04  0.50400001928E-02 0.  1.
    10030    2    1    2    0    0  0.00000000000E+00  0.00000000000E+00 -0.44567172050E+03  0.24422601966E+04  0.24012520870E+04 0.  0.
        5    1    3    3  502    0 -0.48132929204E+02  0.43400852296E+03  0.91465580129E+03  0.10135568567E+04  0.46999998093E+01 0. -1.
       -5    1    3    3    0  502  0.48132929204E+02 -0.43400852296E+03 -0.13603275218E+04  0.14287033399E+04  0.46999998093E+01 0.  1.
</event>
<event>
 5   0  0.4856882E-05  0.2392496E+04  0.7818609E-02  0.8442318E-01
       -2   -1    0    0    0  501  0.00000000000E+00  0.00000000000E+00  0.95140273504E+03  0.95140273504E+03  0.25500000920E-02 0.  1.
        2   -1    0    0  501    0  0.00000000000E+00  0.00000000000E+00 -0.15041043746E+04  0.15041043746E+04  0.25500000920E-02 0. -1.
    10030    2    1    2    0    0  0.00000000000E+00  0.00000000000E+00 -0.55270163961E+03  0.24555071097E+04  0.23924957812E+04 0.  0.
        1    1    3    3  502    0  0.49793085343E+03  0.83683203770E+02  0.83667896505E+03  0.97722551337E+03  0.50400001928E-02 0.  1.
       -1    1    3    3    0  502 -0.49793085343E+03 -0.83683203770E+02 -0.13893806047E+04  0.14782815963E+04  0.50400001928E-02 0. -1.
</event>
<event>
 5   0  0.4664127E-05  0.2357100E+04  0.7818609E-02  0.8455742E-01
        2   -1    0    0  501    0  0.00000000000E+00  0.00000000000E+00  0.11077913004E+04  0.11077913004E+04  0.25500000920E-02 0.  1.
       -2   -1    0    0    0  501  0.00000000000E+00  0.00000000000E+00 -0.12538280381E+04  0.12538280381E+04  0.25500000920E-02 0. -1.
    10030    2    1    2    0    0  0.00000000000E+00  0.00000000000E+00 -0.14603673777E+03  0.23616193385E+04  0.23570997372E+04 0.  0.
        4    1    3    3  502    0  0.45323035394E+03  0.86643010489E+03 -0.73220032848E+03  0.12215718621E+04  0.12699999809E+01 0. -1.
       -4    1    3    3    0  502 -0.45323035394E+03 -0.86643010489E+03  0.58616359071E+03  0.11400474764E+04  0.12699999809E+01 0.  1.
</event>
<event>
 5   0  0.1672125E-05  0.2503041E+04  0.7818609E-02  0.8401903E-01
        4   -1    0    0  501    0  0.00000000000E+00  0.00000000000E+00  0.12968126062E+04  0.12968132281E+04  0.12699999809E+01 0.  1.
       -4   -1    0    0    0  501  0.00000000000E+00  0.00000000000E+00 -0.12078089152E+04  0.12078095829E+04  0.12699999809E+01 0. -1.
    10030    2    1    2    0    0  0.00000000000E+00  0.00000000000E+00  0.89003691064E+02  0.25046228110E+04  0.25030409042E+04 0.  0.
        3    1    3    3  502    0  0.63902627333E+03 -0.19813571225E+03  0.11028522375E+04  0.12899206978E+04  0.10100000352E+00 0.  1.
       -3    1    3    3    0  502 -0.63902627333E+03  0.19813571225E+03 -0.10138485465E+04  0.12147021132E+04  0.10100000352E+00 0. -1.
</event>
<event>
 5   0  0.2057599E-05  0.2402755E+04  0.7818609E-02  0.8438473E-01
        1   -1    0    0  501    0  0.00000000000E+00  0.00000000000E+00  0.18387600223E+04  0.18387600224E+04  0.50400001928E-02 0.  1.
       -1   -1    0    0    0  501  0.00000000000E+00  0.00000000000E+00 -0.78493568728E+03  0.78493568730E+03  0.50400001928E-02 0. -1.
    10030    2    1    2    0    0  0.00000000000E+00  0.00000000000E+00  0.10538243351E+04  0.26236957096E+04  0.24027553866E+04 0.  0.
        4    1    3    3  502    0 -0.14396368588E+03  0.11804180500E+04  0.34033696074E+03  0.12369087174E+04  0.12699999809E+01 0.  1.
       -4    1    3    3    0  502  0.14396368588E+03 -0.11804180500E+04  0.71348737433E+03  0.13867869922E+04  0.12699999809E+01 0. -1.
</event>
<event>
 5   0  0.4756705E-05  0.2408610E+04  0.7818609E-02  0.8436287E-01
       -2   -1    0    0    0  501  0.00000000000E+00  0.00000000000E+00  0.73563745840E+03  0.73563745840E+03  0.25500000920E-02 0.  1.
        2   -1    0    0  501    0  0.00000000000E+00  0.00000000000E+00 -0.19715565617E+04  0.19715565617E+04  0.25500000920E-02 0. -1.
    10030    2    1    2    0    0  0.00000000000E+00  0.00000000000E+00 -0.12359191033E+04  0.27071940201E+04  0.24086102700E+04 0.  0.
        3    1    3    3  502    0  0.62984148574E+03  0.44432666890E+03 -0.16579913998E+04  0.18284042162E+04  0.10100000352E+00 0. -1.
       -3    1    3    3    0  502 -0.62984148574E+03 -0.44432666890E+03  0.42207229646E+03  0.87878980393E+03  0.10100000352E+00 0.  1.
</event>
<event>
 5   0  0.2090039E-05  0.2408105E+04  0.7818609E-02  0.8436475E-01
        1   -1    0    0  501    0  0.00000000000E+00  0.00000000000E+00  0.10077600655E+04  0.10077600655E+04  0.50400001928E-02 0. -1.
       -1   -1    0    0    0  501  0.00000000000E+00  0.00000000000E+00 -0.14385786732E+04  0.14385786732E+04  0.50400001928E-02 0.  1.
    10030    2    1    2    0    0  0.00000000000E+00  0.00000000000E+00 -0.43081860769E+03  0.24463387386E+04  0.24081047634E+04 0.  0.
        1    1    3    3  502    0  0.67285711993E+02  0.10987559222E+04  0.28013700745E+03  0.11358999456E+04  0.50400001928E-02 0.  1.
       -1    1    3    3    0  502 -0.67285711993E+02 -0.10987559222E+04 -0.71095561514E+03  0.13104387930E+04  0.50400001928E-02 0. -1.
</event>
<event>
 5   0  0.4756705E-05  0.2165218E+04  0.7818609E-02  0.8533046E-01
        2   -1    0    0  501    0  0.00000000000E+00  0.00000000000E+00  0.17441739207E+04  0.17441739207E+04  0.25500000920E-02 0. -1.
       -2   -1    0    0    0  501  0.00000000000E+00  0.00000000000E+00 -0.67197538287E+03  0.67197538287E+03  0.25500000920E-02 0.  1.
    10030    2    1    2    0    0  0.00000000000E+00  0.00000000000E+00  0.10721985379E+04  0.24161493036E+04  0.21652177149E+04 0.  0.
        3    1    3    3  502    0 -0.40742925573E+03 -0.99776457307E+03  0.42170434837E+03  0.11573103773E+04  0.10100000352E+00 0.  1.
       -3    1    3    3    0  502  0.40742925573E+03  0.99776457307E+03  0.65049418951E+03  0.12588389263E+04  0.10100000352E+00 0. -1.
</event>
<event>
 5   0  0.2139556E-05  0.2371975E+04  0.7818609E-02  0.8450071E-01
        1   -1    0    0  501    0  0.00000000000E+00  0.00000000000E+00  0.30913455139E+04  0.30913455139E+04  0.50400001928E-02 0.  1.
       -1   -1    0    0    0  501  0.00000000000E+00  0.00000000000E+00 -0.45500123396E+03  0.45500123398E+03  0.50400001928E-02 0. -1.
    10030    2    1    2    0    0  0.00000000000E+00  0.00000000000E+00  0.26363442799E+04  0.35463467479E+04  0.23719747245E+04 0.  0.
        2    1    3    3  502    0  0.19394722135E+03 -0.94812655647E+03  0.29317397775E+03  0.10111925994E+04  0.25500000920E-02 0. -1.
       -2    1    3    3    0  502 -0.19394722135E+03  0.94812655647E+03  0.23431703022E+04  0.25351541485E+04  0.25500000920E-02 0.  1.
</event>
<event>
 5   0  0.4856882E-05  0.2383920E+04  0.7818609E-02  0.8445548E-01
        2   -1    0    0  501    0  0.00000000000E+00  0.00000000000E+00  0.10216293433E+04  0.10216293433E+04  0.25500000920E-02 0.  1.
       -2   -1    0    0    0  501  0.00000000000E+00  0.00000000000E+00 -0.13906892550E+04  0.13906892550E+04  0.25500000920E-02 0. -1.
    10030    2    1    2    0    0  0.00000000000E+00  0.00000000000E+00 -0.36905991174E+03  0.24123185983E+04  0.23839202590E+04 0.  0.
        1    1    3    3  502    0  0.59949529254E+03 -0.53125042155E+03 -0.10777382256E+04  0.13428109692E+04  0.50400001928E-02 0. -1.
       -1    1    3    3    0  502 -0.59949529254E+03  0.53125042155E+03  0.70867831384E+03  0.10695076291E+04  0.50400001928E-02 0.  1.
</event>
<event>
 5   0  0.4914005E-05  0.2418440E+04  0.7818609E-02  0.8432632E-01
        2   -1    0    0  501    0  0.00000000000E+00  0.00000000000E+00  0.10315308498E+04  0.10315308498E+04  0.25500000920E-02 0. -1.
       -2   -1    0    0    0  501  0.00000000000E+00  0.00000000000E+00 -0.14175178160E+04  0.14175178160E+04  0.25500000920E-02 0.  1.
    10030    2    1    2    0    0  0.00000000000E+00  0.00000000000E+00 -0.38598696623E+03  0.24490486659E+04  0.24184402886E+04 0.  0.
        2    1    3    3  502    0 -0.54802283952E+03  0.64839365964E+03 -0.10649781219E+04  0.13619551280E+04  0.25500000920E-02 0.  1.
       -2    1    3    3    0  502  0.54802283952E+03 -0.64839365964E+03  0.67899115571E+03  0.10870935379E+04  0.25500000920E-02 0. -1.
</event>
<event>
 5   0  0.1672125E-05  0.2419058E+04  0.7818609E-02  0.8432403E-01
       -3   -1    0    0    0  501  0.00000000000E+00  0.00000000000E+00  0.91646377136E+03  0.91646377693E+03  0.10100000352E+00 0. -1.
        3   -1    0    0  501    0  0.00000000000E+00  0.00000000000E+00 -0.15963106021E+04  0.15963106053E+04  0.10100000352E+00 0.  1.
    10030    2    1    2    0    0  0.00000000000E+00  0.00000000000E+00 -0.67984683078E+03  0.25127743823E+04  0.24190583670E+04 0.  0.
        4    1    3    3  502    0  0.44799633146E+03 -0.86261970144E+03  0.40778647850E+03  0.10540896011E+04  0.12699999809E+01 0. -1.
       -4    1    3    3    0  502 -0.44799633146E+03  0.86261970144E+03 -0.10876333093E+04  0.14586847811E+04  0.12699999809E+01 0.  1.
</event>
<event>
 5   0  0.2057599E-05  0.2385680E+04  0.7818609E-02  0.8444884E-01
       -1   -1    0    0    0  501  0.00000000000E+00  0.00000000000E+00  0.58962955049E+03  0.58962955051E+03  0.50400001928E-02 0. -1.
        1   -1    0    0  501    0  0.00000000000E+00  0.00000000000E+00 -0.24131546971E+04  0.24131546971E+04  0.50400001928E-02 0.  1.
    10030    2    1    2    0    0  0.00000000000E+00  0.00000000000E+00 -0.18235251466E+04  0.30027842476E+04  0.23856800450E+04 0.  0.
        4    1    3    3  502    0  0.89109568547E+03  0.74479105311E+03 -0.56913491264E+03  0.12933218452E+04  0.12699999809E+01 0. -1.
       -4    1    3    3    0  502 -0.89109568547E+03 -0.74479105311E+03 -0.12543902339E+04  0.17094624024E+04  0.12699999809E+01 0.  1.
</event>
<event>
 5   0  0.4664127E-05  0.2419645E+04  0.7818609E-02  0.8432185E-01
       -2   -1    0    0    0  501  0.00000000000E+00  0.00000000000E+00  0.72178749556E+03  0.72178749556E+03  0.25500000920E-02 0.  1.
        2   -1    0    0  501    0  0.00000000000E+00  0.00000000000E+00 -0.20278414269E+04  0.20278414269E+04  0.25500000920E-02 0. -1.
    10030    2    1    2    0    0  0.00000000000E+00  0.00000000000E+00 -0.13060539314E+04  0.27496289225E+04  0.24196450855E+04 0.  0.
        4    1    3    3  502    0  0.10649879253E+04 -0.51436864042E+03 -0.36354155939E+03  0.12373109785E+04  0.12699999809E+01 0. -1.
       -4    1    3    3    0  502 -0.10649879253E+04  0.51436864042E+03 -0.94251237198E+03  0.15123179439E+04  0.12699999809E+01 0.  1.
</event>
<event>
 5   0  0.4713971E-05  0.2209835E+04  0.7818609E-02  0.8514346E-01
       -2   -1    0    0    0  501  0.00000000000E+00  0.00000000000E+00  0.12016527245E+04  0.12016527245E+04  0.25500000920E-02 0. -1.
        2   -1    0    0  501    0  0.00000000000E+00  0.00000000000E+00 -0.10159694077E+04  0.10159694077E+04  0.25500000920E-02 0.  1.
    10030    2    1    2    0    0  0.00000000000E+00  0.00000000000E+00  0.18568331686E+03  0.22176221322E+04  0.22098347511E+04 0.  0.
        5    1    3    3  502    0 -0.10940037443E+04 -0.15167235427E+03  0.12412234111E+03  0.11114302233E+04  0.46999998093E+01 0. -1.
       -5    1    3    3    0  502  0.10940037443E+04  0.15167235427E+03  0.61560975745E+02  0.11061919089E+04  0.46999998093E+01 0.  1.
</event>
<event>
 5   0  0.2090039E-05  0.2291153E+04  0.7818609E-02  0.8481417E-01
       -1   -1    0    0    0  501  0.00000000000E+00  0.00000000000E+00  0.82398467029E+03  0.82398467031E+03  0.50400001928E-02 0.  1.
        1   -1    0    0  501    0  0.00000000000E+00  0.00000000000E+00 -0.15926823059E+04  0.15926823059E+04  0.50400001928E-02 0. -1.
    10030    2    1    2    0    0  0.00000000000E+00  0.00000000000E+00 -0.76869763562E+03  0.24166669762E+04  0.22911532509E+04 0.  0.
        1    1    3    3  502    0  0.19668294660E+03  0.98061631703E+03 -0.97356820976E+03  0.13957534173E+04  0.50400001928E-02 0. -1.
       -1    1    3    3    0  502 -0.19668294660E+03 -0.98061631703E+03  0.20487057415E+03  0.10209135590E+04  0.50400001928E-02 0.  1.
</event>
<event>
 5   0  0.4664127E-05  0.2369898E+04  0.7818609E-02  0.8450860E-01
        2   -1    0    0  501    0  0.00000000000E+00  0.00000000000E+00  0.19580267696E+04  0.19580267696E+04  0.25500000920E-02 0. -1.
       -2   -1    0    0    0  501  0.00000000000E+00  0.00000000000E+00 -0.71710183447E+03  0.71710183448E+03  0.25500000920E-02 0.  1.
    10030    2    1    2    0    0  0.00000000000E+00  0.00000000000E+00  0.12409249351E+04  0.26751286041E+04  0.23698983847E+04 0.  0.
        4    1    3    3  502    0 -0.30509886423E+03 -0.42110879448E+03  0.18223425785E+04  0.18950862830E+04  0.12699999809E+01 0. -1.
       -4    1    3    3    0  502  0.30509886423E+03  0.42110879448E+03 -0.58141764337E+03  0.78004232107E+03  0.12699999809E+01 0.  1.
</event>
<event>
 5   0  0.2065692E-05  0.2386599E+04  0.7818609E-02  0.8444538E-01
        1   -1    0    0  501    0  0.00000000000E+00  0.00000000000E+00  0.16829883864E+04  0.16829883864E+04  0.50400001928E-02 0.  1.
       -1   -1    0    0    0  501  0.00000000000E+00  0.00000000000E+00 -0.84609260964E+03  0.84609260965E+03  0.50400001928E-02 0. -1.
    10030    2    1    2    0    0  0.00000000000E+00  0.00000000000E+00  0.83689577678E+03  0.25290809961E+04  0.23865992842E+04 0.  0.
        3    1    3    3  502    0 -0.40860689674E+03  0.36740692466E+03 -0.70404311716E+03  0.89309807153E+03  0.10100000352E+00 0. -1.
       -3    1    3    3    0  502  0.40860689674E+03 -0.36740692466E+03  0.15409388939E+04  0.16359829246E+04  0.10100000352E+00 0.  1.
</event>
<event>
 5   0  0.2139556E-05  0.1997939E+04  0.7818609E-02  0.8607585E-01
       -1   -1    0    0    0  501  0.00000000000E+00  0.00000000000E+00  0.11690423347E+04  0.11690423347E+04  0.50400001928E-02 0.  1.
        1   -1    0    0  501    0  0.00000000000E+00  0.00000000000E+00 -0.85363885793E+03  0.85363885795E+03  0.50400001928E-02 0. -1.
    10030    2    1    2    0    0  0.00000000000E+00  0.00000000000E+00  0.31540347680E+03  0.20226811927E+04  0.19979389015E+04 0.  0.
        2    1    3    3  502    0 -0.77198775302E+03 -0.61041948844E+03  0.33117991967E+03  0.10383916322E+04  0.25500000920E-02 0. -1.
       -2    1    3    3    0  502  0.77198775302E+03  0.61041948844E+03 -0.15776442874E+02  0.98428956046E+03  0.25500000920E-02 0.  1.
</event>
<event>
 5   0  0.2139556E-05  0.2428640E+04  0.7818609E-02  0.8428858E-01
        1   -1    0    0  501    0  0.00000000000E+00  0.00000000000E+00  0.18137178182E+04  0.18137178182E+04  0.50400001928E-02 0. -1.
       -1   -1    0    0    0  501  0.00000000000E+00  0.00000000000E+00 -0.81301136390E+03  0.81301136392E+03  0.50400001928E-02 0.  1.
    10030    2    1    2    0    0  0.00000000000E+00  0.00000000000E+00  0.10007064543E+04  0.26267291821E+04  0.24286401109E+04 0.  0.
        2    1    3    3  502    0  0.16442090627E+02  0.53400607272E+03  0.16797737944E+04  0.17626890901E+04  0.25500000920E-02 0. -1.
       -2    1    3    3    0  502 -0.16442090627E+02 -0.53400607272E+03 -0.67906734015E+03  0.86404009196E+03  0.25500000920E-02 0.  1.
</event>
<event>
 5   0  0.2090039E-05  0.2407694E+04  0.7818609E-02  0.8436629E-01
        1   -1    0    0  501    0  0.00000000000E+00  0.00000000000E+00  0.19036855228E+04  0.19036855228E+04  0.50400001928E-02 0. -1.
       -1   -1    0    0    0  501  0.00000000000E+00  0.00000000000E+00 -0.76128543400E+03  0.76128543401E+03  0.50400001928E-02 0.  1.
    10030    2    1    2    0    0  0.00000000000E+00  0.00000000000E+00  0.11424000888E+04  0.26649709569E+04  0.24076943822E+04 0.  0.
        1    1    3    3  502    0  0.61007401419E+03 -0.36504281691E+03  0.16465045171E+04  0.17934390667E+04  0.50400001928E-02 0. -1.
       -1    1    3    3    0  502 -0.61007401419E+03  0.36504281691E+03 -0.50410442828E+03  0.87153189018E+03  0.50400001928E-02 0.  1.
</event>
<event>
 5   0  0.2149920E-05  0.2358281E+04  0.7818609E-02  0.8455290E-01
       -1   -1    0    0    0  501  0.00000000000E+00  0.00000000000E+00  0.13729281964E+04  0.13729281964E+04  0.50400001928E-02 0.  1.
        1   -1    0    0  501    0  0.00000000000E+00  0.00000000000E+00 -0.10127055849E+04  0.10127055849E+04  0.50400001928E-02 0. -1.
    10030    2    1    2    0    0  0.00000000000E+00  0.00000000000E+00  0.36022261151E+03  0.23856337813E+04  0.23582807740E+04 0.  0.
        5    1    3    3  502    0  0.11145921366E+04 -0.38081838436E+03  0.23562669062E+03  0.12011995255E+04  0.46999998093E+01 0. -1.
       -5    1    3    3    0  502 -0.11145921366E+04  0.38081838436E+03  0.12459592089E+03  0.11844342558E+04  0.46999998093E+01 0.  1.
</event>
<event>
 5   0  0.2139556E-05  0.2452166E+04  0.7818609E-02  0.8420227E-01
       -1   -1    0    0    0  501  0.00000000000E+00  0.00000000000E+00  0.80443552680E+03  0.80443552682E+03  0.50400001928E-02 0.  1.
        1   -1    0    0  501    0  0.00000000000E+00  0.00000000000E+00 -0.18687389500E+04  0.18687389500E+04  0.50400001928E-02 0. -1.
    10030    2    1    2    0    0  0.00000000000E+00  0.00000000000E+00 -0.10643034232E+04  0.26731744768E+04  0.24521663905E+04 0.  0.
        2    1    3    3  502    0  0.11853376243E+04 -0.27850207156E+03 -0.37534255905E+03  0.12741549059E+04  0.25500000920E-02 0.  1.
       -2    1    3    3    0  502 -0.11853376243E+04  0.27850207156E+03 -0.68896086414E+03  0.13990195709E+04  0.25500000920E-02 0. -1.
</event>
<event>
 5   0  0.4664127E-05  0.2359168E+04  0.7818609E-02  0.8454951E-01
        2   -1    0    0  501    0  0.00000000000E+00  0.00000000000E+00  0.11443179422E+04  0.11443179422E+04  0.25500000920E-02 0.  1.
       -2   -1    0    0    0  501  0.00000000000E+00  0.00000000000E+00 -0.12159369913E+04  0.12159369913E+04  0.25500000920E-02 0. -1.
    10030    2    1    2    0    0  0.00000000000E+00  0.00000000000E+00 -0.71619049163E+02  0.23602549335E+04  0.23591680870E+04 0.  0.
        4    1    3    3  502    0  0.75627397758E+03 -0.20685528960E+03  0.84588954176E+03  0.11533733870E+04  0.12699999809E+01 0.  1.
       -4    1    3    3    0  502 -0.75627397758E+03  0.20685528960E+03 -0.91750859092E+03  0.12068815465E+04  0.12699999809E+01 0. -1.
</event>
<event>
 5   0  0.4664127E-05  0.2412739E+04  0.7818609E-02  0.8434750E-01
        2   -1    0    0  501    0  0.00000000000E+00  0.00000000000E+00  0.14986974683E+04  0.14986974683E+04  0.25500000920E-02 0. -1.
       -2   -1    0    0    0  501  0.00000000000E+00  0.00000000000E+00 -0.97106125381E+03  0.97106125381E+03  0.25500000920E-02 0.  1.
    10030    2    1    2    0    0  0.00000000000E+00  0.00000000000E+00  0.52763621449E+03  0.24697587221E+04  0.24127387282E+04 0.  0.
        4    1    3    3  502    0  0.10947294545E+04 -0.13042192197E+03  0.76517148388E+03  0.13419878796E+04  0.12699999809E+01 0. -1.
       -4    1    3    3    0  502 -0.10947294545E+04  0.13042192197E+03 -0.23753526939E+03  0.11277708426E+04  0.12699999809E+01 0.  1.
</event>
<event>
 5   0  0.4856882E-05  0.2377264E+04  0.7818609E-02  0.8448065E-01
       -2   -1    0    0    0  501  0.00000000000E+00  0.00000000000E+00  0.16151142182E+04  0.16151142182E+04  0.25500000920E-02 0. -1.
        2   -1    0    0  501    0  0.00000000000E+00  0.00000000000E+00 -0.87476541214E+03  0.87476541214E+03  0.25500000920E-02 0.  1.
    10030    2    1    2    0    0  0.00000000000E+00  0.00000000000E+00  0.74034880608E+03  0.24898796304E+04  0.23772640196E+04 0.  0.
        1    1    3    3  502    0 -0.10513434199E+03 -0.56300017529E+03  0.14610632529E+04  0.15693082094E+04  0.50400001928E-02 0. -1.
       -1    1    3    3    0  502  0.10513434199E+03  0.56300017529E+03 -0.72071444678E+03  0.92057142095E+03  0.50400001928E-02 0.  1.
</event>
<event>
 5   0  0.2057599E-05  0.2388822E+04  0.7818609E-02  0.8443700E-01
        1   -1    0    0  501    0  0.00000000000E+00  0.00000000000E+00  0.62002482905E+03  0.62002482907E+03  0.50400001928E-02 0. -1.
       -1   -1    0    0    0  501  0.00000000000E+00  0.00000000000E+00 -0.23009033298E+04  0.23009033298E+04  0.50400001928E-02 0.  1.
    10030    2    1    2    0    0  0.00000000000E+00  0.00000000000E+00 -0.16808785007E+04  0.29209281588E+04  0.23888216290E+04 0.  0.
        4    1    3    3  502    0  0.46590105618E+03  0.98938891153E+03 -0.14276913592E+04  0.17984044157E+04  0.12699999809E+01 0.  1.
       -4    1    3    3    0  502 -0.46590105618E+03 -0.98938891153E+03 -0.25318714155E+03  0.11225237432E+04  0.12699999809E+01 0. -1.
</event>
<event>
 5   0  0.2057599E-05  0.2389955E+04  0.7818609E-02  0.8443274E-01
        1   -1    0    0  501    0  0.00000000000E+00  0.00000000000E+00  0.88181746324E+03  0.88181746326E+03  0.50400001928E-02 0. -1.
       -1   -1    0    0    0  501  0.00000000000E+00  0.00000000000E+00 -0.16193507658E+04  0.16193507658E+04  0.50400001928E-02 0.  1.
    10030    2    1    2    0    0  0.00000000000E+00  0.00000000000E+00 -0.73753330253E+03  0.25011682290E+04  0.23899554677E+04 0.  0.
        4    1    3    3  502    0  0.21805062512E+02 -0.11554898751E+04 -0.68677827588E+03  0.13443579603E+04  0.12699999809E+01 0.  1.
       -4    1    3    3    0  502 -0.21805062512E+02  0.11554898751E+04 -0.50755026652E+02  0.11568102688E+04  0.12699999809E+01 0. -1.
</event>
<event>
 5   0  0.4713971E-05  0.2407432E+04  0.7818609E-02  0.8436726E-01
       -2   -1    0    0    0  501  0.00000000000E+00  0.00000000000E+00  0.90192078577E+03  0.90192078577E+03  0.25500000920E-02 0.  1.
        2   -1    0    0  501    0  0.00000000000E+00  0.00000000000E+00 -0.16064961900E+04  0.16064961900E+04  0.25500000920E-02 0. -1.
    10030    2    1    2    0    0  0.00000000000E+00  0.00000000000E+00 -0.70457540428E+03  0.25084169758E+04  0.24074320809E+04 0.  0.
        5    1    3    3  502    0 -0.83601756421E+03  0.77868453105E+03  0.42602359889E+02  0.11432899972E+04  0.46999998093E+01 0.  1.
       -5    1    3    3    0  502  0.83601756421E+03 -0.77868453105E+03 -0.74717776417E+03  0.13651269786E+04  0.46999998093E+01 0. -1.
</event>
<event>
 5   0  0.2149920E-05  0.2412153E+04  0.7818609E-02  0.8434968E-01
        1   -1    0    0  501    0  0.00000000000E+00  0.00000000000E+00  0.16076146339E+04  0.16076146339E+04  0.50400001928E-02 0. -1.
       -1   -1    0    0    0  501  0.00000000000E+00  0.00000000000E+00 -0.90483171935E+03  0.90483171936E+03  0.50400001928E-02 0.  1.
    10030    2    1    2    0    0  0.00000000000E+00  0.00000000000E+00  0.70278291451E+03  0.25124463532E+04  0.24121531570E+04 0.  0.
        5    1    3    3  502    0  0.96921184083E+03 -0.71761338932E+03  0.33465947179E+03  0.12515428962E+04  0.46999998093E+01 0. -1.
       -5    1    3    3    0  502 -0.96921184083E+03  0.71761338932E+03  0.36812344272E+03  0.12609034571E+04  0.46999998093E+01 0.  1.
</event>
<event>
 5   0  0.2149920E-05  0.1921313E+04  0.7818609E-02  0.8644320E-01
        1   -1    0    0  501    0  0.00000000000E+00  0.00000000000E+00  0.82127552828E+03  0.82127552829E+03  0.50400001928E-02 0.  1.
       -1   -1    0    0    0  501  0.00000000000E+00  0.00000000000E+00 -0.11236926294E+04  0.11236926294E+04  0.50400001928E-02 0. -1.
    10030    2    1    2    0    0  0.00000000000E+00  0.00000000000E+00 -0.30241710114E+03  0.19449681577E+04  0.19213133611E+04 0.  0.
        5    1    3    3  502    0 -0.13298107931E+03 -0.95028982325E+03 -0.19764765448E+03  0.97970475192E+03  0.46999998093E+01 0. -1.
       -5    1    3    3    0  502  0.13298107931E+03  0.95028982325E+03 -0.10476944666E+03  0.96526340580E+03  0.46999998093E+01 0.  1.
</event>
<event>
 5   0  0.4914005E-05  0.2389478E+04  0.7818609E-02  0.8443453E-01
       -2   -1    0    0    0  501  0.00000000000E+00  0.00000000000E+00  0.11887531124E+04  0.11887531124E+04  0.25500000920E-02 0. -1.
        2   -1    0    0  501    0  0.00000000000E+00  0.00000000000E+00 -0.12007549176E+04  0.12007549176E+04  0.25500000920E-02 0.  1.
    10030    2    1    2    0    0  0.00000000000E+00  0.00000000000E+00 -0.12001805185E+02  0.23895080300E+04  0.23894778890E+04 0.  0.
        2    1    3    3  502    0  0.40062069275E+03  0.10304956881E+04  0.44675511802E+03  0.11924799529E+04  0.25500000920E-02 0. -1.
       -2    1    3    3    0  502 -0.40062069275E+03 -0.10304956881E+04 -0.45875692321E+03  0.11970280770E+04  0.25500000920E-02 0.  1.
</event>
<event>
 5   0  0.2065692E-05  0.2288050E+04  0.7818609E-02  0.8482648E-01
        1   -1    0    0  501    0  0.00000000000E+00  0.00000000000E+00  0.15996369614E+04  0.15996369614E+04  0.50400001928E-02 0.  1.
       -1   -1    0    0    0  501  0.00000000000E+00  0.00000000000E+00 -0.81818103854E+03  0.81818103855E+03  0.50400001928E-02 0. -1.
    10030    2    1    2    0    0  0.00000000000E+00  0.00000000000E+00  0.78145592284E+03  0.24178179999E+04  0.22880495015E+04 0.  0.
        3    1    3    3  502    0 -0.22184806114E+03  0.93756676850E+03  0.10425979384E+04  0.14195979991E+04  0.10100000352E+00 0.  1.
       -3    1    3    3    0  502  0.22184806114E+03 -0.93756676850E+03 -0.26114201556E+03  0.99822000086E+03  0.10100000352E+00 0. -1.
</event>
<event>
 5   0  0.4756705E-05  0.2410497E+04  0.7818609E-02  0.8435584E-01
        2   -1    0    0  501    0  0.00000000000E+00  0.00000000000E+00  0.16006096132E+04  0.16006096132E+04  0.25500000920E-02 0. -1.
       -2   -1    0    0    0  501  0.00000000000E+00  0.00000000000E+00 -0.90754390810E+03  0.90754390810E+03  0.25500000920E-02 0.  1.
    10030    2    1    2    0    0  0.00000000000E+00  0.00000000000E+00  0.69306570513E+03  0.25081535213E+04  0.24104966324E+04 0.  0.
        3    1    3    3  502    0  0.82399093679E+03 -0.87811420605E+03  0.29370315110E+03  0.12394785895E+04  0.10100000352E+00 0. -1.
       -3    1    3    3    0  502 -0.82399093679E+03  0.87811420605E+03  0.39936255404E+03  0.12686749318E+04  0.10100000352E+00 0.  1.
</event>
<event>
 5   0  0.4664127E-05  0.2376323E+04  0.7818609E-02  0.8448421E-01
       -2   -1    0    0    0  501  0.00000000000E+00  0.00000000000E+00  0.13034565367E+04  0.13034565367E+04  0.25500000920E-02 0.  1.
        2   -1    0    0  501    0  0.00000000000E+00  0.00000000000E+00 -0.10830645839E+04  0.10830645839E+04  0.25500000920E-02 0. -1.
    10030    2    1    2    0    0  0.00000000000E+00  0.00000000000E+00  0.22039195276E+03  0.23865211206E+04  0.23763228834E+04 0.  0.
        4    1    3    3  502    0 -0.43300052731E+03 -0.57103866535E+03  0.10619716575E+04  0.12811557393E+04  0.12699999809E+01 0.  1.
       -4    1    3    3    0  502  0.43300052731E+03  0.57103866535E+03 -0.84157970475E+03  0.11053653814E+04  0.12699999809E+01 0. -1.
</event>
<event>
 5   0  0.4664127E-05  0.2243871E+04  0.7818609E-02  0.8500387E-01
       -2   -1    0    0    0  501  0.00000000000E+00  0.00000000000E+00  0.82920670927E+03  0.82920670927E+03  0.25500000920E-02 0.  1.
        2   -1    0    0  501    0  0.00000000000E+00  0.00000000000E+00 -0.15180040550E+04  0.15180040550E+04  0.25500000920E-02 0. -1.
    10030    2    1    2    0    0  0.00000000000E+00  0.00000000000E+00 -0.68879734575E+03  0.23472107643E+04  0.22438708939E+04 0.  0.
        4    1    3    3  502    0  0.16332455814E+03  0.44568689770E+03  0.71899451867E+03  0.86154886853E+03  0.12699999809E+01 0.  1.
       -4    1    3    3    0  502 -0.16332455814E+03 -0.44568689770E+03 -0.14077918644E+04  0.14856618958E+04  0.12699999809E+01 0. -1.
</event>
<event>
 5   0  0.2139556E-05  0.2389591E+04  0.7818609E-02  0.8443411E-01
        1   -1    0    0  501    0  0.00000000000E+00  0.00000000000E+00  0.10903908475E+04  0.10903908475E+04  0.50400001928E-02 0. -1.
       -1   -1    0    0    0  501  0.00000000000E+00  0.00000000000E+00 -0.13091966877E+04  0.13091966878E+04  0.50400001928E-02 0.  1.
    10030    2    1    2    0    0  0.00000000000E+00  0.00000000000E+00 -0.21880584028E+03  0.23995875352E+04  0.23895908318E+04 0.  0.
        2    1    3    3  502    0  0.55355857251E+03  0.93150517761E+03 -0.61490441082E+03  0.12458878054E+04  0.25500000920E-02 0.  1.
       -2    1    3    3    0  502 -0.55355857251E+03 -0.93150517761E+03  0.39609857054E+03  0.11536997299E+04  0.25500000920E-02 0. -1.
</event>
<event>
 5   0  0.4856882E-05  0.2359817E+04  0.7818609E-02  0.8454703E-01
        2   -1    0    0  501    0  0.00000000000E+00  0.00000000000E+00  0.28645675455E+04  0.28645675455E+04  0.25500000920E-02 0. -1.
       -2   -1    0    0    0  501  0.00000000000E+00  0.00000000000E+00 -0.48600131380E+03  0.48600131381E+03  0.25500000920E-02 0.  1.
    10030    2    1    2    0    0  0.00000000000E+00  0.00000000000E+00  0.23785662317E+04  0.33505688594E+04  0.23598165951E+04 0.  0.
        1    1    3    3  502    0 -0.67968348656E+03  0.63967540579E+03  0.22141592501E+04  0.24028432016E+04  0.50400001928E-02 0. -1.
       -1    1    3    3    0  502  0.67968348656E+03 -0.63967540579E+03  0.16440698160E+03  0.94772565771E+03  0.50400001928E-02 0.  1.
</event>
<event>
 5   0  0.2090039E-05  0.2402320E+04  0.7818609E-02  0.8438635E-01
       -1   -1    0    0    0  501  0.00000000000E+00  0.00000000000E+00  0.15140059739E+04  0.15140059739E+04  0.50400001928E-02 0. -1.
        1   -1    0    0  501    0  0.00000000000E+00  0.00000000000E+00 -0.95295898421E+03  0.95295898423E+03  0.50400001928E-02 0.  1.
    10030    2    1    2    0    0  0.00000000000E+00  0.00000000000E+00  0.56104698967E+03  0.24669649581E+04  0.24023202076E+04 0.  0.
        1    1    3    3  502    0  0.47401959504E+03  0.10550495272E+04 -0.52172159732E+02  0.11578195091E+04  0.50400001928E-02 0.  1.
       -1    1    3    3    0  502 -0.47401959504E+03 -0.10550495272E+04  0.61321914940E+03  0.13091454490E+04  0.50400001928E-02 0. -1.
</event>
<event>
 5   0  0.2149920E-05  0.2391350E+04  0.7818609E-02  0.8442749E-01
        1   -1    0    0  501    0  0.00000000000E+00  0.00000000000E+00  0.18487381704E+04  0.18487381704E+04  0.50400001928E-02 0.  1.
       -1   -1    0    0    0  501  0.00000000000E+00  0.00000000000E+00 -0.77330484597E+03  0.77330484599E+03  0.50400001928E-02 0. -1.
    10030    2    1    2    0    0  0.00000000000E+00  0.00000000000E+00  0.10754333245E+04  0.26220430164E+04  0.23913495655E+04 0.  0.
        5    1    3    3  502    0 -0.11306869564E+04 -0.37499643346E+03  0.65028935980E+03  0.13571933024E+04  0.46999998093E+01 0. -1.
       -5    1    3    3    0  502  0.11306869564E+04  0.37499643346E+03  0.42514396466E+03  0.12648497141E+04  0.46999998093E+01 0.  1.
</event>
<event>
 5   0  0.4856882E-05  0.2240884E+04  0.7818609E-02  0.8501601E-01
       -2   -1    0    0    0  501  0.00000000000E+00  0.00000000000E+00  0.45234581500E+03  0.45234581501E+03  0.25500000920E-02 0.  1.
        2   -1    0    0  501    0  0.00000000000E+00  0.00000000000E+00 -0.27752887757E+04  0.27752887757E+04  0.25500000920E-02 0. -1.
    10030    2    1    2    0    0  0.00000000000E+00  0.00000000000E+00 -0.23229429607E+04  0.32276345907E+04  0.22408839891E+04 0.  0.
        1    1    3    3  502    0 -0.75134277713E+02  0.73650830472E+03  0.49871165703E+02  0.74200860898E+03  0.50400001928E-02 0.  1.
       -1    1    3    3    0  502  0.75134277713E+02 -0.73650830472E+03 -0.23728141264E+04  0.24856259817E+04  0.50400001928E-02 0. -1.
</event>
<event>
 5   0  0.2149920E-05  0.2423478E+04  0.7818609E-02  0.8430766E-01
        1   -1    0    0  501    0  0.00000000000E+00  0.00000000000E+00  0.14630719107E+04  0.14630719107E+04  0.50400001928E-02 0.  1.
       -1   -1    0    0    0  501  0.00000000000E+00  0.00000000000E+00 -0.10035811472E+04  0.10035811472E+04  0.50400001928E-02 0. -1.
    10030    2    1    2    0    0  0.00000000000E+00  0.00000000000E+00  0.45949076348E+03  0.24666530579E+04  0.24234779855E+04 0.  0.
        5    1    3    3  502    0 -0.65529683958E+03  0.16415039208E+03 -0.79412322014E+03  0.10425991933E+04  0.46999998093E+01 0. -1.
       -5    1    3    3    0  502  0.65529683958E+03 -0.16415039208E+03  0.12536139836E+04  0.14240538645E+04  0.46999998093E+01 0.  1.
</event>
<event>
 5   0  0.2065692E-05  0.2332481E+04  0.7818609E-02  0.8465223E-01
       -1   -1    0    0    0  501  0.00000000000E+00  0.00000000000E+00  0.12723542638E+04  0.12723542638E+04  0.50400001928E-02 0.  1.
        1   -1    0    0  501    0  0.00000000000E+00  0.00000000000E+00 -0.10689767291E+04  0.10689767291E+04  0.50400001928E-02 0. -1.
    10030    2    1    2    0    0  0.00000000000E+00  0.00000000000E+00  0.20337753477E+03  0.23413309929E+04  0.23324811675E+04 0.  0.
        3    1    3    3  502    0 -0.70859531904E+02  0.63916590512E+03  0.10782948424E+04  0.12554974730E+04  0.10100000352E+00 0. -1.
       -3    1    3    3    0  502  0.70859531904E+02 -0.63916590512E+03 -0.87491730761E+03  0.10858335199E+04  0.10100000352E+00 0.  1.
</event>
<event>
 5   0  0.2057599E-05  0.2244844E+04  0.7818609E-02  0.8499992E-01
       -1   -1    0    0    0  501  0.00000000000E+00  0.00000000000E+00  0.87633472931E+03  0.87633472932E+03  0.50400001928E-02 0. -1.
        1   -1    0    0  501    0  0.00000000000E+00  0.00000000000E+00 -0.14376135460E+04  0.14376135460E+04  0.50400001928E-02 0.  1.
    10030    2    1    2    0    0  0.00000000000E+00  0.00000000000E+00 -0.56127881671E+03  0.23139482753E+04  0.22448435827E+04 0.  0.
        4    1    3    3  502    0  0.82964885153E+03 -0.75507625952E+03 -0.31881586296E+03  0.11662343426E+04  0.12699999809E+01 0. -1.
       -4    1    3    3    0  502 -0.82964885153E+03  0.75507625952E+03 -0.24246295375E+03  0.11477139327E+04  0.12699999809E+01 0.  1.
</event>
<event>
 5   0  0.4713971E-05  0.2418720E+04  0.7818609E-02  0.8432528E-01
        2   -1    0    0  501    0  0.00000000000E+00  0.00000000000E+00  0.20914620908E+04  0.20914620908E+04  0.25500000920E-02 0.  1.
       -2   -1    0    0    0  501  0.00000000000E+00  0.00000000000E+00 -0.69929640263E+03  0.69929640264E+03  0.25500000920E-02 0. -1.
    10030    2    1    2    0    0  0.00000000000E+00  0.00000000000E+00  0.13921656882E+04  0.27907584935E+04  0.24187202537E+04 0.  0.
        5    1    3    3  502    0 -0.82813153097E+03  0.56616343780E+03  0.14753888894E+04  0.17841348984E+04  0.46999998093E+01 0.  1.
       -5    1    3    3    0  502  0.82813153097E+03 -0.56616343780E+03 -0.83223201179E+02  0.10066235950E+04  0.46999998093E+01 0. -1.
</event>
<event>
 5   0  0.4856882E-05  0.2398555E+04  0.7818609E-02  0.8440045E-01
        2   -1    0    0  501    0  0.00000000000E+00  0.00000000000E+00  0.17803321011E+04  0.17803321011E+04  0.25500000920E-02 0.  1.
       -2   -1    0    0    0  501  0.00000000000E+00  0.00000000000E+00 -0.80786440029E+03  0.80786440029E+03  0.25500000920E-02 0. -1.
    10030    2    1    2    0    0  0.00000000000E+00  0.00000000000E+00  0.97246770078E+03  0.25881965014E+04  0.23985553361E+04 0.  0.
        1    1    3    3  502    0 -0.35118419521E+03  0.88251184059E+03 -0.30385190089E+03  0.99723791818E+03  0.50400001928E-02 0. -1.
       -1    1    3    3    0  502  0.35118419521E+03 -0.88251184059E+03  0.12763196017E+04  0.15909585832E+04  0.50400001928E-02 0.  1.
</event>
<event>
 5   0  0.2139556E-05  0.2380152E+04  0.7818609E-02  0.8446972E-01
        1   -1    0    0  501    0  0.00000000000E+00  0.00000000000E+00  0.80746158770E+03  0.80746158772E+03  0.50400001928E-02 0.  1.
       -1   -1    0    0    0  501  0.00000000000E+00  0.00000000000E+00 -0.17539923008E+04  0.17539923008E+04  0.50400001928E-02 0. -1.
    10030    2    1    2    0    0  0.00000000000E+00  0.00000000000E+00 -0.94653071313E+03  0.25614538886E+04  0.23801524389E+04 0.  0.
        2    1    3    3  502    0 -0.10671157746E+04  0.42727784175E+03 -0.14160351002E+03  0.11581683749E+04  0.25500000920E-02 0.  1.
       -2    1    3    3    0  502  0.10671157746E+04 -0.42727784175E+03 -0.80492720311E+03  0.14032855137E+04  0.25500000920E-02 0. -1.
</event>
<event>
 5   0  0.2149920E-05  0.2556926E+04  0.7818609E-02  0.8382982E-01
       -1   -1    0    0    0  501  0.00000000000E+00  0.00000000000E+00  0.59480181930E+03  0.59480181932E+03  0.50400001928E-02 0. -1.
        1   -1    0    0  501    0  0.00000000000E+00  0.00000000000E+00 -0.27479187052E+04  0.27479187052E+04  0.50400001928E-02 0.  1.
    10030    2    1    2    0    0  0.00000000000E+00  0.00000000000E+00 -0.21531168859E+04  0.33427205246E+04  0.25569255329E+04 0.  0.
        5    1    3    3  502    0 -0.51706881322E+03  0.84198890491E+03 -0.15984481453E+02  0.98822217504E+03  0.46999998093E+01 0. -1.
       -5    1    3    3    0  502  0.51706881322E+03 -0.84198890491E+03 -0.21371324045E+04  0.23544983495E+04  0.46999998093E+01 0.  1.
</event>
<event>
 5   0  0.4756705E-05  0.2383246E+04  0.7818609E-02  0.8445803E-01
        2   -1    0    0  501    0  0.00000000000E+00  0.00000000000E+00  0.13323279807E+04  0.13323279807E+04  0.25500000920E-02 0.  1.
       -2   -1    0    0    0  501  0.00000000000E+00  0.00000000000E+00 -0.10657776661E+04  0.10657776661E+04  0.25500000920E-02 0. -1.
    10030    2    1    2    0    0  0.00000000000E+00  0.00000000000E+00  0.26655031459E+03  0.23981056468E+04  0.23832460265E+04 0.  0.
        3    1    3    3  502    0 -0.79136096016E+03  0.49853102863E+03  0.87624195755E+03  0.12816338534E+04  0.10100000352E+00 0.  1.
       -3    1    3    3    0  502  0.79136096016E+03 -0.49853102863E+03 -0.60969164296E+03  0.11164717934E+04  0.10100000352E+00 0. -1.
</event>
<event>
 5   0  0.4856882E-05  0.2417888E+04  0.7818609E-02  0.8432837E-01
       -2   -1    0    0    0  501  0.00000000000E+00  0.00000000000E+00  0.88356059196E+03  0.88356059196E+03  0.25500000920E-02 0. -1.
        2   -1    0    0  501    0  0.00000000000E+00  0.00000000000E+00 -0.16541547666E+04  0.16541547666E+04  0.25500000920E-02 0.  1.
    10030    2    1    2    0    0  0.00000000000E+00  0.00000000000E+00 -0.77059417464E+03  0.25377153586E+04  0.24178883058E+04 0.  0.
        1    1    3    3  502    0 -0.57710709777E+03  0.65897558507E+03 -0.12598033218E+04  0.15344073233E+04  0.50400001928E-02 0.  1.
       -1    1    3    3    0  502  0.57710709777E+03 -0.65897558507E+03  0.48920914717E+03  0.10033080353E+04  0.50400001928E-02 0. -1.
</event>
<event>
 5   0  0.1672125E-05  0.2454725E+04  0.7818609E-02  0.8419295E-01
       -3   -1    0    0    0  501  0.00000000000E+00  0.00000000000E+00  0.94597406285E+03  0.94597406824E+03  0.10100000352E+00 0. -1.
        3   -1    0    0  501    0  0.00000000000E+00  0.00000000000E+00 -0.15924519189E+04  0.15924519221E+04  0.10100000352E+00 0.  1.
    10030    2    1    2    0    0  0.00000000000E+00  0.00000000000E+00 -0.64647785601E+03  0.25384259903E+04  0.24547246057E+04 0.  0.
        2    1    3    3  502    0  0.48582168720E+03 -0.98531950051E+03 -0.88920430262E+03  0.14133511671E+04  0.25500000920E-02 0.  1.
       -2    1    3    3    0  502 -0.48582168720E+03  0.98531950051E+03  0.24272644660E+03  0.11250748232E+04  0.25500000920E-02 0. -1.
</event>
<event>
 5   0  0.2139556E-05  0.2397624E+04  0.7818609E-02  0.8440394E-01
        1   -1    0    0  501    0  0.00000000000E+00  0.00000000000E+00  0.14688759716E+04  0.14688759716E+04  0.50400001928E-02 0. -1.
       -1   -1    0    0    0  501  0.00000000000E+00  0.00000000000E+00 -0.97840097861E+03  0.97840097862E+03  0.50400001928E-02 0.  1.
    10030    2    1    2    0    0  0.00000000000E+00  0.00000000000E+00  0.49047499302E+03  0.24472769503E+04  0.23976235635E+04 0.  0.
        2    1    3    3  502    0 -0.23611427648E+03  0.66203388121E+03  0.12364881769E+04  0.14223015935E+04  0.25500000920E-02 0. -1.
       -2    1    3    3    0  502  0.23611427648E+03 -0.66203388121E+03 -0.74601318384E+03  0.10249753567E+04  0.25500000920E-02 0.  1.
</event>
<event>
 5   0  0.2149920E-05  0.2427582E+04  0.7818609E-02  0.8429249E-01
       -1   -1    0    0    0  501  0.00000000000E+00  0.00000000000E+00  0.15871664735E+04  0.15871664735E+04  0.50400001928E-02 0.  1.
        1   -1    0    0  501    0  0.00000000000E+00  0.00000000000E+00 -0.92825082993E+03  0.92825082994E+03  0.50400001928E-02 0. -1.
    10030    2    1    2    0    0  0.00000000000E+00  0.00000000000E+00  0.65891564355E+03  0.25154173034E+04  0.24275820038E+04 0.  0.
        5    1    3    3  502    0  0.38251719841E+03 -0.38406911691E+03 -0.79585610877E+03  0.96293173668E+03  0.46999998093E+01 0. -1.
       -5    1    3    3    0  502 -0.38251719841E+03  0.38406911691E+03  0.14547717523E+04  0.15524855668E+04  0.46999998093E+01 0.  1.
</event>
<event>
 5   0  0.2139556E-05  0.2074201E+04  0.7818609E-02  0.8572694E-01
        1   -1    0    0  501    0  0.00000000000E+00  0.00000000000E+00  0.15694625937E+04  0.15694625937E+04  0.50400001928E-02 0.  1.
       -1   -1    0    0    0  501  0.00000000000E+00  0.00000000000E+00 -0.68531601603E+03  0.68531601605E+03  0.50400001928E-02 0. -1.
    10030    2    1    2    0    0  0.00000000000E+00  0.00000000000E+00  0.88414657767E+03  0.22547786098E+04  0.20742013905E+04 0.  0.
        2    1    3    3  502    0 -0.40268259022E+01 -0.10108511836E+04  0.69407759574E+03  0.12262055454E+04  0.25500000920E-02 0.  1.
       -2    1    3    3    0  502  0.40268259022E+01  0.10108511836E+04  0.19006898193E+03  0.10285730643E+04  0.25500000920E-02 0. -1.
</event>
<event>
 5   0  0.2149920E-05  0.2366987E+04  0.7818609E-02  0.8451967E-01
       -1   -1    0    0    0  501  0.00000000000E+00  0.00000000000E+00  0.89142002011E+03  0.89142002012E+03  0.50400001928E-02 0. -1.
        1   -1    0    0  501    0  0.00000000000E+00  0.00000000000E+00 -0.15712649384E+04  0.15712649384E+04  0.50400001928E-02 0.  1.
    10030    2    1    2    0    0  0.00000000000E+00  0.00000000000E+00 -0.67984491828E+03  0.24626849585E+04  0.23669871339E+04 0.  0.
        5    1    3    3  502    0  0.39862629842E+03  0.43865557933E+03  0.72585258633E+03  0.93712630427E+03  0.46999998093E+01 0. -1.
       -5    1    3    3    0  502 -0.39862629842E+03 -0.43865557933E+03 -0.14056975046E+04  0.15255586542E+04  0.46999998093E+01 0.  1.
</event>
<event>
 5   0  0.2139556E-05  0.1967800E+04  0.7818609E-02  0.8621825E-01
        1   -1    0    0  501    0  0.00000000000E+00  0.00000000000E+00  0.81487236809E+03  0.81487236810E+03  0.50400001928E-02 0. -1.
       -1   -1    0    0    0  501  0.00000000000E+00  0.00000000000E+00 -0.11879882043E+04  0.11879882043E+04  0.50400001928E-02 0.  1.
    10030    2    1    2    0    0  0.00000000000E+00  0.00000000000E+00 -0.37311583622E+03  0.20028605724E+04  0.19677995440E+04 0.  0.
        2    1    3    3  502    0 -0.41323784120E+03 -0.52705486431E+03 -0.92016804918E+03  0.11380955945E+04  0.25500000920E-02 0.  1.
       -2    1    3    3    0  502  0.41323784120E+03  0.52705486431E+03  0.54705221297E+03  0.86476497796E+03  0.25500000920E-02 0. -1.
</event>
<event>
 5   0  0.4756705E-05  0.2376920E+04  0.7818609E-02  0.8448195E-01
       -2   -1    0    0    0  501  0.00000000000E+00  0.00000000000E+00  0.13213171877E+04  0.13213171877E+04  0.25500000920E-02 0.  1.
        2   -1    0    0  501    0  0.00000000000E+00  0.00000000000E+00 -0.10689610672E+04  0.10689610672E+04  0.25500000920E-02 0. -1.
    10030    2    1    2    0    0  0.00000000000E+00  0.00000000000E+00  0.25235612050E+03  0.23902782549E+04  0.23769195452E+04 0.  0.
        3    1    3    3  502    0 -0.59218581598E+03 -0.60630748506E+03 -0.71165734255E+03  0.11066837807E+04  0.10100000352E+00 0. -1.
       -3    1    3    3    0  502  0.59218581598E+03  0.60630748506E+03  0.96401346306E+03  0.12835944742E+04  0.10100000352E+00 0.  1.
</event>
<event>
 5   0  0.4914005E-05  0.2360342E+04  0.7818609E-02  0.8454502E-01
       -2   -1    0    0    0  501  0.00000000000E+00  0.00000000000E+00  0.10927822375E+04  0.10927822375E+04  0.25500000920E-02 0. -1.
        2   -1    0    0  501    0  0.00000000000E+00  0.00000000000E+00 -0.12745486440E+04  0.12745486440E+04  0.25500000920E-02 0.  1.
    10030    2    1    2    0    0  0.00000000000E+00  0.00000000000E+00 -0.18176640649E+03  0.23673308814E+04  0.23603424488E+04 0.  0.
        2    1    3    3  502    0  0.98323241740E+02 -0.11401851026E+04 -0.38003279431E+03  0.12058666812E+04  0.25500000920E-02 0.  1.
       -2    1    3    3    0  502 -0.98323241740E+02  0.11401851026E+04  0.19826638783E+03  0.11614642003E+04  0.25500000920E-02 0. -1.
</event>
<event>
 5   0  0.4856882E-05  0.2639909E+04  0.7818609E-02  0.8354770E-01
       -2   -1    0    0    0  501  0.00000000000E+00  0.00000000000E+00  0.89036135834E+03  0.89036135835E+03  0.25500000920E-02 0.  1.
        2   -1    0    0  501    0  0.00000000000E+00  0.00000000000E+00 -0.19568228501E+04  0.19568228501E+04  0.25500000920E-02 0. -1.
    10030    2    1    2    0    0  0.00000000000E+00  0.00000000000E+00 -0.10664614917E+04  0.28471842084E+04  0.26399086733E+04 0.  0.
        1    1    3    3  502    0 -0.76189668044E+03  0.62479775539E+03 -0.14804975046E+04  0.17784070535E+04  0.50400001928E-02 0. -1.
       -1    1    3    3    0  502  0.76189668044E+03 -0.62479775539E+03  0.41403601290E+03  0.10687771549E+04  0.50400001928E-02 0.  1.
</event>
<event>
 5   0  0.2139556E-05  0.2417724E+04  0.7818609E-02  0.8432898E-01
       -1   -1    0    0    0  501  0.00000000000E+00  0.00000000000E+00  0.72675415132E+03  0.72675415134E+03  0.50400001928E-02 0.  1.
        1   -1    0    0  501    0  0.00000000000E+00  0.00000000000E+00 -0.20107864741E+04  0.20107864742E+04  0.50400001928E-02 0. -1.
    10030    2    1    2    0    0  0.00000000000E+00  0.00000000000E+00 -0.12840323228E+04  0.27375406255E+04  0.24177240682E+04 0.  0.
        2    1    3    3  502    0 -0.18979053954E+03  0.96014556216E+03  0.16138215917E+03  0.99193959026E+03  0.25500000920E-02 0.  1.
       -2    1    3    3    0  502  0.18979053954E+03 -0.96014556216E+03 -0.14454144820E+04  0.17456010352E+04  0.25500000920E-02 0. -1.
</event>
<event>
 5   0  0.4664127E-05  0.2388731E+04  0.7818609E-02  0.8443735E-01
       -2   -1    0    0    0  501  0.00000000000E+00  0.00000000000E+00  0.10059109203E+04  0.10059109203E+04  0.25500000920E-02 0.  1.
        2   -1    0    0  501    0  0.00000000000E+00  0.00000000000E+00 -0.14181260997E+04  0.14181260997E+04  0.25500000920E-02 0. -1.
    10030    2    1    2    0    0  0.00000000000E+00  0.00000000000E+00 -0.41221517941E+03  0.24240370201E+04  0.23887306505E+04 0.  0.
        4    1    3    3  502    0 -0.54560308628E+02  0.11431841589E+04  0.14049609889E+03  0.11530774541E+04  0.12699999809E+01 0.  1.
       -4    1    3    3    0  502  0.54560308628E+02 -0.11431841589E+04 -0.55271127830E+03  0.12709595660E+04  0.12699999809E+01 0. -1.
</event>
<event>
 5   0  0.2090039E-05  0.2411521E+04  0.7818609E-02  0.8435203E-01
       -1   -1    0    0    0  501  0.00000000000E+00  0.00000000000E+00  0.65444532373E+03  0.65444532375E+03  0.50400001928E-02 0.  1.
        1   -1    0    0  501    0  0.00000000000E+00  0.00000000000E+00 -0.22215127731E+04  0.22215127731E+04  0.50400001928E-02 0. -1.
    10030    2    1    2    0    0  0.00000000000E+00  0.00000000000E+00 -0.15670674494E+04  0.28759580969E+04  0.24115212178E+04 0.  0.
        1    1    3    3  502    0 -0.73536896766E+03 -0.13079410254E+03  0.34533021725E+03  0.82287761837E+03  0.50400001928E-02 0.  1.
       -1    1    3    3    0  502  0.73536896766E+03  0.13079410254E+03 -0.19123976666E+04  0.20530804785E+04  0.50400001928E-02 0. -1.
</event>
<event>
 5   0  0.2057599E-05  0.2417132E+04  0.7818609E-02  0.8433117E-01
        1   -1    0    0  501    0  0.00000000000E+00  0.00000000000E+00  0.18849143874E+04  0.18849143875E+04  0.50400001928E-02 0. -1.
       -1   -1    0    0    0  501  0.00000000000E+00  0.00000000000E+00 -0.77490645984E+03  0.77490645986E+03  0.50400001928E-02 0.  1.
    10030    2    1    2    0    0  0.00000000000E+00  0.00000000000E+00  0.11100079276E+04  0.26598208473E+04  0.24171324623E+04 0.  0.
        4    1    3    3  502    0 -0.20318004346E+03  0.90199366097E+03 -0.30144365615E+03  0.97249400266E+03  0.12699999809E+01 0.  1.
       -4    1    3    3    0  502  0.20318004346E+03 -0.90199366097E+03  0.14114515838E+04  0.16873268447E+04  0.12699999809E+01 0. -1.
</event>
<event>
 5   0  0.4756705E-05  0.2325579E+04  0.7818609E-02  0.8467904E-01
        2   -1    0    0  501    0  0.00000000000E+00  0.00000000000E+00  0.14342024585E+04  0.14342024585E+04  0.25500000920E-02 0.  1.
       -2   -1    0    0    0  501  0.00000000000E+00  0.00000000000E+00 -0.94273934488E+03  0.94273934489E+03  0.25500000920E-02 0. -1.
    10030    2    1    2    0    0  0.00000000000E+00  0.00000000000E+00  0.49146311364E+03  0.23769418034E+04  0.23255787118E+04 0.  0.
        3    1    3    3  502    0 -0.11596550048E+04 -0.85270395410E+02  0.24278598844E+03  0.11878618678E+04  0.10100000352E+00 0.  1.
       -3    1    3    3    0  502  0.11596550048E+04  0.85270395410E+02  0.24867712520E+03  0.11890799356E+04  0.10100000352E+00 0. -1.
</event>
<event>
 5   0  0.2149920E-05  0.2382031E+04  0.7818609E-02  0.8446262E-01
        1   -1    0    0  501    0  0.00000000000E+00  0.00000000000E+00  0.12287741282E+04  0.12287741282E+04  0.50400001928E-02 0.  1.
       -1   -1    0    0    0  501  0.00000000000E+00  0.00000000000E+00 -0.11544171242E+04  0.11544171243E+04  0.50400001928E-02 0. -1.
    10030    2    1    2    0    0  0.00000000000E+00  0.00000000000E+00  0.74357003960E+02  0.23831912525E+04  0.23820309784E+04 0.  0.
        5    1    3    3  502    0  0.26239431329E+03  0.89559174722E+03 -0.70315521289E+03  0.11684967680E+04  0.46999998093E+01 0. -1.
       -5    1    3    3    0  502 -0.26239431329E+03 -0.89559174722E+03  0.77751221685E+03  0.12146944845E+04  0.46999998093E+01 0.  1.
</event>
<event>
 5   0  0.4756705E-05  0.2427295E+04  0.7818609E-02  0.8429355E-01
       -2   -1    0    0    0  501  0.00000000000E+00  0.00000000000E+00  0.95530652694E+03  0.95530652694E+03  0.25500000920E-02 0.  1.
        2   -1    0    0  501    0  0.00000000000E+00  0.00000000000E+00 -0.15418511773E+04  0.15418511773E+04  0.25500000920E-02 0. -1.
    10030    2    1    2    0    0  0.00000000000E+00  0.00000000000E+00 -0.58654465033E+03  0.24971577042E+04  0.24272951969E+04 0.  0.
        3    1    3    3  502    0  0.13395218659E+03  0.11412883569E+04  0.10842481610E+03  0.11542262572E+04  0.10100000352E+00 0. -1.
       -3    1    3    3    0  502 -0.13395218659E+03 -0.11412883569E+04 -0.69496946644E+03  0.13429314470E+04  0.10100000352E+00 0.  1.
</event>
<event>
 5   0  0.2057599E-05  0.2402167E+04  0.7818609E-02  0.8438693E-01
       -1   -1    0    0    0  501  0.00000000000E+00  0.00000000000E+00  0.18187084015E+04  0.18187084015E+04  0.50400001928E-02 0.  1.
        1   -1    0    0  501    0  0.00000000000E+00  0.00000000000E+00 -0.79320143591E+03  0.79320143593E+03  0.50400001928E-02 0. -1.
    10030    2    1    2    0    0  0.00000000000E+00  0.00000000000E+00  0.10255069656E+04  0.26119098374E+04  0.24021674510E+04 0.  0.
        4    1    3    3  502    0  0.58497681858E+03  0.34140204232E+03  0.15912499963E+04  0.17294020344E+04  0.12699999809E+01 0.  1.
       -4    1    3    3    0  502 -0.58497681858E+03 -0.34140204232E+03 -0.56574303073E+03  0.88250780307E+03  0.12699999809E+01 0. -1.
</event>
<event>
 5   0  0.2149920E-05  0.2465521E+04  0.7818609E-02  0.8415373E-01
       -1   -1    0    0    0  501  0.00000000000E+00  0.00000000000E+00  0.75676877124E+03  0.75676877126E+03  0.50400001928E-02 0. -1.
        1   -1    0    0  501    0  0.00000000000E+00  0.00000000000E+00 -0.20081410749E+04  0.20081410749E+04  0.50400001928E-02 0.  1.
    10030    2    1    2    0    0  0.00000000000E+00  0.00000000000E+00 -0.12513723036E+04  0.27649098461E+04  0.24655210027E+04 0.  0.
        5    1    3    3  502    0 -0.10969944068E+04  0.37800275110E+03 -0.15871640574E+03  0.11711087891E+04  0.46999998093E+01 0. -1.
       -5    1    3    3    0  502  0.10969944068E+04 -0.37800275110E+03 -0.10926558979E+04  0.15938010571E+04  0.46999998093E+01 0.  1.
</event>
<event>
 5   0  0.4713971E-05  0.2405059E+04  0.7818609E-02  0.8437612E-01
        2   -1    0    0  501    0  0.00000000000E+00  0.00000000000E+00  0.94006668101E+03  0.94006668101E+03  0.25500000920E-02 0.  1.
       -2   -1    0    0    0  501  0.00000000000E+00  0.00000000000E+00 -0.15382703746E+04  0.15382703746E+04  0.25500000920E-02 0. -1.
    10030    2    1    2    0    0  0.00000000000E+00  0.00000000000E+00 -0.59820369361E+03  0.24783370556E+04  0.24050586068E+04 0.  0.
        5    1    3    3  502    0  0.75084197735E+03  0.34546528855E+03 -0.11991821033E+04  0.14564236154E+04  0.46999998093E+01 0. -1.
       -5    1    3    3    0  502 -0.75084197735E+03 -0.34546528855E+03  0.60097840966E+03  0.10219134403E+04  0.46999998093E+01 0.  1.
</event>
<event>
 5   0  0.2090039E-05  0.2441132E+04  0.7818609E-02  0.8424263E-01
        1   -1    0    0  501    0  0.00000000000E+00  0.00000000000E+00  0.13305675184E+04  0.13305675184E+04  0.50400001928E-02 0.  1.
       -1   -1    0    0    0  501  0.00000000000E+00  0.00000000000E+00 -0.11196587107E+04  0.11196587108E+04  0.50400001928E-02 0. -1.
    10030    2    1    2    0    0  0.00000000000E+00  0.00000000000E+00  0.21090880761E+03  0.24502262291E+04  0.24411321244E+04 0.  0.
        1    1    3    3  502    0  0.37992886754E+03 -0.88026070782E+02 -0.10554384785E+04  0.11251866136E+04  0.50400001928E-02 0. -1.
       -1    1    3    3    0  502 -0.37992886754E+03  0.88026070782E+02  0.12663472861E+04  0.13250396155E+04  0.50400001928E-02 0.  1.
</event>
<event>
 5   0  0.4713971E-05  0.2042752E+04  0.7818609E-02  0.8586889E-01
        2   -1    0    0  501    0  0.00000000000E+00  0.00000000000E+00  0.18675607755E+04  0.18675607755E+04  0.25500000920E-02 0.  1.
       -2   -1    0    0    0  501  0.00000000000E+00  0.00000000000E+00 -0.55859447055E+03  0.55859447056E+03  0.25500000920E-02 0. -1.
    10030    2    1    2    0    0  0.00000000000E+00  0.00000000000E+00  0.13089663049E+04  0.24261552461E+04  0.20427521853E+04 0.  0.
        5    1    3    3  502    0  0.68786582518E+03  0.74190158880E+03  0.48816560774E+03  0.11233454996E+04  0.46999998093E+01 0.  1.
       -5    1    3    3    0  502 -0.68786582518E+03 -0.74190158880E+03  0.82080069720E+03  0.13028097464E+04  0.46999998093E+01 0. -1.
</event>
<event>
 5   0  0.2139556E-05  0.2384970E+04  0.7818609E-02  0.8445152E-01
        1   -1    0    0  501    0  0.00000000000E+00  0.00000000000E+00  0.21396684500E+04  0.21396684500E+04  0.50400001928E-02 0.  1.
       -1   -1    0    0    0  501  0.00000000000E+00  0.00000000000E+00 -0.66459877677E+03  0.66459877679E+03  0.50400001928E-02 0. -1.
    10030    2    1    2    0    0  0.00000000000E+00  0.00000000000E+00  0.14750696733E+04  0.28042672268E+04  0.23849704691E+04 0.  0.
        2    1    3    3  502    0  0.67804130404E+03  0.93869827680E+03  0.40263267771E+03  0.12259720788E+04  0.25500000920E-02 0. -1.
       -2    1    3    3    0  502 -0.67804130404E+03 -0.93869827680E+03  0.10724369955E+04  0.15782951480E+04  0.25500000920E-02 0.  1.
</event>
<event>
 5   0  0.2065692E-05  0.2423123E+04  0.7818609E-02  0.8430897E-01
       -1   -1    0    0    0  501  0.00000000000E+00  0.00000000000E+00  0.10529641314E+04  0.10529641314E+04  0.50400001928E-02 0.  1.
        1   -1    0    0  501    0  0.00000000000E+00  0.00000000000E+00 -0.13940462372E+04  0.13940462372E+04  0.50400001928E-02 0. -1.
    10030    2    1    2    0    0  0.00000000000E+00  0.00000000000E+00 -0.34108210580E+03  0.24470103687E+04  0.24231225189E+04 0.  0.
        3    1    3    3  502    0 -0.30583734881E+03 -0.11698548796E+04 -0.93740337083E+02  0.12128001419E+04  0.10100000352E+00 0.  1.
       -3    1    3    3    0  502  0.30583734881E+03  0.11698548796E+04 -0.24734176872E+03  0.12342102268E+04  0.10100000352E+00 0. -1.
</event>
<event>
 5   0  0.2149920E-05  0.2420452E+04  0.7818609E-02  0.8431886E-01
       -1   -1    0    0    0  501  0.00000000000E+00  0.00000000000E+00  0.13271679712E+04  0.13271679712E+04  0.50400001928E-02 0. -1.
        1   -1    0    0  501    0  0.00000000000E+00  0.00000000000E+00 -0.11035880966E+04  0.11035880966E+04  0.50400001928E-02 0.  1.
    10030    2    1    2    0    0  0.00000000000E+00  0.00000000000E+00  0.22357987460E+03  0.24307560679E+04  0.24204518382E+04 0.  0.
        5    1    3    3  502    0  0.64860378389E+03  0.47601688914E+03 -0.79613058786E+03  0.11318679031E+04  0.46999998093E+01 0.  1.
       -5    1    3    3    0  502 -0.64860378389E+03 -0.47601688914E+03  0.10197104625E+04  0.12988881647E+04  0.46999998093E+01 0. -1.
</event>
<event>
 5   0  0.4914005E-05  0.2442643E+04  0.7818609E-02  0.8423709E-01
       -2   -1    0    0    0  501  0.00000000000E+00  0.00000000000E+00  0.57531813299E+03  0.57531813300E+03  0.25500000920E-02 0.  1.
        2   -1    0    0  501    0  0.00000000000E+00  0.00000000000E+00 -0.25926974913E+04  0.25926974913E+04  0.25500000920E-02 0. -1.
    10030    2    1    2    0    0  0.00000000000E+00  0.00000000000E+00 -0.20173793584E+04  0.31680156243E+04  0.24426427329E+04 0.  0.
        2    1    3    3  502    0  0.10016047821E+03  0.25192046919E+03 -0.25531806058E+04  0.25675333007E+04  0.25500000920E-02 0. -1.
       -2    1    3    3    0  502 -0.10016047821E+03 -0.25192046919E+03  0.53580124748E+03  0.60048232364E+03  0.25500000920E-02 0.  1.
</event>
<event>
 5   0  0.4856882E-05  0.2510709E+04  0.7818609E-02  0.8399180E-01
        2   -1    0    0  501    0  0.00000000000E+00  0.00000000000E+00  0.14097355297E+04  0.14097355297E+04  0.25500000920E-02 0. -1.
       -2   -1    0    0    0  501  0.00000000000E+00  0.00000000000E+00 -0.11178793920E+04  0.11178793920E+04  0.25500000920E-02 0.  1.
    10030    2    1    2    0    0  0.00000000000E+00  0.00000000000E+00  0.29185613770E+03  0.25276149217E+04  0.25107085031E+04 0.  0.
        1    1    3    3  502    0 -0.11201855207E+04  0.47282302459E+03  0.46034034861E+03  0.13001117068E+04  0.50400001928E-02 0. -1.
       -1    1    3    3    0  502  0.11201855207E+04 -0.47282302459E+03 -0.16848421092E+03  0.12275032150E+04  0.50400001928E-02 0.  1.
</event>
<event>
 5   0  0.2090039E-05  0.2410952E+04  0.7818609E-02  0.8435415E-01
        1   -1    0    0  501    0  0.00000000000E+00  0.00000000000E+00  0.15781501857E+04  0.15781501857E+04  0.50400001928E-02 0.  1.
       -1   -1    0    0    0  501  0.00000000000E+00  0.00000000000E+00 -0.92080769591E+03  0.92080769592E+03  0.50400001928E-02 0. -1.
    10030    2    1    2    0    0  0.00000000000E+00  0.00000000000E+00  0.65734248977E+03  0.24989578816E+04  0.24109523731E+04 0.  0.
        1    1    3    3  502    0 -0.73132665419E+03  0.86484382672E+03  0.75650863968E+03  0.13620201326E+04  0.50400001928E-02 0.  1.
       -1    1    3    3    0  502  0.73132665419E+03 -0.86484382672E+03 -0.99166149911E+02  0.11369377490E+04  0.50400001928E-02 0. -1.
</event>
<event>
 5   0  0.2065692E-05  0.2269623E+04  0.7818609E-02  0.8489995E-01
        1   -1    0    0  501    0  0.00000000000E+00  0.00000000000E+00  0.19718004683E+04  0.19718004683E+04  0.50400001928E-02 0. -1.
       -1   -1    0    0    0  501  0.00000000000E+00  0.00000000000E+00 -0.65310729663E+03  0.65310729665E+03  0.50400001928E-02 0.  1.
    10030    2    1    2    0    0  0.00000000000E+00  0.00000000000E+00  0.13186931717E+04  0.26249077650E+04  0.22696231171E+04 0.  0.
        3    1    3    3  502    0  0.96248043740E+03  0.26437161709E+03  0.12838094753E+04  0.16261696478E+04  0.10100000352E+00 0. -1.
       -3    1    3    3    0  502 -0.96248043740E+03 -0.26437161709E+03  0.34883696423E+02  0.99873811722E+03  0.10100000352E+00 0.  1.
</event>
<event>
 5   0  0.2065692E-05  0.2395565E+04  0.7818609E-02  0.8441166E-01
        1   -1    0    0  501    0  0.00000000000E+00  0.00000000000E+00  0.15353633051E+04  0.15353633052E+04  0.50400001928E-02 0.  1.
       -1   -1    0    0    0  501  0.00000000000E+00  0.00000000000E+00 -0.93442577878E+03  0.93442577880E+03  0.50400001928E-02 0. -1.
    10030    2    1    2    0    0  0.00000000000E+00  0.00000000000E+00  0.60093752637E+03  0.24697890840E+04  0.23955651126E+04 0.  0.
        3    1    3    3  502    0  0.97582959772E+03  0.69328839718E+03  0.34409822501E+03  0.12455102585E+04  0.10100000352E+00 0.  1.
       -3    1    3    3    0  502 -0.97582959772E+03 -0.69328839718E+03  0.25683930135E+03  0.12242788254E+04  0.10100000352E+00 0. -1.
</event>
<event>
 5   0  0.2139556E-05  0.2393005E+04  0.7818609E-02  0.8442127E-01
        1   -1    0    0  501    0  0.00000000000E+00  0.00000000000E+00  0.75794089990E+03  0.75794089992E+03  0.50400001928E-02 0.  1.
       -1   -1    0    0    0  501  0.00000000000E+00  0.00000000000E+00 -0.18888250396E+04  0.18888250396E+04  0.50400001928E-02 0. -1.
    10030    2    1    2    0    0  0.00000000000E+00  0.00000000000E+00 -0.11308841397E+04  0.26467659396E+04  0.23930045970E+04 0.  0.
        2    1    3    3  502    0  0.34966519360E+02 -0.34585155115E+03  0.70085967469E+03  0.78233000487E+03  0.25500000920E-02 0.  1.
       -2    1    3    3    0  502 -0.34966519360E+02  0.34585155115E+03 -0.18317438144E+04  0.18644359347E+04  0.25500000920E-02 0. -1.
</event>
<event>
 5   0  0.4856882E-05  0.2392107E+04  0.7818609E-02  0.8442464E-01
       -2   -1    0    0    0  501  0.00000000000E+00  0.00000000000E+00  0.92586121295E+03  0.92586121295E+03  0.25500000920E-02 0. -1.
        2   -1    0    0  501    0  0.00000000000E+00  0.00000000000E+00 -0.15450955838E+04  0.15450955838E+04  0.25500000920E-02 0.  1.
    10030    2    1    2    0    0  0.00000000000E+00  0.00000000000E+00 -0.61923437084E+03  0.24709567967E+04  0.23921070807E+04 0.  0.
        1    1    3    3  502    0  0.79041205316E+03  0.63494807948E+03  0.34583293437E+03  0.10712192567E+04  0.50400001928E-02 0. -1.
       -1    1    3    3    0  502 -0.79041205316E+03 -0.63494807948E+03 -0.96506730520E+03  0.13997375400E+04  0.50400001928E-02 0.  1.
</event>
<event>
 5   0  0.4756705E-05  0.2389292E+04  0.7818609E-02  0.8443523E-01
       -2   -1    0    0    0  501  0.00000000000E+00  0.00000000000E+00  0.13065345223E+04  0.13065345223E+04  0.25500000920E-02 0.  1.
        2   -1    0    0  501    0  0.00000000000E+00  0.00000000000E+00 -0.10923397932E+04  0.10923397932E+04  0.25500000920E-02 0. -1.
    10030    2    1    2    0    0  0.00000000000E+00  0.00000000000E+00  0.21419472906E+03  0.23988743155E+04  0.23892924893E+04 0.  0.
        3    1    3    3  502    0  0.20720315847E+02 -0.11818644106E+04 -0.66648131559E+02  0.11839234773E+04  0.10100000352E+00 0. -1.
       -3    1    3    3    0  502 -0.20720315847E+02  0.11818644106E+04  0.28084286062E+03  0.12149508382E+04  0.10100000352E+00 0.  1.
</event>
<event>
 5   0  0.2065692E-05  0.1818247E+04  0.7818609E-02  0.8696656E-01
        1   -1    0    0  501    0  0.00000000000E+00  0.00000000000E+00  0.86798519752E+03  0.86798519753E+03  0.50400001928E-02 0.  1.
       -1   -1    0    0    0  501  0.00000000000E+00  0.00000000000E+00 -0.95221164062E+03  0.95221164063E+03  0.50400001928E-02 0. -1.
    10030    2    1    2    0    0  0.00000000000E+00  0.00000000000E+00 -0.84226443100E+02  0.18201968382E+04  0.18182470778E+04 0.  0.
        3    1    3    3  502    0  0.22723277411E+03 -0.56504831813E+03  0.63358558362E+03  0.87883163201E+03  0.10100000352E+00 0.  1.
       -3    1    3    3    0  502 -0.22723277411E+03  0.56504831813E+03 -0.71781202672E+03  0.94136520615E+03  0.10100000352E+00 0. -1.
</event>
<event>
 5   0  0.4664127E-05  0.2345771E+04  0.7818609E-02  0.8460090E-01
       -2   -1    0    0    0  501  0.00000000000E+00  0.00000000000E+00  0.54519813662E+03  0.54519813663E+03  0.25500000920E-02 0. -1.
        2   -1    0    0  501    0  0.00000000000E+00  0.00000000000E+00 -0.25232297263E+04  0.25232297263E+04  0.25500000920E-02 0.  1.
    10030    2    1    2    0    0  0.00000000000E+00  0.00000000000E+00 -0.19780315896E+04  0.30684278629E+04  0.23457707859E+04 0.  0.
        4    1    3    3  502    0 -0.31056414928E+02  0.18685626238E+03  0.52505746708E+03  0.55818161949E+03  0.12699999809E+01 0. -1.
       -4    1    3    3    0  502  0.31056414928E+02 -0.18685626238E+03 -0.25030890567E+04  0.25102462434E+04  0.12699999809E+01 0.  1.
</event>
<event>
 5   0  0.2065692E-05  0.2407727E+04  0.7818609E-02  0.8436616E-01
        1   -1    0    0  501    0  0.00000000000E+00  0.00000000000E+00  0.13737717662E+04  0.13737717663E+04  0.50400001928E-02 0. -1.
       -1   -1    0    0    0  501  0.00000000000E+00  0.00000000000E+00 -0.10549699398E+04  0.10549699398E+04  0.50400001928E-02 0.  1.
    10030    2    1    2    0    0  0.00000000000E+00  0.00000000000E+00  0.31880182642E+03  0.24287417061E+04  0.24077274909E+04 0.  0.
        3    1    3    3  502    0 -0.28374383861E+03 -0.70599561525E+03 -0.78166566612E+03  0.10908444428E+04  0.10100000352E+00 0.  1.
       -3    1    3    3    0  502  0.28374383861E+03  0.70599561525E+03  0.11004674925E+04  0.13378972633E+04  0.10100000352E+00 0. -1.
</event>
<event>
 5   0  0.2065692E-05  0.2433768E+04  0.7818609E-02  0.8426969E-01
        1   -1    0    0  501    0  0.00000000000E+00  0.00000000000E+00  0.12559841111E+04  0.12559841111E+04  0.50400001928E-02 0. -1.
       -1   -1    0    0    0  501  0.00000000000E+00  0.00000000000E+00 -0.11790006714E+04  0.11790006714E+04  0.50400001928E-02 0.  1.
    10030    2    1    2    0    0  0.00000000000E+00  0.00000000000E+00  0.76983439720E+02  0.24349847826E+04  0.24337675405E+04 0.  0.
        3    1    3    3  502    0 -0.10752732418E+04 -0.18347126014E+03 -0.50115903999E+03  0.12004310232E+04  0.10100000352E+00 0.  1.
       -3    1    3    3    0  502  0.10752732418E+04  0.18347126014E+03  0.57814247971E+03  0.12345537594E+04  0.10100000352E+00 0. -1.
</event>
<event>
 5   0  0.4756705E-05  0.2113454E+04  0.7818609E-02  0.8555340E-01
       -2   -1    0    0    0  501  0.00000000000E+00  0.00000000000E+00  0.50131413433E+03  0.50131413434E+03  0.25500000920E-02 0. -1.
        2   -1    0    0  501    0  0.00000000000E+00  0.00000000000E+00 -0.22274904449E+04  0.22274904449E+04  0.25500000920E-02 0.  1.
    10030    2    1    2    0    0  0.00000000000E+00  0.00000000000E+00 -0.17261763105E+04  0.27288045792E+04  0.21134544652E+04 0.  0.
        3    1    3    3  502    0  0.22658220292E+03  0.11094530340E+03  0.46185940843E+03  0.52627224740E+03  0.10100000352E+00 0. -1.
       -3    1    3    3    0  502 -0.22658220292E+03 -0.11094530340E+03 -0.21880357190E+04  0.22025323318E+04  0.10100000352E+00 0.  1.
</event>
<event>
 5   0  0.2057599E-05  0.2404749E+04  0.7818609E-02  0.8437728E-01
        1   -1    0    0  501    0  0.00000000000E+00  0.00000000000E+00  0.12513121781E+04  0.12513121781E+04  0.50400001928E-02 0.  1.
       -1   -1    0    0    0  501  0.00000000000E+00  0.00000000000E+00 -0.11553509804E+04  0.11553509804E+04  0.50400001928E-02 0. -1.
    10030    2    1    2    0    0  0.00000000000E+00  0.00000000000E+00  0.95961197665E+02  0.24066631585E+04  0.24047492607E+04 0.  0.
        4    1    3    3  502    0  0.82519400302E+03 -0.62242687319E+03 -0.56679062996E+03  0.11788187249E+04  0.12699999809E+01 0.  1.
       -4    1    3    3    0  502 -0.82519400302E+03  0.62242687319E+03  0.66275182763E+03  0.12278444336E+04  0.12699999809E+01 0. -1.
</event>
<event>
 5   0  0.2065692E-05  0.2377747E+04  0.7818609E-02  0.8447882E-01
       -1   -1    0    0    0  501  0.00000000000E+00  0.00000000000E+00  0.17684619664E+04  0.17684619664E+04  0.50400001928E-02 0. -1.
        1   -1    0    0  501    0  0.00000000000E+00  0.00000000000E+00 -0.79923711692E+03  0.79923711694E+03  0.50400001928E-02 0.  1.
    10030    2    1    2    0    0  0.00000000000E+00  0.00000000000E+00  0.96922484946E+03  0.25676990833E+04  0.23777472056E+04 0.  0.
        3    1    3    3  502    0  0.44815797479E+02  0.30601155078E+03  0.17242595407E+04  0.17517769546E+04  0.10100000352E+00 0. -1.
       -3    1    3    3    0  502 -0.44815797479E+02 -0.30601155078E+03 -0.75503469124E+03  0.81592212869E+03  0.10100000352E+00 0.  1.
</event>
<event>
 5   0  0.4914005E-05  0.1942885E+04  0.7818609E-02  0.8633799E-01
       -2   -1    0    0    0  501  0.00000000000E+00  0.00000000000E+00  0.16594116023E+04  0.16594116023E+04  0.25500000920E-02 0.  1.
        2   -1    0    0  501    0  0.00000000000E+00  0.00000000000E+00 -0.56869581573E+03  0.56869581574E+03  0.25500000920E-02 0. -1.
    10030    2    1    2    0    0  0.00000000000E+00  0.00000000000E+00  0.10907157865E+04  0.22281074180E+04  0.19428849012E+04 0.  0.
        2    1    3    3  502    0 -0.95632197103E+02 -0.75751833508E+03  0.12341286470E+04  0.14512246768E+04  0.25500000920E-02 0.  1.
       -2    1    3    3    0  502  0.95632197103E+02  0.75751833508E+03 -0.14341286045E+03  0.77688274125E+03  0.25500000920E-02 0. -1.
</event>
<event>
 5   0  0.2057599E-05  0.2509588E+04  0.7818609E-02  0.8399578E-01
        1   -1    0    0  501    0  0.00000000000E+00  0.00000000000E+00  0.23966933956E+04  0.23966933956E+04  0.50400001928E-02 0.  1.
       -1   -1    0    0    0  501  0.00000000000E+00  0.00000000000E+00 -0.65695005655E+03  0.65695005657E+03  0.50400001928E-02 0. -1.
    10030    2    1    2    0    0  0.00000000000E+00  0.00000000000E+00  0.17397433391E+04  0.30536434522E+04  0.25095879039E+04 0.  0.
        4    1    3    3  502    0 -0.64294504642E+03  0.53356703964E+03  0.20090076124E+04  0.21758183100E+04  0.12699999809E+01 0.  1.
       -4    1    3    3    0  502  0.64294504642E+03 -0.53356703964E+03 -0.26926427333E+03  0.87782514221E+03  0.12699999809E+01 0. -1.
</event>
<event>
 5   0  0.4856882E-05  0.2430350E+04  0.7818609E-02  0.8428227E-01
       -2   -1    0    0    0  501  0.00000000000E+00  0.00000000000E+00  0.89170891180E+03  0.89170891180E+03  0.25500000920E-02 0. -1.
        2   -1    0    0  501    0  0.00000000000E+00  0.00000000000E+00 -0.16559785493E+04  0.16559785493E+04  0.25500000920E-02 0.  1.
    10030    2    1    2    0    0  0.00000000000E+00  0.00000000000E+00 -0.76426963751E+03  0.25476874611E+04  0.24303504522E+04 0.  0.
        1    1    3    3  502    0 -0.90470620847E+03 -0.80480230628E+03 -0.27497028820E+03  0.12416959109E+04  0.50400001928E-02 0. -1.
       -1    1    3    3    0  502  0.90470620847E+03  0.80480230628E+03 -0.48929934930E+03  0.13059915502E+04  0.50400001928E-02 0.  1.
</event>
<event>
 5   0  0.2139556E-05  0.2406046E+04  0.7818609E-02  0.8437243E-01
       -1   -1    0    0    0  501  0.00000000000E+00  0.00000000000E+00  0.94311003758E+03  0.94311003760E+03  0.50400001928E-02 0.  1.
        1   -1    0    0  501    0  0.00000000000E+00  0.00000000000E+00 -0.15345658632E+04  0.15345658632E+04  0.50400001928E-02 0. -1.
    10030    2    1    2    0    0  0.00000000000E+00  0.00000000000E+00 -0.59145582558E+03  0.24776759008E+04  0.24060461084E+04 0.  0.
        2    1    3    3  502    0 -0.86070965996E+03 -0.44773138991E+03 -0.10282271993E+04  0.14136957557E+04  0.25500000920E-02 0. -1.
       -2    1    3    3    0  502  0.86070965996E+03  0.44773138991E+03  0.43677137371E+03  0.10639801451E+04  0.25500000920E-02 0.  1.
</event>
<event>
 5   0  0.2057599E-05  0.2490215E+04  0.7818609E-02  0.8406480E-01
       -1   -1    0    0    0  501  0.00000000000E+00  0.00000000000E+00  0.17507106044E+04  0.17507106044E+04  0.50400001928E-02 0. -1.
        1   -1    0    0  501    0  0.00000000000E+00  0.00000000000E+00 -0.88552192935E+03  0.88552192937E+03  0.50400001928E-02 0.  1.
    10030    2    1    2    0    0  0.00000000000E+00  0.00000000000E+00  0.86518867502E+03  0.26362325337E+04  0.24902149563E+04 0.  0.
        4    1    3    3  502    0  0.57419351273E+03  0.94436858804E+03 -0.17440314783E+03  0.11189049517E+04  0.12699999809E+01 0.  1.
       -4    1    3    3    0  502 -0.57419351273E+03 -0.94436858804E+03  0.10395918228E+04  0.15173275820E+04  0.12699999809E+01 0. -1.
</event>
<event>
 5   0  0.4756705E-05  0.2403540E+04  0.7818609E-02  0.8438179E-01
        2   -1    0    0  501    0  0.00000000000E+00  0.00000000000E+00  0.95210430650E+03  0.95210430650E+03  0.25500000920E-02 0.  1.
       -2   -1    0    0    0  501  0.00000000000E+00  0.00000000000E+00 -0.15169045113E+04  0.15169045113E+04  0.25500000920E-02 0. -1.
    10030    2    1    2    0    0  0.00000000000E+00  0.00000000000E+00 -0.56480020482E+03  0.24690088178E+04  0.24035401538E+04 0.  0.
        3    1    3    3  502    0 -0.14862012411E+03  0.10837813335E+04 -0.79352878827E+03  0.13514280847E+04  0.10100000352E+00 0. -1.
       -3    1    3    3    0  502  0.14862012411E+03 -0.10837813335E+04  0.22872858345E+03  0.11175807332E+04  0.10100000352E+00 0.  1.
</event>
<event>
 5   0  0.2065692E-05  0.2451657E+04  0.7818609E-02  0.8420413E-01
       -1   -1    0    0    0  501  0.00000000000E+00  0.00000000000E+00  0.93807065215E+03  0.93807065216E+03  0.50400001928E-02 0.  1.
        1   -1    0    0  501    0  0.00000000000E+00  0.00000000000E+00 -0.16018570868E+04  0.16018570868E+04  0.50400001928E-02 0. -1.
    10030    2    1    2    0    0  0.00000000000E+00  0.00000000000E+00 -0.66378643461E+03  0.25399277389E+04  0.24516566824E+04 0.  0.
        3    1    3    3  502    0  0.56558378588E+03 -0.35050097395E+03  0.73469818586E+03  0.99122015017E+03  0.10100000352E+00 0.  1.
       -3    1    3    3    0  502 -0.56558378588E+03  0.35050097395E+03 -0.13984846205E+04  0.15487075888E+04  0.10100000352E+00 0. -1.
</event>
<event>
 5   0  0.4914005E-05  0.2401937E+04  0.7818609E-02  0.8438779E-01
        2   -1    0    0  501    0  0.00000000000E+00  0.00000000000E+00  0.20865416808E+04  0.20865416808E+04  0.25500000920E-02 0. -1.
       -2   -1    0    0    0  501  0.00000000000E+00  0.00000000000E+00 -0.69125164748E+03  0.69125164748E+03  0.25500000920E-02 0.  1.
    10030    2    1    2    0    0  0.00000000000E+00  0.00000000000E+00  0.13952900333E+04  0.27777933283E+04  0.24019370303E+04 0.  0.
        2    1    3    3  502    0 -0.28068775727E+03 -0.84772210203E+03 -0.23107938520E+03  0.92239691111E+03  0.25500000920E-02 0.  1.
       -2    1    3    3    0  502  0.28068775727E+03  0.84772210203E+03  0.16263694185E+04  0.18553964172E+04  0.25500000920E-02 0. -1.
</event>
<event>
 5   0  0.4756705E-05  0.2412049E+04  0.7818609E-02  0.8435006E-01
       -2   -1    0    0    0  501  0.00000000000E+00  0.00000000000E+00  0.69160676747E+03  0.69160676747E+03  0.25500000920E-02 0.  1.
        2   -1    0    0  501    0  0.00000000000E+00  0.00000000000E+00 -0.21030671825E+04  0.21030671825E+04  0.25500000920E-02 0. -1.
    10030    2    1    2    0    0  0.00000000000E+00  0.00000000000E+00 -0.14114604151E+04  0.27946739500E+04  0.24120493327E+04 0.  0.
        3    1    3    3  502    0  0.13511868660E+03 -0.34870345447E+03 -0.20341920865E+04  0.20682815605E+04  0.10100000352E+00 0. -1.
       -3    1    3    3    0  502 -0.13511868660E+03  0.34870345447E+03  0.62273167146E+03  0.72639238946E+03  0.10100000352E+00 0.  1.
</event>
<event>
 5   0  0.4914005E-05  0.2394483E+04  0.7818609E-02  0.8441572E-01
       -2   -1    0    0    0  501  0.00000000000E+00  0.00000000000E+00  0.79182700541E+03  0.79182700541E+03  0.25500000920E-02 0. -1.
        2   -1    0    0  501    0  0.00000000000E+00  0.00000000000E+00 -0.18102271363E+04  0.18102271363E+04  0.25500000920E-02 0.  1.
    10030    2    1    2    0    0  0.00000000000E+00  0.00000000000E+00 -0.10184001309E+04  0.26020541417E+04  0.23944826017E+04 0.  0.
        2    1    3    3  502    0 -0.36408384307E+03 -0.61603292817E+03  0.53386880517E+03  0.89278749684E+03  0.25500000920E-02 0. -1.
       -2    1    3    3    0  502  0.36408384307E+03  0.61603292817E+03 -0.15522689361E+04  0.17092666449E+04  0.25500000920E-02 0.  1.
</event>
<event>
 5   0  0.4914005E-05  0.2382483E+04  0.7818609E-02  0.8446091E-01
       -2   -1    0    0    0  501  0.00000000000E+00  0.00000000000E+00  0.80385335558E+03  0.80385335559E+03  0.25500000920E-02 0. -1.
        2   -1    0    0  501    0  0.00000000000E+00  0.00000000000E+00 -0.17653166865E+04  0.17653166865E+04  0.25500000920E-02 0.  1.
    10030    2    1    2    0    0  0.00000000000E+00  0.00000000000E+00 -0.96146333095E+03  0.25691700421E+04  0.23824825222E+04 0.  0.
        2    1    3    3  502    0 -0.68722783075E+03  0.59229086830E+03 -0.13132112051E+04  0.15961247549E+04  0.25500000920E-02 0.  1.
       -2    1    3    3    0  502  0.68722783075E+03 -0.59229086830E+03  0.35174787413E+03  0.97304528723E+03  0.25500000920E-02 0. -1.
</event>
<event>
 5   0  0.2149920E-05  0.2472082E+04  0.7818609E-02  0.8412999E-01
       -1   -1    0    0    0  501  0.00000000000E+00  0.00000000000E+00  0.13190641794E+04  0.13190641795E+04  0.50400001928E-02 0.  1.
        1   -1    0    0  501    0  0.00000000000E+00  0.00000000000E+00 -0.11582434677E+04  0.11582434677E+04  0.50400001928E-02 0. -1.
    10030    2    1    2    0    0  0.00000000000E+00  0.00000000000E+00  0.16082071176E+03  0.24773076471E+04  0.24720820936E+04 0.  0.
        5    1    3    3  502    0 -0.37290240508E+03 -0.51246708623E+03  0.11438305173E+04  0.13076884416E+04  0.46999998093E+01 0.  1.
       -5    1    3    3    0  502  0.37290240508E+03  0.51246708623E+03 -0.98300980550E+03  0.11696192055E+04  0.46999998093E+01 0. -1.
</event>
<event>
 5   0  0.2057599E-05  0.2414578E+04  0.7818609E-02  0.8434066E-01
       -1   -1    0    0    0  501  0.00000000000E+00  0.00000000000E+00  0.92262338070E+03  0.92262338071E+03  0.50400001928E-02 0.  1.
        1   -1    0    0  501    0  0.00000000000E+00  0.00000000000E+00 -0.15797849693E+04  0.15797849693E+04  0.50400001928E-02 0. -1.
    10030    2    1    2    0    0  0.00000000000E+00  0.00000000000E+00 -0.65716158856E+03  0.25024083500E+04  0.24145778506E+04 0.  0.
        4    1    3    3  502    0 -0.93449907272E+03  0.56897717636E+03  0.20039848819E+03  0.11122880522E+04  0.12699999809E+01 0.  1.
       -4    1    3    3    0  502  0.93449907272E+03 -0.56897717636E+03 -0.85756007674E+03  0.13901202978E+04  0.12699999809E+01 0. -1.
</event>
<event>
 5   0  0.4914005E-05  0.2412254E+04  0.7818609E-02  0.8434930E-01
        2   -1    0    0  501    0  0.00000000000E+00  0.00000000000E+00  0.17921943139E+04  0.17921943139E+04  0.25500000920E-02 0. -1.
       -2   -1    0    0    0  501  0.00000000000E+00  0.00000000000E+00 -0.81170996186E+03  0.81170996186E+03  0.25500000920E-02 0.  1.
    10030    2    1    2    0    0  0.00000000000E+00  0.00000000000E+00  0.98048435201E+03  0.26039042757E+04  0.24122536999E+04 0.  0.
        2    1    3    3  502    0 -0.58585202965E+03 -0.60597155935E+03  0.14215242635E+04  0.16526207560E+04  0.25500000920E-02 0. -1.
       -2    1    3    3    0  502  0.58585202965E+03  0.60597155935E+03 -0.44103991150E+03  0.95128351974E+03  0.25500000920E-02 0.  1.
</event>
<event>
 5   0  0.4914005E-05  0.2406400E+04  0.7818609E-02  0.8437111E-01
        2   -1    0    0  501    0  0.00000000000E+00  0.00000000000E+00  0.12122816779E+04  0.12122816779E+04  0.25500000920E-02 0. -1.
       -2   -1    0    0    0  501  0.00000000000E+00  0.00000000000E+00 -0.11941860657E+04  0.11941860657E+04  0.25500000920E-02 0.  1.
    10030    2    1    2    0    0  0.00000000000E+00  0.00000000000E+00  0.18095612134E+02  0.24064677436E+04  0.24063997070E+04 0.  0.
        2    1    3    3  502    0 -0.10867796457E+04  0.54991113078E+02  0.52245872437E+03  0.12070945032E+04  0.25500000920E-02 0. -1.
       -2    1    3    3    0  502  0.10867796457E+04 -0.54991113078E+02 -0.50436311224E+03  0.11993732404E+04  0.25500000920E-02 0.  1.
</event>
<event>
 5   0  0.1672125E-05  0.2397150E+04  0.7818609E-02  0.8440571E-01
       -3   -1    0    0    0  501  0.00000000000E+00  0.00000000000E+00  0.97925356067E+03  0.97925356588E+03  0.10100000352E+00 0. -1.
        3   -1    0    0  501    0  0.00000000000E+00  0.00000000000E+00 -0.14670176338E+04  0.14670176373E+04  0.10100000352E+00 0.  1.
    10030    2    1    2    0    0  0.00000000000E+00  0.00000000000E+00 -0.48776407312E+03  0.24462712031E+04  0.23971501848E+04 0.  0.
        5    1    3    3  502    0 -0.11325224808E+04 -0.36020277050E+03 -0.40265606204E+03  0.12547936881E+04  0.46999998093E+01 0. -1.
       -5    1    3    3    0  502  0.11325224808E+04  0.36020277050E+03 -0.85108011081E+02  0.11914775151E+04  0.46999998093E+01 0.  1.
</event>
<event>
 5   0  0.4756705E-05  0.2149065E+04  0.7818609E-02  0.8539933E-01
        2   -1    0    0  501    0  0.00000000000E+00  0.00000000000E+00  0.10548982676E+04  0.10548982676E+04  0.25500000920E-02 0.  1.
       -2   -1    0    0    0  501  0.00000000000E+00  0.00000000000E+00 -0.10945319394E+04  0.10945319394E+04  0.25500000920E-02 0. -1.
    10030    2    1    2    0    0  0.00000000000E+00  0.00000000000E+00 -0.39633671825E+02  0.21494302069E+04  0.21490647702E+04 0.  0.
        3    1    3    3  502    0 -0.47872757900E+03  0.52886590853E+03 -0.82353334087E+03  0.10895349548E+04  0.10100000352E+00 0. -1.
       -3    1    3    3    0  502  0.47872757900E+03 -0.52886590853E+03  0.78389966904E+03  0.10598952521E+04  0.10100000352E+00 0.  1.
</event>
<event>
 5   0  0.1672125E-05  0.2246903E+04  0.7818609E-02  0.8499156E-01
       -4   -1    0    0    0  501  0.00000000000E+00  0.00000000000E+00  0.11585466808E+04  0.11585473769E+04  0.12699999809E+01 0.  1.
        4   -1    0    0  501    0  0.00000000000E+00  0.00000000000E+00 -0.10894182308E+04  0.10894189711E+04  0.12699999809E+01 0. -1.
    10030    2    1    2    0    0  0.00000000000E+00  0.00000000000E+00  0.69128449916E+02  0.22479663480E+04  0.22469031931E+04 0.  0.
        5    1    3    3  502    0 -0.53101082620E+03 -0.84860982547E+03 -0.47558906554E+03  0.11082951695E+04  0.46999998093E+01 0. -1.
       -5    1    3    3    0  502  0.53101082620E+03  0.84860982547E+03  0.54471751545E+03  0.11396711785E+04  0.46999998093E+01 0.  1.
</event>
<event>
 5   0  0.2090039E-05  0.2367475E+04  0.7818609E-02  0.8451782E-01
        1   -1    0    0  501    0  0.00000000000E+00  0.00000000000E+00  0.17670524699E+04  0.17670524699E+04  0.50400001928E-02 0.  1.
       -1   -1    0    0    0  501  0.00000000000E+00  0.00000000000E+00 -0.79297822684E+03  0.79297822685E+03  0.50400001928E-02 0. -1.
    10030    2    1    2    0    0  0.00000000000E+00  0.00000000000E+00  0.97407424304E+03  0.25600306967E+04  0.23674747173E+04 0.  0.
        1    1    3    3  502    0 -0.81967662621E+03  0.60205128496E+03  0.11420243896E+04  0.15292335426E+04  0.50400001928E-02 0.  1.
       -1    1    3    3    0  502  0.81967662621E+03 -0.60205128496E+03 -0.16795014655E+03  0.10307971542E+04  0.50400001928E-02 0. -1.
</event>
<event>
 5   0  0.4914005E-05  0.2360798E+04  0.7818609E-02  0.8454328E-01
        2   -1    0    0  501    0  0.00000000000E+00  0.00000000000E+00  0.90535255419E+03  0.90535255419E+03  0.25500000920E-02 0. -1.
       -2   -1    0    0    0  501  0.00000000000E+00  0.00000000000E+00 -0.15390049203E+04  0.15390049203E+04  0.25500000920E-02 0.  1.
    10030    2    1    2    0    0  0.00000000000E+00  0.00000000000E+00 -0.63365236611E+03  0.24443574745E+04  0.23607982002E+04 0.  0.
        2    1    3    3  502    0 -0.36496920326E+02 -0.10750233291E+04 -0.82017579710E+03  0.13526623826E+04  0.25500000920E-02 0.  1.
       -2    1    3    3    0  502  0.36496920326E+02  0.10750233291E+04  0.18652343099E+03  0.10916950919E+04  0.25500000920E-02 0. -1.
</event>
<event>
 5   0  0.4713971E-05  0.2397345E+04  0.7818609E-02  0.8440498E-01
        2   -1    0    0  501    0  0.00000000000E+00  0.00000000000E+00  0.10559335804E+04  0.10559335804E+04  0.25500000920E-02 0.  1.
       -2   -1    0    0    0  501  0.00000000000E+00  0.00000000000E+00 -0.13607066481E+04  0.13607066481E+04  0.25500000920E-02 0. -1.
    10030    2    1    2    0    0  0.00000000000E+00  0.00000000000E+00 -0.30477306767E+03  0.24166402285E+04  0.23973450672E+04 0.  0.
        5    1    3    3  502    0 -0.93135586012E+03  0.53112130442E+03 -0.69268567729E+03  0.12764596021E+04  0.46999998093E+01 0. -1.
       -5    1    3    3    0  502  0.93135586012E+03 -0.53112130442E+03  0.38791260962E+03  0.11401806264E+04  0.46999998093E+01 0.  1.
</event>
<event>
 5   0  0.1672125E-05  0.2398580E+04  0.7818609E-02  0.8440035E-01
        4   -1    0    0  501    0  0.00000000000E+00  0.00000000000E+00  0.11917618801E+04  0.11917625567E+04  0.12699999809E+01 0. -1.
       -4   -1    0    0    0  501  0.00000000000E+00  0.00000000000E+00 -0.12068644326E+04  0.12068651008E+04  0.12699999809E+01 0.  1.
    10030    2    1    2    0    0  0.00000000000E+00  0.00000000000E+00 -0.15102552563E+02  0.23986276576E+04  0.23985801118E+04 0.  0.
        1    1    3    3  502    0 -0.89724093556E+03 -0.22681102625E+03  0.75522992838E+03  0.11945111062E+04  0.50400001928E-02 0. -1.
       -1    1    3    3    0  502  0.89724093556E+03  0.22681102625E+03 -0.77033248095E+03  0.12041165514E+04  0.50400001928E-02 0.  1.
</event>
<event>
 5   0  0.2149920E-05  0.2486381E+04  0.7818609E-02  0.8407853E-01
       -1   -1    0    0    0  501  0.00000000000E+00  0.00000000000E+00  0.87539443264E+03  0.87539443265E+03  0.50400001928E-02 0. -1.
        1   -1    0    0  501    0  0.00000000000E+00  0.00000000000E+00 -0.17655157120E+04  0.17655157121E+04  0.50400001928E-02 0.  1.
    10030    2    1    2    0    0  0.00000000000E+00  0.00000000000E+00 -0.89012127941E+03  0.26409101447E+04  0.24863810047E+04 0.  0.
        5    1    3    3  502    0  0.82836287366E+03  0.72443113942E+02  0.53653368432E+03  0.98960777059E+03  0.46999998093E+01 0.  1.
       -5    1    3    3    0  502 -0.82836287366E+03 -0.72443113942E+02 -0.14266549637E+04  0.16513023741E+04  0.46999998093E+01 0. -1.
</event>
<event>
 5   0  0.4664127E-05  0.2429093E+04  0.7818609E-02  0.8428691E-01
       -2   -1    0    0    0  501  0.00000000000E+00  0.00000000000E+00  0.92069468190E+03  0.92069468190E+03  0.25500000920E-02 0. -1.
        2   -1    0    0  501    0  0.00000000000E+00  0.00000000000E+00 -0.16021851949E+04  0.16021851949E+04  0.25500000920E-02 0.  1.
    10030    2    1    2    0    0  0.00000000000E+00  0.00000000000E+00 -0.68149051301E+03  0.25228798768E+04  0.24290931546E+04 0.  0.
        4    1    3    3  502    0  0.78453343926E+03 -0.74558584325E+03  0.23165105394E+03  0.11068219327E+04  0.12699999809E+01 0. -1.
       -4    1    3    3    0  502 -0.78453343926E+03  0.74558584325E+03 -0.91314156694E+03  0.14160579441E+04  0.12699999809E+01 0.  1.
</event>
<event>
 5   0  0.2065692E-05  0.2388755E+04  0.7818609E-02  0.8443726E-01
        1   -1    0    0  501    0  0.00000000000E+00  0.00000000000E+00  0.13006987138E+04  0.13006987139E+04  0.50400001928E-02 0.  1.
       -1   -1    0    0    0  501  0.00000000000E+00  0.00000000000E+00 -0.10967470407E+04  0.10967470407E+04  0.50400001928E-02 0. -1.
    10030    2    1    2    0    0  0.00000000000E+00  0.00000000000E+00  0.20395167312E+03  0.23974457546E+04  0.23887548768E+04 0.  0.
        3    1    3    3  502    0  0.56999535967E+03 -0.82066579427E+03  0.75868848261E+03  0.12545896858E+04  0.10100000352E+00 0.  1.
       -3    1    3    3    0  502 -0.56999535967E+03  0.82066579427E+03 -0.55473680949E+03  0.11428560688E+04  0.10100000352E+00 0. -1.
</event>
<event>
 5   0  0.2139556E-05  0.2410574E+04  0.7818609E-02  0.8435556E-01
        1   -1    0    0  501    0  0.00000000000E+00  0.00000000000E+00  0.10214428967E+04  0.10214428967E+04  0.50400001928E-02 0. -1.
       -1   -1    0    0    0  501  0.00000000000E+00  0.00000000000E+00 -0.14222197431E+04  0.14222197432E+04  0.50400001928E-02 0.  1.
    10030    2    1    2    0    0  0.00000000000E+00  0.00000000000E+00 -0.40077684641E+03  0.24436626399E+04  0.24105735867E+04 0.  0.
        2    1    3    3  502    0  0.78955674062E+03  0.11501210036E+03 -0.11161649714E+04  0.13720247350E+04  0.25500000920E-02 0.  1.
       -2    1    3    3    0  502 -0.78955674062E+03 -0.11501210036E+03  0.71538812502E+03  0.10716379049E+04  0.25500000920E-02 0. -1.
</event>
<event>
 5   0  0.4914005E-05  0.2394359E+04  0.7818609E-02  0.8441619E-01
        2   -1    0    0  501    0  0.00000000000E+00  0.00000000000E+00  0.12817493265E+04  0.12817493265E+04  0.25500000920E-02 0.  1.
       -2   -1    0    0    0  501  0.00000000000E+00  0.00000000000E+00 -0.11181894417E+04  0.11181894417E+04  0.25500000920E-02 0. -1.
    10030    2    1    2    0    0  0.00000000000E+00  0.00000000000E+00  0.16355988481E+03  0.23999387682E+04  0.23943588401E+04 0.  0.
        2    1    3    3  502    0 -0.55757842796E+03  0.75671163548E+03  0.82494721284E+03  0.12506174901E+04  0.25500000920E-02 0.  1.
       -2    1    3    3    0  502  0.55757842796E+03 -0.75671163548E+03 -0.66138732803E+03  0.11493212781E+04  0.25500000920E-02 0. -1.
</event>
<event>
 5   0  0.4756705E-05  0.2411643E+04  0.7818609E-02  0.8435157E-01
        2   -1    0    0  501    0  0.00000000000E+00  0.00000000000E+00  0.20706801846E+04  0.20706801846E+04  0.25500000920E-02 0.  1.
       -2   -1    0    0    0  501  0.00000000000E+00  0.00000000000E+00 -0.70218758368E+03  0.70218758369E+03  0.25500000920E-02 0. -1.
    10030    2    1    2    0    0  0.00000000000E+00  0.00000000000E+00  0.13684926009E+04  0.27728677683E+04  0.24116433529E+04 0.  0.
        3    1    3    3  502    0 -0.91840486358E+03 -0.77335888344E+03  0.81256156978E+03  0.14497612807E+04  0.10100000352E+00 0.  1.
       -3    1    3    3    0  502  0.91840486358E+03  0.77335888344E+03  0.55593103116E+03  0.13231064876E+04  0.10100000352E+00 0. -1.
</event>
<event>
 5   0  0.2057599E-05  0.2419270E+04  0.7818609E-02  0.8432324E-01
       -1   -1    0    0    0  501  0.00000000000E+00  0.00000000000E+00  0.72872507305E+03  0.72872507307E+03  0.50400001928E-02 0. -1.
        1   -1    0    0  501    0  0.00000000000E+00  0.00000000000E+00 -0.20079141013E+04  0.20079141013E+04  0.50400001928E-02 0.  1.
    10030    2    1    2    0    0  0.00000000000E+00  0.00000000000E+00 -0.12791890282E+04  0.27366391743E+04  0.24192704273E+04 0.  0.
        4    1    3    3  502    0  0.95464481530E+02  0.48926076939E+03 -0.18863242462E+04  0.19510792763E+04  0.12699999809E+01 0.  1.
       -4    1    3    3    0  502 -0.95464481530E+02 -0.48926076939E+03  0.60713521795E+03  0.78555989808E+03  0.12699999809E+01 0. -1.
</event>
<event>
 5   0  0.4756705E-05  0.2316155E+04  0.7818609E-02  0.8471579E-01
        2   -1    0    0  501    0  0.00000000000E+00  0.00000000000E+00  0.83781110783E+03  0.83781110783E+03  0.25500000920E-02 0.  1.
       -2   -1    0    0    0  501  0.00000000000E+00  0.00000000000E+00 -0.16007701009E+04  0.16007701009E+04  0.25500000920E-02 0. -1.
    10030    2    1    2    0    0  0.00000000000E+00  0.00000000000E+00 -0.76295899302E+03  0.24385812087E+04  0.23161545472E+04 0.  0.
        3    1    3    3  502    0 -0.41291584613E+03 -0.99367503262E+03  0.69228955922E+02  0.10782774341E+04  0.10100000352E+00 0.  1.
       -3    1    3    3    0  502  0.41291584613E+03  0.99367503262E+03 -0.83218794895E+03  0.13603037745E+04  0.10100000352E+00 0. -1.
</event>
<event>
 5   0  0.2065692E-05  0.2516804E+04  0.7818609E-02  0.8397023E-01
       -1   -1    0    0    0  501  0.00000000000E+00  0.00000000000E+00  0.11245984942E+04  0.11245984942E+04  0.50400001928E-02 0. -1.
        1   -1    0    0  501    0  0.00000000000E+00  0.00000000000E+00 -0.14081254274E+04  0.14081254274E+04  0.50400001928E-02 0.  1.
    10030    2    1    2    0    0  0.00000000000E+00  0.00000000000E+00 -0.28352693323E+03  0.25327239216E+04  0.25168041126E+04 0.  0.
        3    1    3    3  502    0 -0.15762857436E+03  0.97761535853E+03 -0.92320425082E+03  0.13538407054E+04  0.10100000352E+00 0.  1.
       -3    1    3    3    0  502  0.15762857436E+03 -0.97761535853E+03  0.63967731759E+03  0.11788832162E+04  0.10100000352E+00 0. -1.
</event>
<event>
 5   0  0.4914005E-05  0.2406935E+04  0.7818609E-02  0.8436912E-01
       -2   -1    0    0    0  501  0.00000000000E+00  0.00000000000E+00  0.14933149370E+04  0.14933149370E+04  0.25500000920E-02 0.  1.
        2   -1    0    0  501    0  0.00000000000E+00  0.00000000000E+00 -0.96987825014E+03  0.96987825014E+03  0.25500000920E-02 0. -1.
    10030    2    1    2    0    0  0.00000000000E+00  0.00000000000E+00  0.52343668684E+03  0.24631931871E+04  0.24069347129E+04 0.  0.
        2    1    3    3  502    0 -0.76570854608E+03  0.90584768092E+03  0.53331556644E+02  0.11873137132E+04  0.25500000920E-02 0. -1.
       -2    1    3    3    0  502  0.76570854608E+03 -0.90584768092E+03  0.47010513019E+03  0.12758794739E+04  0.25500000920E-02 0.  1.
</event>
<event>
 5   0  0.4756705E-05  0.2283174E+04  0.7818609E-02  0.8484585E-01
        2   -1    0    0  501    0  0.00000000000E+00  0.00000000000E+00  0.12175826735E+04  0.12175826735E+04  0.25500000920E-02 0.  1.
       -2   -1    0    0    0  501  0.00000000000E+00  0.00000000000E+00 -0.10703344587E+04  0.10703344587E+04  0.25500000920E-02 0. -1.
    10030    2    1    2    0    0  0.00000000000E+00  0.00000000000E+00  0.14724821484E+03  0.22879171322E+04  0.22831738364E+04 0.  0.
        3    1    3    3  502    0  0.21141462227E+03  0.25783715316E+03  0.11677002628E+04  0.12143722880E+04  0.10100000352E+00 0.  1.
       -3    1    3    3    0  502 -0.21141462227E+03 -0.25783715316E+03 -0.10204520479E+04  0.10735448442E+04  0.10100000352E+00 0. -1.
</event>
<event>
 5   0  0.4856882E-05  0.2400843E+04  0.7818609E-02  0.8439188E-01
       -2   -1    0    0    0  501  0.00000000000E+00  0.00000000000E+00  0.75713158462E+03  0.75713158462E+03  0.25500000920E-02 0.  1.
        2   -1    0    0  501    0  0.00000000000E+00  0.00000000000E+00 -0.19032512672E+04  0.19032512672E+04  0.25500000920E-02 0. -1.
    10030    2    1    2    0    0  0.00000000000E+00  0.00000000000E+00 -0.11461196826E+04  0.26603828518E+04  0.24008428919E+04 0.  0.
        1    1    3    3  502    0 -0.76340306284E+03 -0.38911057652E+03  0.35855184391E+03  0.92884374461E+03  0.50400001928E-02 0.  1.
       -1    1    3    3    0  502  0.76340306284E+03  0.38911057652E+03 -0.15046715265E+04  0.17315391072E+04  0.50400001928E-02 0. -1.
</event>
<event>
 5   0  0.2090039E-05  0.2395025E+04  0.7818609E-02  0.8441368E-01
       -1   -1    0    0    0  501  0.00000000000E+00  0.00000000000E+00  0.11059140496E+04  0.11059140496E+04  0.50400001928E-02 0. -1.
        1   -1    0    0  501    0  0.00000000000E+00  0.00000000000E+00 -0.12966982249E+04  0.12966982249E+04  0.50400001928E-02 0.  1.
    10030    2    1    2    0    0  0.00000000000E+00  0.00000000000E+00 -0.19078417526E+03  0.24026122746E+04  0.23950254989E+04 0.  0.
        1    1    3    3  502    0  0.38312170675E+03 -0.25032207323E+03 -0.12055110156E+04  0.12894573244E+04  0.50400001928E-02 0.  1.
       -1    1    3    3    0  502 -0.38312170675E+03  0.25032207323E+03  0.10147268404E+04  0.11131549502E+04  0.50400001928E-02 0. -1.
</event>
<event>
 5   0  0.4756705E-05  0.2401306E+04  0.7818609E-02  0.8439015E-01
       -2   -1    0    0    0  501  0.00000000000E+00  0.00000000000E+00  0.13827797419E+04  0.13827797419E+04  0.25500000920E-02 0.  1.
        2   -1    0    0  501    0  0.00000000000E+00  0.00000000000E+00 -0.10425139239E+04  0.10425139239E+04  0.25500000920E-02 0. -1.
    10030    2    1    2    0    0  0.00000000000E+00  0.00000000000E+00  0.34026581799E+03  0.24252936659E+04  0.24013055905E+04 0.  0.
        3    1    3    3  502    0 -0.66236543781E+03 -0.87858085052E+03 -0.31522446234E+03  0.11445517708E+04  0.10100000352E+00 0. -1.
       -3    1    3    3    0  502  0.66236543781E+03  0.87858085052E+03  0.65549028033E+03  0.12807418951E+04  0.10100000352E+00 0.  1.
</event>
<event>
 5   0  0.2057599E-05  0.2390236E+04  0.7818609E-02  0.8443168E-01
       -1   -1    0    0    0  501  0.00000000000E+00  0.00000000000E+00  0.84649550638E+03  0.84649550640E+03  0.50400001928E-02 0. -1.
        1   -1    0    0  501    0  0.00000000000E+00  0.00000000000E+00 -0.16873175492E+04  0.16873175493E+04  0.50400001928E-02 0.  1.
    10030    2    1    2    0    0  0.00000000000E+00  0.00000000000E+00 -0.84082204286E+03  0.25338130556E+04  0.23902357401E+04 0.  0.
        4    1    3    3  502    0 -0.55962710421E+03  0.55137083710E+03 -0.13751276020E+04  0.15837202501E+04  0.12699999809E+01 0.  1.
       -4    1    3    3    0  502  0.55962710421E+03 -0.55137083710E+03  0.53430555915E+03  0.95009280558E+03  0.12699999809E+01 0. -1.
</event>
<event>
 5   0  0.4713971E-05  0.2378396E+04  0.7818609E-02  0.8447636E-01
        2   -1    0    0  501    0  0.00000000000E+00  0.00000000000E+00  0.13108920588E+04  0.13108920588E+04  0.25500000920E-02 0. -1.
       -2   -1    0    0    0  501  0.00000000000E+00  0.00000000000E+00 -0.10788011603E+04  0.10788011603E+04  0.25500000920E-02 0.  1.
    10030    2    1    2    0    0  0.00000000000E+00  0.00000000000E+00  0.23209089850E+03  0.23896932192E+04  0.23783959924E+04 0.  0.
        5    1    3    3  502    0  0.25720697512E+03 -0.10476631320E+04  0.61883853822E+03  0.12436786935E+04  0.46999998093E+01 0. -1.
       -5    1    3    3    0  502 -0.25720697512E+03  0.10476631320E+04 -0.38674763972E+03  0.11460145257E+04  0.46999998093E+01 0.  1.
</event>
<event>
 5   0  0.2057599E-05  0.2513275E+04  0.7818609E-02  0.8398271E-01
       -1   -1    0    0    0  501  0.00000000000E+00  0.00000000000E+00  0.75155576707E+03  0.75155576709E+03  0.50400001928E-02 0.  1.
        1   -1    0    0  501    0  0.00000000000E+00  0.00000000000E+00 -0.21011592129E+04  0.21011592129E+04  0.50400001928E-02 0. -1.
    10030    2    1    2    0    0  0.00000000000E+00  0.00000000000E+00 -0.13496034458E+04  0.28527149800E+04  0.25132754119E+04 0.  0.
        4    1    3    3  502    0  0.52463530311E+03 -0.22913632120E+03 -0.19445417884E+04  0.20270643884E+04  0.12699999809E+01 0. -1.
       -4    1    3    3    0  502 -0.52463530311E+03  0.22913632120E+03  0.59493834260E+03  0.82565059157E+03  0.12699999809E+01 0.  1.
</event>
<event>
 5   0  0.2065692E-05  0.2392014E+04  0.7818609E-02  0.8442499E-01
       -1   -1    0    0    0  501  0.00000000000E+00  0.00000000000E+00  0.12987086215E+04  0.12987086215E+04  0.50400001928E-02 0.  1.
        1   -1    0    0  501    0  0.00000000000E+00  0.00000000000E+00 -0.11014270031E+04  0.11014270031E+04  0.50400001928E-02 0. -1.
    10030    2    1    2    0    0  0.00000000000E+00  0.00000000000E+00  0.19728161845E+03  0.24001356246E+04  0.23920140007E+04 0.  0.
        3    1    3    3  502    0 -0.11450673629E+04 -0.32295989157E+03  0.22132769582E+03  0.12101521872E+04  0.10100000352E+00 0. -1.
       -3    1    3    3    0  502  0.11450673629E+04  0.32295989157E+03 -0.24046077375E+02  0.11899834374E+04  0.10100000352E+00 0.  1.
</event>
<event>
 5   0  0.4856882E-05  0.2334879E+04  0.7818609E-02  0.8464294E-01
        2   -1    0    0  501    0  0.00000000000E+00  0.00000000000E+00  0.17535699970E+04  0.17535699970E+04  0.25500000920E-02 0.  1.
       -2   -1    0    0    0  501  0.00000000000E+00  0.00000000000E+00 -0.77722328158E+03  0.77722328158E+03  0.25500000920E-02 0. -1.
    10030    2    1    2    0    0  0.00000000000E+00  0.00000000000E+00  0.97634671541E+03  0.25307932786E+04  0.23348793781E+04 0.  0.
        1    1    3    3  502    0  0.54943252215E+03 -0.15341170318E+03  0.15922193118E+04  0.16913230277E+04  0.50400001928E-02 0.  1.
       -1    1    3    3    0  502 -0.54943252215E+03  0.15341170318E+03 -0.61587259641E+03  0.83947025087E+03  0.50400001928E-02 0. -1.
</event>
<event>
 5   0  0.4664127E-05  0.2394235E+04  0.7818609E-02  0.8441665E-01
        2   -1    0    0  501    0  0.00000000000E+00  0.00000000000E+00  0.12034530442E+04  0.12034530442E+04  0.25500000920E-02 0. -1.
       -2   -1    0    0    0  501  0.00000000000E+00  0.00000000000E+00 -0.11908150240E+04  0.11908150240E+04  0.25500000920E-02 0.  1.
    10030    2    1    2    0    0  0.00000000000E+00  0.00000000000E+00  0.12638020209E+02  0.23942680682E+04  0.23942347134E+04 0.  0.
        4    1    3    3  502    0  0.35295485884E+03  0.80313608856E+03 -0.80823739073E+03  0.11928344402E+04  0.12699999809E+01 0.  1.
       -4    1    3    3    0  502 -0.35295485884E+03 -0.80313608856E+03  0.82087541094E+03  0.12014336279E+04  0.12699999809E+01 0. -1.
</event>
<event>
 5   0  0.4756705E-05  0.2446123E+04  0.7818609E-02  0.8422435E-01
        2   -1    0    0  501    0  0.00000000000E+00  0.00000000000E+00  0.25717805406E+04  0.25717805406E+04  0.25500000920E-02 0. -1.
       -2   -1    0    0    0  501  0.00000000000E+00  0.00000000000E+00 -0.58165129655E+03  0.58165129656E+03  0.25500000920E-02 0.  1.
    10030    2    1    2    0    0  0.00000000000E+00  0.00000000000E+00  0.19901292441E+04  0.31534318372E+04  0.24461230435E+04 0.  0.
        3    1    3    3  502    0  0.10339503168E+04  0.19625056464E+03  0.17983974564E+04  0.20836988657E+04  0.10100000352E+00 0. -1.
       -3    1    3    3    0  502 -0.10339503168E+04 -0.19625056464E+03  0.19173178771E+03  0.10697329715E+04  0.10100000352E+00 0.  1.
</event>
<event>
 5   0  0.2139556E-05  0.2368839E+04  0.7818609E-02  0.8451263E-01
        1   -1    0    0  501    0  0.00000000000E+00  0.00000000000E+00  0.90224221876E+03  0.90224221877E+03  0.50400001928E-02 0.  1.
       -1   -1    0    0    0  501  0.00000000000E+00  0.00000000000E+00 -0.15548479762E+04  0.15548479762E+04  0.50400001928E-02 0. -1.
    10030    2    1    2    0    0  0.00000000000E+00  0.00000000000E+00 -0.65260575743E+03  0.24570901950E+04  0.23688389459E+04 0.  0.
        2    1    3    3  502    0 -0.78015786233E+03 -0.48158684550E+03 -0.11040901700E+04  0.14351262256E+04  0.25500000920E-02 0. -1.
       -2    1    3    3    0  502  0.78015786233E+03  0.48158684550E+03  0.45148441256E+03  0.10219639694E+04  0.25500000920E-02 0.  1.
</event>
<event>
 5   0  0.2139556E-05  0.2400857E+04  0.7818609E-02  0.8439183E-01
        1   -1    0    0  501    0  0.00000000000E+00  0.00000000000E+00  0.14338106759E+04  0.14338106759E+04  0.50400001928E-02 0.  1.
       -1   -1    0    0    0  501  0.00000000000E+00  0.00000000000E+00 -0.10050337164E+04  0.10050337164E+04  0.50400001928E-02 0. -1.
    10030    2    1    2    0    0  0.00000000000E+00  0.00000000000E+00  0.42877695946E+03  0.24388443923E+04  0.24008565740E+04 0.  0.
        2    1    3    3  502    0 -0.24168007639E+03  0.61852105536E+02 -0.97841097150E+03  0.10097143019E+04  0.25500000920E-02 0. -1.
       -2    1    3    3    0  502  0.24168007639E+03 -0.61852105536E+02  0.14071879310E+04  0.14291300904E+04  0.25500000920E-02 0.  1.
</event>
<event>
 5   0  0.4713971E-05  0.2447678E+04  0.7818609E-02  0.8421866E-01
       -2   -1    0    0    0  501  0.00000000000E+00  0.00000000000E+00  0.87412923681E+03  0.87412923682E+03  0.25500000920E-02 0. -1.
        2   -1    0    0  501    0  0.00000000000E+00  0.00000000000E+00 -0.17134562006E+04  0.17134562006E+04  0.25500000920E-02 0.  1.
    10030    2    1    2    0    0  0.00000000000E+00  0.00000000000E+00 -0.83932696374E+03  0.25875854374E+04  0.24476782149E+04 0.  0.
        5    1    3    3  502    0 -0.14622142378E+03  0.63654421048E+03  0.67447879649E+03  0.93888922328E+03  0.46999998093E+01 0. -1.
       -5    1    3    3    0  502  0.14622142378E+03 -0.63654421048E+03 -0.15138057602E+04  0.16486962141E+04  0.46999998093E+01 0.  1.
</event>
<event>
 5   0  0.2090039E-05  0.2373119E+04  0.7818609E-02  0.8449636E-01
        1   -1    0    0  501    0  0.00000000000E+00  0.00000000000E+00  0.11789423758E+04  0.11789423758E+04  0.50400001928E-02 0. -1.
       -1   -1    0    0    0  501  0.00000000000E+00  0.00000000000E+00 -0.11942260177E+04  0.11942260177E+04  0.50400001928E-02 0.  1.
    10030    2    1    2    0    0  0.00000000000E+00  0.00000000000E+00 -0.15283641907E+02  0.23731683934E+04  0.23731191782E+04 0.  0.
        1    1    3    3  502    0  0.11213739666E+04  0.36561736319E+03  0.12185228941E+03  0.11857502308E+04  0.50400001928E-02 0.  1.
       -1    1    3    3    0  502 -0.11213739666E+04 -0.36561736319E+03 -0.13713593131E+03  0.11874181627E+04  0.50400001928E-02 0. -1.
</event>
<event>
 5   0  0.4756705E-05  0.2098256E+04  0.7818609E-02  0.8562012E-01
        2   -1    0    0  501    0  0.00000000000E+00  0.00000000000E+00  0.68510656811E+03  0.68510656812E+03  0.25500000920E-02 0.  1.
       -2   -1    0    0    0  501  0.00000000000E+00  0.00000000000E+00 -0.16065673483E+04  0.16065673483E+04  0.25500000920E-02 0. -1.
    10030    2    1    2    0    0  0.00000000000E+00  0.00000000000E+00 -0.92146078017E+03  0.22916739164E+04  0.20982562688E+04 0.  0.
        3    1    3    3  502    0  0.49446802039E+03  0.20109796325E+03  0.52570291614E+03  0.74920129488E+03  0.10100000352E+00 0.  1.
       -3    1    3    3    0  502 -0.49446802039E+03 -0.20109796325E+03 -0.14471636963E+04  0.15424726215E+04  0.10100000352E+00 0. -1.
</event>
<event>
 5   0  0.2139556E-05  0.2432448E+04  0.7818609E-02  0.8427455E-01
       -1   -1    0    0    0  501  0.00000000000E+00  0.00000000000E+00  0.11855350153E+04  0.11855350153E+04  0.50400001928E-02 0.  1.
        1   -1    0    0  501    0  0.00000000000E+00  0.00000000000E+00 -0.12477072136E+04  0.12477072136E+04  0.50400001928E-02 0. -1.
    10030    2    1    2    0    0  0.00000000000E+00  0.00000000000E+00 -0.62172198334E+02  0.24332422289E+04  0.24324478128E+04 0.  0.
        2    1    3    3  502    0 -0.86653533290E+03  0.47221023343E+03 -0.74218716961E+03  0.12347905824E+04  0.25500000920E-02 0. -1.
       -2    1    3    3    0  502  0.86653533290E+03 -0.47221023343E+03  0.68001497128E+03  0.11984516465E+04  0.25500000920E-02 0.  1.
</event>
<event>
 5   0  0.2057599E-05  0.2295907E+04  0.7818609E-02  0.8479537E-01
       -1   -1    0    0    0  501  0.00000000000E+00  0.00000000000E+00  0.11186972532E+04  0.11186972533E+04  0.50400001928E-02 0.  1.
        1   -1    0    0  501    0  0.00000000000E+00  0.00000000000E+00 -0.11779750965E+04  0.11779750965E+04  0.50400001928E-02 0. -1.
    10030    2    1    2    0    0  0.00000000000E+00  0.00000000000E+00 -0.59277843268E+02  0.22966723498E+04  0.22959072323E+04 0.  0.
        4    1    3    3  502    0 -0.51923213563E+03  0.48703725404E+03  0.87121024051E+03  0.11250849717E+04  0.12699999809E+01 0.  1.
       -4    1    3    3    0  502  0.51923213563E+03 -0.48703725404E+03 -0.93048808378E+03  0.11715873781E+04  0.12699999809E+01 0. -1.
</event>
<event>
 5   0  0.1672125E-05  0.2386521E+04  0.7818609E-02  0.8444567E-01
       -3   -1    0    0    0  501  0.00000000000E+00  0.00000000000E+00  0.63264834368E+03  0.63264835175E+03  0.10100000352E+00 0.  1.
        3   -1    0    0  501    0  0.00000000000E+00  0.00000000000E+00 -0.22506508011E+04  0.22506508034E+04  0.10100000352E+00 0. -1.
    10030    2    1    2    0    0  0.00000000000E+00  0.00000000000E+00 -0.16180024574E+04  0.28832991551E+04  0.23865209125E+04 0.  0.
        2    1    3    3  502    0 -0.56774035492E+03 -0.78557509567E+03 -0.16498781511E+04  0.19135190763E+04  0.25500000920E-02 0. -1.
       -2    1    3    3    0  502  0.56774035492E+03  0.78557509567E+03  0.31875693712E+02  0.96978007888E+03  0.25500000920E-02 0.  1.
</event>
<event>
 5   0  0.4664127E-05  0.2493777E+04  0.7818609E-02  0.8405206E-01
        2   -1    0    0  501    0  0.00000000000E+00  0.00000000000E+00  0.13250215805E+04  0.13250215805E+04  0.25500000920E-02 0.  1.
       -2   -1    0    0    0  501  0.00000000000E+00  0.00000000000E+00 -0.11733626354E+04  0.11733626354E+04  0.25500000920E-02 0. -1.
    10030    2    1    2    0    0  0.00000000000E+00  0.00000000000E+00  0.15165894506E+03  0.24983842159E+04  0.24937769055E+04 0.  0.
        4    1    3    3  502    0  0.10487300354E+04  0.48821169934E+02  0.74976166537E+03  0.12901016865E+04  0.12699999809E+01 0.  1.
       -4    1    3    3    0  502 -0.10487300354E+04 -0.48821169934E+02 -0.59810272030E+03  0.12082825294E+04  0.12699999809E+01 0. -1.
</event>
<event>
 5   0  0.2149920E-05  0.2381426E+04  0.7818609E-02  0.8446490E-01
        1   -1    0    0  501    0  0.00000000000E+00  0.00000000000E+00  0.10549276325E+04  0.10549276325E+04  0.50400001928E-02 0.  1.
       -1   -1    0    0    0  501  0.00000000000E+00  0.00000000000E+00 -0.13439764017E+04  0.13439764017E+04  0.50400001928E-02 0. -1.
    10030    2    1    2    0    0  0.00000000000E+00  0.00000000000E+00 -0.28904876921E+03  0.23989040342E+04  0.23814263319E+04 0.  0.
        5    1    3    3  502    0 -0.89276401100E+03 -0.19306169072E+03  0.62493727149E+03  0.11067380354E+04  0.46999998093E+01 0.  1.
       -5    1    3    3    0  502  0.89276401100E+03  0.19306169072E+03 -0.91398604070E+03  0.12921659988E+04  0.46999998093E+01 0. -1.
</event>
<event>
 5   0  0.4914005E-05  0.2203351E+04  0.7818609E-02  0.8517035E-01
       -2   -1    0    0    0  501  0.00000000000E+00  0.00000000000E+00  0.50049943065E+03  0.50049943065E+03  0.25500000920E-02 0. -1.
        2   -1    0    0  501    0  0.00000000000E+00  0.00000000000E+00 -0.24249553741E+04  0.24249553741E+04  0.25500000920E-02 0.  1.
    10030    2    1    2    0    0  0.00000000000E+00  0.00000000000E+00 -0.19244559434E+04  0.29254548047E+04  0.22033508881E+04 0.  0.
        2    1    3    3  502    0  0.22056213085E+03 -0.35331620126E+03 -0.23163879939E+04  0.23535363456E+04  0.25500000920E-02 0.  1.
       -2    1    3    3    0  502 -0.22056213085E+03  0.35331620126E+03  0.39193205052E+03  0.57191845911E+03  0.25500000920E-02 0. -1.
</event>
<event>
 5   0  0.2139556E-05  0.2303865E+04  0.7818609E-02  0.8476399E-01
        1   -1    0    0  501    0  0.00000000000E+00  0.00000000000E+00  0.15972522791E+04  0.15972522792E+04  0.50400001928E-02 0.  1.
       -1   -1    0    0    0  501  0.00000000000E+00  0.00000000000E+00 -0.83076922457E+03  0.83076922458E+03  0.50400001928E-02 0. -1.
    10030    2    1    2    0    0  0.00000000000E+00  0.00000000000E+00  0.76648305458E+03  0.24280215037E+04  0.23038646118E+04 0.  0.
        2    1    3    3  502    0 -0.99857298161E+03  0.17280022861E+03 -0.19394057331E+03  0.10318046640E+04  0.25500000920E-02 0. -1.
       -2    1    3    3    0  502  0.99857298161E+03 -0.17280022861E+03  0.96042362789E+03  0.13962168398E+04  0.25500000920E-02 0.  1.
</event>
<event>
 5   0  0.2090039E-05  0.2332682E+04  0.7818609E-02  0.8465145E-01
        1   -1    0    0  501    0  0.00000000000E+00  0.00000000000E+00  0.10223548835E+04  0.10223548836E+04  0.50400001928E-02 0. -1.
       -1   -1    0    0    0  501  0.00000000000E+00  0.00000000000E+00 -0.13306060418E+04  0.13306060418E+04  0.50400001928E-02 0.  1.
    10030    2    1    2    0    0  0.00000000000E+00  0.00000000000E+00 -0.30825115829E+03  0.23529609254E+04  0.23326822201E+04 0.  0.
        1    1    3    3  502    0 -0.82295158445E+03 -0.50102193387E+03  0.50891615379E+03  0.10896182543E+04  0.50400001928E-02 0. -1.
       -1    1    3    3    0  502  0.82295158445E+03  0.50102193387E+03 -0.81716731208E+03  0.12633426711E+04  0.50400001928E-02 0.  1.
</event>
<event>
 5   0  0.4914005E-05  0.2318536E+04  0.7818609E-02  0.8470648E-01
        2   -1    0    0  501    0  0.00000000000E+00  0.00000000000E+00  0.12054558150E+04  0.12054558150E+04  0.25500000920E-02 0.  1.
       -2   -1    0    0    0  501  0.00000000000E+00  0.00000000000E+00 -0.11148499413E+04  0.11148499413E+04  0.25500000920E-02 0. -1.
    10030    2    1    2    0    0  0.00000000000E+00  0.00000000000E+00  0.90605873699E+02  0.23203057564E+04  0.23185360421E+04 0.  0.
        2    1    3    3  502    0 -0.36552305136E+03 -0.87649225798E+03  0.71068377299E+03  0.11861354074E+04  0.25500000920E-02 0.  1.
       -2    1    3    3    0  502  0.36552305136E+03  0.87649225798E+03 -0.62007789929E+03  0.11341703490E+04  0.25500000920E-02 0. -1.
</event>
<event>
 5   0  0.4664127E-05  0.1720659E+04  0.7818609E-02  0.8749669E-01
       -2   -1    0    0    0  501  0.00000000000E+00  0.00000000000E+00  0.78712270735E+03  0.78712270735E+03  0.25500000920E-02 0. -1.
        2   -1    0    0  501    0  0.00000000000E+00  0.00000000000E+00 -0.94034519016E+03  0.94034519016E+03  0.25500000920E-02 0.  1.
    10030    2    1    2    0    0  0.00000000000E+00  0.00000000000E+00 -0.15322248281E+03  0.17274678975E+04  0.17206592364E+04 0.  0.
        4    1    3    3  502    0 -0.77309503447E+02  0.85154174355E+03 -0.17220006843E+03  0.87221246082E+03  0.12699999809E+01 0.  1.
       -4    1    3    3    0  502  0.77309503447E+02 -0.85154174355E+03  0.18977585621E+02  0.85525543669E+03  0.12699999809E+01 0. -1.
</event>
<event>
 5   0  0.2139556E-05  0.2379003E+04  0.7818609E-02  0.8447407E-01
        1   -1    0    0  501    0  0.00000000000E+00  0.00000000000E+00  0.15997792577E+04  0.15997792577E+04  0.50400001928E-02 0.  1.
       -1   -1    0    0    0  501  0.00000000000E+00  0.00000000000E+00 -0.88444296936E+03  0.88444296938E+03  0.50400001928E-02 0. -1.
    10030    2    1    2    0    0  0.00000000000E+00  0.00000000000E+00  0.71533628830E+03  0.24842222271E+04  0.23790027465E+04 0.  0.
        2    1    3    3  502    0  0.10913393905E+04  0.39068195839E+03  0.63641935378E+03  0.13223780291E+04  0.25500000920E-02 0.  1.
       -2    1    3    3    0  502 -0.10913393905E+04 -0.39068195839E+03  0.78916934524E+02  0.11618441980E+04  0.25500000920E-02 0. -1.
</event>
<event>
 5   0  0.2090039E-05  0.2409009E+04  0.7818609E-02  0.8436138E-01
       -1   -1    0    0    0  501  0.00000000000E+00  0.00000000000E+00  0.89387929129E+03  0.89387929131E+03  0.50400001928E-02 0.  1.
        1   -1    0    0  501    0  0.00000000000E+00  0.00000000000E+00 -0.16230731004E+04  0.16230731004E+04  0.50400001928E-02 0. -1.
    10030    2    1    2    0    0  0.00000000000E+00  0.00000000000E+00 -0.72919380911E+03  0.25169523917E+04  0.24090092841E+04 0.  0.
        1    1    3    3  502    0  0.96331472318E+03 -0.29447402813E+03  0.32540469260E+03  0.10585737684E+04  0.50400001928E-02 0.  1.
       -1    1    3    3    0  502 -0.96331472318E+03  0.29447402813E+03 -0.10545985017E+04  0.14583786233E+04  0.50400001928E-02 0. -1.
</event>
<event>
 5   0  0.2057599E-05  0.2415653E+04  0.7818609E-02  0.8433666E-01
       -1   -1    0    0    0  501  0.00000000000E+00  0.00000000000E+00  0.98921946527E+03  0.98921946528E+03  0.50400001928E-02 0. -1.
        1   -1    0    0  501    0  0.00000000000E+00  0.00000000000E+00 -0.14747438256E+04  0.14747438256E+04  0.50400001928E-02 0.  1.
    10030    2    1    2    0    0  0.00000000000E+00  0.00000000000E+00 -0.48552436035E+03  0.24639632909E+04  0.24156533680E+04 0.  0.
        4    1    3    3  502    0  0.14209937924E+03 -0.73984876099E+03 -0.12057161857E+04  0.14217318862E+04  0.12699999809E+01 0.  1.
       -4    1    3    3    0  502 -0.14209937924E+03  0.73984876099E+03  0.72019182539E+03  0.10422314047E+04  0.12699999809E+01 0. -1.
</event>
<event>
 5   0  0.4664127E-05  0.2391162E+04  0.7818609E-02  0.8442820E-01
       -2   -1    0    0    0  501  0.00000000000E+00  0.00000000000E+00  0.11279540231E+04  0.11279540231E+04  0.25500000920E-02 0.  1.
        2   -1    0    0  501    0  0.00000000000E+00  0.00000000000E+00 -0.12672629046E+04  0.12672629046E+04  0.25500000920E-02 0. -1.
    10030    2    1    2    0    0  0.00000000000E+00  0.00000000000E+00 -0.13930888151E+03  0.23952169277E+04  0.23911623045E+04 0.  0.
        4    1    3    3  502    0 -0.11297613088E+02  0.31820270010E+03 -0.12240112800E+04  0.12647473348E+04  0.12699999809E+01 0. -1.
       -4    1    3    3    0  502  0.11297613088E+02 -0.31820270010E+03  0.10847023985E+04  0.11304695929E+04  0.12699999809E+01 0.  1.
</event>
<event>
 5   0  0.2065692E-05  0.2430253E+04  0.7818609E-02  0.8428263E-01
        1   -1    0    0  501    0  0.00000000000E+00  0.00000000000E+00  0.10858102425E+04  0.10858102425E+04  0.50400001928E-02 0.  1.
       -1   -1    0    0    0  501  0.00000000000E+00  0.00000000000E+00 -0.13598437272E+04  0.13598437272E+04  0.50400001928E-02 0. -1.
    10030    2    1    2    0    0  0.00000000000E+00  0.00000000000E+00 -0.27403348475E+03  0.24456539697E+04  0.24302528652E+04 0.  0.
        3    1    3    3  502    0  0.14603898072E+03  0.11697744420E+04  0.15952440823E+03  0.11895997966E+04  0.10100000352E+00 0.  1.
       -3    1    3    3    0  502 -0.14603898072E+03 -0.11697744420E+04 -0.43355789298E+03  0.12560541731E+04  0.10100000352E+00 0. -1.
</event>
<event>
 5   0  0.2090039E-05  0.2408036E+04  0.7818609E-02  0.8436501E-01
       -1   -1    0    0    0  501  0.00000000000E+00  0.00000000000E+00  0.67431561755E+03  0.67431561757E+03  0.50400001928E-02 0. -1.
        1   -1    0    0  501    0  0.00000000000E+00  0.00000000000E+00 -0.21498236522E+04  0.21498236522E+04  0.50400001928E-02 0.  1.
    10030    2    1    2    0    0  0.00000000000E+00  0.00000000000E+00 -0.14755080347E+04  0.28241392698E+04  0.24080362653E+04 0.  0.
        1    1    3    3  502    0  0.71205594826E+03 -0.69334251086E+03  0.59327577162E+02  0.99562406171E+03  0.50400001928E-02 0. -1.
       -1    1    3    3    0  502 -0.71205594826E+03  0.69334251086E+03 -0.15348356119E+04  0.18285152081E+04  0.50400001928E-02 0.  1.
</event>
<event>
 5   0  0.2090039E-05  0.2385691E+04  0.7818609E-02  0.8444880E-01
        1   -1    0    0  501    0  0.00000000000E+00  0.00000000000E+00  0.20077099895E+04  0.20077099895E+04  0.50400001928E-02 0. -1.
       -1   -1    0    0    0  501  0.00000000000E+00  0.00000000000E+00 -0.70870816475E+03  0.70870816477E+03  0.50400001928E-02 0.  1.
    10030    2    1    2    0    0  0.00000000000E+00  0.00000000000E+00  0.12990018247E+04  0.27164181542E+04  0.23856910630E+04 0.  0.
        1    1    3    3  502    0  0.13750613552E+03 -0.42593457932E+03  0.19084731021E+04  0.19602545204E+04  0.50400001928E-02 0. -1.
       -1    1    3    3    0  502 -0.13750613552E+03  0.42593457932E+03 -0.60947127740E+03  0.75616363385E+03  0.50400001928E-02 0.  1.
</event>
<event>
 5   0  0.4664127E-05  0.2400552E+04  0.7818609E-02  0.8439297E-01
        2   -1    0    0  501    0  0.00000000000E+00  0.00000000000E+00  0.18453544074E+04  0.18453544074E+04  0.25500000920E-02 0. -1.
       -2   -1    0    0    0  501  0.00000000000E+00  0.00000000000E+00 -0.78069705370E+03  0.78069705370E+03  0.25500000920E-02 0.  1.
    10030    2    1    2    0    0  0.00000000000E+00  0.00000000000E+00  0.10646573537E+04  0.26260514611E+04  0.24005522272E+04 0.  0.
        4    1    3    3  502    0  0.19548163467E+03 -0.43298022197E+02  0.18269566965E+04  0.18378955824E+04  0.12699999809E+01 0. -1.
       -4    1    3    3    0  502 -0.19548163467E+03  0.43298022197E+02 -0.76229934276E+03  0.78815587868E+03  0.12699999809E+01 0.  1.
</event>
<event>
 5   0  0.4756705E-05  0.2390641E+04  0.7818609E-02  0.8443016E-01
       -2   -1    0    0    0  501  0.00000000000E+00  0.00000000000E+00  0.17303739587E+04  0.17303739587E+04  0.25500000920E-02 0.  1.
        2   -1    0    0  501    0  0.00000000000E+00  0.00000000000E+00 -0.82571250837E+03  0.82571250837E+03  0.25500000920E-02 0. -1.
    10030    2    1    2    0    0  0.00000000000E+00  0.00000000000E+00  0.90466145035E+03  0.25560864671E+04  0.23906412712E+04 0.  0.
        3    1    3    3  502    0 -0.24155920413E+03  0.73923575994E+03 -0.51821746895E+03  0.93454251546E+03  0.10100000352E+00 0. -1.
       -3    1    3    3    0  502  0.24155920413E+03 -0.73923575994E+03  0.14228789193E+04  0.16215439516E+04  0.10100000352E+00 0.  1.
</event>
<event>
 5   0  0.4713971E-05  0.2393594E+04  0.7818609E-02  0.8441906E-01
       -2   -1    0    0    0  501  0.00000000000E+00  0.00000000000E+00  0.12678790532E+04  0.12678790532E+04  0.25500000920E-02 0. -1.
        2   -1    0    0  501    0  0.00000000000E+00  0.00000000000E+00 -0.11297002468E+04  0.11297002469E+04  0.25500000920E-02 0.  1.
    10030    2    1    2    0    0  0.00000000000E+00  0.00000000000E+00  0.13817880632E+03  0.23975793000E+04  0.23935941839E+04 0.  0.
        5    1    3    3  502    0 -0.99383510335E+02  0.38055459991E+03 -0.10631031723E+04  0.11335384116E+04  0.46999998093E+01 0.  1.
       -5    1    3    3    0  502  0.99383510335E+02 -0.38055459991E+03  0.12012819786E+04  0.12640408885E+04  0.46999998093E+01 0. -1.
</event>
<event>
 5   0  0.4756705E-05  0.2505087E+04  0.7818609E-02  0.8401176E-01
       -2   -1    0    0    0  501  0.00000000000E+00  0.00000000000E+00  0.59622605343E+03  0.59622605344E+03  0.25500000920E-02 0.  1.
        2   -1    0    0  501    0  0.00000000000E+00  0.00000000000E+00 -0.26313260989E+04  0.26313260989E+04  0.25500000920E-02 0. -1.
    10030    2    1    2    0    0  0.00000000000E+00  0.00000000000E+00 -0.20351000455E+04  0.32275521523E+04  0.25050869648E+04 0.  0.
        3    1    3    3  502    0  0.25037803909E+03 -0.17429187816E+03 -0.25827288728E+04  0.26006836143E+04  0.10100000352E+00 0. -1.
       -3    1    3    3    0  502 -0.25037803909E+03  0.17429187816E+03  0.54762882732E+03  0.62686853802E+03  0.10100000352E+00 0.  1.
</event>
<event>
 5   0  0.2149920E-05  0.2370471E+04  0.7818609E-02  0.8450642E-01
       -1   -1    0    0    0  501  0.00000000000E+00  0.00000000000E+00  0.13669096536E+04  0.13669096536E+04  0.50400001928E-02 0.  1.
        1   -1    0    0  501    0  0.00000000000E+00  0.00000000000E+00 -0.10277078077E+04  0.10277078077E+04  0.50400001928E-02 0. -1.
    10030    2    1    2    0    0  0.00000000000E+00  0.00000000000E+00  0.33920184591E+03  0.23946174613E+04  0.23704714497E+04 0.  0.
        5    1    3    3  502    0 -0.43473227180E+03 -0.48881067450E+03  0.11680173387E+04  0.13387362015E+04  0.46999998093E+01 0.  1.
       -5    1    3    3    0  502  0.43473227180E+03  0.48881067450E+03 -0.82881549283E+03  0.10558812598E+04  0.46999998093E+01 0. -1.
</event>
<event>
 5   0  0.4713971E-05  0.2378848E+04  0.7818609E-02  0.8447465E-01
        2   -1    0    0  501    0  0.00000000000E+00  0.00000000000E+00  0.12963858382E+04  0.12963858382E+04  0.25500000920E-02 0. -1.
       -2   -1    0    0    0  501  0.00000000000E+00  0.00000000000E+00 -0.10912876865E+04  0.10912876865E+04  0.25500000920E-02 0.  1.
    10030    2    1    2    0    0  0.00000000000E+00  0.00000000000E+00  0.20509815178E+03  0.23876735247E+04  0.23788483787E+04 0.  0.
        5    1    3    3  502    0  0.89131495789E+03 -0.39722795120E+03 -0.58002926909E+03  0.11352041413E+04  0.46999998093E+01 0.  1.
       -5    1    3    3    0  502 -0.89131495789E+03  0.39722795120E+03  0.78512742088E+03  0.12524693834E+04  0.46999998093E+01 0. -1.
</event>
<event>
 5   0  0.4914005E-05  0.2362497E+04  0.7818609E-02  0.8453679E-01
        2   -1    0    0  501    0  0.00000000000E+00  0.00000000000E+00  0.16163437120E+04  0.16163437120E+04  0.25500000920E-02 0. -1.
       -2   -1    0    0    0  501  0.00000000000E+00  0.00000000000E+00 -0.86327410477E+03  0.86327410477E+03  0.25500000920E-02 0.  1.
    10030    2    1    2    0    0  0.00000000000E+00  0.00000000000E+00  0.75306960727E+03  0.24796178168E+04  0.23624967056E+04 0.  0.
        2    1    3    3  502    0  0.57910415878E+03  0.20668339223E+03 -0.68206359441E+03  0.91830844392E+03  0.25500000920E-02 0.  1.
       -2    1    3    3    0  502 -0.57910415878E+03 -0.20668339223E+03  0.14351332017E+04  0.15613093729E+04  0.25500000920E-02 0. -1.
</event>
<event>
 5   0  0.4713971E-05  0.2285279E+04  0.7818609E-02  0.8483748E-01
        2   -1    0    0  501    0  0.00000000000E+00  0.00000000000E+00  0.17120947740E+04  0.17120947740E+04  0.25500000920E-02 0. -1.
       -2   -1    0    0    0  501  0.00000000000E+00  0.00000000000E+00 -0.76258906721E+03  0.76258906721E+03  0.25500000920E-02 0.  1.
    10030    2    1    2    0    0  0.00000000000E+00  0.00000000000E+00  0.94950570676E+03  0.24746838412E+04  0.22852787634E+04 0.  0.
        5    1    3    3  502    0 -0.96762011222E+02 -0.53749069989E+03  0.15616021754E+04  0.16543526177E+04  0.46999998093E+01 0. -1.
       -5    1    3    3    0  502  0.96762011222E+02  0.53749069989E+03 -0.61209646868E+03  0.82033122350E+03  0.46999998093E+01 0.  1.
</event>
<event>
 5   0  0.2090039E-05  0.1780138E+04  0.7818609E-02  0.8716934E-01
       -1   -1    0    0    0  501  0.00000000000E+00  0.00000000000E+00  0.78402684023E+03  0.78402684025E+03  0.50400001928E-02 0. -1.
        1   -1    0    0  501    0  0.00000000000E+00  0.00000000000E+00 -0.10104536808E+04  0.10104536808E+04  0.50400001928E-02 0.  1.
    10030    2    1    2    0    0  0.00000000000E+00  0.00000000000E+00 -0.22642684060E+03  0.17944805211E+04  0.17801379796E+04 0.  0.
        1    1    3    3  502    0 -0.52553988528E+03  0.13603686604E+02 -0.83722404140E+03  0.98859563363E+03  0.50400001928E-02 0.  1.
       -1    1    3    3    0  502  0.52553988528E+03 -0.13603686604E+02  0.61079720080E+03  0.80588488746E+03  0.50400001928E-02 0. -1.
</event>
<event>
 5   0  0.4914005E-05  0.2338579E+04  0.7818609E-02  0.8462864E-01
        2   -1    0    0  501    0  0.00000000000E+00  0.00000000000E+00  0.20158302324E+04  0.20158302324E+04  0.25500000920E-02 0.  1.
       -2   -1    0    0    0  501  0.00000000000E+00  0.00000000000E+00 -0.67825037227E+03  0.67825037228E+03  0.25500000920E-02 0. -1.
    10030    2    1    2    0    0  0.00000000000E+00  0.00000000000E+00  0.13375798601E+04  0.26940806047E+04  0.23385787184E+04 0.  0.
        2    1    3    3  502    0 -0.28073205669E+03 -0.11338760836E+04  0.60835413584E+03  0.13170346295E+04  0.25500000920E-02 0.  1.
       -2    1    3    3    0  502  0.28073205669E+03  0.11338760836E+04  0.72922572426E+03  0.13770459751E+04  0.25500000920E-02 0. -1.
</event>
<event>
 5   0  0.2149920E-05  0.2346858E+04  0.7818609E-02  0.8459672E-01
        1   -1    0    0  501    0  0.00000000000E+00  0.00000000000E+00  0.14415933779E+04  0.14415933780E+04  0.50400001928E-02 0. -1.
       -1   -1    0    0    0  501  0.00000000000E+00  0.00000000000E+00 -0.95514808598E+03  0.95514808599E+03  0.50400001928E-02 0.  1.
    10030    2    1    2    0    0  0.00000000000E+00  0.00000000000E+00  0.48644529197E+03  0.23967414639E+04  0.23468576060E+04 0.  0.
        5    1    3    3  502    0 -0.22380663964E+03  0.84320448263E+03 -0.55820592102E+03  0.10357119058E+04  0.46999998093E+01 0.  1.
       -5    1    3    3    0  502  0.22380663964E+03 -0.84320448263E+03  0.10446512130E+04  0.13610295582E+04  0.46999998093E+01 0. -1.
</event>
<event>
 5   0  0.2065692E-05  0.2346914E+04  0.7818609E-02  0.8459650E-01
       -1   -1    0    0    0  501  0.00000000000E+00  0.00000000000E+00  0.11392881855E+04  0.11392881856E+04  0.50400001928E-02 0. -1.
        1   -1    0    0  501    0  0.00000000000E+00  0.00000000000E+00 -0.12086504715E+04  0.12086504715E+04  0.50400001928E-02 0.  1.
    10030    2    1    2    0    0  0.00000000000E+00  0.00000000000E+00 -0.69362285918E+02  0.23479386570E+04  0.23469138907E+04 0.  0.
        3    1    3    3  502    0 -0.32898760697E+03 -0.52291178855E+03  0.96341755435E+03  0.11444837170E+04  0.10100000352E+00 0. -1.
       -3    1    3    3    0  502  0.32898760697E+03  0.52291178855E+03 -0.10327798403E+04  0.12034549401E+04  0.10100000352E+00 0.  1.
</event>
<event>
 5   0  0.4664127E-05  0.2384166E+04  0.7818609E-02  0.8445456E-01
        2   -1    0    0  501    0  0.00000000000E+00  0.00000000000E+00  0.20038856623E+04  0.20038856623E+04  0.25500000920E-02 0.  1.
       -2   -1    0    0    0  501  0.00000000000E+00  0.00000000000E+00 -0.70915296512E+03  0.70915296513E+03  0.25500000920E-02 0. -1.
    10030    2    1    2    0    0  0.00000000000E+00  0.00000000000E+00  0.12947326972E+04  0.27130386274E+04  0.23841656479E+04 0.  0.
        4    1    3    3  502    0  0.63275171961E+03 -0.51140422469E+03  0.16388454982E+04  0.18296789881E+04  0.12699999809E+01 0.  1.
       -4    1    3    3    0  502 -0.63275171961E+03  0.51140422469E+03 -0.34411280099E+03  0.88335963933E+03  0.12699999809E+01 0. -1.
</event>
<event>
 5   0  0.2065692E-05  0.2401261E+04  0.7818609E-02  0.8439031E-01
       -1   -1    0    0    0  501  0.00000000000E+00  0.00000000000E+00  0.26781239987E+04  0.26781239987E+04  0.50400001928E-02 0. -1.
        1   -1    0    0  501    0  0.00000000000E+00  0.00000000000E+00 -0.53825513247E+03  0.53825513250E+03  0.50400001928E-02 0.  1.
    10030    2    1    2    0    0  0.00000000000E+00  0.00000000000E+00  0.21398688662E+04  0.32163791312E+04  0.24012613250E+04 0.  0.
        3    1    3    3  502    0  0.92260623628E+03  0.47852765692E+02  0.20970623460E+04  0.22915415440E+04  0.10100000352E+00 0. -1.
       -3    1    3    3    0  502 -0.92260623628E+03 -0.47852765692E+02  0.42806520217E+02  0.92483758725E+03  0.10100000352E+00 0.  1.
</event>
<event>
 5   0  0.2057599E-05  0.1873914E+04  0.7818609E-02  0.8667951E-01
        1   -1    0    0  501    0  0.00000000000E+00  0.00000000000E+00  0.11180144045E+04  0.11180144045E+04  0.50400001928E-02 0.  1.
       -1   -1    0    0    0  501  0.00000000000E+00  0.00000000000E+00 -0.78522063229E+03  0.78522063230E+03  0.50400001928E-02 0. -1.
    10030    2    1    2    0    0  0.00000000000E+00  0.00000000000E+00  0.33279377225E+03  0.19032350369E+04  0.18739135281E+04 0.  0.
        4    1    3    3  502    0 -0.34986728948E+03 -0.10629539396E+03 -0.70976030620E+03  0.79841539075E+03  0.12699999809E+01 0. -1.
       -4    1    3    3    0  502  0.34986728948E+03  0.10629539396E+03  0.10425540784E+04  0.11048196461E+04  0.12699999809E+01 0.  1.
</event>
<event>
 5   0  0.2065692E-05  0.2402906E+04  0.7818609E-02  0.8438416E-01
        1   -1    0    0  501    0  0.00000000000E+00  0.00000000000E+00  0.15603993663E+04  0.15603993663E+04  0.50400001928E-02 0. -1.
       -1   -1    0    0    0  501  0.00000000000E+00  0.00000000000E+00 -0.92507689731E+03  0.92507689733E+03  0.50400001928E-02 0.  1.
    10030    2    1    2    0    0  0.00000000000E+00  0.00000000000E+00  0.63532246896E+03  0.24854762636E+04  0.24029060775E+04 0.  0.
        3    1    3    3  502    0 -0.63055108631E+03 -0.10113580240E+04  0.16062308441E+03  0.12025969859E+04  0.10100000352E+00 0. -1.
       -3    1    3    3    0  502  0.63055108631E+03  0.10113580240E+04  0.47469938455E+03  0.12828792777E+04  0.10100000352E+00 0.  1.
</event>
<event>
 5   0  0.4713971E-05  0.2417351E+04  0.7818609E-02  0.8433036E-01
       -2   -1    0    0    0  501  0.00000000000E+00  0.00000000000E+00  0.12258975121E+04  0.12258975121E+04  0.25500000920E-02 0.  1.
        2   -1    0    0  501    0  0.00000000000E+00  0.00000000000E+00 -0.11916957681E+04  0.11916957681E+04  0.25500000920E-02 0. -1.
    10030    2    1    2    0    0  0.00000000000E+00  0.00000000000E+00  0.34201743983E+02  0.24175932802E+04  0.24173513417E+04 0.  0.
        5    1    3    3  502    0 -0.39560269469E+03  0.11416651035E+04 -0.14112611918E+02  0.12083550623E+04  0.46999998093E+01 0. -1.
       -5    1    3    3    0  502  0.39560269469E+03 -0.11416651035E+04  0.48314355900E+02  0.12092382179E+04  0.46999998093E+01 0.  1.
</event>
<event>
 5   0  0.2057599E-05  0.2461483E+04  0.7818609E-02  0.8416837E-01
       -1   -1    0    0    0  501  0.00000000000E+00  0.00000000000E+00  0.11695131621E+04  0.11695131622E+04  0.50400001928E-02 0.  1.
        1   -1    0    0  501    0  0.00000000000E+00  0.00000000000E+00 -0.12951751511E+04  0.12951751511E+04  0.50400001928E-02 0. -1.
    10030    2    1    2    0    0  0.00000000000E+00  0.00000000000E+00 -0.12566198893E+03  0.24646883132E+04  0.24614827942E+04 0.  0.
        4    1    3    3  502    0  0.30588423213E+03  0.87080835430E+03  0.75238552087E+03  0.11907803905E+04  0.12699999809E+01 0.  1.
       -4    1    3    3    0  502 -0.30588423213E+03 -0.87080835430E+03 -0.87804750980E+03  0.12739079228E+04  0.12699999809E+01 0. -1.
</event>
<event>
 5   0  0.2149920E-05  0.2386478E+04  0.7818609E-02  0.8444583E-01
        1   -1    0    0  501    0  0.00000000000E+00  0.00000000000E+00  0.13821313696E+04  0.13821313696E+04  0.50400001928E-02 0.  1.
       -1   -1    0    0    0  501  0.00000000000E+00  0.00000000000E+00 -0.10301618636E+04  0.10301618636E+04  0.50400001928E-02 0. -1.
    10030    2    1    2    0    0  0.00000000000E+00  0.00000000000E+00  0.35196950603E+03  0.24122932332E+04  0.23864777623E+04 0.  0.
        5    1    3    3  502    0 -0.49802628511E+03 -0.72372614823E+03 -0.64020708581E+03  0.10870588397E+04  0.46999998093E+01 0. -1.
       -5    1    3    3    0  502  0.49802628511E+03  0.72372614823E+03  0.99217659183E+03  0.13252343935E+04  0.46999998093E+01 0.  1.
</event>
<event>
 5   0  0.4713971E-05  0.2355479E+04  0.7818609E-02  0.8456362E-01
        2   -1    0    0  501    0  0.00000000000E+00  0.00000000000E+00  0.11157149208E+04  0.11157149208E+04  0.25500000920E-02 0. -1.
       -2   -1    0    0    0  501  0.00000000000E+00  0.00000000000E+00 -0.12432116200E+04  0.12432116200E+04  0.25500000920E-02 0.  1.
    10030    2    1    2    0    0  0.00000000000E+00  0.00000000000E+00 -0.12749669919E+03  0.23589265407E+04  0.23554785111E+04 0.  0.
        5    1    3    3  502    0 -0.27404569035E+03 -0.10559860013E+04 -0.50806455832E+03  0.12034779436E+04  0.46999998093E+01 0. -1.
       -5    1    3    3    0  502  0.27404569035E+03  0.10559860013E+04  0.38056785913E+03  0.11554485971E+04  0.46999998093E+01 0.  1.
</event>
<event>
 5   0  0.2149920E-05  0.2398251E+04  0.7818609E-02  0.8440158E-01
        1   -1    0    0  501    0  0.00000000000E+00  0.00000000000E+00  0.17246022213E+04  0.17246022213E+04  0.50400001928E-02 0. -1.
       -1   -1    0    0    0  501  0.00000000000E+00  0.00000000000E+00 -0.83375895527E+03  0.83375895528E+03  0.50400001928E-02 0.  1.
    10030    2    1    2    0    0  0.00000000000E+00  0.00000000000E+00  0.89084326605E+03  0.25583611766E+04  0.23982514850E+04 0.  0.
        5    1    3    3  502    0 -0.10260658856E+04 -0.61669997655E+03  0.51894610804E+03  0.13047824400E+04  0.46999998093E+01 0.  1.
       -5    1    3    3    0  502  0.10260658856E+04  0.61669997655E+03  0.37189715801E+03  0.12535787366E+04  0.46999998093E+01 0. -1.
</event>
<event>
 5   0  0.4664127E-05  0.2432047E+04  0.7818609E-02  0.8427602E-01
       -2   -1    0    0    0  501  0.00000000000E+00  0.00000000000E+00  0.14893223810E+04  0.14893223810E+04  0.25500000920E-02 0. -1.
        2   -1    0    0  501    0  0.00000000000E+00  0.00000000000E+00 -0.99287659845E+03  0.99287659845E+03  0.25500000920E-02 0.  1.
    10030    2    1    2    0    0  0.00000000000E+00  0.00000000000E+00  0.49644578251E+03  0.24821989794E+04  0.24320471538E+04 0.  0.
        4    1    3    3  502    0  0.64041396623E+03 -0.54490756568E+03 -0.64833197256E+03  0.10617863546E+04  0.12699999809E+01 0.  1.
       -4    1    3    3    0  502 -0.64041396623E+03  0.54490756568E+03  0.11447777551E+04  0.14204126248E+04  0.12699999809E+01 0. -1.
</event>
<event>
 5   0  0.2057599E-05  0.2409261E+04  0.7818609E-02  0.8436045E-01
        1   -1    0    0  501    0  0.00000000000E+00  0.00000000000E+00  0.92092448603E+03  0.92092448605E+03  0.50400001928E-02 0. -1.
       -1   -1    0    0    0  501  0.00000000000E+00  0.00000000000E+00 -0.15757365725E+04  0.15757365726E+04  0.50400001928E-02 0.  1.
    10030    2    1    2    0    0  0.00000000000E+00  0.00000000000E+00 -0.65481208651E+03  0.24966610586E+04  0.24092607939E+04 0.  0.
        4    1    3    3  502    0  0.50734027038E+03  0.29148249521E+02 -0.14592219488E+04  0.15451776853E+04  0.12699999809E+01 0.  1.
       -4    1    3    3    0  502 -0.50734027038E+03 -0.29148249521E+02  0.80440986224E+03  0.95148337335E+03  0.12699999809E+01 0. -1.
</event>
<event>
 5   0  0.2139556E-05  0.2247928E+04  0.7818609E-02  0.8498740E-01
        1   -1    0    0  501    0  0.00000000000E+00  0.00000000000E+00  0.16028947186E+04  0.16028947186E+04  0.50400001928E-02 0. -1.
       -1   -1    0    0    0  501  0.00000000000E+00  0.00000000000E+00 -0.78813327452E+03  0.78813327453E+03  0.50400001928E-02 0.  1.
    10030    2    1    2    0    0  0.00000000000E+00  0.00000000000E+00  0.81476144405E+03  0.23910279931E+04  0.22479276352E+04 0.  0.
        2    1    3    3  502    0  0.24971244056E+03  0.87523094750E+03  0.11088386146E+04  0.14345412464E+04  0.25500000920E-02 0. -1.
       -2    1    3    3    0  502 -0.24971244056E+03 -0.87523094750E+03 -0.29407717051E+03  0.95648674672E+03  0.25500000920E-02 0.  1.
</event>
<event>
 5   0  0.2065692E-05  0.2377814E+04  0.7818609E-02  0.8447857E-01
        1   -1    0    0  501    0  0.00000000000E+00  0.00000000000E+00  0.13422185666E+04  0.13422185666E+04  0.50400001928E-02 0.  1.
       -1   -1    0    0    0  501  0.00000000000E+00  0.00000000000E+00 -0.10531069145E+04  0.10531069146E+04  0.50400001928E-02 0. -1.
    10030    2    1    2    0    0  0.00000000000E+00  0.00000000000E+00  0.28911165202E+03  0.23953254811E+04  0.23778138306E+04 0.  0.
        3    1    3    3  502    0  0.57324146580E+03  0.23294938082E+02  0.11935466036E+04  0.13242741172E+04  0.10100000352E+00 0.  1.
       -3    1    3    3    0  502 -0.57324146580E+03 -0.23294938082E+02 -0.90443495162E+03  0.10710513639E+04  0.10100000352E+00 0. -1.
</event>
<event>
 5   0  0.4756705E-05  0.2421183E+04  0.7818609E-02  0.8431615E-01
       -2   -1    0    0    0  501  0.00000000000E+00  0.00000000000E+00  0.10021000304E+04  0.10021000304E+04  0.25500000920E-02 0.  1.
        2   -1    0    0  501    0  0.00000000000E+00  0.00000000000E+00 -0.14624603632E+04  0.14624603632E+04  0.25500000920E-02 0. -1.
    10030    2    1    2    0    0  0.00000000000E+00  0.00000000000E+00 -0.46036033273E+03  0.24645603936E+04  0.24211828303E+04 0.  0.
        3    1    3    3  502    0  0.21120876344E+03  0.84883991994E+03  0.62170850689E+03  0.10731541498E+04  0.10100000352E+00 0.  1.
       -3    1    3    3    0  502 -0.21120876344E+03 -0.84883991994E+03 -0.10820688396E+04  0.13914062438E+04  0.10100000352E+00 0. -1.
</event>
<event>
 5   0  0.2139556E-05  0.2461854E+04  0.7818609E-02  0.8416703E-01
       -1   -1    0    0    0  501  0.00000000000E+00  0.00000000000E+00  0.68159134346E+03  0.68159134348E+03  0.50400001928E-02 0. -1.
        1   -1    0    0  501    0  0.00000000000E+00  0.00000000000E+00 -0.22230060158E+04  0.22230060158E+04  0.50400001928E-02 0.  1.
    10030    2    1    2    0    0  0.00000000000E+00  0.00000000000E+00 -0.15414146724E+04  0.29045973593E+04  0.24618543067E+04 0.  0.
        2    1    3    3  502    0 -0.76545570064E+03  0.40036093456E+03  0.26390675146E+03  0.90324862636E+03  0.25500000920E-02 0. -1.
       -2    1    3    3    0  502  0.76545570064E+03 -0.40036093456E+03 -0.18053214238E+04  0.20013487329E+04  0.25500000920E-02 0.  1.
</event>
<event>
 5   0  0.2139556E-05  0.2388624E+04  0.7818609E-02  0.8443775E-01
       -1   -1    0    0    0  501  0.00000000000E+00  0.00000000000E+00  0.60789636426E+03  0.60789636428E+03  0.50400001928E-02 0.  1.
        1   -1    0    0  501    0  0.00000000000E+00  0.00000000000E+00 -0.23464225346E+04  0.23464225346E+04  0.50400001928E-02 0. -1.
    10030    2    1    2    0    0  0.00000000000E+00  0.00000000000E+00 -0.17385261704E+04  0.29543188989E+04  0.23886244810E+04 0.  0.
        2    1    3    3  502    0 -0.57858833199E+03 -0.18060919896E+03  0.40352757247E+03  0.72816113767E+03  0.25500000920E-02 0.  1.
       -2    1    3    3    0  502  0.57858833199E+03  0.18060919896E+03 -0.21420537429E+04  0.22261577612E+04  0.25500000920E-02 0. -1.
</event>
<event>
 5   0  0.4713971E-05  0.2399536E+04  0.7818609E-02  0.8439677E-01
       -2   -1    0    0    0  501  0.00000000000E+00  0.00000000000E+00  0.10587926714E+04  0.10587926714E+04  0.25500000920E-02 0.  1.
        2   -1    0    0  501    0  0.00000000000E+00  0.00000000000E+00 -0.13595136993E+04  0.13595136993E+04  0.25500000920E-02 0. -1.
    10030    2    1    2    0    0  0.00000000000E+00  0.00000000000E+00 -0.30072102792E+03  0.24183063707E+04  0.23995359064E+04 0.  0.
        5    1    3    3  502    0  0.42356602978E+03 -0.86654643760E+03  0.56874056608E+03  0.11197315891E+04  0.46999998093E+01 0.  1.
       -5    1    3    3    0  502 -0.42356602978E+03  0.86654643760E+03 -0.86946159399E+03  0.12985747816E+04  0.46999998093E+01 0. -1.
</event>
<event>
 5   0  0.4664127E-05  0.2394938E+04  0.7818609E-02  0.8441401E-01
       -2   -1    0    0    0  501  0.00000000000E+00  0.00000000000E+00  0.13555631602E+04  0.13555631602E+04  0.25500000920E-02 0.  1.
        2   -1    0    0  501    0  0.00000000000E+00  0.00000000000E+00 -0.10578126531E+04  0.10578126531E+04  0.25500000920E-02 0. -1.
    10030    2    1    2    0    0  0.00000000000E+00  0.00000000000E+00  0.29775050709E+03  0.24133758132E+04  0.23949378805E+04 0.  0.
        4    1    3    3  502    0  0.96842054091E+03  0.23983619085E+03  0.81622025884E+03  0.12890216702E+04  0.12699999809E+01 0.  1.
       -4    1    3    3    0  502 -0.96842054091E+03 -0.23983619085E+03 -0.51846975175E+03  0.11243541430E+04  0.12699999809E+01 0. -1.
</event>
<event>
 5   0  0.2139556E-05  0.2335861E+04  0.7818609E-02  0.8463915E-01
        1   -1    0    0  501    0  0.00000000000E+00  0.00000000000E+00  0.17453171921E+04  0.17453171921E+04  0.50400001928E-02 0. -1.
       -1   -1    0    0    0  501  0.00000000000E+00  0.00000000000E+00 -0.78155482865E+03  0.78155482866E+03  0.50400001928E-02 0.  1.
    10030    2    1    2    0    0  0.00000000000E+00  0.00000000000E+00  0.96376236347E+03  0.25268720208E+04  0.23358605087E+04 0.  0.
        2    1    3    3  502    0  0.10704756508E+04  0.36103419995E+03  0.80241720164E+03  0.13856901450E+04  0.25500000920E-02 0. -1.
       -2    1    3    3    0  502 -0.10704756508E+04 -0.36103419995E+03  0.16134516184E+03  0.11411818758E+04  0.25500000920E-02 0.  1.
</event>
<event>
 5   0  0.2090039E-05  0.2270345E+04  0.7818609E-02  0.8489706E-01
       -1   -1    0    0    0  501  0.00000000000E+00  0.00000000000E+00  0.51502600498E+03  0.51502600501E+03  0.50400001928E-02 0.  1.
        1   -1    0    0  501    0  0.00000000000E+00  0.00000000000E+00 -0.25020414809E+04  0.25020414809E+04  0.50400001928E-02 0. -1.
    10030    2    1    2    0    0  0.00000000000E+00  0.00000000000E+00 -0.19870154760E+04  0.30170674859E+04  0.22703448445E+04 0.  0.
        1    1    3    3  502    0  0.47477974552E+03 -0.96261532733E+03 -0.14846130064E+04  0.18319715757E+04  0.50400001928E-02 0. -1.
       -1    1    3    3    0  502 -0.47477974552E+03  0.96261532733E+03 -0.50240246953E+03  0.11850959103E+04  0.50400001928E-02 0.  1.
</event>
<event>
 5   0  0.2065692E-05  0.2370529E+04  0.7818609E-02  0.8450620E-01
        1   -1    0    0  501    0  0.00000000000E+00  0.00000000000E+00  0.21348175012E+04  0.21348175012E+04  0.50400001928E-02 0.  1.
       -1   -1    0    0    0  501  0.00000000000E+00  0.00000000000E+00 -0.65806660268E+03  0.65806660270E+03  0.50400001928E-02 0. -1.
    10030    2    1    2    0    0  0.00000000000E+00  0.00000000000E+00  0.14767508985E+04  0.27928841039E+04  0.23705291396E+04 0.  0.
        3    1    3    3  502    0  0.54670992709E+03 -0.97053676274E+03  0.12155248128E+04  0.16487370721E+04  0.10100000352E+00 0.  1.
       -3    1    3    3    0  502 -0.54670992709E+03  0.97053676274E+03  0.26122608565E+03  0.11441470317E+04  0.10100000352E+00 0. -1.
</event>
<event>
 5   0  0.4914005E-05  0.2366650E+04  0.7818609E-02  0.8452096E-01
       -2   -1    0    0    0  501  0.00000000000E+00  0.00000000000E+00  0.77970522417E+03  0.77970522417E+03  0.25500000920E-02 0.  1.
        2   -1    0    0  501    0  0.00000000000E+00  0.00000000000E+00 -0.17958813473E+04  0.17958813473E+04  0.25500000920E-02 0. -1.
    10030    2    1    2    0    0  0.00000000000E+00  0.00000000000E+00 -0.10161761231E+04  0.25755865715E+04  0.23666500109E+04 0.  0.
        2    1    3    3  502    0  0.72368852645E+02 -0.11727672610E+04 -0.66059450400E+03  0.13479634261E+04  0.25500000920E-02 0. -1.
       -2    1    3    3    0  502 -0.72368852645E+02  0.11727672610E+04 -0.35558161914E+03  0.12276231454E+04  0.25500000920E-02 0.  1.
</event>
<event>
 5   0  0.2090039E-05  0.2438277E+04  0.7818609E-02  0.8425311E-01
       -1   -1    0    0    0  501  0.00000000000E+00  0.00000000000E+00  0.12851493715E+04  0.12851493715E+04  0.50400001928E-02 0.  1.
        1   -1    0    0  501    0  0.00000000000E+00  0.00000000000E+00 -0.11565186234E+04  0.11565186234E+04  0.50400001928E-02 0. -1.
    10030    2    1    2    0    0  0.00000000000E+00  0.00000000000E+00  0.12863074812E+03  0.24416679949E+04  0.24382774099E+04 0.  0.
        1    1    3    3  502    0 -0.33777375073E+03  0.93879111194E+03 -0.63728670154E+03  0.11838725432E+04  0.50400001928E-02 0. -1.
       -1    1    3    3    0  502  0.33777375073E+03 -0.93879111194E+03  0.76591744966E+03  0.12577954517E+04  0.50400001928E-02 0.  1.
</event>
<event>
 5   0  0.4713971E-05  0.2379532E+04  0.7818609E-02  0.8447206E-01
        2   -1    0    0  501    0  0.00000000000E+00  0.00000000000E+00  0.13735377599E+04  0.13735377599E+04  0.25500000920E-02 0.  1.
       -2   -1    0    0    0  501  0.00000000000E+00  0.00000000000E+00 -0.10305820555E+04  0.10305820555E+04  0.25500000920E-02 0. -1.
    10030    2    1    2    0    0  0.00000000000E+00  0.00000000000E+00  0.34295570444E+03  0.24041198154E+04  0.23795321960E+04 0.  0.
        5    1    3    3  502    0 -0.15313848839E+03  0.81008145318E+03  0.10381515272E+04  0.13256937960E+04  0.46999998093E+01 0.  1.
       -5    1    3    3    0  502  0.15313848839E+03 -0.81008145318E+03 -0.69519582274E+03  0.10784260194E+04  0.46999998093E+01 0. -1.
</event>
<event>
 5   0  0.2065692E-05  0.1789630E+04  0.7818609E-02  0.8711833E-01
       -1   -1    0    0    0  501  0.00000000000E+00  0.00000000000E+00  0.26376739921E+04  0.26376739921E+04  0.50400001928E-02 0.  1.
        1   -1    0    0  501    0  0.00000000000E+00  0.00000000000E+00 -0.30356074055E+03  0.30356074060E+03  0.50400001928E-02 0. -1.
    10030    2    1    2    0    0  0.00000000000E+00  0.00000000000E+00  0.23341132516E+04  0.29412347327E+04  0.17896304316E+04 0.  0.
        3    1    3    3  502    0  0.14819981384E+03 -0.84778957558E+03  0.15695731548E+04  0.17900475546E+04  0.10100000352E+00 0.  1.
       -3    1    3    3    0  502 -0.14819981384E+03  0.84778957558E+03  0.76454009676E+03  0.11511871781E+04  0.10100000352E+00 0. -1.
</event>
<event>
 5   0  0.4914005E-05  0.2407434E+04  0.7818609E-02  0.8436725E-01
        2   -1    0    0  501    0  0.00000000000E+00  0.00000000000E+00  0.19206587622E+04  0.19206587622E+04  0.25500000920E-02 0.  1.
       -2   -1    0    0    0  501  0.00000000000E+00  0.00000000000E+00 -0.75439486311E+03  0.75439486311E+03  0.25500000920E-02 0. -1.
    10030    2    1    2    0    0  0.00000000000E+00  0.00000000000E+00  0.11662638991E+04  0.26750536253E+04  0.24074344053E+04 0.  0.
        2    1    3    3  502    0  0.33994160344E+03 -0.49611451089E+02 -0.69876450718E+03  0.77864846132E+03  0.25500000920E-02 0. -1.
       -2    1    3    3    0  502 -0.33994160344E+03  0.49611451089E+02  0.18650284063E+04  0.18964051640E+04  0.25500000920E-02 0.  1.
</event>
<event>
 5   0  0.1672125E-05  0.2392060E+04  0.7818609E-02  0.8442482E-01
        3   -1    0    0  501    0  0.00000000000E+00  0.00000000000E+00  0.66372482311E+03  0.66372483079E+03  0.10100000352E+00 0. -1.
       -3   -1    0    0    0  501  0.00000000000E+00  0.00000000000E+00 -0.21552429355E+04  0.21552429378E+04  0.10100000352E+00 0.  1.
    10030    2    1    2    0    0  0.00000000000E+00  0.00000000000E+00 -0.14915181124E+04  0.28189677686E+04  0.23920604092E+04 0.  0.
        3    1    3    3  502    0 -0.57631558724E+03 -0.67602384348E+03  0.19800242579E+03  0.91013892558E+03  0.10100000352E+00 0. -1.
       -3    1    3    3    0  502  0.57631558724E+03  0.67602384348E+03 -0.16895205381E+04  0.19088288430E+04  0.10100000352E+00 0.  1.
</event>
<event>
 5   0  0.4713971E-05  0.2319933E+04  0.7818609E-02  0.8470103E-01
        2   -1    0    0  501    0  0.00000000000E+00  0.00000000000E+00  0.22109901222E+04  0.22109901222E+04  0.25500000920E-02 0. -1.
       -2   -1    0    0    0  501  0.00000000000E+00  0.00000000000E+00 -0.60856114525E+03  0.60856114525E+03  0.25500000920E-02 0.  1.
    10030    2    1    2    0    0  0.00000000000E+00  0.00000000000E+00  0.16024289769E+04  0.28195512674E+04  0.23199333446E+04 0.  0.
        5    1    3    3  502    0 -0.61114846722E+03 -0.92603497598E+03  0.39003981074E+03  0.11760936909E+04  0.46999998093E+01 0.  1.
       -5    1    3    3    0  502  0.61114846722E+03  0.92603497598E+03  0.12123891662E+04  0.16434575766E+04  0.46999998093E+01 0. -1.
</event>
<event>
 5   0  0.2090039E-05  0.2401409E+04  0.7818609E-02  0.8438976E-01
       -1   -1    0    0    0  501  0.00000000000E+00  0.00000000000E+00  0.56102508672E+03  0.56102508674E+03  0.50400001928E-02 0. -1.
        1   -1    0    0  501    0  0.00000000000E+00  0.00000000000E+00 -0.25697441063E+04  0.25697441063E+04  0.50400001928E-02 0.  1.
    10030    2    1    2    0    0  0.00000000000E+00  0.00000000000E+00 -0.20087190196E+04  0.31307691930E+04  0.24014086784E+04 0.  0.
        1    1    3    3  502    0  0.18956555221E+03  0.66556839317E+03  0.27486647082E+03  0.74462605473E+03  0.50400001928E-02 0. -1.
       -1    1    3    3    0  502 -0.18956555221E+03 -0.66556839317E+03 -0.22835854904E+04  0.23861431383E+04  0.50400001928E-02 0.  1.
</event>
<event>
 5   0  0.2057599E-05  0.2412949E+04  0.7818609E-02  0.8434672E-01
       -1   -1    0    0    0  501  0.00000000000E+00  0.00000000000E+00  0.10701531217E+04  0.10701531217E+04  0.50400001928E-02 0. -1.
        1   -1    0    0  501    0  0.00000000000E+00  0.00000000000E+00 -0.13601610076E+04  0.13601610076E+04  0.50400001928E-02 0.  1.
    10030    2    1    2    0    0  0.00000000000E+00  0.00000000000E+00 -0.29000788591E+03  0.24303141293E+04  0.24129488583E+04 0.  0.
        4    1    3    3  502    0  0.44439756871E+03 -0.57349806297E+03  0.82587814756E+03  0.10993023037E+04  0.12699999809E+01 0. -1.
       -4    1    3    3    0  502 -0.44439756871E+03  0.57349806297E+03 -0.11158860335E+04  0.13310118256E+04  0.12699999809E+01 0.  1.
</event>
<event>
 5   0  0.4756705E-05  0.2377996E+04  0.7818609E-02  0.8447788E-01
       -2   -1    0    0    0  501  0.00000000000E+00  0.00000000000E+00  0.12883223339E+04  0.12883223339E+04  0.25500000920E-02 0. -1.
        2   -1    0    0  501    0  0.00000000000E+00  0.00000000000E+00 -0.10973313121E+04  0.10973313121E+04  0.25500000920E-02 0.  1.
    10030    2    1    2    0    0  0.00000000000E+00  0.00000000000E+00  0.19099102186E+03  0.23856536460E+04  0.23779961624E+04 0.  0.
        3    1    3    3  502    0  0.38852332009E+02 -0.49809961252E+03  0.11779062125E+04  0.12794826233E+04  0.10100000352E+00 0. -1.
       -3    1    3    3    0  502 -0.38852332009E+02  0.49809961252E+03 -0.98691519066E+03  0.11061710227E+04  0.10100000352E+00 0.  1.
</event>
<event>
 5   0  0.2149920E-05  0.2439530E+04  0.7818609E-02  0.8424851E-01
       -1   -1    0    0    0  501  0.00000000000E+00  0.00000000000E+00  0.11554949383E+04  0.11554949384E+04  0.50400001928E-02 0. -1.
        1   -1    0    0  501    0  0.00000000000E+00  0.00000000000E+00 -0.12876101135E+04  0.12876101135E+04  0.50400001928E-02 0.  1.
    10030    2    1    2    0    0  0.00000000000E+00  0.00000000000E+00 -0.13211517515E+03  0.24431050519E+04  0.24395302570E+04 0.  0.
        5    1    3    3  502    0 -0.10042477539E+04 -0.66037265115E+03  0.14209136654E+03  0.12102965075E+04  0.46999998093E+01 0.  1.
       -5    1    3    3    0  502  0.10042477539E+04  0.66037265115E+03 -0.27420654169E+03  0.12328085444E+04  0.46999998093E+01 0. -1.
</event>
<event>
 5   0  0.4856882E-05  0.1756446E+04  0.7818609E-02  0.8729810E-01
        2   -1    0    0  501    0  0.00000000000E+00  0.00000000000E+00  0.88877304595E+03  0.88877304595E+03  0.25500000920E-02 0. -1.
       -2   -1    0    0    0  501  0.00000000000E+00  0.00000000000E+00 -0.86779816158E+03  0.86779816159E+03  0.25500000920E-02 0.  1.
    10030    2    1    2    0    0  0.00000000000E+00  0.00000000000E+00  0.20974884363E+02  0.17565712075E+04  0.17564459745E+04 0.  0.
        1    1    3    3  502    0  0.32253713347E+03  0.17637453572E+02 -0.80623126099E+03  0.86853332029E+03  0.50400001928E-02 0.  1.
       -1    1    3    3    0  502 -0.32253713347E+03 -0.17637453572E+02  0.82720614536E+03  0.88803788724E+03  0.50400001928E-02 0. -1.
</event>
<event>
 5   0  0.2090039E-05  0.2352494E+04  0.7818609E-02  0.8457506E-01
        1   -1    0    0  501    0  0.00000000000E+00  0.00000000000E+00  0.15882011583E+04  0.15882011583E+04  0.50400001928E-02 0. -1.
       -1   -1    0    0    0  501  0.00000000000E+00  0.00000000000E+00 -0.87114737646E+03  0.87114737648E+03  0.50400001928E-02 0.  1.
    10030    2    1    2    0    0  0.00000000000E+00  0.00000000000E+00  0.71705378187E+03  0.24593485348E+04  0.23524942273E+04 0.  0.
        1    1    3    3  502    0 -0.20157375243E+03  0.13776373824E+03 -0.84436534971E+03  0.87895601088E+03  0.50400001928E-02 0.  1.
       -1    1    3    3    0  502  0.20157375243E+03 -0.13776373824E+03  0.15614191316E+04  0.15803925239E+04  0.50400001928E-02 0. -1.
</event>
<event>
 5   0  0.4914005E-05  0.1947835E+04  0.7818609E-02  0.8631406E-01
       -2   -1    0    0    0  501  0.00000000000E+00  0.00000000000E+00  0.48895385763E+03  0.48895385764E+03  0.25500000920E-02 0. -1.
        2   -1    0    0  501    0  0.00000000000E+00  0.00000000000E+00 -0.19398866005E+04  0.19398866005E+04  0.25500000920E-02 0.  1.
    10030    2    1    2    0    0  0.00000000000E+00  0.00000000000E+00 -0.14509327429E+04  0.24288404582E+04  0.19478347329E+04 0.  0.
        2    1    3    3  502    0  0.10578888908E+03 -0.47939577956E+03 -0.17743110012E+04  0.18409755924E+04  0.25500000920E-02 0.  1.
       -2    1    3    3    0  502 -0.10578888908E+03  0.47939577956E+03  0.32337825833E+03  0.58786486583E+03  0.25500000920E-02 0. -1.
</event>
<event>
 5   0  0.2065692E-05  0.2406103E+04  0.7818609E-02  0.8437222E-01
       -1   -1    0    0    0  501  0.00000000000E+00  0.00000000000E+00  0.13224474307E+04  0.13224474307E+04  0.50400001928E-02 0. -1.
        1   -1    0    0  501    0  0.00000000000E+00  0.00000000000E+00 -0.10944349402E+04  0.10944349402E+04  0.50400001928E-02 0.  1.
    10030    2    1    2    0    0  0.00000000000E+00  0.00000000000E+00  0.22801249048E+03  0.24168823709E+04  0.24061028031E+04 0.  0.
        3    1    3    3  502    0  0.70249283267E+03 -0.90230249763E+03 -0.26141499842E+03  0.11730233539E+04  0.10100000352E+00 0.  1.
       -3    1    3    3    0  502 -0.70249283267E+03  0.90230249763E+03  0.48942748890E+03  0.12438590170E+04  0.10100000352E+00 0. -1.
</event>
<event>
 5   0  0.4664127E-05  0.2387595E+04  0.7818609E-02  0.8444163E-01
        2   -1    0    0  501    0  0.00000000000E+00  0.00000000000E+00  0.10901175169E+04  0.10901175169E+04  0.25500000920E-02 0.  1.
       -2   -1    0    0    0  501  0.00000000000E+00  0.00000000000E+00 -0.13073379234E+04  0.13073379234E+04  0.25500000920E-02 0. -1.
    10030    2    1    2    0    0  0.00000000000E+00  0.00000000000E+00 -0.21722040651E+03  0.23974554403E+04  0.23875945810E+04 0.  0.
        4    1    3    3  502    0  0.29236314582E+03  0.67432024228E+03  0.83600154047E+03  0.11131415843E+04  0.12699999809E+01 0.  1.
       -4    1    3    3    0  502 -0.29236314582E+03 -0.67432024228E+03 -0.10532219470E+04  0.12843138560E+04  0.12699999809E+01 0. -1.
</event>
<event>
 5   0  0.4856882E-05  0.2433022E+04  0.7818609E-02  0.8427243E-01
       -2   -1    0    0    0  501  0.00000000000E+00  0.00000000000E+00  0.11883725275E+04  0.11883725275E+04  0.25500000920E-02 0.  1.
        2   -1    0    0  501    0  0.00000000000E+00  0.00000000000E+00 -0.12453157867E+04  0.12453157867E+04  0.25500000920E-02 0. -1.
    10030    2    1    2    0    0  0.00000000000E+00  0.00000000000E+00 -0.56943259113E+02  0.24336883142E+04  0.24330220459E+04 0.  0.
        1    1    3    3  502    0 -0.25889826981E+03  0.11121369918E+04 -0.44813635842E+03  0.12266634414E+04  0.50400001928E-02 0. -1.
       -1    1    3    3    0  502  0.25889826981E+03 -0.11121369918E+04  0.39119309931E+03  0.12070248728E+04  0.50400001928E-02 0.  1.
</event>
<event>
 5   0  0.2065692E-05  0.2437227E+04  0.7818609E-02  0.8425696E-01
       -1   -1    0    0    0  501  0.00000000000E+00  0.00000000000E+00  0.97041375689E+03  0.97041375690E+03  0.50400001928E-02 0. -1.
        1   -1    0    0  501    0  0.00000000000E+00  0.00000000000E+00 -0.15302949578E+04  0.15302949578E+04  0.50400001928E-02 0.  1.
    10030    2    1    2    0    0  0.00000000000E+00  0.00000000000E+00 -0.55988120091E+03  0.25007087147E+04  0.24372273420E+04 0.  0.
        3    1    3    3  502    0 -0.85287142353E+03  0.44466570765E+03 -0.10476963548E+04  0.14222464339E+04  0.10100000352E+00 0.  1.
       -3    1    3    3    0  502  0.85287142353E+03 -0.44466570765E+03  0.48781515388E+03  0.10784622808E+04  0.10100000352E+00 0. -1.
</event>
<event>
 5   0  0.2149920E-05  0.2503335E+04  0.7818609E-02  0.8401799E-01
       -1   -1    0    0    0  501  0.00000000000E+00  0.00000000000E+00  0.15689662435E+04  0.15689662435E+04  0.50400001928E-02 0. -1.
        1   -1    0    0  501    0  0.00000000000E+00  0.00000000000E+00 -0.99853709886E+03  0.99853709887E+03  0.50400001928E-02 0.  1.
    10030    2    1    2    0    0  0.00000000000E+00  0.00000000000E+00  0.57042914467E+03  0.25675033424E+04  0.25033345770E+04 0.  0.
        5    1    3    3  502    0 -0.19576300559E+03 -0.52255665389E+03 -0.86388858107E+03  0.10284523233E+04  0.46999998093E+01 0.  1.
       -5    1    3    3    0  502  0.19576300559E+03  0.52255665389E+03  0.14343177257E+04  0.15390510191E+04  0.46999998093E+01 0. -1.
</event>
<event>
 5   0  0.2065692E-05  0.2415704E+04  0.7818609E-02  0.8433648E-01
       -1   -1    0    0    0  501  0.00000000000E+00  0.00000000000E+00  0.67331898717E+03  0.67331898719E+03  0.50400001928E-02 0. -1.
        1   -1    0    0  501    0  0.00000000000E+00  0.00000000000E+00 -0.21667390093E+04  0.21667390093E+04  0.50400001928E-02 0.  1.
    10030    2    1    2    0    0  0.00000000000E+00  0.00000000000E+00 -0.14934200221E+04  0.28400579965E+04  0.24157040508E+04 0.  0.
        3    1    3    3  502    0 -0.16602700813E+03 -0.79730722344E+03 -0.17953889125E+04  0.19714677612E+04  0.10100000352E+00 0.  1.
       -3    1    3    3    0  502  0.16602700813E+03  0.79730722344E+03  0.30196889036E+03  0.86859023534E+03  0.10100000352E+00 0. -1.
</event>
<event>
 5   0  0.2149920E-05  0.2062244E+04  0.7818609E-02  0.8578060E-01
        1   -1    0    0  501    0  0.00000000000E+00  0.00000000000E+00  0.13458522920E+04  0.13458522920E+04  0.50400001928E-02 0. -1.
       -1   -1    0    0    0  501  0.00000000000E+00  0.00000000000E+00 -0.78999209086E+03  0.78999209087E+03  0.50400001928E-02 0.  1.
    10030    2    1    2    0    0  0.00000000000E+00  0.00000000000E+00  0.55586020118E+03  0.21358443829E+04  0.20622440847E+04 0.  0.
        5    1    3    3  502    0 -0.68571758487E+03  0.63484532326E+03  0.72932127090E+03  0.11853981596E+04  0.46999998093E+01 0. -1.
       -5    1    3    3    0  502  0.68571758487E+03 -0.63484532326E+03 -0.17346106972E+03  0.95044622329E+03  0.46999998093E+01 0.  1.
</event>
<event>
 5   0  0.4914005E-05  0.2379436E+04  0.7818609E-02  0.8447243E-01
       -2   -1    0    0    0  501  0.00000000000E+00  0.00000000000E+00  0.12106514842E+04  0.12106514842E+04  0.25500000920E-02 0. -1.
        2   -1    0    0  501    0  0.00000000000E+00  0.00000000000E+00 -0.11691464192E+04  0.11691464193E+04  0.25500000920E-02 0.  1.
    10030    2    1    2    0    0  0.00000000000E+00  0.00000000000E+00  0.41505064999E+02  0.23797979035E+04  0.23794359397E+04 0.  0.
        2    1    3    3  502    0 -0.32472555624E+03  0.10048154749E+04  0.56885781626E+03  0.11994582279E+04  0.25500000920E-02 0. -1.
       -2    1    3    3    0  502  0.32472555624E+03 -0.10048154749E+04 -0.52735275126E+03  0.11803396756E+04  0.25500000920E-02 0.  1.
</event>
<event>
 5   0  0.2065692E-05  0.2247328E+04  0.7818609E-02  0.8498983E-01
        1   -1    0    0  501    0  0.00000000000E+00  0.00000000000E+00  0.10525723872E+04  0.10525723873E+04  0.50400001928E-02 0.  1.
       -1   -1    0    0    0  501  0.00000000000E+00  0.00000000000E+00 -0.11995576117E+04  0.11995576117E+04  0.50400001928E-02 0. -1.
    10030    2    1    2    0    0  0.00000000000E+00  0.00000000000E+00 -0.14698522448E+03  0.22521299990E+04  0.22473283864E+04 0.  0.
        3    1    3    3  502    0  0.28177246168E+03  0.89098401473E+03 -0.69882341279E+03  0.11668772031E+04  0.10100000352E+00 0. -1.
       -3    1    3    3    0  502 -0.28177246168E+03 -0.89098401473E+03  0.55183818831E+03  0.10852527959E+04  0.10100000352E+00 0.  1.
</event>
<event>
 5   0  0.4856882E-05  0.2456522E+04  0.7818609E-02  0.8418641E-01
       -2   -1    0    0    0  501  0.00000000000E+00  0.00000000000E+00  0.13642627208E+04  0.13642627208E+04  0.25500000920E-02 0. -1.
        2   -1    0    0  501    0  0.00000000000E+00  0.00000000000E+00 -0.11058168255E+04  0.11058168255E+04  0.25500000920E-02 0.  1.
    10030    2    1    2    0    0  0.00000000000E+00  0.00000000000E+00  0.25844589522E+03  0.24700795463E+04  0.24565216637E+04 0.  0.
        1    1    3    3  502    0  0.56999717535E+03 -0.93875658255E+03  0.68222553722E+03  0.12929007637E+04  0.50400001928E-02 0. -1.
       -1    1    3    3    0  502 -0.56999717535E+03  0.93875658255E+03 -0.42377964201E+03  0.11771787826E+04  0.50400001928E-02 0.  1.
</event>
<event>
 5   0  0.4664127E-05  0.2417961E+04  0.7818609E-02  0.8432810E-01
        2   -1    0    0  501    0  0.00000000000E+00  0.00000000000E+00  0.88430098210E+03  0.88430098210E+03  0.25500000920E-02 0. -1.
       -2   -1    0    0    0  501  0.00000000000E+00  0.00000000000E+00 -0.16528692093E+04  0.16528692093E+04  0.25500000920E-02 0.  1.
    10030    2    1    2    0    0  0.00000000000E+00  0.00000000000E+00 -0.76856822722E+03  0.25371701914E+04  0.24179610130E+04 0.  0.
        4    1    3    3  502    0  0.75288245701E+03 -0.92436766082E+03 -0.17352154888E+03  0.12047401825E+04  0.12699999809E+01 0. -1.
       -4    1    3    3    0  502 -0.75288245701E+03  0.92436766082E+03 -0.59504667834E+03  0.13324300089E+04  0.12699999809E+01 0.  1.
</event>
<event>
 5   0  0.2065692E-05  0.2400767E+04  0.7818609E-02  0.8439216E-01
        1   -1    0    0  501    0  0.00000000000E+00  0.00000000000E+00  0.90864955085E+03  0.90864955087E+03  0.50400001928E-02 0.  1.
       -1   -1    0    0    0  501  0.00000000000E+00  0.00000000000E+00 -0.15857830317E+04  0.15857830318E+04  0.50400001928E-02 0. -1.
    10030    2    1    2    0    0  0.00000000000E+00  0.00000000000E+00 -0.67713348090E+03  0.24944325826E+04  0.24007674103E+04 0.  0.
        3    1    3    3  502    0 -0.33616388347E+03 -0.90298457241E+03  0.40527905334E+03  0.10452934592E+04  0.10100000352E+00 0.  1.
       -3    1    3    3    0  502  0.33616388347E+03  0.90298457241E+03 -0.10824125342E+04  0.14491391234E+04  0.10100000352E+00 0. -1.
</event>
<event>
 5   0  0.4756705E-05  0.2309840E+04  0.7818609E-02  0.8474052E-01
       -2   -1    0    0    0  501  0.00000000000E+00  0.00000000000E+00  0.83035500290E+03  0.83035500291E+03  0.25500000920E-02 0.  1.
        2   -1    0    0  501    0  0.00000000000E+00  0.00000000000E+00 -0.16063487365E+04  0.16063487365E+04  0.25500000920E-02 0. -1.
    10030    2    1    2    0    0  0.00000000000E+00  0.00000000000E+00 -0.77599373355E+03  0.24367037394E+04  0.23098395700E+04 0.  0.
        3    1    3    3  502    0 -0.77396563494E+03 -0.30131603746E+03 -0.12345855492E+04  0.14879568700E+04  0.10100000352E+00 0. -1.
       -3    1    3    3    0  502  0.77396563494E+03  0.30131603746E+03  0.45859181566E+03  0.94874686935E+03  0.10100000352E+00 0.  1.
</event>
<event>
 5   0  0.4756705E-05  0.2272836E+04  0.7818609E-02  0.8488709E-01
       -2   -1    0    0    0  501  0.00000000000E+00  0.00000000000E+00  0.10983840801E+04  0.10983840801E+04  0.25500000920E-02 0.  1.
        2   -1    0    0  501    0  0.00000000000E+00  0.00000000000E+00 -0.11757691910E+04  0.11757691910E+04  0.25500000920E-02 0. -1.
    10030    2    1    2    0    0  0.00000000000E+00  0.00000000000E+00 -0.77385110918E+02  0.22741532711E+04  0.22728362556E+04 0.  0.
        3    1    3    3  502    0 -0.73687864395E+02 -0.61871289023E+03 -0.98961718941E+03  0.11694347924E+04  0.10100000352E+00 0. -1.
       -3    1    3    3    0  502  0.73687864395E+02  0.61871289023E+03  0.91223207849E+03  0.11047184787E+04  0.10100000352E+00 0.  1.
</event>
<event>
 5   0  0.2139556E-05  0.2418556E+04  0.7818609E-02  0.8432589E-01
        1   -1    0    0  501    0  0.00000000000E+00  0.00000000000E+00  0.10928783241E+04  0.10928783241E+04  0.50400001928E-02 0.  1.
       -1   -1    0    0    0  501  0.00000000000E+00  0.00000000000E+00 -0.13380750877E+04  0.13380750877E+04  0.50400001928E-02 0. -1.
    10030    2    1    2    0    0  0.00000000000E+00  0.00000000000E+00 -0.24519676358E+03  0.24309534118E+04  0.24185559819E+04 0.  0.
        2    1    3    3  502    0 -0.12319815786E+03 -0.94477762653E+03 -0.87111070622E+03  0.12909749851E+04  0.25500000920E-02 0. -1.
       -2    1    3    3    0  502  0.12319815786E+03  0.94477762653E+03  0.62591394264E+03  0.11399784267E+04  0.25500000920E-02 0.  1.
</event>
<event>
 5   0  0.2149920E-05  0.2397487E+04  0.7818609E-02  0.8440445E-01
        1   -1    0    0  501    0  0.00000000000E+00  0.00000000000E+00  0.18507108997E+04  0.18507108997E+04  0.50400001928E-02 0.  1.
       -1   -1    0    0    0  501  0.00000000000E+00  0.00000000000E+00 -0.77645094342E+03  0.77645094343E+03  0.50400001928E-02 0. -1.
    10030    2    1    2    0    0  0.00000000000E+00  0.00000000000E+00  0.10742599563E+04  0.26271618431E+04  0.23974872046E+04 0.  0.
        5    1    3    3  502    0  0.60178277420E+03  0.96212002852E+03  0.11393810277E+03  0.11405355925E+04  0.46999998093E+01 0.  1.
       -5    1    3    3    0  502 -0.60178277420E+03 -0.96212002852E+03  0.96032185352E+03  0.14866262506E+04  0.46999998093E+01 0. -1.
</event>
<event>
 5   0  0.2090039E-05  0.2394233E+04  0.7818609E-02  0.8441666E-01
        1   -1    0    0  501    0  0.00000000000E+00  0.00000000000E+00  0.16661307412E+04  0.16661307412E+04  0.50400001928E-02 0. -1.
       -1   -1    0    0    0  501  0.00000000000E+00  0.00000000000E+00 -0.86012937413E+03  0.86012937414E+03  0.50400001928E-02 0.  1.
    10030    2    1    2    0    0  0.00000000000E+00  0.00000000000E+00  0.80600136706E+03  0.25262601153E+04  0.23942330644E+04 0.  0.
        1    1    3    3  502    0  0.11146084031E+04  0.43447990185E+03  0.35624800011E+03  0.12482136496E+04  0.50400001928E-02 0.  1.
       -1    1    3    3    0  502 -0.11146084031E+04 -0.43447990185E+03  0.44975336695E+03  0.12780464657E+04  0.50400001928E-02 0. -1.
</event>
<event>
 5   0  0.4713971E-05  0.2400413E+04  0.7818609E-02  0.8439349E-01
        2   -1    0    0  501    0  0.00000000000E+00  0.00000000000E+00  0.13922487780E+04  0.13922487780E+04  0.25500000920E-02 0. -1.
       -2   -1    0    0    0  501  0.00000000000E+00  0.00000000000E+00 -0.10346542196E+04  0.10346542196E+04  0.25500000920E-02 0.  1.
    10030    2    1    2    0    0  0.00000000000E+00  0.00000000000E+00  0.35759455837E+03  0.24269029976E+04  0.24004133585E+04 0.  0.
        5    1    3    3  502    0  0.42502170158E+03  0.11218302096E+04  0.14196009416E+03  0.12080236853E+04  0.46999998093E+01 0.  1.
       -5    1    3    3    0  502 -0.42502170158E+03 -0.11218302096E+04  0.21563446421E+03  0.12188793123E+04  0.46999998093E+01 0. -1.
</event>
<event>
 5   0  0.4756705E-05  0.2263131E+04  0.7818609E-02  0.8492602E-01
        2   -1    0    0  501    0  0.00000000000E+00  0.00000000000E+00  0.20908534090E+04  0.20908534090E+04  0.25500000920E-02 0.  1.
       -2   -1    0    0    0  501  0.00000000000E+00  0.00000000000E+00 -0.61240071162E+03  0.61240071162E+03  0.25500000920E-02 0. -1.
    10030    2    1    2    0    0  0.00000000000E+00  0.00000000000E+00  0.14784526973E+04  0.27032541206E+04  0.22631306772E+04 0.  0.
        3    1    3    3  502    0 -0.61941453756E+03  0.92473084657E+03  0.49548720109E+03  0.12183222417E+04  0.10100000352E+00 0. -1.
       -3    1    3    3    0  502  0.61941453756E+03 -0.92473084657E+03  0.98296549626E+03  0.14849318789E+04  0.10100000352E+00 0.  1.
</event>
<event>
 5   0  0.4664127E-05  0.2395228E+04  0.7818609E-02  0.8441292E-01
       -2   -1    0    0    0  501  0.00000000000E+00  0.00000000000E+00  0.12196418275E+04  0.12196418275E+04  0.25500000920E-02 0.  1.
        2   -1    0    0  501    0  0.00000000000E+00  0.00000000000E+00 -0.11759836067E+04  0.11759836067E+04  0.25500000920E-02 0. -1.
    10030    2    1    2    0    0  0.00000000000E+00  0.00000000000E+00  0.43658220848E+02  0.23956254342E+04  0.23952275844E+04 0.  0.
        4    1    3    3  502    0 -0.43020211406E+03  0.15543494213E+03 -0.10851714758E+04  0.11776385800E+04  0.12699999809E+01 0. -1.
       -4    1    3    3    0  502  0.43020211406E+03 -0.15543494213E+03  0.11288296967E+04  0.12179868543E+04  0.12699999809E+01 0.  1.
</event>
<event>
 5   0  0.4756705E-05  0.2407254E+04  0.7818609E-02  0.8436793E-01
        2   -1    0    0  501    0  0.00000000000E+00  0.00000000000E+00  0.19332281227E+04  0.19332281227E+04  0.25500000920E-02 0.  1.
       -2   -1    0    0    0  501  0.00000000000E+00  0.00000000000E+00 -0.74937776268E+03  0.74937776269E+03  0.25500000920E-02 0. -1.
    10030    2    1    2    0    0  0.00000000000E+00  0.00000000000E+00  0.11838503600E+04  0.26826058854E+04  0.24072541746E+04 0.  0.
        3    1    3    3  502    0  0.26203480625E+03  0.93050467884E+03 -0.20718768409E+03  0.98864955554E+03  0.10100000352E+00 0.  1.
       -3    1    3    3    0  502 -0.26203480625E+03 -0.93050467884E+03  0.13910380441E+04  0.16939563298E+04  0.10100000352E+00 0. -1.
</event>
<event>
 5   0  0.2149920E-05  0.2392551E+04  0.7818609E-02  0.8442298E-01
        1   -1    0    0  501    0  0.00000000000E+00  0.00000000000E+00  0.20341036844E+04  0.20341036844E+04  0.50400001928E-02 0. -1.
       -1   -1    0    0    0  501  0.00000000000E+00  0.00000000000E+00 -0.70354100011E+03  0.70354100013E+03  0.50400001928E-02 0.  1.
    10030    2    1    2    0    0  0.00000000000E+00  0.00000000000E+00  0.13305626842E+04  0.27376446845E+04  0.23925512245E+04 0.  0.
        5    1    3    3  502    0  0.11456838056E+04 -0.22691130935E+03  0.36916244678E+03  0.12249012723E+04  0.46999998093E+01 0.  1.
       -5    1    3    3    0  502 -0.11456838056E+04  0.22691130935E+03  0.96140023746E+03  0.15127434122E+04  0.46999998093E+01 0. -1.
</event>
<event>
 5   0  0.2057599E-05  0.2424847E+04  0.7818609E-02  0.8430259E-01
       -1   -1    0    0    0  501  0.00000000000E+00  0.00000000000E+00  0.74998242626E+03  0.74998242628E+03  0.50400001928E-02 0.  1.
        1   -1    0    0  501    0  0.00000000000E+00  0.00000000000E+00 -0.19600074588E+04  0.19600074588E+04  0.50400001928E-02 0. -1.
    10030    2    1    2    0    0  0.00000000000E+00  0.00000000000E+00 -0.12100250325E+04  0.27099898851E+04  0.24248473350E+04 0.  0.
        4    1    3    3  502    0 -0.10221436585E+04  0.17377278009E+03 -0.13074036359E+04  0.16686163483E+04  0.12699999809E+01 0. -1.
       -4    1    3    3    0  502  0.10221436585E+04 -0.17377278009E+03  0.97378603348E+02  0.10413735368E+04  0.12699999809E+01 0.  1.
</event>
<event>
 5   0  0.2149920E-05  0.2407105E+04  0.7818609E-02  0.8436849E-01
       -1   -1    0    0    0  501  0.00000000000E+00  0.00000000000E+00  0.10716040284E+04  0.10716040284E+04  0.50400001928E-02 0.  1.
        1   -1    0    0  501    0  0.00000000000E+00  0.00000000000E+00 -0.13517475115E+04  0.13517475115E+04  0.50400001928E-02 0. -1.
    10030    2    1    2    0    0  0.00000000000E+00  0.00000000000E+00 -0.28014348310E+03  0.24233515399E+04  0.24071045500E+04 0.  0.
        5    1    3    3  502    0 -0.77294675452E+01  0.12034983952E+04 -0.14703629112E+03  0.12124808835E+04  0.46999998093E+01 0.  1.
       -5    1    3    3    0  502  0.77294675452E+01 -0.12034983952E+04 -0.13310719197E+03  0.12108706564E+04  0.46999998093E+01 0. -1.
</event>
<event>
 5   0  0.2057599E-05  0.2543494E+04  0.7818609E-02  0.8387652E-01
       -1   -1    0    0    0  501  0.00000000000E+00  0.00000000000E+00  0.11158948078E+04  0.11158948078E+04  0.50400001928E-02 0.  1.
        1   -1    0    0  501    0  0.00000000000E+00  0.00000000000E+00 -0.14493661296E+04  0.14493661297E+04  0.50400001928E-02 0. -1.
    10030    2    1    2    0    0  0.00000000000E+00  0.00000000000E+00 -0.33347132182E+03  0.25652609375E+04  0.25434937694E+04 0.  0.
        4    1    3    3  502    0  0.96031395015E+03 -0.11341005421E+03 -0.99980321062E+03  0.13909251583E+04  0.12699999809E+01 0. -1.
       -4    1    3    3    0  502 -0.96031395015E+03  0.11341005421E+03  0.66633188880E+03  0.11743357791E+04  0.12699999809E+01 0.  1.
</event>
<event>
 5   0  0.4756705E-05  0.2350733E+04  0.7818609E-02  0.8458182E-01
        2   -1    0    0  501    0  0.00000000000E+00  0.00000000000E+00  0.18308301393E+04  0.18308301394E+04  0.25500000920E-02 0. -1.
       -2   -1    0    0    0  501  0.00000000000E+00  0.00000000000E+00 -0.75456823609E+03  0.75456823609E+03  0.25500000920E-02 0.  1.
    10030    2    1    2    0    0  0.00000000000E+00  0.00000000000E+00  0.10762619033E+04  0.25853983754E+04  0.23507328805E+04 0.  0.
        3    1    3    3  502    0 -0.86592575570E+03  0.25981723010E+03 -0.28795068513E+03  0.94881400427E+03  0.10100000352E+00 0.  1.
       -3    1    3    3    0  502  0.86592575570E+03 -0.25981723010E+03  0.13642125884E+04  0.16365843712E+04  0.10100000352E+00 0. -1.
</event>
<event>
 5   0  0.2065692E-05  0.2374293E+04  0.7818609E-02  0.8449191E-01
       -1   -1    0    0    0  501  0.00000000000E+00  0.00000000000E+00  0.12008904417E+04  0.12008904417E+04  0.50400001928E-02 0.  1.
        1   -1    0    0  501    0  0.00000000000E+00  0.00000000000E+00 -0.11735597683E+04  0.11735597683E+04  0.50400001928E-02 0. -1.
    10030    2    1    2    0    0  0.00000000000E+00  0.00000000000E+00  0.27330673333E+02  0.23744502100E+04  0.23742929125E+04 0.  0.
        3    1    3    3  502    0  0.79751166265E+02 -0.11800270044E+04 -0.88775421976E+02  0.11860459795E+04  0.10100000352E+00 0.  1.
       -3    1    3    3    0  502 -0.79751166265E+02  0.11800270044E+04  0.11610609531E+03  0.11884042306E+04  0.10100000352E+00 0. -1.
</event>
<event>
 5   0  0.4713971E-05  0.2413753E+04  0.7818609E-02  0.8434372E-01
       -2   -1    0    0    0  501  0.00000000000E+00  0.00000000000E+00  0.14847133396E+04  0.14847133396E+04  0.25500000920E-02 0.  1.
        2   -1    0    0  501    0  0.00000000000E+00  0.00000000000E+00 -0.98103197583E+03  0.98103197583E+03  0.25500000920E-02 0. -1.
    10030    2    1    2    0    0  0.00000000000E+00  0.00000000000E+00  0.50368136377E+03  0.24657453154E+04  0.24137533106E+04 0.  0.
        5    1    3    3  502    0  0.68109362971E+03 -0.61720674340E+03 -0.54711616517E+03  0.10696685864E+04  0.46999998093E+01 0. -1.
       -5    1    3    3    0  502 -0.68109362971E+03  0.61720674340E+03  0.10507975289E+04  0.13960767290E+04  0.46999998093E+01 0.  1.
</event>
<event>
 5   0  0.4756705E-05  0.2394521E+04  0.7818609E-02  0.8441558E-01
        2   -1    0    0  501    0  0.00000000000E+00  0.00000000000E+00  0.19232972297E+04  0.19232972297E+04  0.25500000920E-02 0. -1.
       -2   -1    0    0    0  501  0.00000000000E+00  0.00000000000E+00 -0.74529956662E+03  0.74529956662E+03  0.25500000920E-02 0.  1.
    10030    2    1    2    0    0  0.00000000000E+00  0.00000000000E+00  0.11779976631E+04  0.26685967963E+04  0.23945209055E+04 0.  0.
        3    1    3    3  502    0  0.28021686053E+03 -0.64514204141E+03  0.16687617108E+04  0.18109377130E+04  0.10100000352E+00 0. -1.
       -3    1    3    3    0  502 -0.28021686053E+03  0.64514204141E+03 -0.49076404774E+03  0.85765908336E+03  0.10100000352E+00 0.  1.
</event>
<event>
 5   0  0.2065692E-05  0.2405223E+04  0.7818609E-02  0.8437551E-01
        1   -1    0    0  501    0  0.00000000000E+00  0.00000000000E+00  0.18138551263E+04  0.18138551263E+04  0.50400001928E-02 0.  1.
       -1   -1    0    0    0  501  0.00000000000E+00  0.00000000000E+00 -0.79734838162E+03  0.79734838163E+03  0.50400001928E-02 0. -1.
    10030    2    1    2    0    0  0.00000000000E+00  0.00000000000E+00  0.10165067447E+04  0.26112035079E+04  0.24052230246E+04 0.  0.
        3    1    3    3  502    0  0.94683113502E+02 -0.10750924506E+04  0.10842415777E+04  0.15298262902E+04  0.10100000352E+00 0.  1.
       -3    1    3    3    0  502 -0.94683113502E+02  0.10750924506E+04 -0.67734833000E+02  0.10813772177E+04  0.10100000352E+00 0. -1.
</event>
<event>
 5   0  0.4664127E-05  0.2381997E+04  0.7818609E-02  0.8446275E-01
        2   -1    0    0  501    0  0.00000000000E+00  0.00000000000E+00  0.10834756752E+04  0.10834756752E+04  0.25500000920E-02 0.  1.
       -2   -1    0    0    0  501  0.00000000000E+00  0.00000000000E+00 -0.13091915689E+04  0.13091915689E+04  0.25500000920E-02 0. -1.
    10030    2    1    2    0    0  0.00000000000E+00  0.00000000000E+00 -0.22571589368E+03  0.23926672441E+04  0.23819968254E+04 0.  0.
        4    1    3    3  502    0 -0.82757101729E+03 -0.17828157786E+03  0.72864031121E+03  0.11169496075E+04  0.12699999809E+01 0.  1.
       -4    1    3    3    0  502  0.82757101729E+03  0.17828157786E+03 -0.95435620488E+03  0.12757176366E+04  0.12699999809E+01 0. -1.
</event>
<event>
 5   0  0.4713971E-05  0.2417002E+04  0.7818609E-02  0.8433165E-01
       -2   -1    0    0    0  501  0.00000000000E+00  0.00000000000E+00  0.64711742649E+03  0.64711742650E+03  0.25500000920E-02 0. -1.
        2   -1    0    0  501    0  0.00000000000E+00  0.00000000000E+00 -0.22568934424E+04  0.22568934424E+04  0.25500000920E-02 0.  1.
    10030    2    1    2    0    0  0.00000000000E+00  0.00000000000E+00 -0.16097760159E+04  0.29040108689E+04  0.24170023387E+04 0.  0.
        5    1    3    3  502    0  0.81686932121E+03 -0.27325154740E+03 -0.18233337687E+04  0.20165589548E+04  0.46999998093E+01 0.  1.
       -5    1    3    3    0  502 -0.81686932121E+03  0.27325154740E+03  0.21355775278E+03  0.88745191412E+03  0.46999998093E+01 0. -1.
</event>
<event>
 5   0  0.2139556E-05  0.2404103E+04  0.7818609E-02  0.8437969E-01
        1   -1    0    0  501    0  0.00000000000E+00  0.00000000000E+00  0.13975435114E+04  0.13975435114E+04  0.50400001928E-02 0. -1.
       -1   -1    0    0    0  501  0.00000000000E+00  0.00000000000E+00 -0.10339051297E+04  0.10339051297E+04  0.50400001928E-02 0.  1.
    10030    2    1    2    0    0  0.00000000000E+00  0.00000000000E+00  0.36363838171E+03  0.24314486411E+04  0.24041026645E+04 0.  0.
        2    1    3    3  502    0  0.36751657482E+02  0.39195278128E+02  0.13963284001E+04  0.13973617839E+04  0.25500000920E-02 0. -1.
       -2    1    3    3    0  502 -0.36751657482E+02 -0.39195278128E+02 -0.10326900184E+04  0.10340868572E+04  0.25500000920E-02 0.  1.
</event>
<event>
 5   0  0.2057599E-05  0.2408843E+04  0.7818609E-02  0.8436200E-01
        1   -1    0    0  501    0  0.00000000000E+00  0.00000000000E+00  0.19691325504E+04  0.19691325504E+04  0.50400001928E-02 0.  1.
       -1   -1    0    0    0  501  0.00000000000E+00  0.00000000000E+00 -0.73668535862E+03  0.73668535864E+03  0.50400001928E-02 0. -1.
    10030    2    1    2    0    0  0.00000000000E+00  0.00000000000E+00  0.12324471918E+04  0.27058179091E+04  0.24088429746E+04 0.  0.
        4    1    3    3  502    0 -0.62028013130E+03 -0.25402504871E+03 -0.50782154267E+03  0.84092835531E+03  0.12699999809E+01 0. -1.
       -4    1    3    3    0  502  0.62028013130E+03  0.25402504871E+03  0.17402687345E+04  0.18648895538E+04  0.12699999809E+01 0.  1.
</event>
<event>
 5   0  0.2065692E-05  0.2403769E+04  0.7818609E-02  0.8438094E-01
       -1   -1    0    0    0  501  0.00000000000E+00  0.00000000000E+00  0.71086138904E+03  0.71086138906E+03  0.50400001928E-02 0. -1.
        1   -1    0    0  501    0  0.00000000000E+00  0.00000000000E+00 -0.20320788524E+04  0.20320788524E+04  0.50400001928E-02 0.  1.
    10030    2    1    2    0    0  0.00000000000E+00  0.00000000000E+00 -0.13212174633E+04  0.27429402414E+04  0.24037690369E+04 0.  0.
        3    1    3    3  502    0  0.92531160453E+02  0.65521375043E+03 -0.18055016439E+04  0.19229413072E+04  0.10100000352E+00 0.  1.
       -3    1    3    3    0  502 -0.92531160453E+02 -0.65521375043E+03  0.48428418060E+03  0.81999893426E+03  0.10100000352E+00 0. -1.
</event>
<event>
 5   0  0.2149920E-05  0.2302434E+04  0.7818609E-02  0.8476962E-01
        1   -1    0    0  501    0  0.00000000000E+00  0.00000000000E+00  0.11647245486E+04  0.11647245486E+04  0.50400001928E-02 0. -1.
       -1   -1    0    0    0  501  0.00000000000E+00  0.00000000000E+00 -0.11378657652E+04  0.11378657652E+04  0.50400001928E-02 0.  1.
    10030    2    1    2    0    0  0.00000000000E+00  0.00000000000E+00  0.26858783426E+02  0.23025903138E+04  0.23024336600E+04 0.  0.
        5    1    3    3  502    0 -0.74769604054E+03 -0.54114199029E+03  0.70151259677E+03  0.11593213688E+04  0.46999998093E+01 0. -1.
       -5    1    3    3    0  502  0.74769604054E+03  0.54114199029E+03 -0.67465381335E+03  0.11432689450E+04  0.46999998093E+01 0.  1.
</event>
<event>
 5   0  0.4756705E-05  0.2448619E+04  0.7818609E-02  0.8421523E-01
       -2   -1    0    0    0  501  0.00000000000E+00  0.00000000000E+00  0.10403714308E+04  0.10403714308E+04  0.25500000920E-02 0. -1.
        2   -1    0    0  501    0  0.00000000000E+00  0.00000000000E+00 -0.14407674439E+04  0.14407674439E+04  0.25500000920E-02 0.  1.
    10030    2    1    2    0    0  0.00000000000E+00  0.00000000000E+00 -0.40039601316E+03  0.24811388747E+04  0.24486186204E+04 0.  0.
        3    1    3    3  502    0  0.10581124237E+04  0.27645385210E+03  0.35747919571E+03  0.11505737782E+04  0.10100000352E+00 0. -1.
       -3    1    3    3    0  502 -0.10581124237E+04 -0.27645385210E+03 -0.75787520887E+03  0.13305650965E+04  0.10100000352E+00 0.  1.
</event>
<event>
 5   0  0.2090039E-05  0.2404417E+04  0.7818609E-02  0.8437852E-01
       -1   -1    0    0    0  501  0.00000000000E+00  0.00000000000E+00  0.57255106662E+03  0.57255106665E+03  0.50400001928E-02 0.  1.
        1   -1    0    0  501    0  0.00000000000E+00  0.00000000000E+00 -0.25243255080E+04  0.25243255080E+04  0.50400001928E-02 0. -1.
    10030    2    1    2    0    0  0.00000000000E+00  0.00000000000E+00 -0.19517744414E+04  0.30968765747E+04  0.24044169873E+04 0.  0.
        1    1    3    3  502    0 -0.11061537562E+04  0.24995082295E+03 -0.14898822235E+04  0.18723783235E+04  0.50400001928E-02 0.  1.
       -1    1    3    3    0  502  0.11061537562E+04 -0.24995082295E+03 -0.46189221787E+03  0.12244982512E+04  0.50400001928E-02 0. -1.
</event>
<event>
 5   0  0.4856882E-05  0.2442459E+04  0.7818609E-02  0.8423777E-01
        2   -1    0    0  501    0  0.00000000000E+00  0.00000000000E+00  0.20735276900E+04  0.20735276900E+04  0.25500000920E-02 0. -1.
       -2   -1    0    0    0  501  0.00000000000E+00  0.00000000000E+00 -0.71925776373E+03  0.71925776374E+03  0.25500000920E-02 0.  1.
    10030    2    1    2    0    0  0.00000000000E+00  0.00000000000E+00  0.13542699263E+04  0.27927854538E+04  0.24424585068E+04 0.  0.
        1    1    3    3  502    0 -0.14383080490E+03  0.95300579536E+03 -0.18043418789E+03  0.98054262662E+03  0.50400001928E-02 0.  1.
       -1    1    3    3    0  502  0.14383080490E+03 -0.95300579536E+03  0.15347041142E+04  0.18122428271E+04  0.50400001928E-02 0. -1.
</event>
<event>
 5   0  0.2065692E-05  0.2358144E+04  0.7818609E-02  0.8455342E-01
        1   -1    0    0  501    0  0.00000000000E+00  0.00000000000E+00  0.14593232569E+04  0.14593232569E+04  0.50400001928E-02 0. -1.
       -1   -1    0    0    0  501  0.00000000000E+00  0.00000000000E+00 -0.95264038870E+03  0.95264038871E+03  0.50400001928E-02 0.  1.
    10030    2    1    2    0    0  0.00000000000E+00  0.00000000000E+00  0.50668286823E+03  0.24119636456E+04  0.23581435705E+04 0.  0.
        3    1    3    3  502    0  0.43204519700E+03 -0.73276202950E+03  0.10884356133E+04  0.13814106336E+04  0.10100000352E+00 0. -1.
       -3    1    3    3    0  502 -0.43204519700E+03  0.73276202950E+03 -0.58175274503E+03  0.10305530121E+04  0.10100000352E+00 0.  1.
</event>
<event>
 5   0  0.2139556E-05  0.2390203E+04  0.7818609E-02  0.8443181E-01
       -1   -1    0    0    0  501  0.00000000000E+00  0.00000000000E+00  0.77178018115E+03  0.77178018116E+03  0.50400001928E-02 0. -1.
        1   -1    0    0  501    0  0.00000000000E+00  0.00000000000E+00 -0.18506140068E+04  0.18506140068E+04  0.50400001928E-02 0.  1.
    10030    2    1    2    0    0  0.00000000000E+00  0.00000000000E+00 -0.10788338256E+04  0.26223941879E+04  0.23902026804E+04 0.  0.
        2    1    3    3  502    0  0.87756733744E+03  0.20256728349E+03 -0.14012919104E+04  0.16657661763E+04  0.25500000920E-02 0.  1.
       -2    1    3    3    0  502 -0.87756733744E+03 -0.20256728349E+03  0.32245808480E+03  0.95662801158E+03  0.25500000920E-02 0. -1.
</event>
<event>
 5   0  0.2149920E-05  0.2342491E+04  0.7818609E-02  0.8461353E-01
       -1   -1    0    0    0  501  0.00000000000E+00  0.00000000000E+00  0.12958911868E+04  0.12958911868E+04  0.50400001928E-02 0. -1.
        1   -1    0    0  501    0  0.00000000000E+00  0.00000000000E+00 -0.10585887651E+04  0.10585887651E+04  0.50400001928E-02 0.  1.
    10030    2    1    2    0    0  0.00000000000E+00  0.00000000000E+00  0.23730242170E+03  0.23544799519E+04  0.23424908547E+04 0.  0.
        5    1    3    3  502    0 -0.52929519180E+03  0.54461654213E+03  0.10148610769E+04  0.12675668319E+04  0.46999998093E+01 0. -1.
       -5    1    3    3    0  502  0.52929519180E+03 -0.54461654213E+03 -0.77755865521E+03  0.10869131199E+04  0.46999998093E+01 0.  1.
</event>
<event>
 5   0  0.4713971E-05  0.2417560E+04  0.7818609E-02  0.8432959E-01
       -2   -1    0    0    0  501  0.00000000000E+00  0.00000000000E+00  0.66894728076E+03  0.66894728076E+03  0.25500000920E-02 0.  1.
        2   -1    0    0  501    0  0.00000000000E+00  0.00000000000E+00 -0.21842510646E+04  0.21842510646E+04  0.25500000920E-02 0. -1.
    10030    2    1    2    0    0  0.00000000000E+00  0.00000000000E+00 -0.15153037838E+04  0.28531983453E+04  0.24175597698E+04 0.  0.
        5    1    3    3  502    0  0.77122119538E+03  0.45192659317E+03  0.20267438907E+03  0.91657993421E+03  0.46999998093E+01 0.  1.
       -5    1    3    3    0  502 -0.77122119538E+03 -0.45192659317E+03 -0.17179781729E+04  0.19366184111E+04  0.46999998093E+01 0. -1.
</event>
<event>
 5   0  0.4713971E-05  0.2401800E+04  0.7818609E-02  0.8438830E-01
        2   -1    0    0  501    0  0.00000000000E+00  0.00000000000E+00  0.21321290891E+04  0.21321290891E+04  0.25500000920E-02 0.  1.
       -2   -1    0    0    0  501  0.00000000000E+00  0.00000000000E+00 -0.67639471920E+03  0.67639471921E+03  0.25500000920E-02 0. -1.
    10030    2    1    2    0    0  0.00000000000E+00  0.00000000000E+00  0.14557343699E+04  0.28085238084E+04  0.24018000388E+04 0.  0.
        5    1    3    3  502    0 -0.40428433633E+03 -0.10117008714E+04  0.13185341723E+04  0.17104206884E+04  0.46999998093E+01 0. -1.
       -5    1    3    3    0  502  0.40428433633E+03  0.10117008714E+04  0.13720019765E+03  0.10981031200E+04  0.46999998093E+01 0.  1.
</event>
<event>
 5   0  0.4713971E-05  0.2380184E+04  0.7818609E-02  0.8446960E-01
        2   -1    0    0  501    0  0.00000000000E+00  0.00000000000E+00  0.16124194426E+04  0.16124194426E+04  0.25500000920E-02 0.  1.
       -2   -1    0    0    0  501  0.00000000000E+00  0.00000000000E+00 -0.87838153589E+03  0.87838153590E+03  0.25500000920E-02 0. -1.
    10030    2    1    2    0    0  0.00000000000E+00  0.00000000000E+00  0.73403790672E+03  0.24908009785E+04  0.23801844185E+04 0.  0.
        5    1    3    3  502    0 -0.58108340113E+03  0.50574644775E+03 -0.58225462342E+03  0.96565000128E+03  0.46999998093E+01 0.  1.
       -5    1    3    3    0  502  0.58108340113E+03 -0.50574644775E+03  0.13162925301E+04  0.15251509772E+04  0.46999998093E+01 0. -1.
</event>
<event>
 5   0  0.2057599E-05  0.2193497E+04  0.7818609E-02  0.8521140E-01
        1   -1    0    0  501    0  0.00000000000E+00  0.00000000000E+00  0.15040849637E+04  0.15040849637E+04  0.50400001928E-02 0.  1.
       -1   -1    0    0    0  501  0.00000000000E+00  0.00000000000E+00 -0.79972721458E+03  0.79972721460E+03  0.50400001928E-02 0. -1.
    10030    2    1    2    0    0  0.00000000000E+00  0.00000000000E+00  0.70435774910E+03  0.23038121783E+04  0.21934973704E+04 0.  0.
        4    1    3    3  502    0 -0.80698677374E+02 -0.98141375967E+03 -0.15498353077E+03  0.99684840970E+03  0.12699999809E+01 0. -1.
       -4    1    3    3    0  502  0.80698677374E+02  0.98141375967E+03  0.85934127987E+03  0.13069637686E+04  0.12699999809E+01 0.  1.
</event>
<event>
 5   0  0.4914005E-05  0.2361403E+04  0.7818609E-02  0.8454096E-01
       -2   -1    0    0    0  501  0.00000000000E+00  0.00000000000E+00  0.14447034725E+04  0.14447034725E+04  0.25500000920E-02 0. -1.
        2   -1    0    0  501    0  0.00000000000E+00  0.00000000000E+00 -0.96494306878E+03  0.96494306878E+03  0.25500000920E-02 0.  1.
    10030    2    1    2    0    0  0.00000000000E+00  0.00000000000E+00  0.47976040374E+03  0.24096465413E+04  0.23614034829E+04 0.  0.
        2    1    3    3  502    0 -0.11261255878E+04  0.32552125783E+03  0.38395128207E+03  0.12335078094E+04  0.25500000920E-02 0.  1.
       -2    1    3    3    0  502  0.11261255878E+04 -0.32552125783E+03  0.95809121668E+02  0.11761387319E+04  0.25500000920E-02 0. -1.
</event>
<event>
 5   0  0.4756705E-05  0.1981879E+04  0.7818609E-02  0.8615140E-01
       -2   -1    0    0    0  501  0.00000000000E+00  0.00000000000E+00  0.63765326141E+03  0.63765326142E+03  0.25500000920E-02 0. -1.
        2   -1    0    0  501    0  0.00000000000E+00  0.00000000000E+00 -0.15399610570E+04  0.15399610570E+04  0.25500000920E-02 0.  1.
    10030    2    1    2    0    0  0.00000000000E+00  0.00000000000E+00 -0.90230779558E+03  0.21776143184E+04  0.19818790987E+04 0.  0.
        3    1    3    3  502    0  0.71105742686E+03  0.54043213029E+02 -0.12071773929E+04  0.14020701129E+04  0.10100000352E+00 0. -1.
       -3    1    3    3    0  502 -0.71105742686E+03 -0.54043213029E+02  0.30486959735E+03  0.77554420555E+03  0.10100000352E+00 0.  1.
</event>
<event>
 5   0  0.2090039E-05  0.2419513E+04  0.7818609E-02  0.8432234E-01
        1   -1    0    0  501    0  0.00000000000E+00  0.00000000000E+00  0.13563624548E+04  0.13563624548E+04  0.50400001928E-02 0.  1.
       -1   -1    0    0    0  501  0.00000000000E+00  0.00000000000E+00 -0.10789965747E+04  0.10789965748E+04  0.50400001928E-02 0. -1.
    10030    2    1    2    0    0  0.00000000000E+00  0.00000000000E+00  0.27736588005E+03  0.24353590296E+04  0.24195127136E+04 0.  0.
        1    1    3    3  502    0 -0.10117250793E+03  0.50083853793E+03 -0.96505494671E+03  0.10919735197E+04  0.50400001928E-02 0. -1.
       -1    1    3    3    0  502  0.10117250793E+03 -0.50083853793E+03  0.12424208268E+04  0.13433855099E+04  0.50400001928E-02 0.  1.
</event>
<event>
 5   0  0.4756705E-05  0.2434321E+04  0.7818609E-02  0.8426765E-01
        2   -1    0    0  501    0  0.00000000000E+00  0.00000000000E+00  0.14816884241E+04  0.14816884241E+04  0.25500000920E-02 0.  1.
       -2   -1    0    0    0  501  0.00000000000E+00  0.00000000000E+00 -0.99985872842E+03  0.99985872842E+03  0.25500000920E-02 0. -1.
    10030    2    1    2    0    0  0.00000000000E+00  0.00000000000E+00  0.48182969566E+03  0.24815471525E+04  0.24343205242E+04 0.  0.
        3    1    3    3  502    0 -0.84045147024E+03 -0.80697230047E+03 -0.11793162725E+03  0.11710981370E+04  0.10100000352E+00 0. -1.
       -3    1    3    3    0  502  0.84045147024E+03  0.80697230047E+03  0.59976132291E+03  0.13104490155E+04  0.10100000352E+00 0.  1.
</event>
<event>
 5   0  0.2057599E-05  0.2192639E+04  0.7818609E-02  0.8521498E-01
       -1   -1    0    0    0  501  0.00000000000E+00  0.00000000000E+00  0.61454099692E+03  0.61454099694E+03  0.50400001928E-02 0. -1.
        1   -1    0    0  501    0  0.00000000000E+00  0.00000000000E+00 -0.19557956479E+04  0.19557956479E+04  0.50400001928E-02 0.  1.
    10030    2    1    2    0    0  0.00000000000E+00  0.00000000000E+00 -0.13412546509E+04  0.25703366448E+04  0.21926391470E+04 0.  0.
        4    1    3    3  502    0  0.81623585905E+03  0.67240740674E+03 -0.10094527943E+04  0.14619744372E+04  0.12699999809E+01 0. -1.
       -4    1    3    3    0  502 -0.81623585905E+03 -0.67240740674E+03 -0.33180185662E+03  0.11083622076E+04  0.12699999809E+01 0.  1.
</event>
<event>
 5   0  0.4713971E-05  0.2366755E+04  0.7818609E-02  0.8452056E-01
        2   -1    0    0  501    0  0.00000000000E+00  0.00000000000E+00  0.24616499847E+04  0.24616499847E+04  0.25500000920E-02 0.  1.
       -2   -1    0    0    0  501  0.00000000000E+00  0.00000000000E+00 -0.56887936146E+03  0.56887936146E+03  0.25500000920E-02 0. -1.
    10030    2    1    2    0    0  0.00000000000E+00  0.00000000000E+00  0.18927706232E+04  0.30305293462E+04  0.23667546315E+04 0.  0.
        5    1    3    3  502    0 -0.58382876412E+03 -0.47064584098E+03 -0.22577306436E+03  0.78317245868E+03  0.46999998093E+01 0. -1.
       -5    1    3    3    0  502  0.58382876412E+03  0.47064584098E+03  0.21185436876E+04  0.22473568875E+04  0.46999998093E+01 0.  1.
</event>
<event>
 5   0  0.2065692E-05  0.2421533E+04  0.7818609E-02  0.8431486E-01
       -1   -1    0    0    0  501  0.00000000000E+00  0.00000000000E+00  0.20006358078E+04  0.20006358078E+04  0.50400001928E-02 0. -1.
        1   -1    0    0  501    0  0.00000000000E+00  0.00000000000E+00 -0.73274496688E+03  0.73274496690E+03  0.50400001928E-02 0.  1.
    10030    2    1    2    0    0  0.00000000000E+00  0.00000000000E+00  0.12678908409E+04  0.27333807747E+04  0.24215332488E+04 0.  0.
        3    1    3    3  502    0 -0.11728088162E+04 -0.20471443429E+03  0.88270604191E+03  0.14820791091E+04  0.10100000352E+00 0. -1.
       -3    1    3    3    0  502  0.11728088162E+04  0.20471443429E+03  0.38518479900E+03  0.12513016656E+04  0.10100000352E+00 0.  1.
</event>
<event>
 5   0  0.4914005E-05  0.2342412E+04  0.7818609E-02  0.8461384E-01
        2   -1    0    0  501    0  0.00000000000E+00  0.00000000000E+00  0.22778414207E+04  0.22778414207E+04  0.25500000920E-02 0. -1.
       -2   -1    0    0    0  501  0.00000000000E+00  0.00000000000E+00 -0.60220317857E+03  0.60220317857E+03  0.25500000920E-02 0.  1.
    10030    2    1    2    0    0  0.00000000000E+00  0.00000000000E+00  0.16756382421E+04  0.28800445993E+04  0.23424118714E+04 0.  0.
        2    1    3    3  502    0 -0.44215838669E+03  0.66444664805E+03 -0.21608190290E+03  0.82685233010E+03  0.25500000920E-02 0.  1.
       -2    1    3    3    0  502  0.44215838669E+03 -0.66444664805E+03  0.18917201450E+04  0.20531922692E+04  0.25500000920E-02 0. -1.
</event>
<event>
 5   0  0.2149920E-05  0.2348140E+04  0.7818609E-02  0.8459179E-01
       -1   -1    0    0    0  501  0.00000000000E+00  0.00000000000E+00  0.87665978795E+03  0.87665978796E+03  0.50400001928E-02 0.  1.
        1   -1    0    0  501    0  0.00000000000E+00  0.00000000000E+00 -0.15723772820E+04  0.15723772820E+04  0.50400001928E-02 0. -1.
    10030    2    1    2    0    0  0.00000000000E+00  0.00000000000E+00 -0.69571749404E+03  0.24490370700E+04  0.23481396335E+04 0.  0.
        5    1    3    3  502    0  0.79835383551E+01 -0.11415001010E+04 -0.61599111334E+02  0.11431984771E+04  0.46999998093E+01 0.  1.
       -5    1    3    3    0  502 -0.79835383551E+01  0.11415001010E+04 -0.63411838271E+03  0.13058385929E+04  0.46999998093E+01 0. -1.
</event>
<event>
 5   0  0.2139556E-05  0.2396552E+04  0.7818609E-02  0.8440795E-01
       -1   -1    0    0    0  501  0.00000000000E+00  0.00000000000E+00  0.11330980307E+04  0.11330980307E+04  0.50400001928E-02 0. -1.
        1   -1    0    0  501    0  0.00000000000E+00  0.00000000000E+00 -0.12672034311E+04  0.12672034311E+04  0.50400001928E-02 0.  1.
    10030    2    1    2    0    0  0.00000000000E+00  0.00000000000E+00 -0.13410540045E+03  0.24003014618E+04  0.23965522839E+04 0.  0.
        2    1    3    3  502    0 -0.10496681458E+04 -0.52079982923E+03 -0.31810403130E+03  0.12141770271E+04  0.25500000920E-02 0.  1.
       -2    1    3    3    0  502  0.10496681458E+04  0.52079982923E+03  0.18399863085E+03  0.11861244347E+04  0.25500000920E-02 0. -1.
</event>
<event>
 5   0  0.2149920E-05  0.2429203E+04  0.7818609E-02  0.8428650E-01
       -1   -1    0    0    0  501  0.00000000000E+00  0.00000000000E+00  0.76695417871E+03  0.76695417873E+03  0.50400001928E-02 0. -1.
        1   -1    0    0  501    0  0.00000000000E+00  0.00000000000E+00 -0.19235274122E+04  0.19235274122E+04  0.50400001928E-02 0.  1.
    10030    2    1    2    0    0  0.00000000000E+00  0.00000000000E+00 -0.11565732335E+04  0.26904815909E+04  0.24292034799E+04 0.  0.
        5    1    3    3  502    0  0.44530342755E+03  0.46125118697E+03  0.56426336111E+03  0.85408607925E+03  0.46999998093E+01 0. -1.
       -5    1    3    3    0  502 -0.44530342755E+03 -0.46125118697E+03 -0.17208365946E+04  0.18363955117E+04  0.46999998093E+01 0.  1.
</event>
<event>
 5   0  0.4713971E-05  0.2413502E+04  0.7818609E-02  0.8434466E-01
       -2   -1    0    0    0  501  0.00000000000E+00  0.00000000000E+00  0.65574830953E+03  0.65574830953E+03  0.25500000920E-02 0. -1.
        2   -1    0    0  501    0  0.00000000000E+00  0.00000000000E+00 -0.22207428957E+04  0.22207428957E+04  0.25500000920E-02 0.  1.
    10030    2    1    2    0    0  0.00000000000E+00  0.00000000000E+00 -0.15649945862E+04  0.28764912053E+04  0.24135023512E+04 0.  0.
        5    1    3    3  502    0 -0.90507716019E+03 -0.77598628761E+03 -0.55982246653E+03  0.13170963019E+04  0.46999998093E+01 0. -1.
       -5    1    3    3    0  502  0.90507716019E+03  0.77598628761E+03 -0.10051721197E+04  0.15593949034E+04  0.46999998093E+01 0.  1.
</event>
<event>
 5   0  0.2149920E-05  0.2410926E+04  0.7818609E-02  0.8435424E-01
       -1   -1    0    0    0  501  0.00000000000E+00  0.00000000000E+00  0.54826278276E+03  0.54826278279E+03  0.50400001928E-02 0.  1.
        1   -1    0    0  501    0  0.00000000000E+00  0.00000000000E+00 -0.26504458075E+04  0.26504458075E+04  0.50400001928E-02 0. -1.
    10030    2    1    2    0    0  0.00000000000E+00  0.00000000000E+00 -0.21021830247E+04  0.31987085903E+04  0.24109257923E+04 0.  0.
        5    1    3    3  502    0  0.38635595579E+03  0.96693353289E+03 -0.24527214983E+03  0.10697718911E+04  0.46999998093E+01 0. -1.
       -5    1    3    3    0  502 -0.38635595579E+03 -0.96693353289E+03 -0.18569108749E+04  0.21289366991E+04  0.46999998093E+01 0.  1.
</event>
<event>
 5   0  0.4856882E-05  0.2409645E+04  0.7818609E-02  0.8435902E-01
       -2   -1    0    0    0  501  0.00000000000E+00  0.00000000000E+00  0.61913201519E+03  0.61913201520E+03  0.25500000920E-02 0. -1.
        2   -1    0    0  501    0  0.00000000000E+00  0.00000000000E+00 -0.23445678697E+04  0.23445678697E+04  0.25500000920E-02 0.  1.
    10030    2    1    2    0    0  0.00000000000E+00  0.00000000000E+00 -0.17254358545E+04  0.29636998849E+04  0.24096448119E+04 0.  0.
        1    1    3    3  502    0  0.10322706554E+03 -0.77241144853E+03  0.26742971271E+03  0.82388950967E+03  0.50400001928E-02 0. -1.
       -1    1    3    3    0  502 -0.10322706554E+03  0.77241144853E+03 -0.19928655672E+04  0.21398103752E+04  0.50400001928E-02 0.  1.
</event>
<event>
 5   0  0.4713971E-05  0.2378184E+04  0.7818609E-02  0.8447717E-01
       -2   -1    0    0    0  501  0.00000000000E+00  0.00000000000E+00  0.83863618414E+03  0.83863618415E+03  0.25500000920E-02 0.  1.
        2   -1    0    0  501    0  0.00000000000E+00  0.00000000000E+00 -0.16859986204E+04  0.16859986204E+04  0.25500000920E-02 0. -1.
    10030    2    1    2    0    0  0.00000000000E+00  0.00000000000E+00 -0.84736243621E+03  0.25246348045E+04  0.23781837183E+04 0.  0.
        5    1    3    3  502    0 -0.29402405279E+03 -0.48810972661E+03  0.68424334715E+03  0.89045622967E+03  0.46999998093E+01 0.  1.
       -5    1    3    3    0  502  0.29402405279E+03  0.48810972661E+03 -0.15316057834E+04  0.16341785748E+04  0.46999998093E+01 0. -1.
</event>
<event>
 5   0  0.4713971E-05  0.1873444E+04  0.7818609E-02  0.8668189E-01
        2   -1    0    0  501    0  0.00000000000E+00  0.00000000000E+00  0.17957946491E+04  0.17957946491E+04  0.25500000920E-02 0.  1.
       -2   -1    0    0    0  501  0.00000000000E+00  0.00000000000E+00 -0.48861250586E+03  0.48861250586E+03  0.25500000920E-02 0. -1.
    10030    2    1    2    0    0  0.00000000000E+00  0.00000000000E+00  0.13071821432E+04  0.22844071550E+04  0.18734435924E+04 0.  0.
        5    1    3    3  502    0  0.39338629930E+03  0.25124223810E+03  0.16438683524E+04  0.17088594713E+04  0.46999998093E+01 0.  1.
       -5    1    3    3    0  502 -0.39338629930E+03 -0.25124223810E+03 -0.33668620918E+03  0.57554768363E+03  0.46999998093E+01 0. -1.
</event>
<event>
 5   0  0.2149920E-05  0.2398569E+04  0.7818609E-02  0.8440040E-01
       -1   -1    0    0    0  501  0.00000000000E+00  0.00000000000E+00  0.85931681647E+03  0.85931681648E+03  0.50400001928E-02 0. -1.
        1   -1    0    0  501    0  0.00000000000E+00  0.00000000000E+00 -0.16737517754E+04  0.16737517754E+04  0.50400001928E-02 0.  1.
    10030    2    1    2    0    0  0.00000000000E+00  0.00000000000E+00 -0.81443495894E+03  0.25330685919E+04  0.23985687793E+04 0.  0.
        5    1    3    3  502    0  0.10510069832E+04 -0.51795978648E+03 -0.67721548513E+03  0.13533443473E+04  0.46999998093E+01 0.  1.
       -5    1    3    3    0  502 -0.10510069832E+04  0.51795978648E+03 -0.13721947381E+03  0.11797242446E+04  0.46999998093E+01 0. -1.
</event>
<event>
 5   0  0.2149920E-05  0.2399131E+04  0.7818609E-02  0.8439829E-01
       -1   -1    0    0    0  501  0.00000000000E+00  0.00000000000E+00  0.69603388956E+03  0.69603388958E+03  0.50400001928E-02 0.  1.
        1   -1    0    0  501    0  0.00000000000E+00  0.00000000000E+00 -0.20673675160E+04  0.20673675160E+04  0.50400001928E-02 0. -1.
    10030    2    1    2    0    0  0.00000000000E+00  0.00000000000E+00 -0.13713336265E+04  0.27634014056E+04  0.23991313873E+04 0.  0.
        5    1    3    3  502    0 -0.11726299012E+04  0.20436272191E+02 -0.39551150457E+03  0.12377115846E+04  0.46999998093E+01 0. -1.
       -5    1    3    3    0  502  0.11726299012E+04 -0.20436272191E+02 -0.97582212191E+03  0.15256898210E+04  0.46999998093E+01 0.  1.
</event>
<event>
 5   0  0.4713971E-05  0.2214204E+04  0.7818609E-02  0.8512539E-01
       -2   -1    0    0    0  501  0.00000000000E+00  0.00000000000E+00  0.93535160226E+03  0.93535160226E+03  0.25500000920E-02 0.  1.
        2   -1    0    0  501    0  0.00000000000E+00  0.00000000000E+00 -0.13103896276E+04  0.13103896276E+04  0.25500000920E-02 0. -1.
    10030    2    1    2    0    0  0.00000000000E+00  0.00000000000E+00 -0.37503802534E+03  0.22457412299E+04  0.22142041801E+04 0.  0.
        5    1    3    3  502    0 -0.13245256238E+03 -0.12560158270E+03 -0.12950118362E+04  0.13078215416E+04  0.46999998093E+01 0. -1.
       -5    1    3    3    0  502  0.13245256238E+03  0.12560158270E+03  0.91997381087E+03  0.93791968822E+03  0.46999998093E+01 0.  1.
</event>
<event>
 5   0  0.2057599E-05  0.2403133E+04  0.7818609E-02  0.8438332E-01
        1   -1    0    0  501    0  0.00000000000E+00  0.00000000000E+00  0.82698789009E+03  0.82698789011E+03  0.50400001928E-02 0. -1.
       -1   -1    0    0    0  501  0.00000000000E+00  0.00000000000E+00 -0.17458081064E+04  0.17458081064E+04  0.50400001928E-02 0.  1.
    10030    2    1    2    0    0  0.00000000000E+00  0.00000000000E+00 -0.91882021634E+03  0.25727959965E+04  0.24031330903E+04 0.  0.
        4    1    3    3  502    0 -0.78357196683E+03  0.90217521310E+03 -0.59421828281E+03  0.13345419150E+04  0.12699999809E+01 0.  1.
       -4    1    3    3    0  502  0.78357196683E+03 -0.90217521310E+03 -0.32460193352E+03  0.12382540816E+04  0.12699999809E+01 0. -1.
</event>
<event>
 5   0  0.4856882E-05  0.1725309E+04  0.7818609E-02  0.8747060E-01
       -2   -1    0    0    0  501  0.00000000000E+00  0.00000000000E+00  0.12225679778E+04  0.12225679778E+04  0.25500000920E-02 0.  1.
        2   -1    0    0  501    0  0.00000000000E+00  0.00000000000E+00 -0.60869626198E+03  0.60869626198E+03  0.25500000920E-02 0. -1.
    10030    2    1    2    0    0  0.00000000000E+00  0.00000000000E+00  0.61387171586E+03  0.18312642398E+04  0.17253087354E+04 0.  0.
        1    1    3    3  502    0  0.74728048291E+03 -0.34588433759E+02  0.76290867944E+03  0.10684821632E+04  0.50400001928E-02 0.  1.
       -1    1    3    3    0  502 -0.74728048291E+03  0.34588433759E+02 -0.14903696358E+03  0.76278207663E+03  0.50400001928E-02 0. -1.
</event>
<event>
 5   0  0.2149920E-05  0.2388629E+04  0.7818609E-02  0.8443773E-01
       -1   -1    0    0    0  501  0.00000000000E+00  0.00000000000E+00  0.13105145988E+04  0.13105145988E+04  0.50400001928E-02 0.  1.
        1   -1    0    0  501    0  0.00000000000E+00  0.00000000000E+00 -0.10884174302E+04  0.10884174302E+04  0.50400001928E-02 0. -1.
    10030    2    1    2    0    0  0.00000000000E+00  0.00000000000E+00  0.22209716865E+03  0.23989320290E+04  0.23886288384E+04 0.  0.
        5    1    3    3  502    0 -0.93065772469E+03 -0.37375403389E+03  0.76234330083E+03  0.12597639766E+04  0.46999998093E+01 0.  1.
       -5    1    3    3    0  502  0.93065772469E+03  0.37375403389E+03 -0.54024613218E+03  0.11391680524E+04  0.46999998093E+01 0. -1.
</event>
<event>
 5   0  0.2090039E-05  0.2378884E+04  0.7818609E-02  0.8447451E-01
       -1   -1    0    0    0  501  0.00000000000E+00  0.00000000000E+00  0.98057274905E+03  0.98057274906E+03  0.50400001928E-02 0.  1.
        1   -1    0    0  501    0  0.00000000000E+00  0.00000000000E+00 -0.14428024489E+04  0.14428024489E+04  0.50400001928E-02 0. -1.
    10030    2    1    2    0    0  0.00000000000E+00  0.00000000000E+00 -0.46222969987E+03  0.24233751980E+04  0.23788844139E+04 0.  0.
        1    1    3    3  502    0 -0.93756952860E+03 -0.18623229798E+03 -0.95220480093E+03  0.13492268426E+04  0.50400001928E-02 0. -1.
       -1    1    3    3    0  502  0.93756952860E+03  0.18623229798E+03  0.48997510106E+03  0.10741483554E+04  0.50400001928E-02 0.  1.
</event>
<event>
 5   0  0.2090039E-05  0.2384839E+04  0.7818609E-02  0.8445202E-01
       -1   -1    0    0    0  501  0.00000000000E+00  0.00000000000E+00  0.60969229700E+03  0.60969229702E+03  0.50400001928E-02 0.  1.
        1   -1    0    0  501    0  0.00000000000E+00  0.00000000000E+00 -0.23321005869E+04  0.23321005869E+04  0.50400001928E-02 0. -1.
    10030    2    1    2    0    0  0.00000000000E+00  0.00000000000E+00 -0.17224082899E+04  0.29417928839E+04  0.23848385804E+04 0.  0.
        1    1    3    3  502    0  0.56296088072E+03 -0.90233120992E+03 -0.15263293481E+04  0.18603246610E+04  0.50400001928E-02 0. -1.
       -1    1    3    3    0  502 -0.56296088072E+03  0.90233120992E+03 -0.19607894180E+03  0.10814682229E+04  0.50400001928E-02 0.  1.
</event>
<event>
 5   0  0.2057599E-05  0.2417700E+04  0.7818609E-02  0.8432907E-01
        1   -1    0    0  501    0  0.00000000000E+00  0.00000000000E+00  0.18012641396E+04  0.18012641396E+04  0.50400001928E-02 0. -1.
       -1   -1    0    0    0  501  0.00000000000E+00  0.00000000000E+00 -0.81127375386E+03  0.81127375388E+03  0.50400001928E-02 0.  1.
    10030    2    1    2    0    0  0.00000000000E+00  0.00000000000E+00  0.98999038572E+03  0.26125378935E+04  0.24176999981E+04 0.  0.
        4    1    3    3  502    0 -0.14237260829E+02  0.10996336887E+04  0.10373597534E+04  0.15117915927E+04  0.12699999809E+01 0. -1.
       -4    1    3    3    0  502  0.14237260829E+02 -0.10996336887E+04 -0.47369367688E+02  0.11007463008E+04  0.12699999809E+01 0.  1.
</event>
<event>
 5   0  0.4664127E-05  0.2523921E+04  0.7818609E-02  0.8394513E-01
        2   -1    0    0  501    0  0.00000000000E+00  0.00000000000E+00  0.13369498245E+04  0.13369498245E+04  0.25500000920E-02 0.  1.
       -2   -1    0    0    0  501  0.00000000000E+00  0.00000000000E+00 -0.11911772415E+04  0.11911772415E+04  0.25500000920E-02 0. -1.
    10030    2    1    2    0    0  0.00000000000E+00  0.00000000000E+00  0.14577258301E+03  0.25281270660E+04  0.25239209211E+04 0.  0.
        4    1    3    3  502    0  0.65170074514E+03 -0.35518719135E+02  0.11547636353E+04  0.13264449129E+04  0.12699999809E+01 0.  1.
       -4    1    3    3    0  502 -0.65170074514E+03  0.35518719135E+02 -0.10089910523E+04  0.12016821531E+04  0.12699999809E+01 0. -1.
</event>
<event>
 5   0  0.4856882E-05  0.2397478E+04  0.7818609E-02  0.8440448E-01
        2   -1    0    0  501    0  0.00000000000E+00  0.00000000000E+00  0.15080133708E+04  0.15080133708E+04  0.25500000920E-02 0. -1.
       -2   -1    0    0    0  501  0.00000000000E+00  0.00000000000E+00 -0.95289277992E+03  0.95289277992E+03  0.25500000920E-02 0.  1.
    10030    2    1    2    0    0  0.00000000000E+00  0.00000000000E+00  0.55512059093E+03  0.24609061508E+04  0.23974778857E+04 0.  0.
        1    1    3    3  502    0 -0.63790831372E+03  0.88788319358E+03 -0.22708830414E+03  0.11166166218E+04  0.50400001928E-02 0.  1.
       -1    1    3    3    0  502  0.63790831372E+03 -0.88788319358E+03  0.78220889507E+03  0.13442895290E+04  0.50400001928E-02 0. -1.
</event>
<event>
 5   0  0.2057599E-05  0.2406266E+04  0.7818609E-02  0.8437161E-01
        1   -1    0    0  501    0  0.00000000000E+00  0.00000000000E+00  0.13554825931E+04  0.13554825931E+04  0.50400001928E-02 0.  1.
       -1   -1    0    0    0  501  0.00000000000E+00  0.00000000000E+00 -0.10679065758E+04  0.10679065758E+04  0.50400001928E-02 0. -1.
    10030    2    1    2    0    0  0.00000000000E+00  0.00000000000E+00  0.28757601732E+03  0.24233891689E+04  0.24062657996E+04 0.  0.
        4    1    3    3  502    0 -0.89463386035E+03 -0.20764797533E+03 -0.63894260248E+03  0.11188103896E+04  0.12699999809E+01 0. -1.
       -4    1    3    3    0  502  0.89463386035E+03  0.20764797533E+03  0.92651861979E+03  0.13045787793E+04  0.12699999809E+01 0.  1.
</event>
<event>
 5   0  0.4713971E-05  0.2312073E+04  0.7818609E-02  0.8473176E-01
        2   -1    0    0  501    0  0.00000000000E+00  0.00000000000E+00  0.14088842384E+04  0.14088842384E+04  0.25500000920E-02 0.  1.
       -2   -1    0    0    0  501  0.00000000000E+00  0.00000000000E+00 -0.94856643920E+03  0.94856643920E+03  0.25500000920E-02 0. -1.
    10030    2    1    2    0    0  0.00000000000E+00  0.00000000000E+00  0.46031779917E+03  0.23574506776E+04  0.23120729273E+04 0.  0.
        5    1    3    3  502    0 -0.38171992465E+03  0.88109876771E+03  0.88649511780E+03  0.13068821000E+04  0.46999998093E+01 0.  1.
       -5    1    3    3    0  502  0.38171992465E+03 -0.88109876771E+03 -0.42617731863E+03  0.10505685776E+04  0.46999998093E+01 0. -1.
</event>
<event>
 5   0  0.4756705E-05  0.2503254E+04  0.7818609E-02  0.8401827E-01
       -2   -1    0    0    0  501  0.00000000000E+00  0.00000000000E+00  0.78277968905E+03  0.78277968905E+03  0.25500000920E-02 0. -1.
        2   -1    0    0  501    0  0.00000000000E+00  0.00000000000E+00 -0.20012911674E+04  0.20012911674E+04  0.25500000920E-02 0.  1.
    10030    2    1    2    0    0  0.00000000000E+00  0.00000000000E+00 -0.12185114784E+04  0.27840708565E+04  0.25032539445E+04 0.  0.
        3    1    3    3  502    0  0.64581127801E+03  0.16601041367E+03 -0.17872953184E+04  0.19076310518E+04  0.10100000352E+00 0.  1.
       -3    1    3    3    0  502 -0.64581127801E+03 -0.16601041367E+03  0.56878384008E+03  0.87643980466E+03  0.10100000352E+00 0. -1.
</event>
<event>
 5   0  0.4664127E-05  0.2151177E+04  0.7818609E-02  0.8539029E-01
       -2   -1    0    0    0  501  0.00000000000E+00  0.00000000000E+00  0.20532889969E+04  0.20532889969E+04  0.25500000920E-02 0.  1.
        2   -1    0    0  501    0  0.00000000000E+00  0.00000000000E+00 -0.56343299449E+03  0.56343299450E+03  0.25500000920E-02 0. -1.
    10030    2    1    2    0    0  0.00000000000E+00  0.00000000000E+00  0.14898560024E+04  0.26167219914E+04  0.21511771364E+04 0.  0.
        4    1    3    3  502    0  0.39704560088E+03  0.82712081831E+02  0.19567124373E+04  0.19983021976E+04  0.12699999809E+01 0.  1.
       -4    1    3    3    0  502 -0.39704560088E+03 -0.82712081831E+02 -0.46685643491E+03  0.61841979381E+03  0.12699999809E+01 0. -1.
</event>
<event>
 5   0  0.4914005E-05  0.2367279E+04  0.7818609E-02  0.8451856E-01
       -2   -1    0    0    0  501  0.00000000000E+00  0.00000000000E+00  0.13076316425E+04  0.13076316425E+04  0.25500000920E-02 0.  1.
        2   -1    0    0  501    0  0.00000000000E+00  0.00000000000E+00 -0.10714044183E+04  0.10714044183E+04  0.25500000920E-02 0. -1.
    10030    2    1    2    0    0  0.00000000000E+00  0.00000000000E+00  0.23622722422E+03  0.23790360608E+04  0.23672788761E+04 0.  0.
        2    1    3    3  502    0 -0.94249690736E+02 -0.11798704802E+04  0.11309230015E+03  0.11890194375E+04  0.25500000920E-02 0.  1.
       -2    1    3    3    0  502  0.94249690736E+02  0.11798704802E+04  0.12313492407E+03  0.11900166234E+04  0.25500000920E-02 0. -1.
</event>
<event>
 5   0  0.4914005E-05  0.1841400E+04  0.7818609E-02  0.8684588E-01
        2   -1    0    0  501    0  0.00000000000E+00  0.00000000000E+00  0.18207903039E+04  0.18207903039E+04  0.25500000920E-02 0.  1.
       -2   -1    0    0    0  501  0.00000000000E+00  0.00000000000E+00 -0.46556066885E+03  0.46556066886E+03  0.25500000920E-02 0. -1.
    10030    2    1    2    0    0  0.00000000000E+00  0.00000000000E+00  0.13552296351E+04  0.22863509728E+04  0.18413998498E+04 0.  0.
        2    1    3    3  502    0 -0.35747274942E+03  0.17056084412E+02 -0.37566459140E+03  0.51884637594E+03  0.25500000920E-02 0. -1.
       -2    1    3    3    0  502  0.35747274942E+03 -0.17056084412E+02  0.17308942265E+04  0.17675045968E+04  0.25500000920E-02 0.  1.
</event>
<event>
 5   0  0.4914005E-05  0.2424758E+04  0.7818609E-02  0.8430292E-01
       -2   -1    0    0    0  501  0.00000000000E+00  0.00000000000E+00  0.10279763599E+04  0.10279763599E+04  0.25500000920E-02 0. -1.
        2   -1    0    0  501    0  0.00000000000E+00  0.00000000000E+00 -0.14298603591E+04  0.14298603591E+04  0.25500000920E-02 0.  1.
    10030    2    1    2    0    0  0.00000000000E+00  0.00000000000E+00 -0.40188399917E+03  0.24578367190E+04  0.24247578412E+04 0.  0.
        2    1    3    3  502    0  0.11052189882E+04 -0.23044059741E+03  0.24695796602E+03  0.11556816680E+04  0.25500000920E-02 0. -1.
       -2    1    3    3    0  502 -0.11052189882E+04  0.23044059741E+03 -0.64884196519E+03  0.13021550509E+04  0.25500000920E-02 0.  1.
</event>
<event>
 5   0  0.4756705E-05  0.2361887E+04  0.7818609E-02  0.8453912E-01
       -2   -1    0    0    0  501  0.00000000000E+00  0.00000000000E+00  0.62831247950E+03  0.62831247950E+03  0.25500000920E-02 0. -1.
        2   -1    0    0  501    0  0.00000000000E+00  0.00000000000E+00 -0.22196393924E+04  0.22196393924E+04  0.25500000920E-02 0.  1.
    10030    2    1    2    0    0  0.00000000000E+00  0.00000000000E+00 -0.15913269129E+04  0.28479518719E+04  0.23618866444E+04 0.  0.
        3    1    3    3  502    0  0.49004649483E+03 -0.99181291226E+03 -0.29734937258E+03  0.11455370267E+04  0.10100000352E+00 0. -1.
       -3    1    3    3    0  502 -0.49004649483E+03  0.99181291226E+03 -0.12939775403E+04  0.17024148452E+04  0.10100000352E+00 0.  1.
</event>
<event>
 5   0  0.4664127E-05  0.2408183E+04  0.7818609E-02  0.8436446E-01
       -2   -1    0    0    0  501  0.00000000000E+00  0.00000000000E+00  0.75706135174E+03  0.75706135175E+03  0.25500000920E-02 0.  1.
        2   -1    0    0  501    0  0.00000000000E+00  0.00000000000E+00 -0.19150850640E+04  0.19150850640E+04  0.25500000920E-02 0. -1.
    10030    2    1    2    0    0  0.00000000000E+00  0.00000000000E+00 -0.11580237122E+04  0.26721464157E+04  0.24081834542E+04 0.  0.
        4    1    3    3  502    0  0.73278135098E+03 -0.94031446950E+03 -0.76691148098E+03  0.14175029603E+04  0.12699999809E+01 0.  1.
       -4    1    3    3    0  502 -0.73278135098E+03  0.94031446950E+03 -0.39111223124E+03  0.12546434554E+04  0.12699999809E+01 0. -1.
</event>
<event>
 5   0  0.4856882E-05  0.2162816E+04  0.7818609E-02  0.8534066E-01
       -2   -1    0    0    0  501  0.00000000000E+00  0.00000000000E+00  0.61625942942E+03  0.61625942942E+03  0.25500000920E-02 0. -1.
        2   -1    0    0  501    0  0.00000000000E+00  0.00000000000E+00 -0.18976469007E+04  0.18976469007E+04  0.25500000920E-02 0.  1.
    10030    2    1    2    0    0  0.00000000000E+00  0.00000000000E+00 -0.12813874713E+04  0.25139063301E+04  0.21628155689E+04 0.  0.
        1    1    3    3  502    0 -0.31099311829E+03 -0.85700917342E+03  0.35320428240E+02  0.91237545759E+03  0.50400001928E-02 0. -1.
       -1    1    3    3    0  502  0.31099311829E+03  0.85700917342E+03 -0.13167078995E+04  0.16015308725E+04  0.50400001928E-02 0.  1.
</event>
<event>
 5   0  0.2090039E-05  0.2410885E+04  0.7818609E-02  0.8435439E-01
       -1   -1    0    0    0  501  0.00000000000E+00  0.00000000000E+00  0.17165924822E+04  0.17165924822E+04  0.50400001928E-02 0.  1.
        1   -1    0    0  501    0  0.00000000000E+00  0.00000000000E+00 -0.84649792785E+03  0.84649792787E+03  0.50400001928E-02 0. -1.
    10030    2    1    2    0    0  0.00000000000E+00  0.00000000000E+00  0.87009455430E+03  0.25630904100E+04  0.24108852973E+04 0.  0.
        1    1    3    3  502    0 -0.10043068084E+04 -0.60967710036E+03  0.72180476132E+03  0.13788910202E+04  0.50400001928E-02 0.  1.
       -1    1    3    3    0  502  0.10043068084E+04  0.60967710036E+03  0.14828979298E+03  0.11841993898E+04  0.50400001928E-02 0. -1.
</event>
<event>
 5   0  0.2065692E-05  0.2327468E+04  0.7818609E-02  0.8467169E-01
       -1   -1    0    0    0  501  0.00000000000E+00  0.00000000000E+00  0.10533730972E+04  0.10533730972E+04  0.50400001928E-02 0. -1.
        1   -1    0    0  501    0  0.00000000000E+00  0.00000000000E+00 -0.12856575591E+04  0.12856575591E+04  0.50400001928E-02 0.  1.
    10030    2    1    2    0    0  0.00000000000E+00  0.00000000000E+00 -0.23228446192E+03  0.23390306563E+04  0.23274682253E+04 0.  0.
        3    1    3    3  502    0  0.11396363081E+04 -0.10271693692E+03 -0.32922240483E+03  0.11906758946E+04  0.10100000352E+00 0. -1.
       -3    1    3    3    0  502 -0.11396363081E+04  0.10271693692E+03  0.96937942906E+02  0.11483547618E+04  0.10100000352E+00 0.  1.
</event>
<event>
 5   0  0.2090039E-05  0.2409249E+04  0.7818609E-02  0.8436049E-01
       -1   -1    0    0    0  501  0.00000000000E+00  0.00000000000E+00  0.86521423664E+03  0.86521423666E+03  0.50400001928E-02 0. -1.
        1   -1    0    0  501    0  0.00000000000E+00  0.00000000000E+00 -0.16771802502E+04  0.16771802502E+04  0.50400001928E-02 0.  1.
    10030    2    1    2    0    0  0.00000000000E+00  0.00000000000E+00 -0.81196601354E+03  0.25423944868E+04  0.24092490364E+04 0.  0.
        1    1    3    3  502    0 -0.31478822364E+03 -0.63264054351E+03 -0.14354984136E+04  0.15999941807E+04  0.50400001928E-02 0.  1.
       -1    1    3    3    0  502  0.31478822364E+03  0.63264054351E+03  0.62353240003E+03  0.94240030610E+03  0.50400001928E-02 0. -1.
</event>
<event>
 5   0  0.4664127E-05  0.2415549E+04  0.7818609E-02  0.8433705E-01
       -2   -1    0    0    0  501  0.00000000000E+00  0.00000000000E+00  0.11642306143E+04  0.11642306143E+04  0.25500000920E-02 0. -1.
        2   -1    0    0  501    0  0.00000000000E+00  0.00000000000E+00 -0.12529466221E+04  0.12529466221E+04  0.25500000920E-02 0.  1.
    10030    2    1    2    0    0  0.00000000000E+00  0.00000000000E+00 -0.88716007802E+02  0.24171772365E+04  0.24155486463E+04 0.  0.
        4    1    3    3  502    0  0.76747910449E+03  0.67709190537E+03 -0.68607000336E+03  0.12321409362E+04  0.12699999809E+01 0.  1.
       -4    1    3    3    0  502 -0.76747910449E+03 -0.67709190537E+03  0.59735399556E+03  0.11850363003E+04  0.12699999809E+01 0. -1.
</event>
<event>
 5   0  0.4914005E-05  0.2386280E+04  0.7818609E-02  0.8444658E-01
       -2   -1    0    0    0  501  0.00000000000E+00  0.00000000000E+00  0.87995202891E+03  0.87995202891E+03  0.25500000920E-02 0.  1.
        2   -1    0    0  501    0  0.00000000000E+00  0.00000000000E+00 -0.16177965977E+04  0.16177965977E+04  0.25500000920E-02 0. -1.
    10030    2    1    2    0    0  0.00000000000E+00  0.00000000000E+00 -0.73784456875E+03  0.24977486266E+04  0.23862802840E+04 0.  0.
        2    1    3    3  502    0  0.11345193062E+04  0.84778710979E+02 -0.74524684598E+03  0.13600420389E+04  0.25500000920E-02 0. -1.
       -2    1    3    3    0  502 -0.11345193062E+04 -0.84778710979E+02  0.74022772245E+01  0.11377065877E+04  0.25500000920E-02 0.  1.
</event>
<event>
 5   0  0.4914005E-05  0.2382572E+04  0.7818609E-02  0.8446057E-01
        2   -1    0    0  501    0  0.00000000000E+00  0.00000000000E+00  0.18973440910E+04  0.18973440910E+04  0.25500000920E-02 0.  1.
       -2   -1    0    0    0  501  0.00000000000E+00  0.00000000000E+00 -0.74797302378E+03  0.74797302378E+03  0.25500000920E-02 0. -1.
    10030    2    1    2    0    0  0.00000000000E+00  0.00000000000E+00  0.11493710672E+04  0.26453171148E+04  0.23825718851E+04 0.  0.
        2    1    3    3  502    0 -0.27114675652E+03  0.44494843775E+03 -0.61474430349E+03  0.80585993479E+03  0.25500000920E-02 0. -1.
       -2    1    3    3    0  502  0.27114675652E+03 -0.44494843775E+03  0.17641153707E+04  0.18394571800E+04  0.25500000920E-02 0.  1.
</event>
<event>
 5   0  0.4856882E-05  0.2408687E+04  0.7818609E-02  0.8436258E-01
       -2   -1    0    0    0  501  0.00000000000E+00  0.00000000000E+00  0.65918012243E+03  0.65918012244E+03  0.25500000920E-02 0.  1.
        2   -1    0    0  501    0  0.00000000000E+00  0.00000000000E+00 -0.22003755631E+04  0.22003755631E+04  0.25500000920E-02 0. -1.
    10030    2    1    2    0    0  0.00000000000E+00  0.00000000000E+00 -0.15411954406E+04  0.28595556855E+04  0.24086874709E+04 0.  0.
        1    1    3    3  502    0 -0.49640928151E+02  0.11374230203E+04 -0.12368581472E+04  0.16810750802E+04  0.50400001928E-02 0. -1.
       -1    1    3    3    0  502  0.49640928151E+02 -0.11374230203E+04 -0.30433729341E+03  0.11784806053E+04  0.50400001928E-02 0.  1.
</event>
<event>
 5   0  0.4713971E-05  0.1792434E+04  0.7818609E-02  0.8710333E-01
        2   -1    0    0  501    0  0.00000000000E+00  0.00000000000E+00  0.22848038763E+04  0.22848038763E+04  0.25500000920E-02 0. -1.
       -2   -1    0    0    0  501  0.00000000000E+00  0.00000000000E+00 -0.35154221760E+03  0.35154221761E+03  0.25500000920E-02 0.  1.
    10030    2    1    2    0    0  0.00000000000E+00  0.00000000000E+00  0.19332616587E+04  0.26363460939E+04  0.17924341232E+04 0.  0.
        5    1    3    3  502    0 -0.10131579647E+03  0.43917999369E+03  0.21059592989E+04  0.21536551758E+04  0.46999998093E+01 0. -1.
       -5    1    3    3    0  502  0.10131579647E+03 -0.43917999369E+03 -0.17269764025E+03  0.48269091810E+03  0.46999998093E+01 0.  1.
</event>
<event>
 5   0  0.2139556E-05  0.2406820E+04  0.7818609E-02  0.8436955E-01
        1   -1    0    0  501    0  0.00000000000E+00  0.00000000000E+00  0.65760387525E+03  0.65760387527E+03  0.50400001928E-02 0.  1.
       -1   -1    0    0    0  501  0.00000000000E+00  0.00000000000E+00 -0.22022303240E+04  0.22022303240E+04  0.50400001928E-02 0. -1.
    10030    2    1    2    0    0  0.00000000000E+00  0.00000000000E+00 -0.15446264487E+04  0.28598341992E+04  0.24068196403E+04 0.  0.
        2    1    3    3  502    0 -0.41021495272E+03 -0.93330217554E+03 -0.12533370318E+02  0.10195520309E+04  0.25500000920E-02 0.  1.
       -2    1    3    3    0  502  0.41021495272E+03  0.93330217554E+03 -0.15320930784E+04  0.18402821683E+04  0.25500000920E-02 0. -1.
</event>
<event>
 5   0  0.2065692E-05  0.2407119E+04  0.7818609E-02  0.8436843E-01
       -1   -1    0    0    0  501  0.00000000000E+00  0.00000000000E+00  0.87606434656E+03  0.87606434657E+03  0.50400001928E-02 0. -1.
        1   -1    0    0  501    0  0.00000000000E+00  0.00000000000E+00 -0.16534808490E+04  0.16534808490E+04  0.50400001928E-02 0.  1.
    10030    2    1    2    0    0  0.00000000000E+00  0.00000000000E+00 -0.77741650240E+03  0.25295451955E+04  0.24071191242E+04 0.  0.
        3    1    3    3  502    0  0.91364600559E+03 -0.81679062848E+02  0.43011004189E+03  0.10131214889E+04  0.10100000352E+00 0. -1.
       -3    1    3    3    0  502 -0.91364600559E+03  0.81679062848E+02 -0.12075265443E+04  0.15164237067E+04  0.10100000352E+00 0.  1.
</event>
<event>
 5   0  0.2090039E-05  0.2395148E+04  0.7818609E-02  0.8441322E-01
        1   -1    0    0  501    0  0.00000000000E+00  0.00000000000E+00  0.11135142071E+04  0.11135142071E+04  0.50400001928E-02 0.  1.
       -1   -1    0    0    0  501  0.00000000000E+00  0.00000000000E+00 -0.12879792140E+04  0.12879792140E+04  0.50400001928E-02 0. -1.
    10030    2    1    2    0    0  0.00000000000E+00  0.00000000000E+00 -0.17446500685E+03  0.24014934211E+04  0.23951477226E+04 0.  0.
        1    1    3    3  502    0 -0.64986968881E+03  0.98659246845E+03  0.10947044858E+03  0.11864565270E+04  0.50400001928E-02 0. -1.
       -1    1    3    3    0  502  0.64986968881E+03 -0.98659246845E+03 -0.28393545543E+03  0.12150368941E+04  0.50400001928E-02 0.  1.
</event>
<event>
 5   0  0.2139556E-05  0.2357222E+04  0.7818609E-02  0.8455695E-01
       -1   -1    0    0    0  501  0.00000000000E+00  0.00000000000E+00  0.15262647967E+04  0.15262647967E+04  0.50400001928E-02 0. -1.
        1   -1    0    0  501    0  0.00000000000E+00  0.00000000000E+00 -0.91014587036E+03  0.91014587037E+03  0.50400001928E-02 0.  1.
    10030    2    1    2    0    0  0.00000000000E+00  0.00000000000E+00  0.61611892631E+03  0.24364106671E+04  0.23572217560E+04 0.  0.
        2    1    3    3  502    0 -0.37264557412E+03  0.10689226134E+04 -0.31084385623E+02  0.11324427210E+04  0.25500000920E-02 0. -1.
       -2    1    3    3    0  502  0.37264557412E+03 -0.10689226134E+04  0.64720331194E+03  0.13039679460E+04  0.25500000920E-02 0.  1.
</event>
<event>
 5   0  0.4756705E-05  0.2380963E+04  0.7818609E-02  0.8446665E-01
       -2   -1    0    0    0  501  0.00000000000E+00  0.00000000000E+00  0.12338502006E+04  0.12338502006E+04  0.25500000920E-02 0.  1.
        2   -1    0    0  501    0  0.00000000000E+00  0.00000000000E+00 -0.11486368813E+04  0.11486368813E+04  0.25500000920E-02 0. -1.
    10030    2    1    2    0    0  0.00000000000E+00  0.00000000000E+00  0.85213319347E+02  0.23824870819E+04  0.23809627015E+04 0.  0.
        3    1    3    3  502    0  0.39497840209E+03  0.83599895485E+03 -0.70776920784E+03  0.11644051925E+04  0.10100000352E+00 0. -1.
       -3    1    3    3    0  502 -0.39497840209E+03 -0.83599895485E+03  0.79298252718E+03  0.12180818894E+04  0.10100000352E+00 0.  1.
</event>
<event>
 5   0  0.2139556E-05  0.2424472E+04  0.7818609E-02  0.8430398E-01
        1   -1    0    0  501    0  0.00000000000E+00  0.00000000000E+00  0.70484704283E+03  0.70484704285E+03  0.50400001928E-02 0.  1.
       -1   -1    0    0    0  501  0.00000000000E+00  0.00000000000E+00 -0.20848718749E+04  0.20848718749E+04  0.50400001928E-02 0. -1.
    10030    2    1    2    0    0  0.00000000000E+00  0.00000000000E+00 -0.13800248320E+04  0.27897189177E+04  0.24244717162E+04 0.  0.
        2    1    3    3  502    0 -0.78979409317E+03 -0.91209273634E+03 -0.82531981354E+03  0.14617936461E+04  0.25500000920E-02 0.  1.
       -2    1    3    3    0  502  0.78979409317E+03  0.91209273634E+03 -0.55470501848E+03  0.13279252716E+04  0.25500000920E-02 0. -1.
</event>
<event>
 5   0  0.4713971E-05  0.2388614E+04  0.7818609E-02  0.8443779E-01
        2   -1    0    0  501    0  0.00000000000E+00  0.00000000000E+00  0.10917885281E+04  0.10917885281E+04  0.25500000920E-02 0. -1.
       -2   -1    0    0    0  501  0.00000000000E+00  0.00000000000E+00 -0.13064521307E+04  0.13064521307E+04  0.25500000920E-02 0.  1.
    10030    2    1    2    0    0  0.00000000000E+00  0.00000000000E+00 -0.21466360262E+03  0.23982406588E+04  0.23886141998E+04 0.  0.
        5    1    3    3  502    0  0.32340586945E+03  0.97545457977E+03  0.50359753580E+03  0.11444367880E+04  0.46999998093E+01 0. -1.
       -5    1    3    3    0  502 -0.32340586945E+03 -0.97545457977E+03 -0.71826113842E+03  0.12538038708E+04  0.46999998093E+01 0.  1.
</event>
<event>
 5   0  0.4664127E-05  0.2433300E+04  0.7818609E-02  0.8427141E-01
        2   -1    0    0  501    0  0.00000000000E+00  0.00000000000E+00  0.16267837927E+04  0.16267837927E+04  0.25500000920E-02 0. -1.
       -2   -1    0    0    0  501  0.00000000000E+00  0.00000000000E+00 -0.90991674757E+03  0.90991674757E+03  0.25500000920E-02 0.  1.
    10030    2    1    2    0    0  0.00000000000E+00  0.00000000000E+00  0.71686704514E+03  0.25367005403E+04  0.24333004892E+04 0.  0.
        4    1    3    3  502    0  0.83645189936E+03 -0.32808687050E+03  0.12136237645E+04  0.15100255062E+04  0.12699999809E+01 0. -1.
       -4    1    3    3    0  502 -0.83645189936E+03  0.32808687050E+03 -0.49675671938E+03  0.10266750341E+04  0.12699999809E+01 0.  1.
</event>
<event>
 5   0  0.2149920E-05  0.2099463E+04  0.7818609E-02  0.8561480E-01
        1   -1    0    0  501    0  0.00000000000E+00  0.00000000000E+00  0.12020641944E+04  0.12020641944E+04  0.50400001928E-02 0.  1.
       -1   -1    0    0    0  501  0.00000000000E+00  0.00000000000E+00 -0.91670306496E+03  0.91670306497E+03  0.50400001928E-02 0. -1.
    10030    2    1    2    0    0  0.00000000000E+00  0.00000000000E+00  0.28536112947E+03  0.21187672594E+04  0.20994627230E+04 0.  0.
        5    1    3    3  502    0 -0.30671658790E+03  0.96855166994E+03  0.40920443056E+03  0.10952797627E+04  0.46999998093E+01 0. -1.
       -5    1    3    3    0  502  0.30671658790E+03 -0.96855166994E+03 -0.12384330110E+03  0.10234874967E+04  0.46999998093E+01 0.  1.
</event>
<event>
 5   0  0.2065692E-05  0.2348111E+04  0.7818609E-02  0.8459190E-01
        1   -1    0    0  501    0  0.00000000000E+00  0.00000000000E+00  0.17970131743E+04  0.17970131743E+04  0.50400001928E-02 0.  1.
       -1   -1    0    0    0  501  0.00000000000E+00  0.00000000000E+00 -0.76705388834E+03  0.76705388836E+03  0.50400001928E-02 0. -1.
    10030    2    1    2    0    0  0.00000000000E+00  0.00000000000E+00  0.10299592860E+04  0.25640670627E+04  0.23481106812E+04 0.  0.
        3    1    3    3  502    0 -0.30468363219E+03  0.27088705698E+03  0.17172354523E+04  0.17649672865E+04  0.10100000352E+00 0.  1.
       -3    1    3    3    0  502  0.30468363219E+03 -0.27088705698E+03 -0.68727616634E+03  0.79909977623E+03  0.10100000352E+00 0. -1.
</event>
<event>
 5   0  0.2057599E-05  0.2397913E+04  0.7818609E-02  0.8440285E-01
        1   -1    0    0  501    0  0.00000000000E+00  0.00000000000E+00  0.14517138745E+04  0.14517138745E+04  0.50400001928E-02 0. -1.
       -1   -1    0    0    0  501  0.00000000000E+00  0.00000000000E+00 -0.99020628332E+03  0.99020628333E+03  0.50400001928E-02 0.  1.
    10030    2    1    2    0    0  0.00000000000E+00  0.00000000000E+00  0.46150759121E+03  0.24419201579E+04  0.23979125924E+04 0.  0.
        4    1    3    3  502    0 -0.72011012351E+03 -0.15170841702E+03 -0.73314816042E+03  0.10387886560E+04  0.12699999809E+01 0.  1.
       -4    1    3    3    0  502  0.72011012351E+03  0.15170841702E+03  0.11946557516E+04  0.14031315019E+04  0.12699999809E+01 0. -1.
</event>
<event>
 5   0  0.2149920E-05  0.2415629E+04  0.7818609E-02  0.8433675E-01
       -1   -1    0    0    0  501  0.00000000000E+00  0.00000000000E+00  0.21980478743E+04  0.21980478743E+04  0.50400001928E-02 0.  1.
        1   -1    0    0  501    0  0.00000000000E+00  0.00000000000E+00 -0.66368720699E+03  0.66368720701E+03  0.50400001928E-02 0. -1.
    10030    2    1    2    0    0  0.00000000000E+00  0.00000000000E+00  0.15343606673E+04  0.28617350813E+04  0.24156293214E+04 0.  0.
        5    1    3    3  502    0  0.96115322766E+02  0.99491943265E+03  0.15703962249E+04  0.18615233616E+04  0.46999998093E+01 0.  1.
       -5    1    3    3    0  502 -0.96115322766E+02 -0.99491943265E+03 -0.36035557605E+02  0.10002117197E+04  0.46999998093E+01 0. -1.
</event>
<event>
 5   0  0.4914005E-05  0.2400273E+04  0.7818609E-02  0.8439402E-01
        2   -1    0    0  501    0  0.00000000000E+00  0.00000000000E+00  0.11769062077E+04  0.11769062077E+04  0.25500000920E-02 0. -1.
       -2   -1    0    0    0  501  0.00000000000E+00  0.00000000000E+00 -0.12238248547E+04  0.12238248547E+04  0.25500000920E-02 0.  1.
    10030    2    1    2    0    0  0.00000000000E+00  0.00000000000E+00 -0.46918646970E+02  0.24007310624E+04  0.24002725417E+04 0.  0.
        2    1    3    3  502    0  0.91437119015E+03  0.40993099812E+03  0.63712802483E+03  0.11874553535E+04  0.25500000920E-02 0. -1.
       -2    1    3    3    0  502 -0.91437119015E+03 -0.40993099812E+03 -0.68404667180E+03  0.12132757089E+04  0.25500000920E-02 0.  1.
</event>
<event>
 5   0  0.2139556E-05  0.2361108E+04  0.7818609E-02  0.8454209E-01
       -1   -1    0    0    0  501  0.00000000000E+00  0.00000000000E+00  0.79474959710E+03  0.79474959711E+03  0.50400001928E-02 0. -1.
        1   -1    0    0  501    0  0.00000000000E+00  0.00000000000E+00 -0.17536444014E+04  0.17536444014E+04  0.50400001928E-02 0.  1.
    10030    2    1    2    0    0  0.00000000000E+00  0.00000000000E+00 -0.95889480428E+03  0.25483939985E+04  0.23611083681E+04 0.  0.
        2    1    3    3  502    0  0.28453401696E+03 -0.27942075429E+03  0.71984908433E+03  0.82293272444E+03  0.25500000920E-02 0. -1.
       -2    1    3    3    0  502 -0.28453401696E+03  0.27942075429E+03 -0.16787438886E+04  0.17254612741E+04  0.25500000920E-02 0.  1.
</event>
<event>
 5   0  0.4713971E-05  0.2408219E+04  0.7818609E-02  0.8436433E-01
       -2   -1    0    0    0  501  0.00000000000E+00  0.00000000000E+00  0.86697524497E+03  0.86697524498E+03  0.25500000920E-02 0.  1.
        2   -1    0    0  501    0  0.00000000000E+00  0.00000000000E+00 -0.16723432293E+04  0.16723432293E+04  0.25500000920E-02 0. -1.
    10030    2    1    2    0    0  0.00000000000E+00  0.00000000000E+00 -0.80536798437E+03  0.25393184743E+04  0.24082194094E+04 0.  0.
        5    1    3    3  502    0 -0.95469576356E+03 -0.45107186112E+03  0.20756909754E+03  0.10761119111E+04  0.46999998093E+01 0.  1.
       -5    1    3    3    0  502  0.95469576356E+03  0.45107186112E+03 -0.10129370819E+04  0.14632065633E+04  0.46999998093E+01 0. -1.
</event>
<event>
 5   0  0.2090039E-05  0.2398170E+04  0.7818609E-02  0.8440189E-01
        1   -1    0    0  501    0  0.00000000000E+00  0.00000000000E+00  0.71738967853E+03  0.71738967855E+03  0.50400001928E-02 0.  1.
       -1   -1    0    0    0  501  0.00000000000E+00  0.00000000000E+00 -0.20042171420E+04  0.20042171420E+04  0.50400001928E-02 0. -1.
    10030    2    1    2    0    0  0.00000000000E+00  0.00000000000E+00 -0.12868274634E+04  0.27216068205E+04  0.23981698782E+04 0.  0.
        1    1    3    3  502    0  0.74197548428E+03  0.79599152537E+02  0.42175611535E+03  0.85717084949E+03  0.50400001928E-02 0.  1.
       -1    1    3    3    0  502 -0.74197548428E+03 -0.79599152537E+02 -0.17085835788E+04  0.18644359710E+04  0.50400001928E-02 0. -1.
</event>
<event>
 5   0  0.4756705E-05  0.1718324E+04  0.7818609E-02  0.8750982E-01
       -2   -1    0    0    0  501  0.00000000000E+00  0.00000000000E+00  0.14967936989E+04  0.14967936989E+04  0.25500000920E-02 0.  1.
        2   -1    0    0  501    0  0.00000000000E+00  0.00000000000E+00 -0.49316031354E+03  0.49316031355E+03  0.25500000920E-02 0. -1.
    10030    2    1    2    0    0  0.00000000000E+00  0.00000000000E+00  0.10036333853E+04  0.19899540124E+04  0.17183238925E+04 0.  0.
        3    1    3    3  502    0 -0.43765462880E+03  0.55943451842E+03 -0.57968673066E+02  0.71264923474E+03  0.10100000352E+00 0. -1.
       -3    1    3    3    0  502  0.43765462880E+03 -0.55943451842E+03  0.10616020584E+04  0.12773047777E+04  0.10100000352E+00 0.  1.
</event>
<event>
 5   0  0.4713971E-05  0.2485216E+04  0.7818609E-02  0.8408271E-01
        2   -1    0    0  501    0  0.00000000000E+00  0.00000000000E+00  0.10313167025E+04  0.10313167025E+04  0.25500000920E-02 0. -1.
       -2   -1    0    0    0  501  0.00000000000E+00  0.00000000000E+00 -0.14971874121E+04  0.14971874121E+04  0.25500000920E-02 0.  1.
    10030    2    1    2    0    0  0.00000000000E+00  0.00000000000E+00 -0.46587070961E+03  0.25285041146E+04  0.24852157933E+04 0.  0.
        5    1    3    3  502    0 -0.50187500622E+03  0.18387658041E+02 -0.13893223405E+04  0.14773135360E+04  0.46999998093E+01 0.  1.
       -5    1    3    3    0  502  0.50187500622E+03 -0.18387658041E+02  0.92345163091E+03  0.10511905786E+04  0.46999998093E+01 0. -1.
</event>
<event>
 5   0  0.4713971E-05  0.2265415E+04  0.7818609E-02  0.8491684E-01
        2   -1    0    0  501    0  0.00000000000E+00  0.00000000000E+00  0.31598308173E+04  0.31598308173E+04  0.25500000920E-02 0.  1.
       -2   -1    0    0    0  501  0.00000000000E+00  0.00000000000E+00 -0.40604256629E+03  0.40604256630E+03  0.25500000920E-02 0. -1.
    10030    2    1    2    0    0  0.00000000000E+00  0.00000000000E+00  0.27537882510E+04  0.35658733836E+04  0.22654145882E+04 0.  0.
        5    1    3    3  502    0  0.80774864203E+03  0.11298289821E+03  0.26140812759E+04  0.27383692248E+04  0.46999998093E+01 0.  1.
       -5    1    3    3    0  502 -0.80774864203E+03 -0.11298289821E+03  0.13970697506E+03  0.82750415882E+03  0.46999998093E+01 0. -1.
</event>
<event>
 5   0  0.4756705E-05  0.2391434E+04  0.7818609E-02  0.8442717E-01
       -2   -1    0    0    0  501  0.00000000000E+00  0.00000000000E+00  0.18351503843E+04  0.18351503843E+04  0.25500000920E-02 0. -1.
        2   -1    0    0  501    0  0.00000000000E+00  0.00000000000E+00 -0.77908570845E+03  0.77908570845E+03  0.25500000920E-02 0.  1.
    10030    2    1    2    0    0  0.00000000000E+00  0.00000000000E+00  0.10560646758E+04  0.26142360927E+04  0.23914342452E+04 0.  0.
        3    1    3    3  502    0  0.83198884397E+02  0.10705301640E+04  0.11031486795E+04  0.15394459736E+04  0.10100000352E+00 0. -1.
       -3    1    3    3    0  502 -0.83198884397E+02 -0.10705301640E+04 -0.47084003695E+02  0.10747901191E+04  0.10100000352E+00 0.  1.
</event>
<event>
 5   0  0.2090039E-05  0.2360629E+04  0.7818609E-02  0.8454392E-01
       -1   -1    0    0    0  501  0.00000000000E+00  0.00000000000E+00  0.53419377631E+03  0.53419377633E+03  0.50400001928E-02 0.  1.
        1   -1    0    0  501    0  0.00000000000E+00  0.00000000000E+00 -0.26079352212E+04  0.26079352212E+04  0.50400001928E-02 0. -1.
    10030    2    1    2    0    0  0.00000000000E+00  0.00000000000E+00 -0.20737414449E+04  0.31421289976E+04  0.23606293773E+04 0.  0.
        1    1    3    3  502    0 -0.30207231657E+03  0.38645982099E+03 -0.24658467361E+04  0.25141597013E+04  0.50400001928E-02 0. -1.
       -1    1    3    3    0  502  0.30207231657E+03 -0.38645982099E+03  0.39210529117E+03  0.62796929627E+03  0.50400001928E-02 0.  1.
</event>
<event>
 5   0  0.2057599E-05  0.2431249E+04  0.7818609E-02  0.8427896E-01
       -1   -1    0    0    0  501  0.00000000000E+00  0.00000000000E+00  0.73304801961E+03  0.73304801963E+03  0.50400001928E-02 0.  1.
        1   -1    0    0  501    0  0.00000000000E+00  0.00000000000E+00 -0.20158884972E+04  0.20158884972E+04  0.50400001928E-02 0. -1.
    10030    2    1    2    0    0  0.00000000000E+00  0.00000000000E+00 -0.12828404775E+04  0.27489365168E+04  0.24312491198E+04 0.  0.
        4    1    3    3  502    0  0.88835933119E+02  0.24819737001E+03 -0.19831800338E+04  0.20006245067E+04  0.12699999809E+01 0. -1.
       -4    1    3    3    0  502 -0.88835933119E+02 -0.24819737001E+03  0.70033955625E+03  0.74831201008E+03  0.12699999809E+01 0.  1.
</event>
<event>
 5   0  0.2149920E-05  0.2306575E+04  0.7818609E-02  0.8475333E-01
        1   -1    0    0  501    0  0.00000000000E+00  0.00000000000E+00  0.10020734114E+04  0.10020734114E+04  0.50400001928E-02 0.  1.
       -1   -1    0    0    0  501  0.00000000000E+00  0.00000000000E+00 -0.13273199989E+04  0.13273199989E+04  0.50400001928E-02 0. -1.
    10030    2    1    2    0    0  0.00000000000E+00  0.00000000000E+00 -0.32524658743E+03  0.23293934103E+04  0.23065750188E+04 0.  0.
        5    1    3    3  502    0  0.74423098480E+03 -0.93122831516E+02  0.72211329682E+03  0.10411634473E+04  0.46999998093E+01 0.  1.
       -5    1    3    3    0  502 -0.74423098480E+03  0.93122831516E+02 -0.10473598843E+04  0.12882299630E+04  0.46999998093E+01 0. -1.
</event>
<event>
 5   0  0.4914005E-05  0.2408308E+04  0.7818609E-02  0.8436400E-01
       -2   -1    0    0    0  501  0.00000000000E+00  0.00000000000E+00  0.87517854428E+03  0.87517854429E+03  0.25500000920E-02 0. -1.
        2   -1    0    0  501    0  0.00000000000E+00  0.00000000000E+00 -0.16567891832E+04  0.16567891832E+04  0.25500000920E-02 0.  1.
    10030    2    1    2    0    0  0.00000000000E+00  0.00000000000E+00 -0.78161063895E+03  0.25319677275E+04  0.24083075763E+04 0.  0.
        2    1    3    3  502    0  0.50916589248E+02 -0.83028421457E+03 -0.13061551603E+04  0.15485495403E+04  0.25500000920E-02 0.  1.
       -2    1    3    3    0  502 -0.50916589248E+02  0.83028421457E+03  0.52454452136E+03  0.98341818720E+03  0.25500000920E-02 0. -1.
</event>
<event>
 5   0  0.2065692E-05  0.2395970E+04  0.7818609E-02  0.8441014E-01
       -1   -1    0    0    0  501  0.00000000000E+00  0.00000000000E+00  0.12854546609E+04  0.12854546609E+04  0.50400001928E-02 0. -1.
        1   -1    0    0  501    0  0.00000000000E+00  0.00000000000E+00 -0.11164676378E+04  0.11164676378E+04  0.50400001928E-02 0.  1.
    10030    2    1    2    0    0  0.00000000000E+00  0.00000000000E+00  0.16898702308E+03  0.24019222987E+04  0.23959703911E+04 0.  0.
        3    1    3    3  502    0  0.10792859797E+04 -0.37514256579E+03  0.44535765082E+03  0.12263497128E+04  0.10100000352E+00 0. -1.
       -3    1    3    3    0  502 -0.10792859797E+04  0.37514256579E+03 -0.27637062774E+03  0.11755725859E+04  0.10100000352E+00 0.  1.
</event>
<event>
 5   0  0.2057599E-05  0.2489421E+04  0.7818609E-02  0.8406764E-01
       -1   -1    0    0    0  501  0.00000000000E+00  0.00000000000E+00  0.80592358830E+03  0.80592358832E+03  0.50400001928E-02 0. -1.
        1   -1    0    0  501    0  0.00000000000E+00  0.00000000000E+00 -0.19223951868E+04  0.19223951868E+04  0.50400001928E-02 0.  1.
    10030    2    1    2    0    0  0.00000000000E+00  0.00000000000E+00 -0.11164715985E+04  0.27283187751E+04  0.24894205166E+04 0.  0.
        4    1    3    3  502    0  0.11480256736E+04  0.35123576665E+03 -0.91836093270E+03  0.15115283413E+04  0.12699999809E+01 0.  1.
       -4    1    3    3    0  502 -0.11480256736E+04 -0.35123576665E+03 -0.19811066580E+03  0.12167904338E+04  0.12699999809E+01 0. -1.
</event>
<event>
 5   0  0.4664127E-05  0.2387850E+04  0.7818609E-02  0.8444067E-01
       -2   -1    0    0    0  501  0.00000000000E+00  0.00000000000E+00  0.75742386787E+03  0.75742386787E+03  0.25500000920E-02 0.  1.
        2   -1    0    0  501    0  0.00000000000E+00  0.00000000000E+00 -0.18819798721E+04  0.18819798721E+04  0.25500000920E-02 0. -1.
    10030    2    1    2    0    0  0.00000000000E+00  0.00000000000E+00 -0.11245560042E+04  0.26394037400E+04  0.23878496385E+04 0.  0.
        4    1    3    3  502    0 -0.90305641271E+03 -0.62889060828E+03 -0.10741393520E+04  0.15377877754E+04  0.12699999809E+01 0. -1.
       -4    1    3    3    0  502  0.90305641271E+03  0.62889060828E+03 -0.50416652241E+02  0.11016159646E+04  0.12699999809E+01 0.  1.
</event>
<event>
 5   0  0.2057599E-05  0.2424074E+04  0.7818609E-02  0.8430545E-01
       -1   -1    0    0    0  501  0.00000000000E+00  0.00000000000E+00  0.20056008936E+04  0.20056008936E+04  0.50400001928E-02 0. -1.
        1   -1    0    0  501    0  0.00000000000E+00  0.00000000000E+00 -0.73246562959E+03  0.73246562961E+03  0.50400001928E-02 0.  1.
    10030    2    1    2    0    0  0.00000000000E+00  0.00000000000E+00  0.12731352640E+04  0.27380665232E+04  0.24240740263E+04 0.  0.
        4    1    3    3  502    0 -0.87933689356E+03  0.69603784289E+03  0.11731494498E+03  0.11275932158E+04  0.12699999809E+01 0.  1.
       -4    1    3    3    0  502  0.87933689356E+03 -0.69603784289E+03  0.11558203191E+04  0.16104733074E+04  0.12699999809E+01 0. -1.
</event>
<event>
 5   0  0.2057599E-05  0.2385685E+04  0.7818609E-02  0.8444883E-01
       -1   -1    0    0    0  501  0.00000000000E+00  0.00000000000E+00  0.18573354321E+04  0.18573354321E+04  0.50400001928E-02 0. -1.
        1   -1    0    0  501    0  0.00000000000E+00  0.00000000000E+00 -0.76608285082E+03  0.76608285084E+03  0.50400001928E-02 0.  1.
    10030    2    1    2    0    0  0.00000000000E+00  0.00000000000E+00  0.10912525812E+04  0.26234182829E+04  0.23856846588E+04 0.  0.
        4    1    3    3  502    0 -0.37272046611E+03  0.46866924101E+03 -0.58882667471E+03  0.83981537797E+03  0.12699999809E+01 0.  1.
       -4    1    3    3    0  502  0.37272046611E+03 -0.46866924101E+03  0.16800792559E+04  0.17836029049E+04  0.12699999809E+01 0. -1.
</event>
<event>
 5   0  0.2090039E-05  0.2397443E+04  0.7818609E-02  0.8440461E-01
        1   -1    0    0  501    0  0.00000000000E+00  0.00000000000E+00  0.23220940144E+04  0.23220940144E+04  0.50400001928E-02 0.  1.
       -1   -1    0    0    0  501  0.00000000000E+00  0.00000000000E+00 -0.61880949321E+03  0.61880949323E+03  0.50400001928E-02 0. -1.
    10030    2    1    2    0    0  0.00000000000E+00  0.00000000000E+00  0.17032845212E+04  0.29409035076E+04  0.23974434886E+04 0.  0.
        1    1    3    3  502    0 -0.32749447603E+03 -0.86998051069E+03  0.17800518661E+04  0.20081591986E+04  0.50400001928E-02 0.  1.
       -1    1    3    3    0  502  0.32749447603E+03  0.86998051069E+03 -0.76767344899E+02  0.93274430906E+03  0.50400001928E-02 0. -1.
</event>
<event>
 5   0  0.4856882E-05  0.2391228E+04  0.7818609E-02  0.8442795E-01
       -2   -1    0    0    0  501  0.00000000000E+00  0.00000000000E+00  0.66015774505E+03  0.66015774505E+03  0.25500000920E-02 0.  1.
        2   -1    0    0  501    0  0.00000000000E+00  0.00000000000E+00 -0.21653802697E+04  0.21653802697E+04  0.25500000920E-02 0. -1.
    10030    2    1    2    0    0  0.00000000000E+00  0.00000000000E+00 -0.15052225246E+04  0.28255380147E+04  0.23912277650E+04 0.  0.
        1    1    3    3  502    0 -0.38107109730E+02 -0.20012765614E+03  0.63949783958E+03  0.67116370389E+03  0.50400001928E-02 0.  1.
       -1    1    3    3    0  502  0.38107109730E+02  0.20012765614E+03 -0.21447203642E+04  0.21543743108E+04  0.50400001928E-02 0. -1.
</event>
<event>
 5   0  0.2065692E-05  0.2547212E+04  0.7818609E-02  0.8386356E-01
        1   -1    0    0  501    0  0.00000000000E+00  0.00000000000E+00  0.14489426847E+04  0.14489426847E+04  0.50400001928E-02 0. -1.
       -1   -1    0    0    0  501  0.00000000000E+00  0.00000000000E+00 -0.11194869761E+04  0.11194869761E+04  0.50400001928E-02 0.  1.
    10030    2    1    2    0    0  0.00000000000E+00  0.00000000000E+00  0.32945570865E+03  0.25684296608E+04  0.25472121738E+04 0.  0.
        3    1    3    3  502    0  0.21763090265E+03 -0.65305488173E+03  0.12452078448E+04  0.14228093601E+04  0.10100000352E+00 0. -1.
       -3    1    3    3    0  502 -0.21763090265E+03  0.65305488173E+03 -0.91575213612E+03  0.11456203007E+04  0.10100000352E+00 0.  1.
</event>
<event>
 5   0  0.4914005E-05  0.2288639E+04  0.7818609E-02  0.8482414E-01
        2   -1    0    0  501    0  0.00000000000E+00  0.00000000000E+00  0.77551415523E+03  0.77551415524E+03  0.25500000920E-02 0. -1.
       -2   -1    0    0    0  501  0.00000000000E+00  0.00000000000E+00 -0.16885151891E+04  0.16885151891E+04  0.25500000920E-02 0.  1.
    10030    2    1    2    0    0  0.00000000000E+00  0.00000000000E+00 -0.91300103390E+03  0.24640293444E+04  0.22886392730E+04 0.  0.
        2    1    3    3  502    0  0.69373540888E+03  0.88372967526E+03 -0.69045625467E+03  0.13187026944E+04  0.25500000920E-02 0.  1.
       -2    1    3    3    0  502 -0.69373540888E+03 -0.88372967526E+03 -0.22254477923E+03  0.11453266500E+04  0.25500000920E-02 0. -1.
</event>
<event>
 5   0  0.4756705E-05  0.2606873E+04  0.7818609E-02  0.8365870E-01
        2   -1    0    0  501    0  0.00000000000E+00  0.00000000000E+00  0.13229614652E+04  0.13229614652E+04  0.25500000920E-02 0.  1.
       -2   -1    0    0    0  501  0.00000000000E+00  0.00000000000E+00 -0.12841995511E+04  0.12841995511E+04  0.25500000920E-02 0. -1.
    10030    2    1    2    0    0  0.00000000000E+00  0.00000000000E+00  0.38761914106E+02  0.26071610162E+04  0.26068728543E+04 0.  0.
        3    1    3    3  502    0  0.12221705586E+04 -0.43861197297E+03  0.13281823752E+03  0.13052670346E+04  0.10100000352E+00 0. -1.
       -3    1    3    3    0  502 -0.12221705586E+04  0.43861197297E+03 -0.94056323415E+02  0.13018939816E+04  0.10100000352E+00 0.  1.
</event>
<event>
 5   0  0.1672125E-05  0.2406679E+04  0.7818609E-02  0.8437007E-01
       -3   -1    0    0    0  501  0.00000000000E+00  0.00000000000E+00  0.97282699768E+03  0.97282700292E+03  0.10100000352E+00 0.  1.
        3   -1    0    0  501    0  0.00000000000E+00  0.00000000000E+00 -0.14884719920E+04  0.14884719954E+04  0.10100000352E+00 0. -1.
    10030    2    1    2    0    0  0.00000000000E+00  0.00000000000E+00 -0.51564499429E+03  0.24612989983E+04  0.24066788317E+04 0.  0.
        5    1    3    3  502    0 -0.74154168329E+03 -0.38633843462E+03  0.62718549615E+03  0.10452392983E+04  0.46999998093E+01 0.  1.
       -5    1    3    3    0  502  0.74154168329E+03  0.38633843462E+03 -0.11428304904E+04  0.14160597000E+04  0.46999998093E+01 0. -1.
</event>
<event>
 5   0  0.2149920E-05  0.2411678E+04  0.7818609E-02  0.8435144E-01
        1   -1    0    0  501    0  0.00000000000E+00  0.00000000000E+00  0.15259356952E+04  0.15259356952E+04  0.50400001928E-02 0.  1.
       -1   -1    0    0    0  501  0.00000000000E+00  0.00000000000E+00 -0.95288962034E+03  0.95288962035E+03  0.50400001928E-02 0. -1.
    10030    2    1    2    0    0  0.00000000000E+00  0.00000000000E+00  0.57304607485E+03  0.24788253155E+04  0.24116784904E+04 0.  0.
        5    1    3    3  502    0  0.15755194823E+03  0.31363903860E+03 -0.89921425305E+03  0.96529810204E+03  0.46999998093E+01 0. -1.
       -5    1    3    3    0  502 -0.15755194823E+03 -0.31363903860E+03  0.14722603279E+04  0.15135272135E+04  0.46999998093E+01 0.  1.
</event>
<event>
 5   0  0.4664127E-05  0.2348888E+04  0.7818609E-02  0.8458891E-01
        2   -1    0    0  501    0  0.00000000000E+00  0.00000000000E+00  0.17956796228E+04  0.17956796228E+04  0.25500000920E-02 0. -1.
       -2   -1    0    0    0  501  0.00000000000E+00  0.00000000000E+00 -0.76813159186E+03  0.76813159187E+03  0.25500000920E-02 0.  1.
    10030    2    1    2    0    0  0.00000000000E+00  0.00000000000E+00  0.10275480309E+04  0.25638112146E+04  0.23488876066E+04 0.  0.
        4    1    3    3  502    0 -0.80159276973E+03 -0.54793281481E+03 -0.20738907087E+03  0.99287117878E+03  0.12699999809E+01 0.  1.
       -4    1    3    3    0  502  0.80159276973E+03  0.54793281481E+03  0.12349371018E+04  0.15709400359E+04  0.12699999809E+01 0. -1.
</event>
<event>
 5   0  0.4664127E-05  0.2447209E+04  0.7818609E-02  0.8422038E-01
       -2   -1    0    0    0  501  0.00000000000E+00  0.00000000000E+00  0.88426268677E+03  0.88426268678E+03  0.25500000920E-02 0.  1.
        2   -1    0    0  501    0  0.00000000000E+00  0.00000000000E+00 -0.16931716746E+04  0.16931716746E+04  0.25500000920E-02 0. -1.
    10030    2    1    2    0    0  0.00000000000E+00  0.00000000000E+00 -0.80890898786E+03  0.25774343614E+04  0.24472094591E+04 0.  0.
        4    1    3    3  502    0  0.11414951654E+04 -0.29771057062E+03 -0.74665027210E+03  0.13961128315E+04  0.12699999809E+01 0. -1.
       -4    1    3    3    0  502 -0.11414951654E+04  0.29771057062E+03 -0.62258715757E+02  0.11813215299E+04  0.12699999809E+01 0.  1.
</event>
<event>
 5   0  0.4914005E-05  0.2360793E+04  0.7818609E-02  0.8454330E-01
       -2   -1    0    0    0  501  0.00000000000E+00  0.00000000000E+00  0.10330089541E+04  0.10330089541E+04  0.25500000920E-02 0. -1.
        2   -1    0    0  501    0  0.00000000000E+00  0.00000000000E+00 -0.13488127360E+04  0.13488127360E+04  0.25500000920E-02 0.  1.
    10030    2    1    2    0    0  0.00000000000E+00  0.00000000000E+00 -0.31580378185E+03  0.23818216901E+04  0.23607927767E+04 0.  0.
        2    1    3    3  502    0  0.39679579587E+03 -0.19536230901E+03  0.94625158926E+03  0.10445120419E+04  0.25500000920E-02 0. -1.
       -2    1    3    3    0  502 -0.39679579587E+03  0.19536230901E+03 -0.12620553711E+04  0.13373096482E+04  0.25500000920E-02 0.  1.
</event>
<event>
 5   0  0.2149920E-05  0.2418747E+04  0.7818609E-02  0.8432518E-01
       -1   -1    0    0    0  501  0.00000000000E+00  0.00000000000E+00  0.13844323959E+04  0.13844323959E+04  0.50400001928E-02 0.  1.
        1   -1    0    0  501    0  0.00000000000E+00  0.00000000000E+00 -0.10564502433E+04  0.10564502433E+04  0.50400001928E-02 0. -1.
    10030    2    1    2    0    0  0.00000000000E+00  0.00000000000E+00  0.32798215261E+03  0.24408826392E+04  0.24187467345E+04 0.  0.
        5    1    3    3  502    0  0.32353870946E+03  0.91188574761E+03 -0.56814764778E+03  0.11220636136E+04  0.46999998093E+01 0. -1.
       -5    1    3    3    0  502 -0.32353870946E+03 -0.91188574761E+03  0.89612980038E+03  0.13188190256E+04  0.46999998093E+01 0.  1.
</event>
<event>
 5   0  0.4756705E-05  0.2377406E+04  0.7818609E-02  0.8448011E-01
       -2   -1    0    0    0  501  0.00000000000E+00  0.00000000000E+00  0.98942232904E+03  0.98942232905E+03  0.25500000920E-02 0. -1.
        2   -1    0    0  501    0  0.00000000000E+00  0.00000000000E+00 -0.14281206183E+04  0.14281206183E+04  0.25500000920E-02 0.  1.
    10030    2    1    2    0    0  0.00000000000E+00  0.00000000000E+00 -0.43869828930E+03  0.24175429474E+04  0.23774056687E+04 0.  0.
        3    1    3    3  502    0 -0.87856759197E+03 -0.94550340911E+02 -0.10278788202E+04  0.13554909295E+04  0.10100000352E+00 0.  1.
       -3    1    3    3    0  502  0.87856759197E+03  0.94550340911E+02  0.58918053090E+03  0.10620520179E+04  0.10100000352E+00 0. -1.
</event>
<event>
 5   0  0.1672125E-05  0.2465224E+04  0.7818609E-02  0.8415481E-01
        3   -1    0    0  501    0  0.00000000000E+00  0.00000000000E+00  0.67903496777E+03  0.67903497528E+03  0.10100000352E+00 0. -1.
       -3   -1    0    0    0  501  0.00000000000E+00  0.00000000000E+00 -0.22374867209E+04  0.22374867232E+04  0.10100000352E+00 0.  1.
    10030    2    1    2    0    0  0.00000000000E+00  0.00000000000E+00 -0.15584517532E+04  0.29165216985E+04  0.24652235093E+04 0.  0.
        4    1    3    3  502    0  0.29930039407E+03 -0.49461263249E+03 -0.20671427378E+04  0.21464629262E+04  0.12699999809E+01 0.  1.
       -4    1    3    3    0  502 -0.29930039407E+03  0.49461263249E+03  0.50869098462E+03  0.77005877233E+03  0.12699999809E+01 0. -1.
</event>
<event>
 5   0  0.2065692E-05  0.2414868E+04  0.7818609E-02  0.8433958E-01
       -1   -1    0    0    0  501  0.00000000000E+00  0.00000000000E+00  0.96053460613E+03  0.96053460614E+03  0.50400001928E-02 0.  1.
        1   -1    0    0  501    0  0.00000000000E+00  0.00000000000E+00 -0.15177967405E+04  0.15177967405E+04  0.50400001928E-02 0. -1.
    10030    2    1    2    0    0  0.00000000000E+00  0.00000000000E+00 -0.55726213435E+03  0.24783313466E+04  0.24148675279E+04 0.  0.
        3    1    3    3  502    0  0.10571183324E+04  0.36364376471E+03  0.18960519029E+03  0.11338809879E+04  0.10100000352E+00 0.  1.
       -3    1    3    3    0  502 -0.10571183324E+04 -0.36364376471E+03 -0.74686732464E+03  0.13444503587E+04  0.10100000352E+00 0. -1.
</event>
<event>
 5   0  0.1672125E-05  0.2334384E+04  0.7818609E-02  0.8464486E-01
       -3   -1    0    0    0  501  0.00000000000E+00  0.00000000000E+00  0.96509728044E+03  0.96509728573E+03  0.10100000352E+00 0. -1.
        3   -1    0    0  501    0  0.00000000000E+00  0.00000000000E+00 -0.14116063121E+04  0.14116063157E+04  0.10100000352E+00 0.  1.
    10030    2    1    2    0    0  0.00000000000E+00  0.00000000000E+00 -0.44650903162E+03  0.23767036014E+04  0.23343842215E+04 0.  0.
        1    1    3    3  502    0 -0.71793682894E+03  0.74253246405E+03  0.33024586837E+03  0.10843662131E+04  0.50400001928E-02 0. -1.
       -1    1    3    3    0  502  0.71793682894E+03 -0.74253246405E+03 -0.77675489999E+03  0.12923373883E+04  0.50400001928E-02 0.  1.
</event>
<event>
 5   0  0.4664127E-05  0.2443812E+04  0.7818609E-02  0.8423281E-01
       -2   -1    0    0    0  501  0.00000000000E+00  0.00000000000E+00  0.19446310286E+04  0.19446310286E+04  0.25500000920E-02 0.  1.
        2   -1    0    0  501    0  0.00000000000E+00  0.00000000000E+00 -0.76778270702E+03  0.76778270702E+03  0.25500000920E-02 0. -1.
    10030    2    1    2    0    0  0.00000000000E+00  0.00000000000E+00  0.11768483216E+04  0.27124137356E+04  0.24438118383E+04 0.  0.
        4    1    3    3  502    0  0.39825293721E+03 -0.33561245764E+03 -0.63842239003E+03  0.82390890559E+03  0.12699999809E+01 0. -1.
       -4    1    3    3    0  502 -0.39825293721E+03  0.33561245764E+03  0.18152707116E+04  0.18885048300E+04  0.12699999809E+01 0.  1.
</event>
<event>
 5   0  0.2057599E-05  0.2386964E+04  0.7818609E-02  0.8444400E-01
        1   -1    0    0  501    0  0.00000000000E+00  0.00000000000E+00  0.20639242617E+04  0.20639242617E+04  0.50400001928E-02 0.  1.
       -1   -1    0    0    0  501  0.00000000000E+00  0.00000000000E+00 -0.69014136425E+03  0.69014136427E+03  0.50400001928E-02 0. -1.
    10030    2    1    2    0    0  0.00000000000E+00  0.00000000000E+00  0.13737828974E+04  0.27540656259E+04  0.23869641855E+04 0.  0.
        4    1    3    3  502    0  0.79281858551E+03  0.10149088660E+03  0.17095048481E+04  0.18871327850E+04  0.12699999809E+01 0.  1.
       -4    1    3    3    0  502 -0.79281858551E+03 -0.10149088660E+03 -0.33572195072E+03  0.86693284093E+03  0.12699999809E+01 0. -1.
</event>
<event>
 5   0  0.2065692E-05  0.2427044E+04  0.7818609E-02  0.8429448E-01
       -1   -1    0    0    0  501  0.00000000000E+00  0.00000000000E+00  0.82880406329E+03  0.82880406330E+03  0.50400001928E-02 0.  1.
        1   -1    0    0  501    0  0.00000000000E+00  0.00000000000E+00 -0.17768196844E+04  0.17768196844E+04  0.50400001928E-02 0. -1.
    10030    2    1    2    0    0  0.00000000000E+00  0.00000000000E+00 -0.94801562108E+03  0.26056237477E+04  0.24270437772E+04 0.  0.
        3    1    3    3  502    0 -0.37401756564E+03  0.47582757026E+03  0.65520888823E+03  0.89196396421E+03  0.10100000352E+00 0.  1.
       -3    1    3    3    0  502  0.37401756564E+03 -0.47582757026E+03 -0.16032245093E+04  0.17136597835E+04  0.10100000352E+00 0. -1.
</event>
<event>
 5   0  0.4914005E-05  0.2376766E+04  0.7818609E-02  0.8448253E-01
        2   -1    0    0  501    0  0.00000000000E+00  0.00000000000E+00  0.83897847864E+03  0.83897847865E+03  0.25500000920E-02 0. -1.
       -2   -1    0    0    0  501  0.00000000000E+00  0.00000000000E+00 -0.16833024338E+04  0.16833024338E+04  0.25500000920E-02 0.  1.
    10030    2    1    2    0    0  0.00000000000E+00  0.00000000000E+00 -0.84432395517E+03  0.25222809125E+04  0.23767663032E+04 0.  0.
        2    1    3    3  502    0 -0.10636055542E+04  0.46513878344E+03 -0.15234460172E+03  0.11708201145E+04  0.25500000920E-02 0. -1.
       -2    1    3    3    0  502  0.10636055542E+04 -0.46513878344E+03 -0.69197935345E+03  0.13514607980E+04  0.25500000920E-02 0.  1.
</event>
<event>
 5   0  0.2065692E-05  0.2384416E+04  0.7818609E-02  0.8445361E-01
        1   -1    0    0  501    0  0.00000000000E+00  0.00000000000E+00  0.10593137463E+04  0.10593137463E+04  0.50400001928E-02 0. -1.
       -1   -1    0    0    0  501  0.00000000000E+00  0.00000000000E+00 -0.13417748021E+04  0.13417748021E+04  0.50400001928E-02 0.  1.
    10030    2    1    2    0    0  0.00000000000E+00  0.00000000000E+00 -0.28246105574E+03  0.24010885484E+04  0.23844164840E+04 0.  0.
        3    1    3    3  502    0  0.22679698613E+03 -0.80655911290E+03 -0.99532724736E+03  0.13010191448E+04  0.10100000352E+00 0.  1.
       -3    1    3    3    0  502 -0.22679698613E+03  0.80655911290E+03  0.71286619162E+03  0.11000694037E+04  0.10100000352E+00 0. -1.
</event>
<event>
 5   0  0.4664127E-05  0.2440695E+04  0.7818609E-02  0.8424423E-01
       -2   -1    0    0    0  501  0.00000000000E+00  0.00000000000E+00  0.61950693094E+03  0.61950693095E+03  0.25500000920E-02 0.  1.
        2   -1    0    0  501    0  0.00000000000E+00  0.00000000000E+00 -0.24039254368E+04  0.24039254368E+04  0.25500000920E-02 0. -1.
    10030    2    1    2    0    0  0.00000000000E+00  0.00000000000E+00 -0.17844185058E+04  0.30234323677E+04  0.24406953678E+04 0.  0.
        4    1    3    3  502    0  0.39052147592E+02  0.11986508854E+04 -0.61257382550E+03  0.13466763977E+04  0.12699999809E+01 0. -1.
       -4    1    3    3    0  502 -0.39052147592E+02 -0.11986508854E+04 -0.11718446803E+04  0.16767559701E+04  0.12699999809E+01 0.  1.
</event>
<event>
 5   0  0.4856882E-05  0.2365408E+04  0.7818609E-02  0.8452569E-01
       -2   -1    0    0    0  501  0.00000000000E+00  0.00000000000E+00  0.83546658325E+03  0.83546658325E+03  0.25500000920E-02 0.  1.
        2   -1    0    0  501    0  0.00000000000E+00  0.00000000000E+00 -0.16742603973E+04  0.16742603973E+04  0.25500000920E-02 0. -1.
    10030    2    1    2    0    0  0.00000000000E+00  0.00000000000E+00 -0.83879381410E+03  0.25097269806E+04  0.23654078833E+04 0.  0.
        1    1    3    3  502    0 -0.74515091960E+02 -0.98465999262E+03 -0.11100179999E+04  0.14856809079E+04  0.50400001928E-02 0. -1.
       -1    1    3    3    0  502  0.74515091960E+02  0.98465999262E+03  0.27122418581E+03  0.10240460727E+04  0.50400001928E-02 0.  1.
</event>
<event>
 5   0  0.4856882E-05  0.1781935E+04  0.7818609E-02  0.8715966E-01
       -2   -1    0    0    0  501  0.00000000000E+00  0.00000000000E+00  0.13273846072E+04  0.13273846072E+04  0.25500000920E-02 0. -1.
        2   -1    0    0  501    0  0.00000000000E+00  0.00000000000E+00 -0.59803533521E+03  0.59803533522E+03  0.25500000920E-02 0.  1.
    10030    2    1    2    0    0  0.00000000000E+00  0.00000000000E+00  0.72934927198E+03  0.19254199424E+04  0.17819347895E+04 0.  0.
        1    1    3    3  502    0  0.16485046443E+03 -0.45732553942E+03 -0.44210758331E+03  0.65710078366E+03  0.50400001928E-02 0.  1.
       -1    1    3    3    0  502 -0.16485046443E+03  0.45732553942E+03  0.11714568553E+04  0.12683191588E+04  0.50400001928E-02 0. -1.
</event>
<event>
 5   0  0.4756705E-05  0.2431246E+04  0.7818609E-02  0.8427897E-01
       -2   -1    0    0    0  501  0.00000000000E+00  0.00000000000E+00  0.72985618922E+03  0.72985618923E+03  0.25500000920E-02 0.  1.
        2   -1    0    0  501    0  0.00000000000E+00  0.00000000000E+00 -0.20246994393E+04  0.20246994393E+04  0.25500000920E-02 0. -1.
    10030    2    1    2    0    0  0.00000000000E+00  0.00000000000E+00 -0.12948432500E+04  0.27545556285E+04  0.24312461143E+04 0.  0.
        3    1    3    3  502    0  0.67472978363E+03 -0.43899302254E+03 -0.16794698308E+04  0.18624161934E+04  0.10100000352E+00 0. -1.
       -3    1    3    3    0  502 -0.67472978363E+03  0.43899302254E+03  0.38462658076E+03  0.89213943506E+03  0.10100000352E+00 0.  1.
</event>
<event>
 5   0  0.4713971E-05  0.2398642E+04  0.7818609E-02  0.8440012E-01
       -2   -1    0    0    0  501  0.00000000000E+00  0.00000000000E+00  0.52819107954E+03  0.52819107954E+03  0.25500000920E-02 0. -1.
        2   -1    0    0  501    0  0.00000000000E+00  0.00000000000E+00 -0.27232018456E+04  0.27232018456E+04  0.25500000920E-02 0.  1.
    10030    2    1    2    0    0  0.00000000000E+00  0.00000000000E+00 -0.21950107660E+04  0.32513929251E+04  0.23986420513E+04 0.  0.
        5    1    3    3  502    0  0.62823528926E+03  0.11942400833E+02  0.28719490347E+03  0.69088725722E+03  0.46999998093E+01 0. -1.
       -5    1    3    3    0  502 -0.62823528926E+03 -0.11942400833E+02 -0.24822056695E+04  0.25605056679E+04  0.46999998093E+01 0.  1.
</event>
<event>
 5   0  0.2065692E-05  0.2397855E+04  0.7818609E-02  0.8440307E-01
       -1   -1    0    0    0  501  0.00000000000E+00  0.00000000000E+00  0.13621941724E+04  0.13621941724E+04  0.50400001928E-02 0. -1.
        1   -1    0    0  501    0  0.00000000000E+00  0.00000000000E+00 -0.10552296359E+04  0.10552296359E+04  0.50400001928E-02 0.  1.
    10030    2    1    2    0    0  0.00000000000E+00  0.00000000000E+00  0.30696453650E+03  0.24174238083E+04  0.23978554256E+04 0.  0.
        3    1    3    3  502    0 -0.10110173554E+04 -0.57491748061E+03  0.44696174783E+03  0.12459779359E+04  0.10100000352E+00 0. -1.
       -3    1    3    3    0  502  0.10110173554E+04  0.57491748061E+03 -0.13999721133E+03  0.11714458724E+04  0.10100000352E+00 0.  1.
</event>
<event>
 5   0  0.2057599E-05  0.2358662E+04  0.7818609E-02  0.8455144E-01
        1   -1    0    0  501    0  0.00000000000E+00  0.00000000000E+00  0.14894778540E+04  0.14894778540E+04  0.50400001928E-02 0. -1.
       -1   -1    0    0    0  501  0.00000000000E+00  0.00000000000E+00 -0.93376470498E+03  0.93376470499E+03  0.50400001928E-02 0.  1.
    10030    2    1    2    0    0  0.00000000000E+00  0.00000000000E+00  0.55571314900E+03  0.24232425590E+04  0.23586622047E+04 0.  0.
        4    1    3    3  502    0 -0.10595296781E+04  0.49933580241E+03  0.13668672462E+03  0.11792473260E+04  0.12699999809E+01 0.  1.
       -4    1    3    3    0  502  0.10595296781E+04 -0.49933580241E+03  0.41902642438E+03  0.12439952329E+04  0.12699999809E+01 0. -1.
</event>
<event>
 5   0  0.4664127E-05  0.2413622E+04  0.7818609E-02  0.8434421E-01
        2   -1    0    0  501    0  0.00000000000E+00  0.00000000000E+00  0.98014622271E+03  0.98014622272E+03  0.25500000920E-02 0.  1.
       -2   -1    0    0    0  501  0.00000000000E+00  0.00000000000E+00 -0.14858931211E+04  0.14858931211E+04  0.25500000920E-02 0. -1.
    10030    2    1    2    0    0  0.00000000000E+00  0.00000000000E+00 -0.50574689838E+03  0.24660393438E+04  0.24136217848E+04 0.  0.
        4    1    3    3  502    0  0.35316519073E+03 -0.56064103249E+03  0.77766765017E+03  0.10216714767E+04  0.12699999809E+01 0.  1.
       -4    1    3    3    0  502 -0.35316519073E+03  0.56064103249E+03 -0.12834145485E+04  0.14443678671E+04  0.12699999809E+01 0. -1.
</event>
<event>
 5   0  0.2065692E-05  0.2369147E+04  0.7818609E-02  0.8451146E-01
       -1   -1    0    0    0  501  0.00000000000E+00  0.00000000000E+00  0.61310531671E+03  0.61310531673E+03  0.50400001928E-02 0. -1.
        1   -1    0    0  501    0  0.00000000000E+00  0.00000000000E+00 -0.22887003251E+04  0.22887003251E+04  0.50400001928E-02 0.  1.
    10030    2    1    2    0    0  0.00000000000E+00  0.00000000000E+00 -0.16755950084E+04  0.29018056418E+04  0.23691469669E+04 0.  0.
        3    1    3    3  502    0  0.52025565283E+03  0.85542583884E+02 -0.21370606914E+04  0.22011387704E+04  0.10100000352E+00 0.  1.
       -3    1    3    3    0  502 -0.52025565283E+03 -0.85542583884E+02  0.46146568295E+03  0.70066687142E+03  0.10100000352E+00 0. -1.
</event>
<event>
 5   0  0.2139556E-05  0.2372221E+04  0.7818609E-02  0.8449977E-01
        1   -1    0    0  501    0  0.00000000000E+00  0.00000000000E+00  0.11560311447E+04  0.11560311447E+04  0.50400001928E-02 0.  1.
       -1   -1    0    0    0  501  0.00000000000E+00  0.00000000000E+00 -0.12169723833E+04  0.12169723833E+04  0.50400001928E-02 0. -1.
    10030    2    1    2    0    0  0.00000000000E+00  0.00000000000E+00 -0.60941238575E+02  0.23730035280E+04  0.23722208813E+04 0.  0.
        2    1    3    3  502    0  0.55221568705E+03 -0.76776434122E+03 -0.74656553167E+03  0.12048918382E+04  0.25500000920E-02 0. -1.
       -2    1    3    3    0  502 -0.55221568705E+03  0.76776434122E+03  0.68562429310E+03  0.11681116898E+04  0.25500000920E-02 0.  1.
</event>
<event>
 5   0  0.2065692E-05  0.2031626E+04  0.7818609E-02  0.8591976E-01
       -1   -1    0    0    0  501  0.00000000000E+00  0.00000000000E+00  0.46984285302E+03  0.46984285305E+03  0.50400001928E-02 0.  1.
        1   -1    0    0  501    0  0.00000000000E+00  0.00000000000E+00 -0.21962154025E+04  0.21962154025E+04  0.50400001928E-02 0. -1.
    10030    2    1    2    0    0  0.00000000000E+00  0.00000000000E+00 -0.17263725495E+04  0.26660582555E+04  0.20316260587E+04 0.  0.
        3    1    3    3  502    0  0.61704001684E+03  0.48957063756E+03 -0.17049472324E+04  0.18781008671E+04  0.10100000352E+00 0. -1.
       -3    1    3    3    0  502 -0.61704001684E+03 -0.48957063756E+03 -0.21425317049E+02  0.78795738842E+03  0.10100000352E+00 0.  1.
</event>
<event>
 5   0  0.2065692E-05  0.2400096E+04  0.7818609E-02  0.8439468E-01
        1   -1    0    0  501    0  0.00000000000E+00  0.00000000000E+00  0.18978248818E+04  0.18978248818E+04  0.50400001928E-02 0.  1.
       -1   -1    0    0    0  501  0.00000000000E+00  0.00000000000E+00 -0.75882387080E+03  0.75882387082E+03  0.50400001928E-02 0. -1.
    10030    2    1    2    0    0  0.00000000000E+00  0.00000000000E+00  0.11390010110E+04  0.26566487526E+04  0.24000956839E+04 0.  0.
        3    1    3    3  502    0  0.31062346136E+03 -0.16556356784E+03 -0.70039872883E+03  0.78387283362E+03  0.10100000352E+00 0. -1.
       -3    1    3    3    0  502 -0.31062346136E+03  0.16556356784E+03  0.18393997398E+04  0.18727759190E+04  0.10100000352E+00 0.  1.
</event>
<event>
 5   0  0.2149920E-05  0.2378509E+04  0.7818609E-02  0.8447594E-01
        1   -1    0    0  501    0  0.00000000000E+00  0.00000000000E+00  0.84401187571E+03  0.84401187573E+03  0.50400001928E-02 0.  1.
       -1   -1    0    0    0  501  0.00000000000E+00  0.00000000000E+00 -0.16757183117E+04  0.16757183117E+04  0.50400001928E-02 0. -1.
    10030    2    1    2    0    0  0.00000000000E+00  0.00000000000E+00 -0.83170643594E+03  0.25197301874E+04  0.23785089072E+04 0.  0.
        5    1    3    3  502    0 -0.82211725744E+03  0.74500233425E+03 -0.86953099324E+03  0.14096139547E+04  0.46999998093E+01 0. -1.
       -5    1    3    3    0  502  0.82211725744E+03 -0.74500233425E+03  0.37824557295E+02  0.11101162327E+04  0.46999998093E+01 0.  1.
</event>
<event>
 5   0  0.2139556E-05  0.2392760E+04  0.7818609E-02  0.8442219E-01
        1   -1    0    0  501    0  0.00000000000E+00  0.00000000000E+00  0.10558927887E+04  0.10558927887E+04  0.50400001928E-02 0. -1.
       -1   -1    0    0    0  501  0.00000000000E+00  0.00000000000E+00 -0.13555589872E+04  0.13555589872E+04  0.50400001928E-02 0.  1.
    10030    2    1    2    0    0  0.00000000000E+00  0.00000000000E+00 -0.29966619849E+03  0.24114517759E+04  0.23927598786E+04 0.  0.
        2    1    3    3  502    0  0.86809646384E+03 -0.35454163839E+03  0.59896074406E+03  0.11126748028E+04  0.25500000920E-02 0. -1.
       -2    1    3    3    0  502 -0.86809646384E+03  0.35454163839E+03 -0.89862694255E+03  0.12987769731E+04  0.25500000920E-02 0.  1.
</event>
<event>
 5   0  0.2139556E-05  0.2406230E+04  0.7818609E-02  0.8437175E-01
        1   -1    0    0  501    0  0.00000000000E+00  0.00000000000E+00  0.15457448992E+04  0.15457448992E+04  0.50400001928E-02 0.  1.
       -1   -1    0    0    0  501  0.00000000000E+00  0.00000000000E+00 -0.93643272655E+03  0.93643272656E+03  0.50400001928E-02 0. -1.
    10030    2    1    2    0    0  0.00000000000E+00  0.00000000000E+00  0.60931217263E+03  0.24821776258E+04  0.24062303385E+04 0.  0.
        2    1    3    3  502    0 -0.12900506235E+03  0.51832395937E+03  0.14167286312E+04  0.15140746506E+04  0.25500000920E-02 0.  1.
       -2    1    3    3    0  502  0.12900506235E+03 -0.51832395937E+03 -0.80741645858E+03  0.96810297519E+03  0.25500000920E-02 0. -1.
</event>
<event>
 5   0  0.4713971E-05  0.2362348E+04  0.7818609E-02  0.8453736E-01
        2   -1    0    0  501    0  0.00000000000E+00  0.00000000000E+00  0.15165697226E+04  0.15165697226E+04  0.25500000920E-02 0. -1.
       -2   -1    0    0    0  501  0.00000000000E+00  0.00000000000E+00 -0.91995278291E+03  0.91995278291E+03  0.25500000920E-02 0.  1.
    10030    2    1    2    0    0  0.00000000000E+00  0.00000000000E+00  0.59661693971E+03  0.24365225055E+04  0.23623484390E+04 0.  0.
        5    1    3    3  502    0  0.37435159526E+03  0.10156483513E+04 -0.18926026628E+03  0.10988731632E+04  0.46999998093E+01 0.  1.
       -5    1    3    3    0  502 -0.37435159526E+03 -0.10156483513E+04  0.78587720599E+03  0.13376493424E+04  0.46999998093E+01 0. -1.
</event>
<event>
 5   0  0.2065692E-05  0.2406051E+04  0.7818609E-02  0.8437242E-01
       -1   -1    0    0    0  501  0.00000000000E+00  0.00000000000E+00  0.10145887353E+04  0.10145887353E+04  0.50400001928E-02 0. -1.
        1   -1    0    0  501    0  0.00000000000E+00  0.00000000000E+00 -0.14264599237E+04  0.14264599237E+04  0.50400001928E-02 0.  1.
    10030    2    1    2    0    0  0.00000000000E+00  0.00000000000E+00 -0.41187118840E+03  0.24410486590E+04  0.24060508473E+04 0.  0.
        3    1    3    3  502    0  0.99787550419E+03  0.24716692965E+03 -0.83986283473E+03  0.13274850675E+04  0.10100000352E+00 0.  1.
       -3    1    3    3    0  502 -0.99787550419E+03 -0.24716692965E+03  0.42799164634E+03  0.11135635916E+04  0.10100000352E+00 0. -1.
</event>
<event>
 5   0  0.4713971E-05  0.2489373E+04  0.7818609E-02  0.8406781E-01
       -2   -1    0    0    0  501  0.00000000000E+00  0.00000000000E+00  0.82773173898E+03  0.82773173899E+03  0.25500000920E-02 0.  1.
        2   -1    0    0  501    0  0.00000000000E+00  0.00000000000E+00 -0.18716750722E+04  0.18716750722E+04  0.25500000920E-02 0. -1.
    10030    2    1    2    0    0  0.00000000000E+00  0.00000000000E+00 -0.10439433332E+04  0.26994068112E+04  0.24893733045E+04 0.  0.
        5    1    3    3  502    0  0.42939846087E+03 -0.28534488545E+03  0.70649217927E+03  0.87461879194E+03  0.46999998093E+01 0.  1.
       -5    1    3    3    0  502 -0.42939846087E+03  0.28534488545E+03 -0.17504355125E+04  0.18247880193E+04  0.46999998093E+01 0. -1.
</event>
<event>
 5   0  0.2065692E-05  0.2317658E+04  0.7818609E-02  0.8470991E-01
       -1   -1    0    0    0  501  0.00000000000E+00  0.00000000000E+00  0.12008811086E+04  0.12008811086E+04  0.50400001928E-02 0.  1.
        1   -1    0    0  501    0  0.00000000000E+00  0.00000000000E+00 -0.11182493690E+04  0.11182493690E+04  0.50400001928E-02 0. -1.
    10030    2    1    2    0    0  0.00000000000E+00  0.00000000000E+00  0.82631739642E+02  0.23191304776E+04  0.23176579057E+04 0.  0.
        3    1    3    3  502    0 -0.10801368819E+04 -0.30553423457E+03  0.32931409610E+03  0.11698267548E+04  0.10100000352E+00 0.  1.
       -3    1    3    3    0  502  0.10801368819E+04  0.30553423457E+03 -0.24668235645E+03  0.11493037228E+04  0.10100000352E+00 0. -1.
</event>
<event>
 5   0  0.4664127E-05  0.2428047E+04  0.7818609E-02  0.8429077E-01
       -2   -1    0    0    0  501  0.00000000000E+00  0.00000000000E+00  0.73387771817E+03  0.73387771818E+03  0.25500000920E-02 0.  1.
        2   -1    0    0  501    0  0.00000000000E+00  0.00000000000E+00 -0.20083082239E+04  0.20083082239E+04  0.25500000920E-02 0. -1.
    10030    2    1    2    0    0  0.00000000000E+00  0.00000000000E+00 -0.12744305057E+04  0.27421859421E+04  0.24280466690E+04 0.  0.
        4    1    3    3  502    0 -0.39024724913E+03 -0.16130208848E+03 -0.19226950154E+04  0.19685194981E+04  0.12699999809E+01 0. -1.
       -4    1    3    3    0  502  0.39024724913E+03  0.16130208848E+03  0.64826450966E+03  0.77366644401E+03  0.12699999809E+01 0.  1.
</event>
<event>
 5   0  0.2057599E-05  0.2414708E+04  0.7818609E-02  0.8434018E-01
        1   -1    0    0  501    0  0.00000000000E+00  0.00000000000E+00  0.94009695882E+03  0.94009695884E+03  0.50400001928E-02 0. -1.
       -1   -1    0    0    0  501  0.00000000000E+00  0.00000000000E+00 -0.15505885636E+04  0.15505885636E+04  0.50400001928E-02 0.  1.
    10030    2    1    2    0    0  0.00000000000E+00  0.00000000000E+00 -0.61049160476E+03  0.24906855224E+04  0.24147079269E+04 0.  0.
        4    1    3    3  502    0 -0.39104744802E+03  0.11375116851E+04 -0.19779987356E+03  0.12190067036E+04  0.12699999809E+01 0.  1.
       -4    1    3    3    0  502  0.39104744802E+03 -0.11375116851E+04 -0.41269173120E+03  0.12716788189E+04  0.12699999809E+01 0. -1.
</event>
<event>
 5   0  0.4664127E-05  0.2393895E+04  0.7818609E-02  0.8441793E-01
        2   -1    0    0  501    0  0.00000000000E+00  0.00000000000E+00  0.16161598347E+04  0.16161598347E+04  0.25500000920E-02 0. -1.
       -2   -1    0    0    0  501  0.00000000000E+00  0.00000000000E+00 -0.88647380963E+03  0.88647380964E+03  0.25500000920E-02 0.  1.
    10030    2    1    2    0    0  0.00000000000E+00  0.00000000000E+00  0.72968602503E+03  0.25026336443E+04  0.23938950400E+04 0.  0.
        4    1    3    3  502    0 -0.67686263418E+03 -0.94864350797E+03  0.79279325190E+02  0.11680558014E+04  0.12699999809E+01 0. -1.
       -4    1    3    3    0  502  0.67686263418E+03  0.94864350797E+03  0.65040669984E+03  0.13345778429E+04  0.12699999809E+01 0.  1.
</event>
<event>
 5   0  0.4914005E-05  0.2397204E+04  0.7818609E-02  0.8440551E-01
       -2   -1    0    0    0  501  0.00000000000E+00  0.00000000000E+00  0.93063576620E+03  0.93063576621E+03  0.25500000920E-02 0.  1.
        2   -1    0    0  501    0  0.00000000000E+00  0.00000000000E+00 -0.15437255183E+04  0.15437255183E+04  0.25500000920E-02 0. -1.
    10030    2    1    2    0    0  0.00000000000E+00  0.00000000000E+00 -0.61308975213E+03  0.24743612845E+04  0.23972035213E+04 0.  0.
        2    1    3    3  502    0 -0.53926055956E+03 -0.93519992628E+03  0.23103046308E+03  0.11039818513E+04  0.25500000920E-02 0.  1.
       -2    1    3    3    0  502  0.53926055956E+03  0.93519992628E+03 -0.84412021522E+03  0.13703794332E+04  0.25500000920E-02 0. -1.
</event>
<event>
 5   0  0.2090039E-05  0.2381708E+04  0.7818609E-02  0.8446384E-01
       -1   -1    0    0    0  501  0.00000000000E+00  0.00000000000E+00  0.10210882883E+04  0.10210882883E+04  0.50400001928E-02 0. -1.
        1   -1    0    0  501    0  0.00000000000E+00  0.00000000000E+00 -0.13888447502E+04  0.13888447502E+04  0.50400001928E-02 0.  1.
    10030    2    1    2    0    0  0.00000000000E+00  0.00000000000E+00 -0.36775646186E+03  0.24099330385E+04  0.23817078820E+04 0.  0.
        1    1    3    3  502    0  0.62846813547E+03 -0.55400797174E+03  0.67245851168E+03  0.10742892906E+04  0.50400001928E-02 0. -1.
       -1    1    3    3    0  502 -0.62846813547E+03  0.55400797174E+03 -0.10402149735E+04  0.13356437479E+04  0.50400001928E-02 0.  1.
</event>
<event>
 5   0  0.1672125E-05  0.2417588E+04  0.7818609E-02  0.8432948E-01
       -3   -1    0    0    0  501  0.00000000000E+00  0.00000000000E+00  0.62597225544E+03  0.62597226359E+03  0.10100000352E+00 0. -1.
        3   -1    0    0  501    0  0.00000000000E+00  0.00000000000E+00 -0.23342610125E+04  0.23342610147E+04  0.10100000352E+00 0.  1.
    10030    2    1    2    0    0  0.00000000000E+00  0.00000000000E+00 -0.17082887570E+04  0.29602332783E+04  0.24175877614E+04 0.  0.
        1    1    3    3  502    0  0.18649174277E+03 -0.69418064808E+03  0.33585986339E+03  0.79339006179E+03  0.50400001928E-02 0. -1.
       -1    1    3    3    0  502 -0.18649174277E+03  0.69418064808E+03 -0.20441486204E+04  0.21668432165E+04  0.50400001928E-02 0.  1.
</event>
<event>
 5   0  0.2090039E-05  0.2311143E+04  0.7818609E-02  0.8473540E-01
        1   -1    0    0  501    0  0.00000000000E+00  0.00000000000E+00  0.67354770122E+03  0.67354770124E+03  0.50400001928E-02 0.  1.
       -1   -1    0    0    0  501  0.00000000000E+00  0.00000000000E+00 -0.19825559719E+04  0.19825559719E+04  0.50400001928E-02 0. -1.
    10030    2    1    2    0    0  0.00000000000E+00  0.00000000000E+00 -0.13090082707E+04  0.26561036732E+04  0.23111434551E+04 0.  0.
        1    1    3    3  502    0  0.52415056812E+03  0.38006731857E+03  0.44552459203E+03  0.78592439002E+03  0.50400001928E-02 0.  1.
       -1    1    3    3    0  502 -0.52415056812E+03 -0.38006731857E+03 -0.17545328627E+04  0.18701792832E+04  0.50400001928E-02 0. -1.
</event>
<event>
 5   0  0.4713971E-05  0.2448020E+04  0.7818609E-02  0.8421741E-01
       -2   -1    0    0    0  501  0.00000000000E+00  0.00000000000E+00  0.62382588542E+03  0.62382588542E+03  0.25500000920E-02 0.  1.
        2   -1    0    0  501    0  0.00000000000E+00  0.00000000000E+00 -0.24016321856E+04  0.24016321856E+04  0.25500000920E-02 0. -1.
    10030    2    1    2    0    0  0.00000000000E+00  0.00000000000E+00 -0.17778063002E+04  0.30254580710E+04  0.24480198730E+04 0.  0.
        5    1    3    3  502    0 -0.43443768670E+03  0.72120805534E+03  0.20908472871E+03  0.86753425091E+03  0.46999998093E+01 0.  1.
       -5    1    3    3    0  502  0.43443768670E+03 -0.72120805534E+03 -0.19868910289E+04  0.21579238201E+04  0.46999998093E+01 0. -1.
</event>
<event>
 5   0  0.4756705E-05  0.2417200E+04  0.7818609E-02  0.8433092E-01
        2   -1    0    0  501    0  0.00000000000E+00  0.00000000000E+00  0.76719546299E+03  0.76719546300E+03  0.25500000920E-02 0. -1.
       -2   -1    0    0    0  501  0.00000000000E+00  0.00000000000E+00 -0.19039654597E+04  0.19039654597E+04  0.25500000920E-02 0.  1.
    10030    2    1    2    0    0  0.00000000000E+00  0.00000000000E+00 -0.11367699967E+04  0.26711609227E+04  0.24171997537E+04 0.  0.
        3    1    3    3  502    0 -0.10123783032E+04  0.30630286537E+03 -0.12146183610E+04  0.16105989715E+04  0.10100000352E+00 0.  1.
       -3    1    3    3    0  502  0.10123783032E+04 -0.30630286537E+03  0.77848364281E+02  0.10605619511E+04  0.10100000352E+00 0. -1.
</event>
<event>
 5   0  0.4756705E-05  0.2583712E+04  0.7818609E-02  0.8373755E-01
       -2   -1    0    0    0  501  0.00000000000E+00  0.00000000000E+00  0.58940323649E+03  0.58940323649E+03  0.25500000920E-02 0. -1.
        2   -1    0    0  501    0  0.00000000000E+00  0.00000000000E+00 -0.28314937591E+04  0.28314937591E+04  0.25500000920E-02 0.  1.
    10030    2    1    2    0    0  0.00000000000E+00  0.00000000000E+00 -0.22420905226E+04  0.34208969956E+04  0.25837117376E+04 0.  0.
        3    1    3    3  502    0 -0.94368669119E+03 -0.25168599296E+03 -0.22406102645E+04  0.24442227349E+04  0.10100000352E+00 0.  1.
       -3    1    3    3    0  502  0.94368669119E+03  0.25168599296E+03 -0.14802581309E+01  0.97667426072E+03  0.10100000352E+00 0. -1.
</event>
<event>
 5   0  0.2139556E-05  0.2345018E+04  0.7818609E-02  0.8460380E-01
       -1   -1    0    0    0  501  0.00000000000E+00  0.00000000000E+00  0.11078934228E+04  0.11078934228E+04  0.50400001928E-02 0. -1.
        1   -1    0    0  501    0  0.00000000000E+00  0.00000000000E+00 -0.12408931679E+04  0.12408931679E+04  0.50400001928E-02 0.  1.
    10030    2    1    2    0    0  0.00000000000E+00  0.00000000000E+00 -0.13299974507E+03  0.23487865907E+04  0.23450180205E+04 0.  0.
        2    1    3    3  502    0 -0.41839660796E+03 -0.17974225903E+03 -0.11487057625E+04  0.12356730676E+04  0.25500000920E-02 0.  1.
       -2    1    3    3    0  502  0.41839660796E+03  0.17974225903E+03  0.10157060175E+04  0.11131135230E+04  0.25500000920E-02 0. -1.
</event>
<event>
 5   0  0.4664127E-05  0.2439178E+04  0.7818609E-02  0.8424980E-01
        2   -1    0    0  501    0  0.00000000000E+00  0.00000000000E+00  0.16303960616E+04  0.16303960616E+04  0.25500000920E-02 0. -1.
       -2   -1    0    0    0  501  0.00000000000E+00  0.00000000000E+00 -0.91229201600E+03  0.91229201601E+03  0.25500000920E-02 0.  1.
    10030    2    1    2    0    0  0.00000000000E+00  0.00000000000E+00  0.71810404555E+03  0.25426880776E+04  0.24391779844E+04 0.  0.
        4    1    3    3  502    0 -0.79857561627E+03  0.25316220879E+03 -0.56489110705E+03  0.10104047182E+04  0.12699999809E+01 0.  1.
       -4    1    3    3    0  502  0.79857561627E+03 -0.25316220879E+03  0.12829951526E+04  0.15322833594E+04  0.12699999809E+01 0. -1.
</event>
<event>
 5   0  0.2090039E-05  0.2405835E+04  0.7818609E-02  0.8437322E-01
        1   -1    0    0  501    0  0.00000000000E+00  0.00000000000E+00  0.11261098563E+04  0.11261098563E+04  0.50400001928E-02 0.  1.
       -1   -1    0    0    0  501  0.00000000000E+00  0.00000000000E+00 -0.12849639774E+04  0.12849639774E+04  0.50400001928E-02 0. -1.
    10030    2    1    2    0    0  0.00000000000E+00  0.00000000000E+00 -0.15885412108E+03  0.24110738337E+04  0.24058350733E+04 0.  0.
        1    1    3    3  502    0 -0.90976743040E+03 -0.77499177367E+03 -0.21655180423E+03  0.12145714103E+04  0.50400001928E-02 0. -1.
       -1    1    3    3    0  502  0.90976743040E+03  0.77499177367E+03  0.57697683159E+02  0.11965024235E+04  0.50400001928E-02 0.  1.
</event>
<event>
 5   0  0.4756705E-05  0.2315900E+04  0.7818609E-02  0.8471678E-01
        2   -1    0    0  501    0  0.00000000000E+00  0.00000000000E+00  0.19040691331E+04  0.19040691331E+04  0.25500000920E-02 0. -1.
       -2   -1    0    0    0  501  0.00000000000E+00  0.00000000000E+00 -0.70420158273E+03  0.70420158273E+03  0.25500000920E-02 0.  1.
    10030    2    1    2    0    0  0.00000000000E+00  0.00000000000E+00  0.11998675504E+04  0.26082707159E+04  0.23159002545E+04 0.  0.
        3    1    3    3  502    0  0.10549878212E+04  0.26994204408E+03  0.10433088875E+04  0.15080986224E+04  0.10100000352E+00 0. -1.
       -3    1    3    3    0  502 -0.10549878212E+04 -0.26994204408E+03  0.15655866290E+03  0.11001720934E+04  0.10100000352E+00 0.  1.
</event>
<event>
 5   0  0.2090039E-05  0.2457142E+04  0.7818609E-02  0.8418415E-01
        1   -1    0    0  501    0  0.00000000000E+00  0.00000000000E+00  0.19008225128E+04  0.19008225128E+04  0.50400001928E-02 0.  1.
       -1   -1    0    0    0  501  0.00000000000E+00  0.00000000000E+00 -0.79407009472E+03  0.79407009474E+03  0.50400001928E-02 0. -1.
    10030    2    1    2    0    0  0.00000000000E+00  0.00000000000E+00  0.11067524181E+04  0.26948926076E+04  0.24571416832E+04 0.  0.
        1    1    3    3  502    0 -0.34015809596E+03  0.32652890283E+03 -0.69088128518E+03  0.83644820812E+03  0.50400001928E-02 0. -1.
       -1    1    3    3    0  502  0.34015809596E+03 -0.32652890283E+03  0.17976337033E+04  0.18584443995E+04  0.50400001928E-02 0.  1.
</event>
<event>
 5   0  0.4713971E-05  0.2371712E+04  0.7818609E-02  0.8450171E-01
       -2   -1    0    0    0  501  0.00000000000E+00  0.00000000000E+00  0.10699710095E+04  0.10699710095E+04  0.25500000920E-02 0. -1.
        2   -1    0    0  501    0  0.00000000000E+00  0.00000000000E+00 -0.13142920242E+04  0.13142920242E+04  0.25500000920E-02 0.  1.
    10030    2    1    2    0    0  0.00000000000E+00  0.00000000000E+00 -0.24432101465E+03  0.23842630337E+04  0.23717119251E+04 0.  0.
        5    1    3    3  502    0 -0.29386331899E+03 -0.10191970383E+04 -0.65516820563E+03  0.12467500635E+04  0.46999998093E+01 0.  1.
       -5    1    3    3    0  502  0.29386331899E+03  0.10191970383E+04  0.41084719098E+03  0.11375129702E+04  0.46999998093E+01 0. -1.
</event>
<event>
 5   0  0.1672125E-05  0.2385814E+04  0.7818609E-02  0.8444834E-01
       -3   -1    0    0    0  501  0.00000000000E+00  0.00000000000E+00  0.99009873257E+03  0.99009873773E+03  0.10100000352E+00 0. -1.
        3   -1    0    0  501    0  0.00000000000E+00  0.00000000000E+00 -0.14372574389E+04  0.14372574424E+04  0.10100000352E+00 0.  1.
    10030    2    1    2    0    0  0.00000000000E+00  0.00000000000E+00 -0.44715870629E+03  0.24273561801E+04  0.23858137221E+04 0.  0.
        5    1    3    3  502    0  0.85207452059E+03  0.39280505618E+03 -0.97307314289E+03  0.13517471036E+04  0.46999998093E+01 0.  1.
       -5    1    3    3    0  502 -0.85207452059E+03 -0.39280505618E+03  0.52591443660E+03  0.10756090765E+04  0.46999998093E+01 0. -1.
</event>
<event>
 5   0  0.2057599E-05  0.2393631E+04  0.7818609E-02  0.8441892E-01
        1   -1    0    0  501    0  0.00000000000E+00  0.00000000000E+00  0.13150367610E+04  0.13150367610E+04  0.50400001928E-02 0. -1.
       -1   -1    0    0    0  501  0.00000000000E+00  0.00000000000E+00 -0.10892221463E+04  0.10892221463E+04  0.50400001928E-02 0.  1.
    10030    2    1    2    0    0  0.00000000000E+00  0.00000000000E+00  0.22581461469E+03  0.24042589073E+04  0.23936308515E+04 0.  0.
        4    1    3    3  502    0 -0.88127474976E+03  0.57528827007E+03  0.68531814580E+03  0.12558918553E+04  0.12699999809E+01 0. -1.
       -4    1    3    3    0  502  0.88127474976E+03 -0.57528827007E+03 -0.45950353110E+03  0.11483670521E+04  0.12699999809E+01 0.  1.
</event>
<event>
 5   0  0.4914005E-05  0.2453629E+04  0.7818609E-02  0.8419694E-01
       -2   -1    0    0    0  501  0.00000000000E+00  0.00000000000E+00  0.15458085958E+04  0.15458085958E+04  0.25500000920E-02 0.  1.
        2   -1    0    0  501    0  0.00000000000E+00  0.00000000000E+00 -0.97364846660E+03  0.97364846661E+03  0.25500000920E-02 0. -1.
    10030    2    1    2    0    0  0.00000000000E+00  0.00000000000E+00  0.57216012922E+03  0.25194570624E+04  0.24536292866E+04 0.  0.
        2    1    3    3  502    0  0.52112502431E+03  0.24425572559E+03 -0.82642716075E+03  0.10070819244E+04  0.25500000920E-02 0. -1.
       -2    1    3    3    0  502 -0.52112502431E+03 -0.24425572559E+03  0.13985872900E+04  0.15123751380E+04  0.25500000920E-02 0.  1.
</event>
<event>
 5   0  0.4756705E-05  0.2404023E+04  0.7818609E-02  0.8437999E-01
        2   -1    0    0  501    0  0.00000000000E+00  0.00000000000E+00  0.19279555922E+04  0.19279555922E+04  0.25500000920E-02 0.  1.
       -2   -1    0    0    0  501  0.00000000000E+00  0.00000000000E+00 -0.74941098096E+03  0.74941098097E+03  0.25500000920E-02 0. -1.
    10030    2    1    2    0    0  0.00000000000E+00  0.00000000000E+00  0.11785446113E+04  0.26773665732E+04  0.24040225387E+04 0.  0.
        3    1    3    3  502    0 -0.11029854231E+04  0.16159817122E+03  0.88551402892E+02  0.11182719587E+04  0.10100000352E+00 0. -1.
       -3    1    3    3    0  502  0.11029854231E+04 -0.16159817122E+03  0.10899932084E+04  0.15590946145E+04  0.10100000352E+00 0.  1.
</event>
<event>
 5   0  0.2149920E-05  0.2302544E+04  0.7818609E-02  0.8476919E-01
       -1   -1    0    0    0  501  0.00000000000E+00  0.00000000000E+00  0.83121981261E+03  0.83121981262E+03  0.50400001928E-02 0. -1.
        1   -1    0    0  501    0  0.00000000000E+00  0.00000000000E+00 -0.15945563080E+04  0.15945563080E+04  0.50400001928E-02 0.  1.
    10030    2    1    2    0    0  0.00000000000E+00  0.00000000000E+00 -0.76333649538E+03  0.24257761206E+04  0.23025436331E+04 0.  0.
        5    1    3    3  502    0 -0.31781559935E+03  0.11036806866E+04 -0.29813471232E+03  0.11866019593E+04  0.46999998093E+01 0. -1.
       -5    1    3    3    0  502  0.31781559935E+03 -0.11036806866E+04 -0.46520178306E+03  0.12391741613E+04  0.46999998093E+01 0.  1.
</event>
<event>
 5   0  0.4713971E-05  0.1898846E+04  0.7818609E-02  0.8655431E-01
       -2   -1    0    0    0  501  0.00000000000E+00  0.00000000000E+00  0.87826114705E+03  0.87826114706E+03  0.25500000920E-02 0.  1.
        2   -1    0    0  501    0  0.00000000000E+00  0.00000000000E+00 -0.10263508388E+04  0.10263508388E+04  0.25500000920E-02 0. -1.
    10030    2    1    2    0    0  0.00000000000E+00  0.00000000000E+00 -0.14808969171E+03  0.19046119858E+04  0.18988460337E+04 0.  0.
        5    1    3    3  502    0  0.50510468700E+03 -0.79026102371E+03  0.73843513337E+02  0.94080719857E+03  0.46999998093E+01 0.  1.
       -5    1    3    3    0  502 -0.50510468700E+03  0.79026102371E+03 -0.22193320504E+03  0.96380478725E+03  0.46999998093E+01 0. -1.
</event>
<event>
 5   0  0.4664127E-05  0.2380936E+04  0.7818609E-02  0.8446675E-01
       -2   -1    0    0    0  501  0.00000000000E+00  0.00000000000E+00  0.72568508456E+03  0.72568508457E+03  0.25500000920E-02 0. -1.
        2   -1    0    0  501    0  0.00000000000E+00  0.00000000000E+00 -0.19529333535E+04  0.19529333535E+04  0.25500000920E-02 0.  1.
    10030    2    1    2    0    0  0.00000000000E+00  0.00000000000E+00 -0.12272482689E+04  0.26786184380E+04  0.23809364593E+04 0.  0.
        4    1    3    3  502    0 -0.82135060734E+03  0.33872452528E+03  0.27782199292E+03  0.93088011949E+03  0.12699999809E+01 0. -1.
       -4    1    3    3    0  502  0.82135060734E+03 -0.33872452528E+03 -0.15050702618E+04  0.17477383185E+04  0.12699999809E+01 0.  1.
</event>
<event>
 5   0  0.4914005E-05  0.2440353E+04  0.7818609E-02  0.8424549E-01
       -2   -1    0    0    0  501  0.00000000000E+00  0.00000000000E+00  0.86499810197E+03  0.86499810197E+03  0.25500000920E-02 0. -1.
        2   -1    0    0  501    0  0.00000000000E+00  0.00000000000E+00 -0.17211951512E+04  0.17211951512E+04  0.25500000920E-02 0.  1.
    10030    2    1    2    0    0  0.00000000000E+00  0.00000000000E+00 -0.85619704918E+03  0.25861932531E+04  0.24403528752E+04 0.  0.
        2    1    3    3  502    0  0.45937295751E+02  0.12127967457E+04 -0.56149540070E+03  0.13372596107E+04  0.25500000920E-02 0.  1.
       -2    1    3    3    0  502 -0.45937295751E+02 -0.12127967457E+04 -0.29470164849E+03  0.12489336424E+04  0.25500000920E-02 0. -1.
</event>
<event>
 5   0  0.2139556E-05  0.2329103E+04  0.7818609E-02  0.8466534E-01
       -1   -1    0    0    0  501  0.00000000000E+00  0.00000000000E+00  0.69755383774E+03  0.69755383776E+03  0.50400001928E-02 0. -1.
        1   -1    0    0  501    0  0.00000000000E+00  0.00000000000E+00 -0.19441944074E+04  0.19441944074E+04  0.50400001928E-02 0.  1.
    10030    2    1    2    0    0  0.00000000000E+00  0.00000000000E+00 -0.12466405697E+04  0.26417482452E+04  0.23291030636E+04 0.  0.
        2    1    3    3  502    0 -0.61039148365E+03  0.47294968439E+03  0.36543080105E+03  0.85428264506E+03  0.25500000920E-02 0. -1.
       -2    1    3    3    0  502  0.61039148365E+03 -0.47294968439E+03 -0.16120713707E+04  0.17874656001E+04  0.25500000920E-02 0.  1.
</event>
<event>
 5   0  0.4664127E-05  0.2390409E+04  0.7818609E-02  0.8443103E-01
        2   -1    0    0  501    0  0.00000000000E+00  0.00000000000E+00  0.16663485990E+04  0.16663485990E+04  0.25500000920E-02 0. -1.
       -2   -1    0    0    0  501  0.00000000000E+00  0.00000000000E+00 -0.85727212038E+03  0.85727212038E+03  0.25500000920E-02 0.  1.
    10030    2    1    2    0    0  0.00000000000E+00  0.00000000000E+00  0.80907647860E+03  0.25236207194E+04  0.23904093346E+04 0.  0.
        4    1    3    3  502    0 -0.87969267478E+03 -0.90247961910E+02 -0.44432747104E+03  0.98966277646E+03  0.12699999809E+01 0.  1.
       -4    1    3    3    0  502  0.87969267478E+03  0.90247961910E+02  0.12534039496E+04  0.15339579429E+04  0.12699999809E+01 0. -1.
</event>
<event>
 5   0  0.4713971E-05  0.2116458E+04  0.7818609E-02  0.8554028E-01
        2   -1    0    0  501    0  0.00000000000E+00  0.00000000000E+00  0.19151074175E+04  0.19151074175E+04  0.25500000920E-02 0. -1.
       -2   -1    0    0    0  501  0.00000000000E+00  0.00000000000E+00 -0.58474457285E+03  0.58474457285E+03  0.25500000920E-02 0.  1.
    10030    2    1    2    0    0  0.00000000000E+00  0.00000000000E+00  0.13303628446E+04  0.24998519903E+04  0.21164580495E+04 0.  0.
        5    1    3    3  502    0  0.50614454857E+03 -0.83420266180E+03  0.18141452615E+03  0.99247655151E+03  0.46999998093E+01 0.  1.
       -5    1    3    3    0  502 -0.50614454857E+03  0.83420266180E+03  0.11489483185E+04  0.15073754388E+04  0.46999998093E+01 0. -1.
</event>
<event>
 5   0  0.4664127E-05  0.2361541E+04  0.7818609E-02  0.8454044E-01
       -2   -1    0    0    0  501  0.00000000000E+00  0.00000000000E+00  0.63967114283E+03  0.63967114284E+03  0.25500000920E-02 0. -1.
        2   -1    0    0  501    0  0.00000000000E+00  0.00000000000E+00 -0.21795867350E+04  0.21795867350E+04  0.25500000920E-02 0.  1.
    10030    2    1    2    0    0  0.00000000000E+00  0.00000000000E+00 -0.15399155921E+04  0.28192578778E+04  0.23615408001E+04 0.  0.
        4    1    3    3  502    0  0.10920053049E+04  0.29263992691E+03 -0.11767399025E+04  0.16318186553E+04  0.12699999809E+01 0.  1.
       -4    1    3    3    0  502 -0.10920053049E+04 -0.29263992691E+03 -0.36317568964E+03  0.11874392225E+04  0.12699999809E+01 0. -1.
</event>
<event>
 5   0  0.4914005E-05  0.2427189E+04  0.7818609E-02  0.8429394E-01
        2   -1    0    0  501    0  0.00000000000E+00  0.00000000000E+00  0.13457544886E+04  0.13457544886E+04  0.25500000920E-02 0.  1.
       -2   -1    0    0    0  501  0.00000000000E+00  0.00000000000E+00 -0.10944129013E+04  0.10944129013E+04  0.25500000920E-02 0. -1.
    10030    2    1    2    0    0  0.00000000000E+00  0.00000000000E+00  0.25134158731E+03  0.24401673899E+04  0.24271885582E+04 0.  0.
        2    1    3    3  502    0 -0.76717409696E+02  0.11728525823E+04  0.42951583560E+03  0.12513802754E+04  0.25500000920E-02 0.  1.
       -2    1    3    3    0  502  0.76717409696E+02 -0.11728525823E+04 -0.17817424829E+03  0.11887871144E+04  0.25500000920E-02 0. -1.
</event>
<event>
 5   0  0.4713971E-05  0.2434713E+04  0.7818609E-02  0.8426621E-01
       -2   -1    0    0    0  501  0.00000000000E+00  0.00000000000E+00  0.10310514160E+04  0.10310514160E+04  0.25500000920E-02 0.  1.
        2   -1    0    0  501    0  0.00000000000E+00  0.00000000000E+00 -0.14373261218E+04  0.14373261218E+04  0.25500000920E-02 0. -1.
    10030    2    1    2    0    0  0.00000000000E+00  0.00000000000E+00 -0.40627470576E+03  0.24683775378E+04  0.24347132342E+04 0.  0.
        5    1    3    3  502    0  0.54002731689E+03 -0.25458721880E+03 -0.12786976463E+04  0.14112171752E+04  0.46999998093E+01 0. -1.
       -5    1    3    3    0  502 -0.54002731689E+03  0.25458721880E+03  0.87242294056E+03  0.10571603626E+04  0.46999998093E+01 0.  1.
</event>
<event>
 5   0  0.2090039E-05  0.2345761E+04  0.7818609E-02  0.8460094E-01
        1   -1    0    0  501    0  0.00000000000E+00  0.00000000000E+00  0.10882064997E+04  0.10882064997E+04  0.50400001928E-02 0.  1.
       -1   -1    0    0    0  501  0.00000000000E+00  0.00000000000E+00 -0.12641431215E+04  0.12641431215E+04  0.50400001928E-02 0. -1.
    10030    2    1    2    0    0  0.00000000000E+00  0.00000000000E+00 -0.17593662182E+03  0.23523496212E+04  0.23457610802E+04 0.  0.
        1    1    3    3  502    0  0.25442885644E+03 -0.80133232148E+03  0.73211907317E+03  0.11148389434E+04  0.50400001928E-02 0.  1.
       -1    1    3    3    0  502 -0.25442885644E+03  0.80133232148E+03 -0.90805569499E+03  0.12375106778E+04  0.50400001928E-02 0. -1.
</event>
<event>
 5   0  0.4756705E-05  0.2363537E+04  0.7818609E-02  0.8453282E-01
        2   -1    0    0  501    0  0.00000000000E+00  0.00000000000E+00  0.25687016642E+04  0.25687016642E+04  0.25500000920E-02 0.  1.
       -2   -1    0    0    0  501  0.00000000000E+00  0.00000000000E+00 -0.54368968512E+03  0.54368968513E+03  0.25500000920E-02 0. -1.
    10030    2    1    2    0    0  0.00000000000E+00  0.00000000000E+00  0.20250119791E+04  0.31123913494E+04  0.23635368404E+04 0.  0.
        3    1    3    3  502    0 -0.24690353350E+03 -0.11527199944E+04  0.90350368127E+03  0.14852756151E+04  0.10100000352E+00 0.  1.
       -3    1    3    3    0  502  0.24690353350E+03  0.11527199944E+04  0.11215082978E+04  0.16271157343E+04  0.10100000352E+00 0. -1.
</event>
<event>
 5   0  0.2090039E-05  0.2391431E+04  0.7818609E-02  0.8442719E-01
       -1   -1    0    0    0  501  0.00000000000E+00  0.00000000000E+00  0.11618274808E+04  0.11618274808E+04  0.50400001928E-02 0. -1.
        1   -1    0    0  501    0  0.00000000000E+00  0.00000000000E+00 -0.12305922129E+04  0.12305922129E+04  0.50400001928E-02 0.  1.
    10030    2    1    2    0    0  0.00000000000E+00  0.00000000000E+00 -0.68764732102E+02  0.23924196937E+04  0.23914312456E+04 0.  0.
        1    1    3    3  502    0  0.15887503052E+03 -0.38315916166E+03  0.10875461171E+04  0.11639625318E+04  0.50400001928E-02 0. -1.
       -1    1    3    3    0  502 -0.15887503052E+03  0.38315916166E+03 -0.11563108492E+04  0.12284571619E+04  0.50400001928E-02 0.  1.
</event>
<event>
 5   0  0.4914005E-05  0.2146071E+04  0.7818609E-02  0.8541216E-01
        2   -1    0    0  501    0  0.00000000000E+00  0.00000000000E+00  0.18581996703E+04  0.18581996703E+04  0.25500000920E-02 0.  1.
       -2   -1    0    0    0  501  0.00000000000E+00  0.00000000000E+00 -0.61963502348E+03  0.61963502349E+03  0.25500000920E-02 0. -1.
    10030    2    1    2    0    0  0.00000000000E+00  0.00000000000E+00  0.12385646468E+04  0.24778346938E+04  0.21460713840E+04 0.  0.
        2    1    3    3  502    0  0.79798725063E+03  0.33481890904E+03  0.13518047908E+04  0.16050743118E+04  0.25500000920E-02 0.  1.
       -2    1    3    3    0  502 -0.79798725063E+03 -0.33481890904E+03 -0.11324014404E+03  0.87276038192E+03  0.25500000920E-02 0. -1.
</event>
<event>
 5   0  0.4713971E-05  0.2418470E+04  0.7818609E-02  0.8432621E-01
       -2   -1    0    0    0  501  0.00000000000E+00  0.00000000000E+00  0.58446523099E+03  0.58446523100E+03  0.25500000920E-02 0. -1.
        2   -1    0    0  501    0  0.00000000000E+00  0.00000000000E+00 -0.25018589145E+04  0.25018589145E+04  0.25500000920E-02 0.  1.
    10030    2    1    2    0    0  0.00000000000E+00  0.00000000000E+00 -0.19173936835E+04  0.30863241455E+04  0.24184702176E+04 0.  0.
        5    1    3    3  502    0 -0.54458532414E+03  0.22113286317E+03 -0.23072859761E+04  0.23809795430E+04  0.46999998093E+01 0.  1.
       -5    1    3    3    0  502  0.54458532414E+03 -0.22113286317E+03  0.38989229263E+03  0.70534460251E+03  0.46999998093E+01 0. -1.
</event>
<event>
 5   0  0.2090039E-05  0.2408434E+04  0.7818609E-02  0.8436353E-01
        1   -1    0    0  501    0  0.00000000000E+00  0.00000000000E+00  0.13273344896E+04  0.13273344897E+04  0.50400001928E-02 0.  1.
       -1   -1    0    0    0  501  0.00000000000E+00  0.00000000000E+00 -0.10925196618E+04  0.10925196618E+04  0.50400001928E-02 0. -1.
    10030    2    1    2    0    0  0.00000000000E+00  0.00000000000E+00  0.23481482783E+03  0.24198541515E+04  0.24084343693E+04 0.  0.
        1    1    3    3  502    0  0.11570018222E+03  0.10006196625E+04 -0.54565564100E+03  0.11455855794E+04  0.50400001928E-02 0. -1.
       -1    1    3    3    0  502 -0.11570018222E+03 -0.10006196625E+04  0.78047046883E+03  0.12742685721E+04  0.50400001928E-02 0.  1.
</event>
<event>
 5   0  0.2057599E-05  0.2434400E+04  0.7818609E-02  0.8426736E-01
        1   -1    0    0  501    0  0.00000000000E+00  0.00000000000E+00  0.19595539028E+04  0.19595539028E+04  0.50400001928E-02 0.  1.
       -1   -1    0    0    0  501  0.00000000000E+00  0.00000000000E+00 -0.75607834152E+03  0.75607834154E+03  0.50400001928E-02 0. -1.
    10030    2    1    2    0    0  0.00000000000E+00  0.00000000000E+00  0.12034755613E+04  0.27156322444E+04  0.24344003492E+04 0.  0.
        4    1    3    3  502    0 -0.56566939954E+03 -0.10127563959E+04  0.10129975887E+04  0.15400724381E+04  0.12699999809E+01 0.  1.
       -4    1    3    3    0  502  0.56566939954E+03  0.10127563959E+04  0.19047797259E+03  0.11755598062E+04  0.12699999809E+01 0. -1.
</event>
<event>
 5   0  0.2149920E-05  0.2385505E+04  0.7818609E-02  0.8444950E-01
       -1   -1    0    0    0  501  0.00000000000E+00  0.00000000000E+00  0.82058586051E+03  0.82058586053E+03  0.50400001928E-02 0. -1.
        1   -1    0    0  501    0  0.00000000000E+00  0.00000000000E+00 -0.17337109085E+04  0.17337109085E+04  0.50400001928E-02 0.  1.
    10030    2    1    2    0    0  0.00000000000E+00  0.00000000000E+00 -0.91312504796E+03  0.25542967690E+04  0.23855051102E+04 0.  0.
        5    1    3    3  502    0 -0.72836474313E+03 -0.37714668347E+03  0.47066730467E+03  0.94567680609E+03  0.46999998093E+01 0. -1.
       -5    1    3    3    0  502  0.72836474313E+03  0.37714668347E+03 -0.13837923526E+04  0.16086199629E+04  0.46999998093E+01 0.  1.
</event>
<event>
 5   0  0.1672125E-05  0.2395781E+04  0.7818609E-02  0.8441085E-01
        3   -1    0    0  501    0  0.00000000000E+00  0.00000000000E+00  0.13745616795E+04  0.13745616832E+04  0.10100000352E+00 0.  1.
       -3   -1    0    0    0  501  0.00000000000E+00  0.00000000000E+00 -0.10439268218E+04  0.10439268267E+04  0.10100000352E+00 0. -1.
    10030    2    1    2    0    0  0.00000000000E+00  0.00000000000E+00  0.33063485765E+03  0.24184885099E+04  0.23957811385E+04 0.  0.
        5    1    3    3  502    0  0.78844782905E+03  0.41417925034E+03  0.97398767878E+03  0.13197986661E+04  0.46999998093E+01 0.  1.
       -5    1    3    3    0  502 -0.78844782905E+03 -0.41417925034E+03 -0.64335282113E+03  0.10986898439E+04  0.46999998093E+01 0. -1.
</event>
<event>
 5   0  0.1672125E-05  0.2409341E+04  0.7818609E-02  0.8436015E-01
       -3   -1    0    0    0  501  0.00000000000E+00  0.00000000000E+00  0.77827896282E+03  0.77827896937E+03  0.10100000352E+00 0.  1.
        3   -1    0    0  501    0  0.00000000000E+00  0.00000000000E+00 -0.18646674061E+04  0.18646674088E+04  0.10100000352E+00 0. -1.
    10030    2    1    2    0    0  0.00000000000E+00  0.00000000000E+00 -0.10863884432E+04  0.26429463782E+04  0.24093413432E+04 0.  0.
        4    1    3    3  502    0  0.20895438898E+03  0.65157087655E+03  0.54441258854E+03  0.87441021455E+03  0.12699999809E+01 0.  1.
       -4    1    3    3    0  502 -0.20895438898E+03 -0.65157087655E+03 -0.16308010318E+04  0.17685361636E+04  0.12699999809E+01 0. -1.
</event>
<event>
 5   0  0.2065692E-05  0.2305133E+04  0.7818609E-02  0.8475900E-01
        1   -1    0    0  501    0  0.00000000000E+00  0.00000000000E+00  0.24929045537E+04  0.24929045537E+04  0.50400001928E-02 0.  1.
       -1   -1    0    0    0  501  0.00000000000E+00  0.00000000000E+00 -0.53287610589E+03  0.53287610591E+03  0.50400001928E-02 0. -1.
    10030    2    1    2    0    0  0.00000000000E+00  0.00000000000E+00  0.19600284478E+04  0.30257806596E+04  0.23051327692E+04 0.  0.
        3    1    3    3  502    0 -0.81616626311E+02 -0.11338145590E+04  0.73022658118E+03  0.13510838604E+04  0.10100000352E+00 0. -1.
       -3    1    3    3    0  502  0.81616626311E+02  0.11338145590E+04  0.12298018666E+04  0.16746967992E+04  0.10100000352E+00 0.  1.
</event>
<event>
 5   0  0.4713971E-05  0.2386273E+04  0.7818609E-02  0.8444661E-01
       -2   -1    0    0    0  501  0.00000000000E+00  0.00000000000E+00  0.70361172638E+03  0.70361172639E+03  0.25500000920E-02 0.  1.
        2   -1    0    0  501    0  0.00000000000E+00  0.00000000000E+00 -0.20232383601E+04  0.20232383601E+04  0.25500000920E-02 0. -1.
    10030    2    1    2    0    0  0.00000000000E+00  0.00000000000E+00 -0.13196266337E+04  0.27268500865E+04  0.23862726043E+04 0.  0.
        5    1    3    3  502    0 -0.72258553365E+03  0.71653169512E+03 -0.13716160588E+04  0.17078935056E+04  0.46999998093E+01 0. -1.
       -5    1    3    3    0  502  0.72258553365E+03 -0.71653169512E+03  0.51989425067E+02  0.10189565810E+04  0.46999998093E+01 0.  1.
</event>
<event>
 5   0  0.1672125E-05  0.2350593E+04  0.7818609E-02  0.8458236E-01
        3   -1    0    0  501    0  0.00000000000E+00  0.00000000000E+00  0.11598403598E+04  0.11598403642E+04  0.10100000352E+00 0.  1.
       -3   -1    0    0    0  501  0.00000000000E+00  0.00000000000E+00 -0.11909585635E+04  0.11909585678E+04  0.10100000352E+00 0. -1.
    10030    2    1    2    0    0  0.00000000000E+00  0.00000000000E+00 -0.31118203707E+02  0.23507989319E+04  0.23505929626E+04 0.  0.
        4    1    3    3  502    0  0.62576711270E+03  0.83384820668E+03  0.52710515547E+03  0.11682160626E+04  0.12699999809E+01 0.  1.
       -4    1    3    3    0  502 -0.62576711270E+03 -0.83384820668E+03 -0.55822335918E+03  0.11825828693E+04  0.12699999809E+01 0. -1.
</event>
<event>
 5   0  0.4713971E-05  0.2426255E+04  0.7818609E-02  0.8429739E-01
        2   -1    0    0  501    0  0.00000000000E+00  0.00000000000E+00  0.13673107235E+04  0.13673107235E+04  0.25500000920E-02 0.  1.
       -2   -1    0    0    0  501  0.00000000000E+00  0.00000000000E+00 -0.10763307154E+04  0.10763307154E+04  0.25500000920E-02 0. -1.
    10030    2    1    2    0    0  0.00000000000E+00  0.00000000000E+00  0.29098000813E+03  0.24436414389E+04  0.24262551632E+04 0.  0.
        5    1    3    3  502    0  0.75559983604E+03  0.63550731658E+03  0.85542106974E+03  0.13063567500E+04  0.46999998093E+01 0.  1.
       -5    1    3    3    0  502 -0.75559983604E+03 -0.63550731658E+03 -0.56444106161E+03  0.11372846889E+04  0.46999998093E+01 0. -1.
</event>
<event>
 5   0  0.2057599E-05  0.2426878E+04  0.7818609E-02  0.8429509E-01
        1   -1    0    0  501    0  0.00000000000E+00  0.00000000000E+00  0.24681643373E+04  0.24681643373E+04  0.50400001928E-02 0.  1.
       -1   -1    0    0    0  501  0.00000000000E+00  0.00000000000E+00 -0.59657076254E+03  0.59657076256E+03  0.50400001928E-02 0. -1.
    10030    2    1    2    0    0  0.00000000000E+00  0.00000000000E+00  0.18715935747E+04  0.30647350998E+04  0.24268783907E+04 0.  0.
        4    1    3    3  502    0 -0.27894793905E+02 -0.19362980954E+02 -0.59596981684E+03  0.59693775223E+03  0.12699999809E+01 0. -1.
       -4    1    3    3    0  502  0.27894793905E+02  0.19362980954E+02  0.24675633916E+04  0.24677973476E+04  0.12699999809E+01 0.  1.
</event>
<event>
 5   0  0.2149920E-05  0.2395155E+04  0.7818609E-02  0.8441320E-01
       -1   -1    0    0    0  501  0.00000000000E+00  0.00000000000E+00  0.93358533471E+03  0.93358533472E+03  0.50400001928E-02 0. -1.
        1   -1    0    0  501    0  0.00000000000E+00  0.00000000000E+00 -0.15362196904E+04  0.15362196904E+04  0.50400001928E-02 0.  1.
    10030    2    1    2    0    0  0.00000000000E+00  0.00000000000E+00 -0.60263435570E+03  0.24698050251E+04  0.23951552550E+04 0.  0.
        5    1    3    3  502    0 -0.10294595870E+04  0.61039680128E+03 -0.34505115156E+03  0.12455736363E+04  0.46999998093E+01 0.  1.
       -5    1    3    3    0  502  0.10294595870E+04 -0.61039680128E+03 -0.25758320415E+03  0.12242313888E+04  0.46999998093E+01 0. -1.
</event>
<event>
 5   0  0.4756705E-05  0.2401903E+04  0.7818609E-02  0.8438792E-01
        2   -1    0    0  501    0  0.00000000000E+00  0.00000000000E+00  0.10596946436E+04  0.10596946436E+04  0.25500000920E-02 0.  1.
       -2   -1    0    0    0  501  0.00000000000E+00  0.00000000000E+00 -0.13610375968E+04  0.13610375968E+04  0.25500000920E-02 0. -1.
    10030    2    1    2    0    0  0.00000000000E+00  0.00000000000E+00 -0.30134295318E+03  0.24207322404E+04  0.24019027882E+04 0.  0.
        3    1    3    3  502    0 -0.14829869016E+03  0.48320401016E+02  0.10494434569E+04  0.10609707545E+04  0.10100000352E+00 0.  1.
       -3    1    3    3    0  502  0.14829869016E+03 -0.48320401016E+02 -0.13507864100E+04  0.13597614858E+04  0.10100000352E+00 0. -1.
</event>
<event>
 5   0  0.4713971E-05  0.2265281E+04  0.7818609E-02  0.8491737E-01
       -2   -1    0    0    0  501  0.00000000000E+00  0.00000000000E+00  0.15194877894E+04  0.15194877894E+04  0.25500000920E-02 0.  1.
        2   -1    0    0  501    0  0.00000000000E+00  0.00000000000E+00 -0.84428094111E+03  0.84428094111E+03  0.25500000920E-02 0. -1.
    10030    2    1    2    0    0  0.00000000000E+00  0.00000000000E+00  0.67520684834E+03  0.23637687306E+04  0.22652810694E+04 0.  0.
        5    1    3    3  502    0 -0.39389051316E+03  0.68635488986E+03 -0.50794765515E+03  0.94035401927E+03  0.46999998093E+01 0. -1.
       -5    1    3    3    0  502  0.39389051316E+03 -0.68635488986E+03  0.11831545035E+04  0.14234147113E+04  0.46999998093E+01 0.  1.
</event>
<event>
 5   0  0.1672125E-05  0.2438850E+04  0.7818609E-02  0.8425100E-01
        3   -1    0    0  501    0  0.00000000000E+00  0.00000000000E+00  0.92650772604E+03  0.92650773155E+03  0.10100000352E+00 0.  1.
       -3   -1    0    0    0  501  0.00000000000E+00  0.00000000000E+00 -0.16049488105E+04  0.16049488137E+04  0.10100000352E+00 0. -1.
    10030    2    1    2    0    0  0.00000000000E+00  0.00000000000E+00 -0.67844108449E+03  0.25314565453E+04  0.24388501256E+04 0.  0.
        1    1    3    3  502    0  0.10838819838E+04 -0.26577740852E+03  0.17092911991E+03  0.11290060007E+04  0.50400001928E-02 0.  1.
       -1    1    3    3    0  502 -0.10838819838E+04  0.26577740852E+03 -0.84937020440E+03  0.14024505445E+04  0.50400001928E-02 0. -1.
</event>
<event>
 5   0  0.4664127E-05  0.2400594E+04  0.7818609E-02  0.8439281E-01
        2   -1    0    0  501    0  0.00000000000E+00  0.00000000000E+00  0.12368375913E+04  0.12368375913E+04  0.25500000920E-02 0.  1.
       -2   -1    0    0    0  501  0.00000000000E+00  0.00000000000E+00 -0.11648355849E+04  0.11648355849E+04  0.25500000920E-02 0. -1.
    10030    2    1    2    0    0  0.00000000000E+00  0.00000000000E+00  0.72002006381E+02  0.24016731763E+04  0.24005936259E+04 0.  0.
        4    1    3    3  502    0  0.52615023867E+03 -0.80564441880E+03 -0.68182693735E+03  0.11793161529E+04  0.12699999809E+01 0. -1.
       -4    1    3    3    0  502 -0.52615023867E+03  0.80564441880E+03  0.75382894373E+03  0.12223570233E+04  0.12699999809E+01 0.  1.
</event>
<event>
 5   0  0.2090039E-05  0.2384644E+04  0.7818609E-02  0.8445275E-01
       -1   -1    0    0    0  501  0.00000000000E+00  0.00000000000E+00  0.12358192009E+04  0.12358192009E+04  0.50400001928E-02 0.  1.
        1   -1    0    0  501    0  0.00000000000E+00  0.00000000000E+00 -0.11503555029E+04  0.11503555029E+04  0.50400001928E-02 0. -1.
    10030    2    1    2    0    0  0.00000000000E+00  0.00000000000E+00  0.85463698025E+02  0.23861747038E+04  0.23846437205E+04 0.  0.
        1    1    3    3  502    0 -0.36475681110E+03 -0.50888404410E+03 -0.97262198625E+03  0.11567212412E+04  0.50400001928E-02 0. -1.
       -1    1    3    3    0  502  0.36475681110E+03  0.50888404410E+03  0.10580856843E+04  0.12294534627E+04  0.50400001928E-02 0.  1.
</event>
<event>
 5   0  0.2057599E-05  0.2387627E+04  0.7818609E-02  0.8444150E-01
        1   -1    0    0  501    0  0.00000000000E+00  0.00000000000E+00  0.18469204750E+04  0.18469204750E+04  0.50400001928E-02 0.  1.
       -1   -1    0    0    0  501  0.00000000000E+00  0.00000000000E+00 -0.77165806498E+03  0.77165806500E+03  0.50400001928E-02 0. -1.
    10030    2    1    2    0    0  0.00000000000E+00  0.00000000000E+00  0.10752624100E+04  0.26185785400E+04  0.23876273410E+04 0.  0.
        4    1    3    3  502    0  0.87849064090E+02  0.31435650735E+03  0.17970325683E+04  0.18264350895E+04  0.12699999809E+01 0.  1.
       -4    1    3    3    0  502 -0.87849064090E+02 -0.31435650735E+03 -0.72177015831E+03  0.79214345046E+03  0.12699999809E+01 0. -1.
</event>
<event>
 5   0  0.2057599E-05  0.2419243E+04  0.7818609E-02  0.8432334E-01
        1   -1    0    0  501    0  0.00000000000E+00  0.00000000000E+00  0.15820478149E+04  0.15820478149E+04  0.50400001928E-02 0.  1.
       -1   -1    0    0    0  501  0.00000000000E+00  0.00000000000E+00 -0.92486732953E+03  0.92486732955E+03  0.50400001928E-02 0. -1.
    10030    2    1    2    0    0  0.00000000000E+00  0.00000000000E+00  0.65718048533E+03  0.25069151444E+04  0.24192431360E+04 0.  0.
        4    1    3    3  502    0 -0.24459131714E+03  0.92741288805E+03  0.10923648914E+04  0.14536788663E+04  0.12699999809E+01 0.  1.
       -4    1    3    3    0  502  0.24459131714E+03 -0.92741288805E+03 -0.43518440611E+03  0.10532362781E+04  0.12699999809E+01 0. -1.
</event>
<event>
 5   0  0.2057599E-05  0.2356564E+04  0.7818609E-02  0.8455947E-01
       -1   -1    0    0    0  501  0.00000000000E+00  0.00000000000E+00  0.87076335762E+03  0.87076335764E+03  0.50400001928E-02 0.  1.
        1   -1    0    0  501    0  0.00000000000E+00  0.00000000000E+00 -0.15944034888E+04  0.15944034888E+04  0.50400001928E-02 0. -1.
    10030    2    1    2    0    0  0.00000000000E+00  0.00000000000E+00 -0.72364013120E+03  0.24651668465E+04  0.23565637147E+04 0.  0.
        4    1    3    3  502    0  0.71502087236E+03  0.62779023401E+03 -0.10888088363E+04  0.14459881468E+04  0.12699999809E+01 0. -1.
       -4    1    3    3    0  502 -0.71502087236E+03 -0.62779023401E+03  0.36516870506E+03  0.10191786997E+04  0.12699999809E+01 0.  1.
</event>
<event>
 5   0  0.2090039E-05  0.2376887E+04  0.7818609E-02  0.8448208E-01
       -1   -1    0    0    0  501  0.00000000000E+00  0.00000000000E+00  0.80890550376E+03  0.80890550378E+03  0.50400001928E-02 0.  1.
        1   -1    0    0  501    0  0.00000000000E+00  0.00000000000E+00 -0.17460600089E+04  0.17460600089E+04  0.50400001928E-02 0. -1.
    10030    2    1    2    0    0  0.00000000000E+00  0.00000000000E+00 -0.93715450515E+03  0.25549655127E+04  0.23768866621E+04 0.  0.
        1    1    3    3  502    0 -0.73947741608E+03 -0.10305672736E+02 -0.14685800083E+04  0.16442810881E+04  0.50400001928E-02 0. -1.
       -1    1    3    3    0  502  0.73947741608E+03  0.10305672736E+02  0.53142550317E+03  0.91068442461E+03  0.50400001928E-02 0.  1.
</event>
<event>
 5   0  0.2149920E-05  0.2378309E+04  0.7818609E-02  0.8447669E-01
       -1   -1    0    0    0  501  0.00000000000E+00  0.00000000000E+00  0.81864203010E+03  0.81864203012E+03  0.50400001928E-02 0. -1.
        1   -1    0    0  501    0  0.00000000000E+00  0.00000000000E+00 -0.17273586814E+04  0.17273586815E+04  0.50400001928E-02 0.  1.
    10030    2    1    2    0    0  0.00000000000E+00  0.00000000000E+00 -0.90871665135E+03  0.25460007116E+04  0.23783089940E+04 0.  0.
        5    1    3    3  502    0 -0.32015871801E+03 -0.29744128851E+03  0.72955539655E+03  0.85043876409E+03  0.46999998093E+01 0. -1.
       -5    1    3    3    0  502  0.32015871801E+03  0.29744128851E+03 -0.16382720479E+04  0.16955619475E+04  0.46999998093E+01 0.  1.
</event>
<event>
 5   0  0.4664127E-05  0.2364941E+04  0.7818609E-02  0.8452747E-01
       -2   -1    0    0    0  501  0.00000000000E+00  0.00000000000E+00  0.11371157950E+04  0.11371157950E+04  0.25500000920E-02 0.  1.
        2   -1    0    0  501    0  0.00000000000E+00  0.00000000000E+00 -0.12296341974E+04  0.12296341974E+04  0.25500000920E-02 0. -1.
    10030    2    1    2    0    0  0.00000000000E+00  0.00000000000E+00 -0.92518402393E+02  0.23667499924E+04  0.23649409870E+04 0.  0.
        4    1    3    3  502    0  0.64561833069E+03 -0.42299490637E+03  0.85024249530E+03  0.11483299323E+04  0.12699999809E+01 0.  1.
       -4    1    3    3    0  502 -0.64561833069E+03  0.42299490637E+03 -0.94276089770E+03  0.12184200601E+04  0.12699999809E+01 0. -1.
</event>
<event>
 5   0  0.2149920E-05  0.2368178E+04  0.7818609E-02  0.8451514E-01
       -1   -1    0    0    0  501  0.00000000000E+00  0.00000000000E+00  0.11919263639E+04  0.11919263639E+04  0.50400001928E-02 0.  1.
        1   -1    0    0  501    0  0.00000000000E+00  0.00000000000E+00 -0.11763027959E+04  0.11763027959E+04  0.50400001928E-02 0. -1.
    10030    2    1    2    0    0  0.00000000000E+00  0.00000000000E+00  0.15623568030E+02  0.23682291598E+04  0.23681776237E+04 0.  0.
        5    1    3    3  502    0  0.17351835972E+03  0.10740567071E+04  0.47508825067E+03  0.11871972739E+04  0.46999998093E+01 0.  1.
       -5    1    3    3    0  502 -0.17351835972E+03 -0.10740567071E+04 -0.45946468264E+03  0.11810318860E+04  0.46999998093E+01 0. -1.
</event>
<event>
 5   0  0.4664127E-05  0.2422493E+04  0.7818609E-02  0.8431130E-01
       -2   -1    0    0    0  501  0.00000000000E+00  0.00000000000E+00  0.12037664043E+04  0.12037664043E+04  0.25500000920E-02 0.  1.
        2   -1    0    0  501    0  0.00000000000E+00  0.00000000000E+00 -0.12187732067E+04  0.12187732067E+04  0.25500000920E-02 0. -1.
    10030    2    1    2    0    0  0.00000000000E+00  0.00000000000E+00 -0.15006802358E+02  0.24225396110E+04  0.24224931295E+04 0.  0.
        4    1    3    3  502    0 -0.13603654618E+03  0.85537141866E+02  0.11930587143E+04  0.12038327348E+04  0.12699999809E+01 0.  1.
       -4    1    3    3    0  502  0.13603654618E+03 -0.85537141866E+02 -0.12080655167E+04  0.12187068762E+04  0.12699999809E+01 0. -1.
</event>
<event>
 5   0  0.2090039E-05  0.2244803E+04  0.7818609E-02  0.8500008E-01
       -1   -1    0    0    0  501  0.00000000000E+00  0.00000000000E+00  0.10008679837E+04  0.10008679837E+04  0.50400001928E-02 0.  1.
        1   -1    0    0  501    0  0.00000000000E+00  0.00000000000E+00 -0.12586929113E+04  0.12586929113E+04  0.50400001928E-02 0. -1.
    10030    2    1    2    0    0  0.00000000000E+00  0.00000000000E+00 -0.25782492754E+03  0.22595608950E+04  0.22448032754E+04 0.  0.
        1    1    3    3  502    0  0.31515024053E+03 -0.33170774251E+03  0.90273308023E+03  0.10120655684E+04  0.50400001928E-02 0.  1.
       -1    1    3    3    0  502 -0.31515024053E+03  0.33170774251E+03 -0.11605580078E+04  0.12474953266E+04  0.50400001928E-02 0. -1.
</event>
<event>
 5   0  0.4856882E-05  0.2459382E+04  0.7818609E-02  0.8417601E-01
       -2   -1    0    0    0  501  0.00000000000E+00  0.00000000000E+00  0.93576250583E+03  0.93576250583E+03  0.25500000920E-02 0. -1.
        2   -1    0    0  501    0  0.00000000000E+00  0.00000000000E+00 -0.16159435391E+04  0.16159435391E+04  0.25500000920E-02 0.  1.
    10030    2    1    2    0    0  0.00000000000E+00  0.00000000000E+00 -0.68018103326E+03  0.25517060449E+04  0.24593815283E+04 0.  0.
        1    1    3    3  502    0  0.46590242937E+03  0.79431324840E+03  0.50545074317E+03  0.10504661175E+04  0.50400001928E-02 0. -1.
       -1    1    3    3    0  502 -0.46590242937E+03 -0.79431324840E+03 -0.11856317764E+04  0.15012399274E+04  0.50400001928E-02 0.  1.
</event>
<event>
 5   0  0.2065692E-05  0.2386693E+04  0.7818609E-02  0.8444502E-01
        1   -1    0    0  501    0  0.00000000000E+00  0.00000000000E+00  0.13481792947E+04  0.13481792947E+04  0.50400001928E-02 0.  1.
       -1   -1    0    0    0  501  0.00000000000E+00  0.00000000000E+00 -0.10562960512E+04  0.10562960512E+04  0.50400001928E-02 0. -1.
    10030    2    1    2    0    0  0.00000000000E+00  0.00000000000E+00  0.29188324349E+03  0.24044753459E+04  0.23866934996E+04 0.  0.
        3    1    3    3  502    0  0.60460523181E+03 -0.12870377760E+03 -0.88243003672E+03  0.10774019346E+04  0.10100000352E+00 0. -1.
       -3    1    3    3    0  502 -0.60460523181E+03  0.12870377760E+03  0.11743132802E+04  0.13270734113E+04  0.10100000352E+00 0.  1.
</event>
<event>
 5   0  0.4914005E-05  0.2196537E+04  0.7818609E-02  0.8519871E-01
        2   -1    0    0  501    0  0.00000000000E+00  0.00000000000E+00  0.21413915999E+04  0.21413915999E+04  0.25500000920E-02 0.  1.
       -2   -1    0    0    0  501  0.00000000000E+00  0.00000000000E+00 -0.56327586663E+03  0.56327586663E+03  0.25500000920E-02 0. -1.
    10030    2    1    2    0    0  0.00000000000E+00  0.00000000000E+00  0.15781157333E+04  0.27046674666E+04  0.21965374654E+04 0.  0.
        2    1    3    3  502    0 -0.36107810876E+02  0.70437741743E+03  0.18256779514E+04  0.19571794252E+04  0.25500000920E-02 0.  1.
       -2    1    3    3    0  502  0.36107810876E+02 -0.70437741743E+03 -0.24756221808E+03  0.74748804138E+03  0.25500000920E-02 0. -1.
</event>
<event>
 5   0  0.2090039E-05  0.2408507E+04  0.7818609E-02  0.8436326E-01
        1   -1    0    0  501    0  0.00000000000E+00  0.00000000000E+00  0.66358243920E+03  0.66358243922E+03  0.50400001928E-02 0.  1.
       -1   -1    0    0    0  501  0.00000000000E+00  0.00000000000E+00 -0.21854496585E+04  0.21854496585E+04  0.50400001928E-02 0. -1.
    10030    2    1    2    0    0  0.00000000000E+00  0.00000000000E+00 -0.15218672193E+04  0.28490320977E+04  0.24085066038E+04 0.  0.
        1    1    3    3  502    0  0.88358638221E+03 -0.68029069373E+03 -0.22312751572E+03  0.11372362161E+04  0.50400001928E-02 0.  1.
       -1    1    3    3    0  502 -0.88358638221E+03  0.68029069373E+03 -0.12987397036E+04  0.17117958816E+04  0.50400001928E-02 0. -1.
</event>
<event>
 5   0  0.2065692E-05  0.1750403E+04  0.7818609E-02  0.8733129E-01
       -1   -1    0    0    0  501  0.00000000000E+00  0.00000000000E+00  0.97162825032E+03  0.97162825033E+03  0.50400001928E-02 0. -1.
        1   -1    0    0  501    0  0.00000000000E+00  0.00000000000E+00 -0.78834407600E+03  0.78834407602E+03  0.50400001928E-02 0.  1.
    10030    2    1    2    0    0  0.00000000000E+00  0.00000000000E+00  0.18328417432E+03  0.17599723264E+04  0.17504026682E+04 0.  0.
        3    1    3    3  502    0 -0.49505303212E+03  0.44254329524E+03 -0.48161111982E+03  0.82028736045E+03  0.10100000352E+00 0.  1.
       -3    1    3    3    0  502  0.49505303212E+03 -0.44254329524E+03  0.66489529414E+03  0.93968496590E+03  0.10100000352E+00 0. -1.
</event>
<event>
 5   0  0.2090039E-05  0.2296900E+04  0.7818609E-02  0.8479144E-01
       -1   -1    0    0    0  501  0.00000000000E+00  0.00000000000E+00  0.10560696935E+04  0.10560696935E+04  0.50400001928E-02 0. -1.
        1   -1    0    0  501    0  0.00000000000E+00  0.00000000000E+00 -0.12489110400E+04  0.12489110400E+04  0.50400001928E-02 0.  1.
    10030    2    1    2    0    0  0.00000000000E+00  0.00000000000E+00 -0.19284134651E+03  0.23049807335E+04  0.22968997360E+04 0.  0.
        1    1    3    3  502    0 -0.53679569695E+03 -0.27674824715E+03  0.88384656222E+03  0.10704783782E+04  0.50400001928E-02 0. -1.
       -1    1    3    3    0  502  0.53679569695E+03  0.27674824715E+03 -0.10766879087E+04  0.12345023554E+04  0.50400001928E-02 0.  1.
</event>
<event>
 5   0  0.4713971E-05  0.1990835E+04  0.7818609E-02  0.8610918E-01
        2   -1    0    0  501    0  0.00000000000E+00  0.00000000000E+00  0.91517512145E+03  0.91517512145E+03  0.25500000920E-02 0. -1.
       -2   -1    0    0    0  501  0.00000000000E+00  0.00000000000E+00 -0.10826955394E+04  0.10826955394E+04  0.25500000920E-02 0.  1.
    10030    2    1    2    0    0  0.00000000000E+00  0.00000000000E+00 -0.16752041792E+03  0.19978706608E+04  0.19908350225E+04 0.  0.
        5    1    3    3  502    0 -0.87952459898E+03  0.10592669042E+03 -0.53929164353E+03  0.10371314048E+04  0.46999998093E+01 0.  1.
       -5    1    3    3    0  502  0.87952459898E+03 -0.10592669042E+03  0.37177122561E+03  0.96073925606E+03  0.46999998093E+01 0. -1.
</event>
<event>
 5   0  0.4756705E-05  0.2393156E+04  0.7818609E-02  0.8442070E-01
        2   -1    0    0  501    0  0.00000000000E+00  0.00000000000E+00  0.15462554760E+04  0.15462554760E+04  0.25500000920E-02 0.  1.
       -2   -1    0    0    0  501  0.00000000000E+00  0.00000000000E+00 -0.92597851589E+03  0.92597851589E+03  0.25500000920E-02 0. -1.
    10030    2    1    2    0    0  0.00000000000E+00  0.00000000000E+00  0.62027696009E+03  0.24722339919E+04  0.23931563683E+04 0.  0.
        3    1    3    3  502    0  0.63635448391E+03 -0.10061807540E+04  0.18594708248E+03  0.12049577032E+04  0.10100000352E+00 0. -1.
       -3    1    3    3    0  502 -0.63635448391E+03  0.10061807540E+04  0.43432987761E+03  0.12672762886E+04  0.10100000352E+00 0.  1.
</event>
<event>
 5   0  0.4856882E-05  0.2403235E+04  0.7818609E-02  0.8438293E-01
        2   -1    0    0  501    0  0.00000000000E+00  0.00000000000E+00  0.98361830297E+03  0.98361830297E+03  0.25500000920E-02 0.  1.
       -2   -1    0    0    0  501  0.00000000000E+00  0.00000000000E+00 -0.14679321956E+04  0.14679321956E+04  0.25500000920E-02 0. -1.
    10030    2    1    2    0    0  0.00000000000E+00  0.00000000000E+00 -0.48431389265E+03  0.24515504986E+04  0.24032352986E+04 0.  0.
        1    1    3    3  502    0  0.10199840711E+04  0.63100325158E+03 -0.16752625515E+03  0.12110316490E+04  0.50400001928E-02 0. -1.
       -1    1    3    3    0  502 -0.10199840711E+04 -0.63100325158E+03 -0.31678763749E+03  0.12405188496E+04  0.50400001928E-02 0.  1.
</event>
<event>
 5   0  0.2139556E-05  0.1738321E+04  0.7818609E-02  0.8739806E-01
       -1   -1    0    0    0  501  0.00000000000E+00  0.00000000000E+00  0.91468376607E+03  0.91468376609E+03  0.50400001928E-02 0.  1.
        1   -1    0    0  501    0  0.00000000000E+00  0.00000000000E+00 -0.82590250239E+03  0.82590250240E+03  0.50400001928E-02 0. -1.
    10030    2    1    2    0    0  0.00000000000E+00  0.00000000000E+00  0.88781263683E+02  0.17405862685E+04  0.17383205818E+04 0.  0.
        2    1    3    3  502    0 -0.53345320388E+03 -0.65778057061E+03  0.24007311332E+03  0.88027421838E+03  0.25500000920E-02 0. -1.
       -2    1    3    3    0  502  0.53345320388E+03  0.65778057061E+03 -0.15129184963E+03  0.86031205011E+03  0.25500000920E-02 0.  1.
</event>
<event>
 5   0  0.2090039E-05  0.2381428E+04  0.7818609E-02  0.8446490E-01
       -1   -1    0    0    0  501  0.00000000000E+00  0.00000000000E+00  0.12912051895E+04  0.12912051895E+04  0.50400001928E-02 0.  1.
        1   -1    0    0  501    0  0.00000000000E+00  0.00000000000E+00 -0.10980433840E+04  0.10980433840E+04  0.50400001928E-02 0. -1.
    10030    2    1    2    0    0  0.00000000000E+00  0.00000000000E+00  0.19316180548E+03  0.23892485735E+04  0.23814275683E+04 0.  0.
        1    1    3    3  502    0  0.53005295857E+03  0.64792847357E+03  0.94613920452E+03  0.12633078960E+04  0.50400001928E-02 0.  1.
       -1    1    3    3    0  502 -0.53005295857E+03 -0.64792847357E+03 -0.75297739904E+03  0.11259406775E+04  0.50400001928E-02 0. -1.
</event>
<event>
 5   0  0.4713971E-05  0.2408790E+04  0.7818609E-02  0.8436220E-01
       -2   -1    0    0    0  501  0.00000000000E+00  0.00000000000E+00  0.82040806681E+03  0.82040806682E+03  0.25500000920E-02 0.  1.
        2   -1    0    0  501    0  0.00000000000E+00  0.00000000000E+00 -0.17681051705E+04  0.17681051705E+04  0.25500000920E-02 0. -1.
    10030    2    1    2    0    0  0.00000000000E+00  0.00000000000E+00 -0.94769710371E+03  0.25885132373E+04  0.24087903561E+04 0.  0.
        5    1    3    3  502    0 -0.77517430579E+03 -0.91803046561E+03 -0.56292154052E+03  0.13268676991E+04  0.46999998093E+01 0. -1.
       -5    1    3    3    0  502  0.77517430579E+03  0.91803046561E+03 -0.38477556318E+03  0.12616455382E+04  0.46999998093E+01 0.  1.
</event>
<event>
 5   0  0.2065692E-05  0.2413359E+04  0.7818609E-02  0.8434519E-01
        1   -1    0    0  501    0  0.00000000000E+00  0.00000000000E+00  0.14578187747E+04  0.14578187747E+04  0.50400001928E-02 0.  1.
       -1   -1    0    0    0  501  0.00000000000E+00  0.00000000000E+00 -0.99880436275E+03  0.99880436277E+03  0.50400001928E-02 0. -1.
    10030    2    1    2    0    0  0.00000000000E+00  0.00000000000E+00  0.45901441197E+03  0.24566231375E+04  0.24133592789E+04 0.  0.
        3    1    3    3  502    0 -0.65728461101E+03 -0.10085845707E+04  0.31350835097E+03  0.12440069905E+04  0.10100000352E+00 0.  1.
       -3    1    3    3    0  502  0.65728461101E+03  0.10085845707E+04  0.14550606100E+03  0.12126161470E+04  0.10100000352E+00 0. -1.
</event>
<event>
 5   0  0.2057599E-05  0.2520982E+04  0.7818609E-02  0.8395549E-01
        1   -1    0    0  501    0  0.00000000000E+00  0.00000000000E+00  0.15907556291E+04  0.15907556291E+04  0.50400001928E-02 0. -1.
       -1   -1    0    0    0  501  0.00000000000E+00  0.00000000000E+00 -0.99879409616E+03  0.99879409617E+03  0.50400001928E-02 0.  1.
    10030    2    1    2    0    0  0.00000000000E+00  0.00000000000E+00  0.59196153290E+03  0.25895497252E+04  0.25209818173E+04 0.  0.
        4    1    3    3  502    0 -0.11283045162E+04 -0.56170516020E+03  0.27967612156E+03  0.12910476808E+04  0.12699999809E+01 0. -1.
       -4    1    3    3    0  502  0.11283045162E+04  0.56170516020E+03  0.31228541133E+03  0.12985020444E+04  0.12699999809E+01 0.  1.
</event>
<event>
 5   0  0.4756705E-05  0.2435861E+04  0.7818609E-02  0.8426199E-01
        2   -1    0    0  501    0  0.00000000000E+00  0.00000000000E+00  0.18396494937E+04  0.18396494937E+04  0.25500000920E-02 0.  1.
       -2   -1    0    0    0  501  0.00000000000E+00  0.00000000000E+00 -0.80632439686E+03  0.80632439687E+03  0.25500000920E-02 0. -1.
    10030    2    1    2    0    0  0.00000000000E+00  0.00000000000E+00  0.10333250969E+04  0.26459738906E+04  0.24358606434E+04 0.  0.
        3    1    3    3  502    0  0.45205368226E+03 -0.58843190575E+03  0.15657595749E+04  0.17326879973E+04  0.10100000352E+00 0.  1.
       -3    1    3    3    0  502 -0.45205368226E+03  0.58843190575E+03 -0.53243447802E+03  0.91328589332E+03  0.10100000352E+00 0. -1.
</event>
<event>
 5   0  0.2149920E-05  0.2411877E+04  0.7818609E-02  0.8435070E-01
        1   -1    0    0  501    0  0.00000000000E+00  0.00000000000E+00  0.22561328344E+04  0.22561328344E+04  0.50400001928E-02 0. -1.
       -1   -1    0    0    0  501  0.00000000000E+00  0.00000000000E+00 -0.64459294511E+03  0.64459294513E+03  0.50400001928E-02 0.  1.
    10030    2    1    2    0    0  0.00000000000E+00  0.00000000000E+00  0.16115398893E+04  0.29007257795E+04  0.24118767036E+04 0.  0.
        5    1    3    3  502    0  0.41459672907E+02  0.11839540349E+04  0.53470096238E+03  0.12997666215E+04  0.46999998093E+01 0.  1.
       -5    1    3    3    0  502 -0.41459672907E+02 -0.11839540349E+04  0.10768389269E+04  0.16009591580E+04  0.46999998093E+01 0. -1.
</event>
<event>
 5   0  0.4713971E-05  0.2389658E+04  0.7818609E-02  0.8443386E-01
        2   -1    0    0  501    0  0.00000000000E+00  0.00000000000E+00  0.14880250191E+04  0.14880250191E+04  0.25500000920E-02 0.  1.
       -2   -1    0    0    0  501  0.00000000000E+00  0.00000000000E+00 -0.95940345149E+03  0.95940345149E+03  0.25500000920E-02 0. -1.
    10030    2    1    2    0    0  0.00000000000E+00  0.00000000000E+00  0.52862156764E+03  0.24474284706E+04  0.23896580000E+04 0.  0.
        5    1    3    3  502    0 -0.50168578057E+03  0.10399463548E+04  0.57901302028E+03  0.12916869632E+04  0.46999998093E+01 0.  1.
       -5    1    3    3    0  502  0.50168578057E+03 -0.10399463548E+04 -0.50391452647E+02  0.11557415074E+04  0.46999998093E+01 0. -1.
</event>
<event>
 5   0  0.4664127E-05  0.2222670E+04  0.7818609E-02  0.8509051E-01
       -2   -1    0    0    0  501  0.00000000000E+00  0.00000000000E+00  0.93425247411E+03  0.93425247411E+03  0.25500000920E-02 0.  1.
        2   -1    0    0  501    0  0.00000000000E+00  0.00000000000E+00 -0.13219824823E+04  0.13219824823E+04  0.25500000920E-02 0. -1.
    10030    2    1    2    0    0  0.00000000000E+00  0.00000000000E+00 -0.38773000817E+03  0.22562349564E+04  0.22226699303E+04 0.  0.
        4    1    3    3  502    0  0.87554513662E+03  0.55034418915E+03 -0.60695729808E+03  0.11991066622E+04  0.12699999809E+01 0. -1.
       -4    1    3    3    0  502 -0.87554513662E+03 -0.55034418915E+03  0.21922728991E+03  0.10571282942E+04  0.12699999809E+01 0.  1.
</event>
<event>
 5   0  0.4856882E-05  0.2345529E+04  0.7818609E-02  0.8460183E-01
        2   -1    0    0  501    0  0.00000000000E+00  0.00000000000E+00  0.10982619806E+04  0.10982619806E+04  0.25500000920E-02 0. -1.
       -2   -1    0    0    0  501  0.00000000000E+00  0.00000000000E+00 -0.12523208230E+04  0.12523208230E+04  0.25500000920E-02 0.  1.
    10030    2    1    2    0    0  0.00000000000E+00  0.00000000000E+00 -0.15405884240E+03  0.23505828036E+04  0.23455288081E+04 0.  0.
        1    1    3    3  502    0 -0.39113292074E+03 -0.68101098512E+03 -0.94989148250E+03  0.12324993923E+04  0.50400001928E-02 0.  1.
       -1    1    3    3    0  502  0.39113292074E+03  0.68101098512E+03  0.79583264010E+03  0.11180834113E+04  0.50400001928E-02 0. -1.
</event>
<event>
 5   0  0.4856882E-05  0.2502541E+04  0.7818609E-02  0.8402081E-01
       -2   -1    0    0    0  501  0.00000000000E+00  0.00000000000E+00  0.89175344823E+03  0.89175344823E+03  0.25500000920E-02 0.  1.
        2   -1    0    0  501    0  0.00000000000E+00  0.00000000000E+00 -0.17557289599E+04  0.17557289599E+04  0.25500000920E-02 0. -1.
    10030    2    1    2    0    0  0.00000000000E+00  0.00000000000E+00 -0.86397551163E+03  0.26474824081E+04  0.25025405924E+04 0.  0.
        1    1    3    3  502    0  0.51523854344E+03  0.87516893993E+03 -0.12052713897E+04  0.15760934468E+04  0.50400001928E-02 0. -1.
       -1    1    3    3    0  502 -0.51523854344E+03 -0.87516893993E+03  0.34129587807E+03  0.10713889613E+04  0.50400001928E-02 0.  1.
</event>
<event>
 5   0  0.2139556E-05  0.2542339E+04  0.7818609E-02  0.8388055E-01
        1   -1    0    0  501    0  0.00000000000E+00  0.00000000000E+00  0.14745533756E+04  0.14745533756E+04  0.50400001928E-02 0.  1.
       -1   -1    0    0    0  501  0.00000000000E+00  0.00000000000E+00 -0.10958384846E+04  0.10958384846E+04  0.50400001928E-02 0. -1.
    10030    2    1    2    0    0  0.00000000000E+00  0.00000000000E+00  0.37871489105E+03  0.25703918602E+04  0.25423393453E+04 0.  0.
        2    1    3    3  502    0 -0.13084948099E+03 -0.12126803600E+04 -0.17258302337E+03  0.12318685572E+04  0.25500000920E-02 0. -1.
       -2    1    3    3    0  502  0.13084948099E+03  0.12126803600E+04  0.55129791442E+03  0.13385233030E+04  0.25500000920E-02 0.  1.
</event>
<event>
 5   0  0.4856882E-05  0.2403656E+04  0.7818609E-02  0.8438136E-01
        2   -1    0    0  501    0  0.00000000000E+00  0.00000000000E+00  0.92149364008E+03  0.92149364009E+03  0.25500000920E-02 0. -1.
       -2   -1    0    0    0  501  0.00000000000E+00  0.00000000000E+00 -0.15674455016E+04  0.15674455016E+04  0.25500000920E-02 0.  1.
    10030    2    1    2    0    0  0.00000000000E+00  0.00000000000E+00 -0.64595186154E+03  0.24889391417E+04  0.24036564321E+04 0.  0.
        1    1    3    3  502    0  0.10508782115E+04 -0.38234315210E+03  0.13294100057E+03  0.11261459102E+04  0.50400001928E-02 0. -1.
       -1    1    3    3    0  502 -0.10508782115E+04  0.38234315210E+03 -0.77889286211E+03  0.13627932316E+04  0.50400001928E-02 0.  1.
</event>
<event>
 5   0  0.2149920E-05  0.2382254E+04  0.7818609E-02  0.8446177E-01
       -1   -1    0    0    0  501  0.00000000000E+00  0.00000000000E+00  0.96855490235E+03  0.96855490236E+03  0.50400001928E-02 0.  1.
        1   -1    0    0  501    0  0.00000000000E+00  0.00000000000E+00 -0.14648462544E+04  0.14648462544E+04  0.50400001928E-02 0. -1.
    10030    2    1    2    0    0  0.00000000000E+00  0.00000000000E+00 -0.49629135201E+03  0.24334011567E+04  0.23822544120E+04 0.  0.
        5    1    3    3  502    0 -0.67890351503E+03  0.23886239970E+03 -0.12176259211E+04  0.14144257501E+04  0.46999998093E+01 0. -1.
       -5    1    3    3    0  502  0.67890351503E+03 -0.23886239970E+03  0.72133456913E+03  0.10189754066E+04  0.46999998093E+01 0.  1.
</event>
<event>
 5   0  0.2065692E-05  0.2426866E+04  0.7818609E-02  0.8429513E-01
        1   -1    0    0  501    0  0.00000000000E+00  0.00000000000E+00  0.99947243126E+03  0.99947243127E+03  0.50400001928E-02 0.  1.
       -1   -1    0    0    0  501  0.00000000000E+00  0.00000000000E+00 -0.14731970408E+04  0.14731970408E+04  0.50400001928E-02 0. -1.
    10030    2    1    2    0    0  0.00000000000E+00  0.00000000000E+00 -0.47372460955E+03  0.24726694721E+04  0.24268661505E+04 0.  0.
        3    1    3    3  502    0 -0.39751197599E+03  0.88168985101E+03  0.50978985380E+03  0.10932879171E+04  0.10100000352E+00 0.  1.
       -3    1    3    3    0  502  0.39751197599E+03 -0.88168985101E+03 -0.98351446335E+03  0.13793815550E+04  0.10100000352E+00 0. -1.
</event>
<event>
 5   0  0.4664127E-05  0.2406866E+04  0.7818609E-02  0.8436938E-01
       -2   -1    0    0    0  501  0.00000000000E+00  0.00000000000E+00  0.78037509232E+03  0.78037509232E+03  0.25500000920E-02 0. -1.
        2   -1    0    0  501    0  0.00000000000E+00  0.00000000000E+00 -0.18558394856E+04  0.18558394856E+04  0.25500000920E-02 0.  1.
    10030    2    1    2    0    0  0.00000000000E+00  0.00000000000E+00 -0.10754643933E+04  0.26362145779E+04  0.24068659372E+04 0.  0.
        4    1    3    3  502    0 -0.37485310327E+03 -0.33196593168E+03 -0.17363276169E+04  0.18070836823E+04  0.12699999809E+01 0.  1.
       -4    1    3    3    0  502  0.37485310327E+03  0.33196593168E+03  0.66086322361E+03  0.82913089560E+03  0.12699999809E+01 0. -1.
</event>
<event>
 5   0  0.2057599E-05  0.2408682E+04  0.7818609E-02  0.8436260E-01
        1   -1    0    0  501    0  0.00000000000E+00  0.00000000000E+00  0.20354021372E+04  0.20354021372E+04  0.50400001928E-02 0. -1.
       -1   -1    0    0    0  501  0.00000000000E+00  0.00000000000E+00 -0.71260484838E+03  0.71260484840E+03  0.50400001928E-02 0.  1.
    10030    2    1    2    0    0  0.00000000000E+00  0.00000000000E+00  0.13227972888E+04  0.27480069856E+04  0.24086821554E+04 0.  0.
        4    1    3    3  502    0 -0.19472140401E+03  0.98494910942E+03 -0.97429216574E+02  0.10087295170E+04  0.12699999809E+01 0.  1.
       -4    1    3    3    0  502  0.19472140401E+03 -0.98494910942E+03  0.14202265054E+04  0.17392774686E+04  0.12699999809E+01 0. -1.
</event>
<event>
 5   0  0.4756705E-05  0.2287232E+04  0.7818609E-02  0.8482972E-01
        2   -1    0    0  501    0  0.00000000000E+00  0.00000000000E+00  0.15171861487E+04  0.15171861487E+04  0.25500000920E-02 0.  1.
       -2   -1    0    0    0  501  0.00000000000E+00  0.00000000000E+00 -0.86202850069E+03  0.86202850069E+03  0.25500000920E-02 0. -1.
    10030    2    1    2    0    0  0.00000000000E+00  0.00000000000E+00  0.65515764802E+03  0.23792146494E+04  0.22872321273E+04 0.  0.
        3    1    3    3  502    0  0.18099725927E+03  0.20036182143E+03 -0.82839650735E+03  0.87128964813E+03  0.10100000352E+00 0. -1.
       -3    1    3    3    0  502 -0.18099725927E+03 -0.20036182143E+03  0.14835541554E+04  0.15079250013E+04  0.10100000352E+00 0.  1.
</event>
<event>
 5   0  0.4756705E-05  0.2390236E+04  0.7818609E-02  0.8443168E-01
       -2   -1    0    0    0  501  0.00000000000E+00  0.00000000000E+00  0.10526710500E+04  0.10526710500E+04  0.25500000920E-02 0.  1.
        2   -1    0    0  501    0  0.00000000000E+00  0.00000000000E+00 -0.13568411456E+04  0.13568411456E+04  0.25500000920E-02 0. -1.
    10030    2    1    2    0    0  0.00000000000E+00  0.00000000000E+00 -0.30417009559E+03  0.24095121956E+04  0.23902363008E+04 0.  0.
        3    1    3    3  502    0  0.10497551985E+04  0.55911661478E+03 -0.27011909425E+03  0.12196563865E+04  0.10100000352E+00 0. -1.
       -3    1    3    3    0  502 -0.10497551985E+04 -0.55911661478E+03 -0.34051001335E+02  0.11898558092E+04  0.10100000352E+00 0.  1.
</event>
<event>
 5   0  0.4756705E-05  0.2406432E+04  0.7818609E-02  0.8437100E-01
       -2   -1    0    0    0  501  0.00000000000E+00  0.00000000000E+00  0.76996340406E+03  0.76996340407E+03  0.25500000920E-02 0. -1.
        2   -1    0    0  501    0  0.00000000000E+00  0.00000000000E+00 -0.18802562889E+04  0.18802562889E+04  0.25500000920E-02 0.  1.
    10030    2    1    2    0    0  0.00000000000E+00  0.00000000000E+00 -0.11102928848E+04  0.26502196929E+04  0.24064318255E+04 0.  0.
        3    1    3    3  502    0 -0.72465451944E+03 -0.68254249524E+03  0.18914475340E+03  0.10132937276E+04  0.10100000352E+00 0. -1.
       -3    1    3    3    0  502  0.72465451944E+03  0.68254249524E+03 -0.12994376382E+04  0.16369259654E+04  0.10100000352E+00 0.  1.
</event>
<event>
 5   0  0.2139556E-05  0.2404809E+04  0.7818609E-02  0.8437706E-01
       -1   -1    0    0    0  501  0.00000000000E+00  0.00000000000E+00  0.24335186979E+04  0.24335186979E+04  0.50400001928E-02 0. -1.
        1   -1    0    0  501    0  0.00000000000E+00  0.00000000000E+00 -0.59410928481E+03  0.59410928483E+03  0.50400001928E-02 0.  1.
    10030    2    1    2    0    0  0.00000000000E+00  0.00000000000E+00  0.18394094131E+04  0.30276279827E+04  0.24048085605E+04 0.  0.
        2    1    3    3  502    0 -0.25824665375E+03  0.71145446081E+03  0.20959788321E+04  0.22284492475E+04  0.25500000920E-02 0. -1.
       -2    1    3    3    0  502  0.25824665375E+03 -0.71145446081E+03 -0.25656941908E+03  0.79917873519E+03  0.25500000920E-02 0.  1.
</event>
<event>
 5   0  0.4713971E-05  0.2498952E+04  0.7818609E-02  0.8403359E-01
        2   -1    0    0  501    0  0.00000000000E+00  0.00000000000E+00  0.69856814338E+03  0.69856814338E+03  0.25500000920E-02 0. -1.
       -2   -1    0    0    0  501  0.00000000000E+00  0.00000000000E+00 -0.22348435424E+04  0.22348435424E+04  0.25500000920E-02 0.  1.
    10030    2    1    2    0    0  0.00000000000E+00  0.00000000000E+00 -0.15362753990E+04  0.29334116858E+04  0.24989521838E+04 0.  0.
        5    1    3    3  502    0 -0.41000399950E+03  0.86484257276E+03  0.17469098344E+03  0.97293113063E+03  0.46999998093E+01 0. -1.
       -5    1    3    3    0  502  0.41000399950E+03 -0.86484257276E+03 -0.17109663825E+04  0.19604805552E+04  0.46999998093E+01 0.  1.
</event>
<event>
 5   0  0.4713971E-05  0.2259052E+04  0.7818609E-02  0.8494244E-01
       -2   -1    0    0    0  501  0.00000000000E+00  0.00000000000E+00  0.77975984094E+03  0.77975984094E+03  0.25500000920E-02 0. -1.
        2   -1    0    0  501    0  0.00000000000E+00  0.00000000000E+00 -0.16361819499E+04  0.16361819499E+04  0.25500000920E-02 0.  1.
    10030    2    1    2    0    0  0.00000000000E+00  0.00000000000E+00 -0.85642210895E+03  0.24159417908E+04  0.22590519932E+04 0.  0.
        5    1    3    3  502    0  0.65050952994E+03  0.60482617067E+03 -0.11743998126E+04  0.14724857742E+04  0.46999998093E+01 0.  1.
       -5    1    3    3    0  502 -0.65050952994E+03 -0.60482617067E+03  0.31797770370E+03  0.94345601664E+03  0.46999998093E+01 0. -1.
</event>
<event>
 5   0  0.4664127E-05  0.2454105E+04  0.7818609E-02  0.8419521E-01
       -2   -1    0    0    0  501  0.00000000000E+00  0.00000000000E+00  0.89946892838E+03  0.89946892838E+03  0.25500000920E-02 0.  1.
        2   -1    0    0  501    0  0.00000000000E+00  0.00000000000E+00 -0.16739414805E+04  0.16739414805E+04  0.25500000920E-02 0. -1.
    10030    2    1    2    0    0  0.00000000000E+00  0.00000000000E+00 -0.77447255211E+03  0.25734104089E+04  0.24541054172E+04 0.  0.
        4    1    3    3  502    0  0.18855622121E+03  0.26060846522E+03  0.85446958875E+03  0.91301156164E+03  0.12699999809E+01 0.  1.
       -4    1    3    3    0  502 -0.18855622121E+03 -0.26060846522E+03 -0.16289421409E+04  0.16603988472E+04  0.12699999809E+01 0. -1.
</event>
<event>
 5   0  0.4664127E-05  0.2426600E+04  0.7818609E-02  0.8429612E-01
       -2   -1    0    0    0  501  0.00000000000E+00  0.00000000000E+00  0.96683142777E+03  0.96683142778E+03  0.25500000920E-02 0. -1.
        2   -1    0    0  501    0  0.00000000000E+00  0.00000000000E+00 -0.15225988387E+04  0.15225988387E+04  0.25500000920E-02 0.  1.
    10030    2    1    2    0    0  0.00000000000E+00  0.00000000000E+00 -0.55576741095E+03  0.24894302665E+04  0.24265996037E+04 0.  0.
        4    1    3    3  502    0 -0.30447397316E+03  0.13656284646E+03  0.91882810165E+03  0.97754821091E+03  0.12699999809E+01 0. -1.
       -4    1    3    3    0  502  0.30447397316E+03 -0.13656284646E+03 -0.14745955126E+04  0.15118820556E+04  0.12699999809E+01 0.  1.
</event>
<event>
 5   0  0.2139556E-05  0.2358621E+04  0.7818609E-02  0.8455160E-01
        1   -1    0    0  501    0  0.00000000000E+00  0.00000000000E+00  0.26419014819E+04  0.26419014819E+04  0.50400001928E-02 0. -1.
       -1   -1    0    0    0  501  0.00000000000E+00  0.00000000000E+00 -0.52642879565E+03  0.52642879567E+03  0.50400001928E-02 0.  1.
    10030    2    1    2    0    0  0.00000000000E+00  0.00000000000E+00  0.21154726862E+04  0.31683302776E+04  0.23586207965E+04 0.  0.
        2    1    3    3  502    0 -0.84950272301E+03 -0.24138823739E+03  0.78565845793E+01  0.88316752854E+03  0.25500000920E-02 0.  1.
       -2    1    3    3    0  502  0.84950272301E+03  0.24138823739E+03  0.21076161017E+04  0.22851627490E+04  0.25500000920E-02 0. -1.
</event>
<event>
 5   0  0.4756705E-05  0.2395931E+04  0.7818609E-02  0.8441029E-01
        2   -1    0    0  501    0  0.00000000000E+00  0.00000000000E+00  0.70008640011E+03  0.70008640012E+03  0.25500000920E-02 0. -1.
       -2   -1    0    0    0  501  0.00000000000E+00  0.00000000000E+00 -0.20499199417E+04  0.20499199417E+04  0.25500000920E-02 0.  1.
    10030    2    1    2    0    0  0.00000000000E+00  0.00000000000E+00 -0.13498335416E+04  0.27500063418E+04  0.23959307774E+04 0.  0.
        3    1    3    3  502    0 -0.96785633215E+03 -0.68107021032E+03 -0.88816513530E+03  0.14796755823E+04  0.10100000352E+00 0. -1.
       -3    1    3    3    0  502  0.96785633215E+03  0.68107021032E+03 -0.46166840629E+03  0.12703307595E+04  0.10100000352E+00 0.  1.
</event>
<event>
 5   0  0.2057599E-05  0.2360196E+04  0.7818609E-02  0.8454558E-01
       -1   -1    0    0    0  501  0.00000000000E+00  0.00000000000E+00  0.88943544831E+03  0.88943544833E+03  0.50400001928E-02 0.  1.
        1   -1    0    0  501    0  0.00000000000E+00  0.00000000000E+00 -0.15657469983E+04  0.15657469983E+04  0.50400001928E-02 0. -1.
    10030    2    1    2    0    0  0.00000000000E+00  0.00000000000E+00 -0.67631154995E+03  0.24551824466E+04  0.23601956558E+04 0.  0.
        4    1    3    3  502    0  0.48469332573E+03  0.10725675711E+04 -0.42703714813E+03  0.12520747395E+04  0.12699999809E+01 0.  1.
       -4    1    3    3    0  502 -0.48469332573E+03 -0.10725675711E+04 -0.24927440182E+03  0.12031077071E+04  0.12699999809E+01 0. -1.
</event>
<event>
 5   0  0.4856882E-05  0.2351357E+04  0.7818609E-02  0.8457942E-01
       -2   -1    0    0    0  501  0.00000000000E+00  0.00000000000E+00  0.69887787714E+03  0.69887787714E+03  0.25500000920E-02 0.  1.
        2   -1    0    0  501    0  0.00000000000E+00  0.00000000000E+00 -0.19777707988E+04  0.19777707989E+04  0.25500000920E-02 0. -1.
    10030    2    1    2    0    0  0.00000000000E+00  0.00000000000E+00 -0.12788929217E+04  0.26766486760E+04  0.23513572739E+04 0.  0.
        1    1    3    3  502    0 -0.34974544962E+03 -0.40854130027E+02  0.63744107972E+03  0.72823215365E+03  0.50400001928E-02 0.  1.
       -1    1    3    3    0  502  0.34974544962E+03  0.40854130027E+02 -0.19163340014E+04  0.19484165223E+04  0.50400001928E-02 0. -1.
</event>
<event>
 5   0  0.4914005E-05  0.2350320E+04  0.7818609E-02  0.8458341E-01
        2   -1    0    0  501    0  0.00000000000E+00  0.00000000000E+00  0.20310613319E+04  0.20310613319E+04  0.25500000920E-02 0. -1.
       -2   -1    0    0    0  501  0.00000000000E+00  0.00000000000E+00 -0.67994040448E+03  0.67994040449E+03  0.25500000920E-02 0.  1.
    10030    2    1    2    0    0  0.00000000000E+00  0.00000000000E+00  0.13511209275E+04  0.27110017364E+04  0.23503196919E+04 0.  0.
        2    1    3    3  502    0  0.43465099058E+03  0.91019610568E+03 -0.19989078156E+02  0.10088498390E+04  0.25500000920E-02 0.  1.
       -2    1    3    3    0  502 -0.43465099058E+03 -0.91019610568E+03  0.13711100056E+04  0.17021518974E+04  0.25500000920E-02 0. -1.
</event>
<event>
 5   0  0.2057599E-05  0.2399059E+04  0.7818609E-02  0.8439856E-01
        1   -1    0    0  501    0  0.00000000000E+00  0.00000000000E+00  0.17122378677E+04  0.17122378677E+04  0.50400001928E-02 0.  1.
       -1   -1    0    0    0  501  0.00000000000E+00  0.00000000000E+00 -0.84034514278E+03  0.84034514280E+03  0.50400001928E-02 0. -1.
    10030    2    1    2    0    0  0.00000000000E+00  0.00000000000E+00  0.87189272491E+03  0.25525830105E+04  0.23990587950E+04 0.  0.
        4    1    3    3  502    0 -0.62786172026E+03 -0.38683818881E+03  0.14425399260E+04  0.16201164079E+04  0.12699999809E+01 0.  1.
       -4    1    3    3    0  502  0.62786172026E+03  0.38683818881E+03 -0.57064720105E+03  0.93246660265E+03  0.12699999809E+01 0. -1.
</event>
<event>
 5   0  0.2139556E-05  0.2392786E+04  0.7818609E-02  0.8442209E-01
        1   -1    0    0  501    0  0.00000000000E+00  0.00000000000E+00  0.18699674718E+04  0.18699674718E+04  0.50400001928E-02 0. -1.
       -1   -1    0    0    0  501  0.00000000000E+00  0.00000000000E+00 -0.76544460365E+03  0.76544460366E+03  0.50400001928E-02 0.  1.
    10030    2    1    2    0    0  0.00000000000E+00  0.00000000000E+00  0.11045228682E+04  0.26354120755E+04  0.23927862506E+04 0.  0.
        2    1    3    3  502    0 -0.11635824950E+03  0.19762934677E+03 -0.74100781280E+03  0.77568626362E+03  0.25500000920E-02 0.  1.
       -2    1    3    3    0  502  0.11635824950E+03 -0.19762934677E+03  0.18455306809E+04  0.18597258119E+04  0.25500000920E-02 0. -1.
</event>
<event>
 5   0  0.4664127E-05  0.2417805E+04  0.7818609E-02  0.8432868E-01
        2   -1    0    0  501    0  0.00000000000E+00  0.00000000000E+00  0.16850060538E+04  0.16850060538E+04  0.25500000920E-02 0. -1.
       -2   -1    0    0    0  501  0.00000000000E+00  0.00000000000E+00 -0.86732358642E+03  0.86732358642E+03  0.25500000920E-02 0.  1.
    10030    2    1    2    0    0  0.00000000000E+00  0.00000000000E+00  0.81768246742E+03  0.25523296403E+04  0.24178051979E+04 0.  0.
        4    1    3    3  502    0 -0.11574499654E+04 -0.34213501475E+03  0.33649267198E+03  0.12529867206E+04  0.12699999809E+01 0.  1.
       -4    1    3    3    0  502  0.11574499654E+04  0.34213501475E+03  0.48118979545E+03  0.12993429197E+04  0.12699999809E+01 0. -1.
</event>
<event>
 5   0  0.4664127E-05  0.2403603E+04  0.7818609E-02  0.8438156E-01
        2   -1    0    0  501    0  0.00000000000E+00  0.00000000000E+00  0.20908800638E+04  0.20908800638E+04  0.25500000920E-02 0. -1.
       -2   -1    0    0    0  501  0.00000000000E+00  0.00000000000E+00 -0.69077456608E+03  0.69077456608E+03  0.25500000920E-02 0.  1.
    10030    2    1    2    0    0  0.00000000000E+00  0.00000000000E+00  0.14001054977E+04  0.27816546299E+04  0.24036029362E+04 0.  0.
        4    1    3    3  502    0 -0.36915591023E+03  0.53520061291E+03  0.18697754426E+04  0.19795902608E+04  0.12699999809E+01 0. -1.
       -4    1    3    3    0  502  0.36915591023E+03 -0.53520061291E+03 -0.46966994487E+03  0.80206436906E+03  0.12699999809E+01 0.  1.
</event>
<event>
 5   0  0.2057599E-05  0.2469741E+04  0.7818609E-02  0.8413846E-01
       -1   -1    0    0    0  501  0.00000000000E+00  0.00000000000E+00  0.87401553551E+03  0.87401553552E+03  0.50400001928E-02 0.  1.
        1   -1    0    0  501    0  0.00000000000E+00  0.00000000000E+00 -0.17447112556E+04  0.17447112556E+04  0.50400001928E-02 0. -1.
    10030    2    1    2    0    0  0.00000000000E+00  0.00000000000E+00 -0.87069572007E+03  0.26187267911E+04  0.24697406685E+04 0.  0.
        4    1    3    3  502    0  0.20720448254E+03 -0.47356407246E+03 -0.16244755468E+04  0.17047343029E+04  0.12699999809E+01 0. -1.
       -4    1    3    3    0  502 -0.20720448254E+03  0.47356407246E+03  0.75377982678E+03  0.91399248819E+03  0.12699999809E+01 0.  1.
</event>
<event>
 5   0  0.2139556E-05  0.2538850E+04  0.7818609E-02  0.8389274E-01
        1   -1    0    0  501    0  0.00000000000E+00  0.00000000000E+00  0.19275529459E+04  0.19275529459E+04  0.50400001928E-02 0. -1.
       -1   -1    0    0    0  501  0.00000000000E+00  0.00000000000E+00 -0.83600291790E+03  0.83600291791E+03  0.50400001928E-02 0.  1.
    10030    2    1    2    0    0  0.00000000000E+00  0.00000000000E+00  0.10915500280E+04  0.27635558638E+04  0.25388500445E+04 0.  0.
        2    1    3    3  502    0  0.21506660856E+03  0.12426000925E+04  0.70400682639E+03  0.14442763751E+04  0.25500000920E-02 0.  1.
       -2    1    3    3    0  502 -0.21506660856E+03 -0.12426000925E+04  0.38754320158E+03  0.13192794887E+04  0.25500000920E-02 0. -1.
</event>
<event>
 5   0  0.4713971E-05  0.2393678E+04  0.7818609E-02  0.8441874E-01
       -2   -1    0    0    0  501  0.00000000000E+00  0.00000000000E+00  0.93946750755E+03  0.93946750755E+03  0.25500000920E-02 0.  1.
        2   -1    0    0  501    0  0.00000000000E+00  0.00000000000E+00 -0.15247183843E+04  0.15247183843E+04  0.25500000920E-02 0. -1.
    10030    2    1    2    0    0  0.00000000000E+00  0.00000000000E+00 -0.58525087673E+03  0.24641858918E+04  0.23936778231E+04 0.  0.
        5    1    3    3  502    0  0.71644767222E+03  0.53556464986E+03  0.52595358993E+03  0.10376781919E+04  0.46999998093E+01 0.  1.
       -5    1    3    3    0  502 -0.71644767222E+03 -0.53556464986E+03 -0.11112044667E+04  0.14265076999E+04  0.46999998093E+01 0. -1.
</event>
<event>
 5   0  0.4713971E-05  0.2416953E+04  0.7818609E-02  0.8433184E-01
        2   -1    0    0  501    0  0.00000000000E+00  0.00000000000E+00  0.16036018327E+04  0.16036018327E+04  0.25500000920E-02 0. -1.
       -2   -1    0    0    0  501  0.00000000000E+00  0.00000000000E+00 -0.91070983219E+03  0.91070983219E+03  0.25500000920E-02 0.  1.
    10030    2    1    2    0    0  0.00000000000E+00  0.00000000000E+00  0.69289200047E+03  0.25143116648E+04  0.24169534178E+04 0.  0.
        5    1    3    3  502    0 -0.21671981167E+03  0.73436546105E+03  0.13190583425E+04  0.15251875649E+04  0.46999998093E+01 0. -1.
       -5    1    3    3    0  502  0.21671981167E+03 -0.73436546105E+03 -0.62616634206E+03  0.98912409994E+03  0.46999998093E+01 0.  1.
</event>
<event>
 5   0  0.2149920E-05  0.2410772E+04  0.7818609E-02  0.8435482E-01
        1   -1    0    0  501    0  0.00000000000E+00  0.00000000000E+00  0.12810799329E+04  0.12810799329E+04  0.50400001928E-02 0. -1.
       -1   -1    0    0    0  501  0.00000000000E+00  0.00000000000E+00 -0.11341644896E+04  0.11341644897E+04  0.50400001928E-02 0.  1.
    10030    2    1    2    0    0  0.00000000000E+00  0.00000000000E+00  0.14691544322E+03  0.24152444225E+04  0.24107719662E+04 0.  0.
        5    1    3    3  502    0  0.46187365372E+03  0.93059351142E+02  0.11849960673E+04  0.12752353055E+04  0.46999998093E+01 0. -1.
       -5    1    3    3    0  502 -0.46187365372E+03 -0.93059351142E+02 -0.10380806241E+04  0.11400091170E+04  0.46999998093E+01 0.  1.
</event>
<event>
 5   0  0.4914005E-05  0.2357747E+04  0.7818609E-02  0.8455494E-01
       -2   -1    0    0    0  501  0.00000000000E+00  0.00000000000E+00  0.95181661917E+03  0.95181661917E+03  0.25500000920E-02 0. -1.
        2   -1    0    0  501    0  0.00000000000E+00  0.00000000000E+00 -0.14600950267E+04  0.14600950267E+04  0.25500000920E-02 0.  1.
    10030    2    1    2    0    0  0.00000000000E+00  0.00000000000E+00 -0.50827840757E+03  0.24119116459E+04  0.23577469856E+04 0.  0.
        2    1    3    3  502    0  0.67676057223E+03  0.28448052262E+03 -0.11977222958E+04  0.14048034517E+04  0.25500000920E-02 0.  1.
       -2    1    3    3    0  502 -0.67676057223E+03 -0.28448052262E+03  0.68944388826E+03  0.10071081943E+04  0.25500000920E-02 0. -1.
</event>
<event>
 5   0  0.2057599E-05  0.2369951E+04  0.7818609E-02  0.8450840E-01
       -1   -1    0    0    0  501  0.00000000000E+00  0.00000000000E+00  0.93190836916E+03  0.93190836917E+03  0.50400001928E-02 0. -1.
        1   -1    0    0  501    0  0.00000000000E+00  0.00000000000E+00 -0.15067645131E+04  0.15067645131E+04  0.50400001928E-02 0.  1.
    10030    2    1    2    0    0  0.00000000000E+00  0.00000000000E+00 -0.57485614393E+03  0.24386728823E+04  0.23699505987E+04 0.  0.
        4    1    3    3  502    0  0.28700477851E+03  0.57171801193E+03 -0.13138144327E+04  0.14612813571E+04  0.12699999809E+01 0.  1.
       -4    1    3    3    0  502 -0.28700477851E+03 -0.57171801193E+03  0.73895828878E+03  0.97739152519E+03  0.12699999809E+01 0. -1.
</event>
<event>
 5   0  0.4756705E-05  0.2401372E+04  0.7818609E-02  0.8438990E-01
        2   -1    0    0  501    0  0.00000000000E+00  0.00000000000E+00  0.12521143607E+04  0.12521143608E+04  0.25500000920E-02 0.  1.
       -2   -1    0    0    0  501  0.00000000000E+00  0.00000000000E+00 -0.11513703720E+04  0.11513703720E+04  0.25500000920E-02 0. -1.
    10030    2    1    2    0    0  0.00000000000E+00  0.00000000000E+00  0.10074398879E+03  0.24034847327E+04  0.24013724220E+04 0.  0.
        3    1    3    3  502    0  0.75764543662E+03  0.88098503713E+03  0.35310478384E+03  0.12144316538E+04  0.10100000352E+00 0. -1.
       -3    1    3    3    0  502 -0.75764543662E+03 -0.88098503713E+03 -0.25236079505E+03  0.11890530789E+04  0.10100000352E+00 0.  1.
</event>
<event>
 5   0  0.4713971E-05  0.2499192E+04  0.7818609E-02  0.8403273E-01
       -2   -1    0    0    0  501  0.00000000000E+00  0.00000000000E+00  0.90575727535E+03  0.90575727536E+03  0.25500000920E-02 0. -1.
        2   -1    0    0  501    0  0.00000000000E+00  0.00000000000E+00 -0.17239615273E+04  0.17239615273E+04  0.25500000920E-02 0.  1.
    10030    2    1    2    0    0  0.00000000000E+00  0.00000000000E+00 -0.81820425200E+03  0.26297188027E+04  0.24991924262E+04 0.  0.
        5    1    3    3  502    0 -0.11599954587E+04  0.30824261062E+03 -0.43287526500E+02  0.12010407450E+04  0.46999998093E+01 0. -1.
       -5    1    3    3    0  502  0.11599954587E+04 -0.30824261062E+03 -0.77491672550E+03  0.14286780577E+04  0.46999998093E+01 0.  1.
</event>
<event>
 5   0  0.4914005E-05  0.2410547E+04  0.7818609E-02  0.8435566E-01
        2   -1    0    0  501    0  0.00000000000E+00  0.00000000000E+00  0.17173660561E+04  0.17173660561E+04  0.25500000920E-02 0.  1.
       -2   -1    0    0    0  501  0.00000000000E+00  0.00000000000E+00 -0.84587899990E+03  0.84587899990E+03  0.25500000920E-02 0. -1.
    10030    2    1    2    0    0  0.00000000000E+00  0.00000000000E+00  0.87148705621E+03  0.25632450560E+04  0.24105467280E+04 0.  0.
        2    1    3    3  502    0 -0.34684279886E+03 -0.10444171263E+04  0.95838299827E+03  0.14593166319E+04  0.25500000920E-02 0.  1.
       -2    1    3    3    0  502  0.34684279886E+03  0.10444171263E+04 -0.86895942057E+02  0.11039284241E+04  0.25500000920E-02 0. -1.
</event>
<event>
 5   0  0.2065692E-05  0.2319223E+04  0.7818609E-02  0.8470380E-01
        1   -1    0    0  501    0  0.00000000000E+00  0.00000000000E+00  0.18546831566E+04  0.18546831566E+04  0.50400001928E-02 0. -1.
       -1   -1    0    0    0  501  0.00000000000E+00  0.00000000000E+00 -0.72502901656E+03  0.72502901657E+03  0.50400001928E-02 0.  1.
    10030    2    1    2    0    0  0.00000000000E+00  0.00000000000E+00  0.11296541401E+04  0.25797121732E+04  0.23192232364E+04 0.  0.
        3    1    3    3  502    0  0.68647336354E+03 -0.18101113518E+03 -0.45504623191E+03  0.84325428744E+03  0.10100000352E+00 0.  1.
       -3    1    3    3    0  502 -0.68647336354E+03  0.18101113518E+03  0.15847003720E+04  0.17364578858E+04  0.10100000352E+00 0. -1.
</event>
<event>
 5   0  0.4914005E-05  0.2387529E+04  0.7818609E-02  0.8444187E-01
        2   -1    0    0  501    0  0.00000000000E+00  0.00000000000E+00  0.79660349786E+03  0.79660349787E+03  0.25500000920E-02 0.  1.
       -2   -1    0    0    0  501  0.00000000000E+00  0.00000000000E+00 -0.17889375579E+04  0.17889375579E+04  0.25500000920E-02 0. -1.
    10030    2    1    2    0    0  0.00000000000E+00  0.00000000000E+00 -0.99233406009E+03  0.25855410558E+04  0.23875291966E+04 0.  0.
        2    1    3    3  502    0 -0.40806845566E+03  0.41994697382E+02 -0.17102103712E+04  0.17587219600E+04  0.25500000920E-02 0. -1.
       -2    1    3    3    0  502  0.40806845566E+03 -0.41994697382E+02  0.71787631108E+03  0.82681909577E+03  0.25500000920E-02 0.  1.
</event>
<event>
 5   0  0.2149920E-05  0.2264907E+04  0.7818609E-02  0.8491888E-01
       -1   -1    0    0    0  501  0.00000000000E+00  0.00000000000E+00  0.77008852587E+03  0.77008852589E+03  0.50400001928E-02 0. -1.
        1   -1    0    0  501    0  0.00000000000E+00  0.00000000000E+00 -0.16653290028E+04  0.16653290028E+04  0.50400001928E-02 0.  1.
    10030    2    1    2    0    0  0.00000000000E+00  0.00000000000E+00 -0.89524047696E+03  0.24354175287E+04  0.22649068475E+04 0.  0.
        5    1    3    3  502    0  0.75507552349E+03 -0.45589912651E+03 -0.12113333646E+04  0.14984437493E+04  0.46999998093E+01 0.  1.
       -5    1    3    3    0  502 -0.75507552349E+03  0.45589912651E+03  0.31609288761E+03  0.93697377942E+03  0.46999998093E+01 0. -1.
</event>
<event>
 5   0  0.2057599E-05  0.2383679E+04  0.7818609E-02  0.8445639E-01
        1   -1    0    0  501    0  0.00000000000E+00  0.00000000000E+00  0.13891385485E+04  0.13891385485E+04  0.50400001928E-02 0.  1.
       -1   -1    0    0    0  501  0.00000000000E+00  0.00000000000E+00 -0.10225629154E+04  0.10225629154E+04  0.50400001928E-02 0. -1.
    10030    2    1    2    0    0  0.00000000000E+00  0.00000000000E+00  0.36657563312E+03  0.24117014639E+04  0.23836791429E+04 0.  0.
        4    1    3    3  502    0  0.66261821412E+03  0.49948590569E+02 -0.81774850922E+03  0.10536944513E+04  0.12699999809E+01 0. -1.
       -4    1    3    3    0  502 -0.66261821412E+03 -0.49948590569E+02  0.11843241423E+04  0.13580070126E+04  0.12699999809E+01 0.  1.
</event>
<event>
 5   0  0.4756705E-05  0.2134082E+04  0.7818609E-02  0.8546377E-01
        2   -1    0    0  501    0  0.00000000000E+00  0.00000000000E+00  0.21868586739E+04  0.21868586739E+04  0.25500000920E-02 0. -1.
       -2   -1    0    0    0  501  0.00000000000E+00  0.00000000000E+00 -0.52064472297E+03  0.52064472298E+03  0.25500000920E-02 0.  1.
    10030    2    1    2    0    0  0.00000000000E+00  0.00000000000E+00  0.16662139509E+04  0.27075033969E+04  0.21340819370E+04 0.  0.
        3    1    3    3  502    0  0.94834335917E+03  0.33976092965E+03  0.38674228839E+03  0.10790561728E+04  0.10100000352E+00 0. -1.
       -3    1    3    3    0  502 -0.94834335917E+03 -0.33976092965E+03  0.12794716625E+04  0.16284472241E+04  0.10100000352E+00 0.  1.
</event>
<event>
 5   0  0.2065692E-05  0.2423357E+04  0.7818609E-02  0.8430810E-01
       -1   -1    0    0    0  501  0.00000000000E+00  0.00000000000E+00  0.13878360959E+04  0.13878360959E+04  0.50400001928E-02 0. -1.
        1   -1    0    0  501    0  0.00000000000E+00  0.00000000000E+00 -0.10578805315E+04  0.10578805315E+04  0.50400001928E-02 0.  1.
    10030    2    1    2    0    0  0.00000000000E+00  0.00000000000E+00  0.32995556434E+03  0.24457166274E+04  0.24233569995E+04 0.  0.
        3    1    3    3  502    0 -0.98819953096E+03 -0.48768521126E+03 -0.34344575517E+03  0.11542660764E+04  0.10100000352E+00 0.  1.
       -3    1    3    3    0  502  0.98819953096E+03  0.48768521126E+03  0.67340131950E+03  0.12914505510E+04  0.10100000352E+00 0. -1.
</event>
<event>
 5   0  0.2139556E-05  0.2377548E+04  0.7818609E-02  0.8447958E-01
        1   -1    0    0  501    0  0.00000000000E+00  0.00000000000E+00  0.15369900817E+04  0.15369900817E+04  0.50400001928E-02 0. -1.
       -1   -1    0    0    0  501  0.00000000000E+00  0.00000000000E+00 -0.91944848138E+03  0.91944848139E+03  0.50400001928E-02 0.  1.
    10030    2    1    2    0    0  0.00000000000E+00  0.00000000000E+00  0.61754160032E+03  0.24564385631E+04  0.23775476412E+04 0.  0.
        2    1    3    3  502    0  0.91967853485E+03 -0.69827879698E+03  0.60059900405E+03  0.13015840539E+04  0.25500000920E-02 0.  1.
       -2    1    3    3    0  502 -0.91967853485E+03  0.69827879698E+03  0.16942596269E+02  0.11548545092E+04  0.25500000920E-02 0. -1.
</event>
<event>
 5   0  0.2139556E-05  0.2409471E+04  0.7818609E-02  0.8435966E-01
       -1   -1    0    0    0  501  0.00000000000E+00  0.00000000000E+00  0.11136117342E+04  0.11136117342E+04  0.50400001928E-02 0. -1.
        1   -1    0    0  501    0  0.00000000000E+00  0.00000000000E+00 -0.13033157519E+04  0.13033157519E+04  0.50400001928E-02 0.  1.
    10030    2    1    2    0    0  0.00000000000E+00  0.00000000000E+00 -0.18970401770E+03  0.24169274862E+04  0.24094710745E+04 0.  0.
        2    1    3    3  502    0  0.11242594648E+04  0.78589591729E+02 -0.52190656847E+03  0.12419831458E+04  0.25500000920E-02 0. -1.
       -2    1    3    3    0  502 -0.11242594648E+04 -0.78589591729E+02  0.33220255078E+03  0.11749443404E+04  0.25500000920E-02 0.  1.
</event>
<event>
 5   0  0.4664127E-05  0.2450721E+04  0.7818609E-02  0.8420755E-01
       -2   -1    0    0    0  501  0.00000000000E+00  0.00000000000E+00  0.69520803718E+03  0.69520803719E+03  0.25500000920E-02 0.  1.
        2   -1    0    0  501    0  0.00000000000E+00  0.00000000000E+00 -0.21597975117E+04  0.21597975117E+04  0.25500000920E-02 0. -1.
    10030    2    1    2    0    0  0.00000000000E+00  0.00000000000E+00 -0.14645894746E+04  0.28550055489E+04  0.24507211909E+04 0.  0.
        4    1    3    3  502    0  0.71072116015E+03  0.90940731061E+03 -0.12117183687E+04  0.16734423330E+04  0.12699999809E+01 0. -1.
       -4    1    3    3    0  502 -0.71072116015E+03 -0.90940731061E+03 -0.25287110587E+03  0.11815632159E+04  0.12699999809E+01 0.  1.
</event>
<event>
 5   0  0.2090039E-05  0.2405563E+04  0.7818609E-02  0.8437424E-01
        1   -1    0    0  501    0  0.00000000000E+00  0.00000000000E+00  0.14204573677E+04  0.14204573678E+04  0.50400001928E-02 0.  1.
       -1   -1    0    0    0  501  0.00000000000E+00  0.00000000000E+00 -0.10184629408E+04  0.10184629409E+04  0.50400001928E-02 0. -1.
    10030    2    1    2    0    0  0.00000000000E+00  0.00000000000E+00  0.40199442690E+03  0.24389203086E+04  0.24055628764E+04 0.  0.
        1    1    3    3  502    0  0.11791615884E+04 -0.72907872278E+02  0.42983837676E+03  0.12571788415E+04  0.50400001928E-02 0.  1.
       -1    1    3    3    0  502 -0.11791615884E+04  0.72907872278E+02 -0.27843949857E+02  0.11817414671E+04  0.50400001928E-02 0. -1.
</event>
<event>
 5   0  0.2090039E-05  0.2439696E+04  0.7818609E-02  0.8424790E-01
        1   -1    0    0  501    0  0.00000000000E+00  0.00000000000E+00  0.17697423253E+04  0.17697423253E+04  0.50400001928E-02 0. -1.
       -1   -1    0    0    0  501  0.00000000000E+00  0.00000000000E+00 -0.84081689677E+03  0.84081689678E+03  0.50400001928E-02 0.  1.
    10030    2    1    2    0    0  0.00000000000E+00  0.00000000000E+00  0.92892542849E+03  0.26105592220E+04  0.24396960877E+04 0.  0.
        1    1    3    3  502    0 -0.29537360081E+03  0.11144003247E+04  0.89099681573E+03  0.14570548972E+04  0.50400001928E-02 0. -1.
       -1    1    3    3    0  502  0.29537360081E+03 -0.11144003247E+04  0.37928612764E+02  0.11535043249E+04  0.50400001928E-02 0.  1.
</event>
<event>
 5   0  0.4713971E-05  0.2445615E+04  0.7818609E-02  0.8422621E-01
       -2   -1    0    0    0  501  0.00000000000E+00  0.00000000000E+00  0.15720521658E+04  0.15720521658E+04  0.25500000920E-02 0.  1.
        2   -1    0    0  501    0  0.00000000000E+00  0.00000000000E+00 -0.95115069060E+03  0.95115069060E+03  0.25500000920E-02 0. -1.
    10030    2    1    2    0    0  0.00000000000E+00  0.00000000000E+00  0.62090147523E+03  0.25232028564E+04  0.24456152626E+04 0.  0.
        5    1    3    3  502    0  0.53847367701E+03  0.84183224591E+02  0.14397990556E+04  0.15395077546E+04  0.46999998093E+01 0.  1.
       -5    1    3    3    0  502 -0.53847367701E+03 -0.84183224591E+02 -0.81889758037E+03  0.98369510178E+03  0.46999998093E+01 0. -1.
</event>
<event>
 5   0  0.4856882E-05  0.2415441E+04  0.7818609E-02  0.8433745E-01
        2   -1    0    0  501    0  0.00000000000E+00  0.00000000000E+00  0.24609639299E+04  0.24609639299E+04  0.25500000920E-02 0. -1.
       -2   -1    0    0    0  501  0.00000000000E+00  0.00000000000E+00 -0.59268982334E+03  0.59268982335E+03  0.25500000920E-02 0.  1.
    10030    2    1    2    0    0  0.00000000000E+00  0.00000000000E+00  0.18682741065E+04  0.30536537532E+04  0.24154405618E+04 0.  0.
        1    1    3    3  502    0 -0.27898001361E+03  0.10443126514E+04  0.16151405295E+04  0.19434756731E+04  0.50400001928E-02 0. -1.
       -1    1    3    3    0  502  0.27898001361E+03 -0.10443126514E+04  0.25313357705E+03  0.11101780802E+04  0.50400001928E-02 0.  1.
</event>
<event>
 5   0  0.4856882E-05  0.2414449E+04  0.7818609E-02  0.8434114E-01
        2   -1    0    0  501    0  0.00000000000E+00  0.00000000000E+00  0.97600906488E+03  0.97600906488E+03  0.25500000920E-02 0.  1.
       -2   -1    0    0    0  501  0.00000000000E+00  0.00000000000E+00 -0.14932140670E+04  0.14932140670E+04  0.25500000920E-02 0. -1.
    10030    2    1    2    0    0  0.00000000000E+00  0.00000000000E+00 -0.51720500214E+03  0.24692231319E+04  0.24144485625E+04 0.  0.
        1    1    3    3  502    0  0.16202741102E+03 -0.17511132615E+03 -0.14688657440E+04  0.14881140523E+04  0.50400001928E-02 0. -1.
       -1    1    3    3    0  502 -0.16202741102E+03  0.17511132615E+03  0.95166074190E+03  0.98110907965E+03  0.50400001928E-02 0.  1.
</event>
<event>
 5   0  0.2065692E-05  0.2434843E+04  0.7818609E-02  0.8426573E-01
       -1   -1    0    0    0  501  0.00000000000E+00  0.00000000000E+00  0.11041375300E+04  0.11041375300E+04  0.50400001928E-02 0. -1.
        1   -1    0    0  501    0  0.00000000000E+00  0.00000000000E+00 -0.13423279901E+04  0.13423279901E+04  0.50400001928E-02 0.  1.
    10030    2    1    2    0    0  0.00000000000E+00  0.00000000000E+00 -0.23819046012E+03  0.24464655201E+04  0.24348426738E+04 0.  0.
        3    1    3    3  502    0 -0.34927381116E+03  0.39999585631E+03 -0.12198272103E+04  0.13304011852E+04  0.10100000352E+00 0.  1.
       -3    1    3    3    0  502  0.34927381116E+03 -0.39999585631E+03  0.98163675021E+03  0.11160643350E+04  0.10100000352E+00 0. -1.
</event>
<event>
 5   0  0.4713971E-05  0.2397355E+04  0.7818609E-02  0.8440494E-01
        2   -1    0    0  501    0  0.00000000000E+00  0.00000000000E+00  0.17935869279E+04  0.17935869279E+04  0.25500000920E-02 0. -1.
       -2   -1    0    0    0  501  0.00000000000E+00  0.00000000000E+00 -0.80109175910E+03  0.80109175910E+03  0.25500000920E-02 0.  1.
    10030    2    1    2    0    0  0.00000000000E+00  0.00000000000E+00  0.99249516881E+03  0.25946786870E+04  0.23973549651E+04 0.  0.
        5    1    3    3  502    0  0.11222390233E+04 -0.21424267062E+03  0.10379265090E+03  0.11472207075E+04  0.46999998093E+01 0.  1.
       -5    1    3    3    0  502 -0.11222390233E+04  0.21424267062E+03  0.88870251791E+03  0.14474579796E+04  0.46999998093E+01 0. -1.
</event>
<event>
 5   0  0.4914005E-05  0.2400192E+04  0.7818609E-02  0.8439432E-01
        2   -1    0    0  501    0  0.00000000000E+00  0.00000000000E+00  0.24208388476E+04  0.24208388476E+04  0.25500000920E-02 0. -1.
       -2   -1    0    0    0  501  0.00000000000E+00  0.00000000000E+00 -0.59493024457E+03  0.59493024457E+03  0.25500000920E-02 0.  1.
    10030    2    1    2    0    0  0.00000000000E+00  0.00000000000E+00  0.18259086030E+04  0.30157690922E+04  0.24001918654E+04 0.  0.
        2    1    3    3  502    0 -0.72149737283E+03  0.20319503292E+03 -0.26463602008E+03  0.79490811012E+03  0.25500000920E-02 0.  1.
       -2    1    3    3    0  502  0.72149737283E+03 -0.20319503292E+03  0.20905446231E+04  0.22208609821E+04  0.25500000920E-02 0. -1.
</event>
<event>
 5   0  0.2149920E-05  0.2407922E+04  0.7818609E-02  0.8436544E-01
        1   -1    0    0  501    0  0.00000000000E+00  0.00000000000E+00  0.14306289786E+04  0.14306289787E+04  0.50400001928E-02 0.  1.
       -1   -1    0    0    0  501  0.00000000000E+00  0.00000000000E+00 -0.10132057880E+04  0.10132057880E+04  0.50400001928E-02 0. -1.
    10030    2    1    2    0    0  0.00000000000E+00  0.00000000000E+00  0.41742319062E+03  0.24438347667E+04  0.24079215616E+04 0.  0.
        5    1    3    3  502    0 -0.78229691170E+03 -0.73413595046E+03 -0.34584003082E+03  0.11271962867E+04  0.46999998093E+01 0. -1.
       -5    1    3    3    0  502  0.78229691170E+03  0.73413595046E+03  0.76326322144E+03  0.13166384800E+04  0.46999998093E+01 0.  1.
</event>
<event>
 5   0  0.4856882E-05  0.2410092E+04  0.7818609E-02  0.8435735E-01
       -2   -1    0    0    0  501  0.00000000000E+00  0.00000000000E+00  0.58385957493E+03  0.58385957494E+03  0.25500000920E-02 0.  1.
        2   -1    0    0  501    0  0.00000000000E+00  0.00000000000E+00 -0.24871312643E+04  0.24871312643E+04  0.25500000920E-02 0. -1.
    10030    2    1    2    0    0  0.00000000000E+00  0.00000000000E+00 -0.19032716894E+04  0.30709908392E+04  0.24100916188E+04 0.  0.
        1    1    3    3  502    0  0.32879403034E+03  0.88169838369E+03 -0.19108106408E+04  0.21299518443E+04  0.50400001928E-02 0. -1.
       -1    1    3    3    0  502 -0.32879403034E+03 -0.88169838369E+03  0.75389513885E+01  0.94103899494E+03  0.50400001928E-02 0.  1.
</event>
<event>
 5   0  0.4664127E-05  0.2436463E+04  0.7818609E-02  0.8425977E-01
       -2   -1    0    0    0  501  0.00000000000E+00  0.00000000000E+00  0.69290314986E+03  0.69290314986E+03  0.25500000920E-02 0. -1.
        2   -1    0    0  501    0  0.00000000000E+00  0.00000000000E+00 -0.21418410574E+04  0.21418410574E+04  0.25500000920E-02 0.  1.
    10030    2    1    2    0    0  0.00000000000E+00  0.00000000000E+00 -0.14489379075E+04  0.28347442073E+04  0.24364633510E+04 0.  0.
        4    1    3    3  502    0  0.99570233514E+02 -0.11973090959E+04 -0.95896885314E+03  0.15372332864E+04  0.12699999809E+01 0.  1.
       -4    1    3    3    0  502 -0.99570233514E+02  0.11973090959E+04 -0.48996905440E+03  0.12975109209E+04  0.12699999809E+01 0. -1.
</event>
<event>
 5   0  0.4856882E-05  0.2379928E+04  0.7818609E-02  0.8447057E-01
        2   -1    0    0  501    0  0.00000000000E+00  0.00000000000E+00  0.10030659326E+04  0.10030659326E+04  0.25500000920E-02 0.  1.
       -2   -1    0    0    0  501  0.00000000000E+00  0.00000000000E+00 -0.14116864954E+04  0.14116864954E+04  0.25500000920E-02 0. -1.
    10030    2    1    2    0    0  0.00000000000E+00  0.00000000000E+00 -0.40862056277E+03  0.24147524280E+04  0.23799282603E+04 0.  0.
        1    1    3    3  502    0  0.67622915832E+03  0.81321368360E+03  0.34902476763E+03  0.11137417377E+04  0.50400001928E-02 0.  1.
       -1    1    3    3    0  502 -0.67622915832E+03 -0.81321368360E+03 -0.75764533040E+03  0.13010106904E+04  0.50400001928E-02 0. -1.
</event>
<event>
 5   0  0.4914005E-05  0.2386968E+04  0.7818609E-02  0.8444399E-01
       -2   -1    0    0    0  501  0.00000000000E+00  0.00000000000E+00  0.10585143157E+04  0.10585143157E+04  0.25500000920E-02 0. -1.
        2   -1    0    0  501    0  0.00000000000E+00  0.00000000000E+00 -0.13456630229E+04  0.13456630229E+04  0.25500000920E-02 0.  1.
    10030    2    1    2    0    0  0.00000000000E+00  0.00000000000E+00 -0.28714870720E+03  0.24041773387E+04  0.23869675942E+04 0.  0.
        2    1    3    3  502    0 -0.77440803181E+03  0.90312256719E+03 -0.23947323248E+03  0.12135425828E+04  0.25500000920E-02 0.  1.
       -2    1    3    3    0  502  0.77440803181E+03 -0.90312256719E+03 -0.47675474725E+02  0.11906347559E+04  0.25500000920E-02 0. -1.
</event>
<event>
 5   0  0.2139556E-05  0.2123917E+04  0.7818609E-02  0.8550780E-01
        1   -1    0    0  501    0  0.00000000000E+00  0.00000000000E+00  0.18260596620E+04  0.18260596620E+04  0.50400001928E-02 0.  1.
       -1   -1    0    0    0  501  0.00000000000E+00  0.00000000000E+00 -0.61758973582E+03  0.61758973584E+03  0.50400001928E-02 0. -1.
    10030    2    1    2    0    0  0.00000000000E+00  0.00000000000E+00  0.12084699262E+04  0.24436493978E+04  0.21239168574E+04 0.  0.
        2    1    3    3  502    0 -0.10333713662E+04 -0.22467697891E+03  0.71589997818E+03  0.12770469467E+04  0.25500000920E-02 0.  1.
       -2    1    3    3    0  502  0.10333713662E+04  0.22467697891E+03  0.49256994799E+03  0.11666024511E+04  0.25500000920E-02 0. -1.
</event>
<event>
 5   0  0.2139556E-05  0.2377073E+04  0.7818609E-02  0.8448137E-01
       -1   -1    0    0    0  501  0.00000000000E+00  0.00000000000E+00  0.10270969190E+04  0.10270969190E+04  0.50400001928E-02 0. -1.
        1   -1    0    0  501    0  0.00000000000E+00  0.00000000000E+00 -0.13753509985E+04  0.13753509985E+04  0.50400001928E-02 0.  1.
    10030    2    1    2    0    0  0.00000000000E+00  0.00000000000E+00 -0.34825407953E+03  0.24024479175E+04  0.23770727991E+04 0.  0.
        2    1    3    3  502    0  0.27159845785E+03 -0.68382817692E+03 -0.11174891456E+04  0.13379718563E+04  0.25500000920E-02 0.  1.
       -2    1    3    3    0  502 -0.27159845785E+03  0.68382817692E+03  0.76923506606E+03  0.10644760611E+04  0.25500000920E-02 0. -1.
</event>
<event>
 5   0  0.4856882E-05  0.2242575E+04  0.7818609E-02  0.8500914E-01
       -2   -1    0    0    0  501  0.00000000000E+00  0.00000000000E+00  0.96227188184E+03  0.96227188184E+03  0.25500000920E-02 0. -1.
        2   -1    0    0  501    0  0.00000000000E+00  0.00000000000E+00 -0.13065799514E+04  0.13065799514E+04  0.25500000920E-02 0.  1.
    10030    2    1    2    0    0  0.00000000000E+00  0.00000000000E+00 -0.34430806955E+03  0.22688518332E+04  0.22425745460E+04 0.  0.
        1    1    3    3  502    0 -0.31738371286E+03 -0.39782601509E+03  0.83869661787E+03  0.98102496213E+03  0.50400001928E-02 0. -1.
       -1    1    3    3    0  502  0.31738371286E+03  0.39782601509E+03 -0.11830046874E+04  0.12878268711E+04  0.50400001928E-02 0.  1.
</event>
<event>
 5   0  0.2090039E-05  0.2457412E+04  0.7818609E-02  0.8418317E-01
       -1   -1    0    0    0  501  0.00000000000E+00  0.00000000000E+00  0.65766029053E+03  0.65766029055E+03  0.50400001928E-02 0.  1.
        1   -1    0    0  501    0  0.00000000000E+00  0.00000000000E+00 -0.22955894474E+04  0.22955894474E+04  0.50400001928E-02 0. -1.
    10030    2    1    2    0    0  0.00000000000E+00  0.00000000000E+00 -0.16379291568E+04  0.29532497379E+04  0.24574116651E+04 0.  0.
        1    1    3    3  502    0 -0.85376428264E+03 -0.31532545023E+03 -0.18109725805E+04  0.20268116038E+04  0.50400001928E-02 0. -1.
       -1    1    3    3    0  502  0.85376428264E+03  0.31532545023E+03  0.17304342367E+03  0.92643813414E+03  0.50400001928E-02 0.  1.
</event>
<event>
 5   0  0.2149920E-05  0.2422815E+04  0.7818609E-02  0.8431011E-01
       -1   -1    0    0    0  501  0.00000000000E+00  0.00000000000E+00  0.17652498140E+04  0.17652498141E+04  0.50400001928E-02 0.  1.
        1   -1    0    0  501    0  0.00000000000E+00  0.00000000000E+00 -0.83133141844E+03  0.83133141846E+03  0.50400001928E-02 0. -1.
    10030    2    1    2    0    0  0.00000000000E+00  0.00000000000E+00  0.93391839560E+03  0.25965812325E+04  0.24228145879E+04 0.  0.
        5    1    3    3  502    0  0.16710782000E+02  0.63918292855E+02  0.17633078416E+04  0.17645513403E+04  0.46999998093E+01 0.  1.
       -5    1    3    3    0  502 -0.16710782000E+02 -0.63918292855E+02 -0.82938944599E+03  0.83202989220E+03  0.46999998093E+01 0. -1.
</event>
<event>
 5   0  0.4856882E-05  0.2371253E+04  0.7818609E-02  0.8450345E-01
       -2   -1    0    0    0  501  0.00000000000E+00  0.00000000000E+00  0.88602288769E+03  0.88602288770E+03  0.25500000920E-02 0. -1.
        2   -1    0    0  501    0  0.00000000000E+00  0.00000000000E+00 -0.15865398495E+04  0.15865398495E+04  0.25500000920E-02 0.  1.
    10030    2    1    2    0    0  0.00000000000E+00  0.00000000000E+00 -0.70051696184E+03  0.24725627372E+04  0.23712533554E+04 0.  0.
        1    1    3    3  502    0  0.81994232761E+03  0.81996478471E+03 -0.60792515562E+03  0.13092824996E+04  0.50400001928E-02 0.  1.
       -1    1    3    3    0  502 -0.81994232761E+03 -0.81996478471E+03 -0.92591806217E+02  0.11632802377E+04  0.50400001928E-02 0. -1.
</event>
<event>
 5   0  0.2057599E-05  0.2395323E+04  0.7818609E-02  0.8441257E-01
       -1   -1    0    0    0  501  0.00000000000E+00  0.00000000000E+00  0.17218331837E+04  0.17218331837E+04  0.50400001928E-02 0.  1.
        1   -1    0    0  501    0  0.00000000000E+00  0.00000000000E+00 -0.83306123968E+03  0.83306123970E+03  0.50400001928E-02 0. -1.
    10030    2    1    2    0    0  0.00000000000E+00  0.00000000000E+00  0.88877194404E+03  0.25548944234E+04  0.23953225141E+04 0.  0.
        4    1    3    3  502    0  0.65762588357E+03 -0.39014349561E+03 -0.53881792560E+03  0.93541975592E+03  0.12699999809E+01 0. -1.
       -4    1    3    3    0  502 -0.65762588357E+03  0.39014349561E+03  0.14275898696E+04  0.16194746675E+04  0.12699999809E+01 0.  1.
</event>
<event>
 5   0  0.4914005E-05  0.2376951E+04  0.7818609E-02  0.8448184E-01
        2   -1    0    0  501    0  0.00000000000E+00  0.00000000000E+00  0.11545833884E+04  0.11545833884E+04  0.25500000920E-02 0. -1.
       -2   -1    0    0    0  501  0.00000000000E+00  0.00000000000E+00 -0.12233621149E+04  0.12233621149E+04  0.25500000920E-02 0.  1.
    10030    2    1    2    0    0  0.00000000000E+00  0.00000000000E+00 -0.68778726505E+02  0.23779455033E+04  0.23769506313E+04 0.  0.
        2    1    3    3  502    0  0.33074499478E+03 -0.24694934472E+03 -0.11493500451E+04  0.12212214200E+04  0.25500000920E-02 0.  1.
       -2    1    3    3    0  502 -0.33074499478E+03  0.24694934472E+03  0.10805713186E+04  0.11567240833E+04  0.25500000920E-02 0. -1.
</event>
<event>
 5   0  0.2057599E-05  0.2356950E+04  0.7818609E-02  0.8455799E-01
        1   -1    0    0  501    0  0.00000000000E+00  0.00000000000E+00  0.14421528069E+04  0.14421528069E+04  0.50400001928E-02 0.  1.
       -1   -1    0    0    0  501  0.00000000000E+00  0.00000000000E+00 -0.96300667598E+03  0.96300667599E+03  0.50400001928E-02 0. -1.
    10030    2    1    2    0    0  0.00000000000E+00  0.00000000000E+00  0.47914613094E+03  0.24051594829E+04  0.23569495378E+04 0.  0.
        4    1    3    3  502    0 -0.21030925673E+03  0.72645055339E+02 -0.94137700657E+03  0.96731565113E+03  0.12699999809E+01 0. -1.
       -4    1    3    3    0  502  0.21030925673E+03 -0.72645055339E+02  0.14205231375E+04  0.14378438318E+04  0.12699999809E+01 0.  1.
</event>
<event>
 5   0  0.2090039E-05  0.2273269E+04  0.7818609E-02  0.8488536E-01
       -1   -1    0    0    0  501  0.00000000000E+00  0.00000000000E+00  0.80844329555E+03  0.80844329557E+03  0.50400001928E-02 0. -1.
        1   -1    0    0  501    0  0.00000000000E+00  0.00000000000E+00 -0.15980565072E+04  0.15980565072E+04  0.50400001928E-02 0.  1.
    10030    2    1    2    0    0  0.00000000000E+00  0.00000000000E+00 -0.78961321166E+03  0.24064998028E+04  0.22732690727E+04 0.  0.
        1    1    3    3  502    0  0.37526246802E+03 -0.99814332734E+03 -0.81134688159E+03  0.13399237979E+04  0.50400001928E-02 0.  1.
       -1    1    3    3    0  502 -0.37526246802E+03  0.99814332734E+03  0.21733669928E+02  0.10665760049E+04  0.50400001928E-02 0. -1.
</event>
<event>
 5   0  0.4713971E-05  0.1985987E+04  0.7818609E-02  0.8613200E-01
        2   -1    0    0  501    0  0.00000000000E+00  0.00000000000E+00  0.10276452466E+04  0.10276452466E+04  0.25500000920E-02 0. -1.
       -2   -1    0    0    0  501  0.00000000000E+00  0.00000000000E+00 -0.95951044472E+03  0.95951044473E+03  0.25500000920E-02 0.  1.
    10030    2    1    2    0    0  0.00000000000E+00  0.00000000000E+00  0.68134801883E+02  0.19871556913E+04  0.19859872584E+04 0.  0.
        5    1    3    3  502    0 -0.37997099937E+03 -0.58210115929E+03 -0.67542984253E+03  0.96925088712E+03  0.46999998093E+01 0.  1.
       -5    1    3    3    0  502  0.37997099937E+03  0.58210115929E+03  0.74356464442E+03  0.10179048042E+04  0.46999998093E+01 0. -1.
</event>
<event>
 5   0  0.2065692E-05  0.2414120E+04  0.7818609E-02  0.8434236E-01
        1   -1    0    0  501    0  0.00000000000E+00  0.00000000000E+00  0.13447557624E+04  0.13447557624E+04  0.50400001928E-02 0. -1.
       -1   -1    0    0    0  501  0.00000000000E+00  0.00000000000E+00 -0.10834636981E+04  0.10834636981E+04  0.50400001928E-02 0.  1.
    10030    2    1    2    0    0  0.00000000000E+00  0.00000000000E+00  0.26129206435E+03  0.24282194605E+04  0.24141201722E+04 0.  0.
        3    1    3    3  502    0 -0.23693366948E+03  0.94022926460E+03 -0.59245832463E+03  0.11362990409E+04  0.10100000352E+00 0.  1.
       -3    1    3    3    0  502  0.23693366948E+03 -0.94022926460E+03  0.85375038898E+03  0.12919204196E+04  0.10100000352E+00 0. -1.
</event>
<event>
 5   0  0.2065692E-05  0.2390340E+04  0.7818609E-02  0.8443129E-01
       -1   -1    0    0    0  501  0.00000000000E+00  0.00000000000E+00  0.10006462307E+04  0.10006462307E+04  0.50400001928E-02 0.  1.
        1   -1    0    0  501    0  0.00000000000E+00  0.00000000000E+00 -0.14275092213E+04  0.14275092213E+04  0.50400001928E-02 0. -1.
    10030    2    1    2    0    0  0.00000000000E+00  0.00000000000E+00 -0.42686299062E+03  0.24281554520E+04  0.23903403286E+04 0.  0.
        3    1    3    3  502    0 -0.27579876548E+03 -0.11556087853E+04 -0.81237882479E+02  0.11908384557E+04  0.10100000352E+00 0. -1.
       -3    1    3    3    0  502  0.27579876548E+03  0.11556087853E+04 -0.34562510814E+03  0.12373169963E+04  0.10100000352E+00 0.  1.
</event>
<event>
 5   0  0.4914005E-05  0.1968134E+04  0.7818609E-02  0.8621666E-01
       -2   -1    0    0    0  501  0.00000000000E+00  0.00000000000E+00  0.69051518373E+03  0.69051518373E+03  0.25500000920E-02 0. -1.
        2   -1    0    0  501    0  0.00000000000E+00  0.00000000000E+00 -0.14024137710E+04  0.14024137710E+04  0.25500000920E-02 0.  1.
    10030    2    1    2    0    0  0.00000000000E+00  0.00000000000E+00 -0.71189858730E+03  0.20929289548E+04  0.19681341446E+04 0.  0.
        2    1    3    3  502    0  0.36435061796E+03 -0.31351922173E+03 -0.12690829981E+04  0.13570620219E+04  0.25500000920E-02 0.  1.
       -2    1    3    3    0  502 -0.36435061796E+03  0.31351922173E+03  0.55718441081E+03  0.73586693285E+03  0.25500000920E-02 0. -1.
</event>
<event>
 5   0  0.4664127E-05  0.2428589E+04  0.7818609E-02  0.8428877E-01
        2   -1    0    0  501    0  0.00000000000E+00  0.00000000000E+00  0.28525233269E+04  0.28525233269E+04  0.25500000920E-02 0. -1.
       -2   -1    0    0    0  501  0.00000000000E+00  0.00000000000E+00 -0.51691487213E+03  0.51691487214E+03  0.25500000920E-02 0.  1.
    10030    2    1    2    0    0  0.00000000000E+00  0.00000000000E+00  0.23356084548E+04  0.33694381991E+04  0.24285894925E+04 0.  0.
        4    1    3    3  502    0  0.10719753753E+04  0.19483207937E+03  0.19116131823E+04  0.22003084593E+04  0.12699999809E+01 0. -1.
       -4    1    3    3    0  502 -0.10719753753E+04 -0.19483207937E+03  0.42399527251E+03  0.11691297398E+04  0.12699999809E+01 0.  1.
</event>
<event>
 5   0  0.2065692E-05  0.2343672E+04  0.7818609E-02  0.8460898E-01
       -1   -1    0    0    0  501  0.00000000000E+00  0.00000000000E+00  0.11913662547E+04  0.11913662547E+04  0.50400001928E-02 0.  1.
        1   -1    0    0  501    0  0.00000000000E+00  0.00000000000E+00 -0.11526263622E+04  0.11526263623E+04  0.50400001928E-02 0. -1.
    10030    2    1    2    0    0  0.00000000000E+00  0.00000000000E+00  0.38739892405E+02  0.23439926169E+04  0.23436724620E+04 0.  0.
        3    1    3    3  502    0 -0.26624062227E+03  0.11168991993E+04 -0.21486762309E+03  0.11681249916E+04  0.10100000352E+00 0.  1.
       -3    1    3    3    0  502  0.26624062227E+03 -0.11168991993E+04  0.25360751550E+03  0.11758676254E+04  0.10100000352E+00 0. -1.
</event>
<event>
 5   0  0.4914005E-05  0.2356244E+04  0.7818609E-02  0.8456069E-01
        2   -1    0    0  501    0  0.00000000000E+00  0.00000000000E+00  0.11538871776E+04  0.11538871776E+04  0.25500000920E-02 0.  1.
       -2   -1    0    0    0  501  0.00000000000E+00  0.00000000000E+00 -0.12028653514E+04  0.12028653514E+04  0.25500000920E-02 0. -1.
    10030    2    1    2    0    0  0.00000000000E+00  0.00000000000E+00 -0.48978173803E+02  0.23567525290E+04  0.23562435404E+04 0.  0.
        2    1    3    3  502    0  0.11148910931E+04 -0.37017072959E+03  0.64762396275E+02  0.11765214348E+04  0.25500000920E-02 0.  1.
       -2    1    3    3    0  502 -0.11148910931E+04  0.37017072959E+03 -0.11374057008E+03  0.11802310942E+04  0.25500000920E-02 0. -1.
</event>
<event>
 5   0  0.4664127E-05  0.2417100E+04  0.7818609E-02  0.8433129E-01
       -2   -1    0    0    0  501  0.00000000000E+00  0.00000000000E+00  0.16477250588E+04  0.16477250588E+04  0.25500000920E-02 0.  1.
        2   -1    0    0  501    0  0.00000000000E+00  0.00000000000E+00 -0.88643008069E+03  0.88643008070E+03  0.25500000920E-02 0. -1.
    10030    2    1    2    0    0  0.00000000000E+00  0.00000000000E+00  0.76129497809E+03  0.25341551395E+04  0.24170999622E+04 0.  0.
        4    1    3    3  502    0 -0.11793815680E+04  0.26373000635E+03  0.39097568244E+03  0.12701803008E+04  0.12699999809E+01 0.  1.
       -4    1    3    3    0  502  0.11793815680E+04 -0.26373000635E+03  0.37031929565E+03  0.12639748387E+04  0.12699999809E+01 0. -1.
</event>
<event>
 5   0  0.4756705E-05  0.2426835E+04  0.7818609E-02  0.8429525E-01
       -2   -1    0    0    0  501  0.00000000000E+00  0.00000000000E+00  0.86768369581E+03  0.86768369582E+03  0.25500000920E-02 0. -1.
        2   -1    0    0  501    0  0.00000000000E+00  0.00000000000E+00 -0.16969111048E+04  0.16969111048E+04  0.25500000920E-02 0.  1.
    10030    2    1    2    0    0  0.00000000000E+00  0.00000000000E+00 -0.82922740900E+03  0.25645948006E+04  0.24268350574E+04 0.  0.
        3    1    3    3  502    0 -0.81925348818E+03  0.71403900989E+03 -0.98502624748E+03  0.14667326627E+04  0.10100000352E+00 0. -1.
       -3    1    3    3    0  502  0.81925348818E+03 -0.71403900989E+03  0.15579883848E+03  0.10978621379E+04  0.10100000352E+00 0.  1.
</event>
<event>
 5   0  0.2065692E-05  0.2383597E+04  0.7818609E-02  0.8445670E-01
        1   -1    0    0  501    0  0.00000000000E+00  0.00000000000E+00  0.11403644330E+04  0.11403644330E+04  0.50400001928E-02 0. -1.
       -1   -1    0    0    0  501  0.00000000000E+00  0.00000000000E+00 -0.12455529160E+04  0.12455529160E+04  0.50400001928E-02 0.  1.
    10030    2    1    2    0    0  0.00000000000E+00  0.00000000000E+00 -0.10518848300E+03  0.23859173490E+04  0.23835974868E+04 0.  0.
        3    1    3    3  502    0  0.10620137912E+03 -0.69003980129E+03 -0.10194279741E+04  0.12355836940E+04  0.10100000352E+00 0.  1.
       -3    1    3    3    0  502 -0.10620137912E+03  0.69003980129E+03  0.91423949115E+03  0.11503336549E+04  0.10100000352E+00 0. -1.
</event>
<event>
 5   0  0.4914005E-05  0.2197550E+04  0.7818609E-02  0.8519448E-01
       -2   -1    0    0    0  501  0.00000000000E+00  0.00000000000E+00  0.60197153461E+03  0.60197153461E+03  0.25500000920E-02 0.  1.
        2   -1    0    0  501    0  0.00000000000E+00  0.00000000000E+00 -0.20055880567E+04  0.20055880567E+04  0.25500000920E-02 0. -1.
    10030    2    1    2    0    0  0.00000000000E+00  0.00000000000E+00 -0.14036165221E+04  0.26075595913E+04  0.21975503819E+04 0.  0.
        2    1    3    3  502    0  0.27115854421E+03 -0.57354030208E+03  0.36269716799E+03  0.73076991583E+03  0.25500000920E-02 0.  1.
       -2    1    3    3    0  502 -0.27115854421E+03  0.57354030208E+03 -0.17663136901E+04  0.18767896755E+04  0.25500000920E-02 0. -1.
</event>
<event>
 5   0  0.1672125E-05  0.1895748E+04  0.7818609E-02  0.8656976E-01
        3   -1    0    0  501    0  0.00000000000E+00  0.00000000000E+00  0.88137991174E+03  0.88137991753E+03  0.10100000352E+00 0. -1.
       -3   -1    0    0    0  501  0.00000000000E+00  0.00000000000E+00 -0.10193842491E+04  0.10193842541E+04  0.10100000352E+00 0.  1.
    10030    2    1    2    0    0  0.00000000000E+00  0.00000000000E+00 -0.13800433739E+03  0.19007641717E+04  0.18957476729E+04 0.  0.
        2    1    3    3  502    0 -0.53554204080E+03 -0.78061986050E+03 -0.20998910962E+02  0.94689682560E+03  0.25500000920E-02 0. -1.
       -2    1    3    3    0  502  0.53554204080E+03  0.78061986050E+03 -0.11700542643E+03  0.95386734606E+03  0.25500000920E-02 0.  1.
</event>
<event>
 5   0  0.2057599E-05  0.2412599E+04  0.7818609E-02  0.8434802E-01
        1   -1    0    0  501    0  0.00000000000E+00  0.00000000000E+00  0.20129359112E+04  0.20129359112E+04  0.50400001928E-02 0.  1.
       -1   -1    0    0    0  501  0.00000000000E+00  0.00000000000E+00 -0.72290324710E+03  0.72290324712E+03  0.50400001928E-02 0. -1.
    10030    2    1    2    0    0  0.00000000000E+00  0.00000000000E+00  0.12900326641E+04  0.27358391583E+04  0.24125985215E+04 0.  0.
        4    1    3    3  502    0 -0.70237668081E+03  0.81813903237E+03  0.12582803930E+04  0.16570925256E+04  0.12699999809E+01 0. -1.
       -4    1    3    3    0  502  0.70237668081E+03 -0.81813903237E+03  0.31752271099E+02  0.10787466327E+04  0.12699999809E+01 0.  1.
</event>
<event>
 5   0  0.4914005E-05  0.2421679E+04  0.7818609E-02  0.8431432E-01
       -2   -1    0    0    0  501  0.00000000000E+00  0.00000000000E+00  0.57351257291E+03  0.57351257291E+03  0.25500000920E-02 0.  1.
        2   -1    0    0  501    0  0.00000000000E+00  0.00000000000E+00 -0.25564080749E+04  0.25564080749E+04  0.25500000920E-02 0. -1.
    10030    2    1    2    0    0  0.00000000000E+00  0.00000000000E+00 -0.19828955020E+04  0.31299206478E+04  0.24216788990E+04 0.  0.
        2    1    3    3  502    0  0.99492560160E+03  0.68982637149E+03 -0.10171282611E+04  0.15812296718E+04  0.25500000920E-02 0. -1.
       -2    1    3    3    0  502 -0.99492560160E+03 -0.68982637149E+03 -0.96576724093E+03  0.15486909760E+04  0.25500000920E-02 0.  1.
</event>
<event>
 5   0  0.2149920E-05  0.2270291E+04  0.7818609E-02  0.8489728E-01
       -1   -1    0    0    0  501  0.00000000000E+00  0.00000000000E+00  0.53360367674E+03  0.53360367676E+03  0.50400001928E-02 0.  1.
        1   -1    0    0  501    0  0.00000000000E+00  0.00000000000E+00 -0.24148172461E+04  0.24148172461E+04  0.50400001928E-02 0. -1.
    10030    2    1    2    0    0  0.00000000000E+00  0.00000000000E+00 -0.18812135694E+04  0.29484209229E+04  0.22702910485E+04 0.  0.
        5    1    3    3  502    0  0.45753051384E+03  0.88947113431E+03 -0.16376095491E+04  0.19189268342E+04  0.46999998093E+01 0. -1.
       -5    1    3    3    0  502 -0.45753051384E+03 -0.88947113431E+03 -0.24360402030E+03  0.10294940887E+04  0.46999998093E+01 0.  1.
</event>
<event>
 5   0  0.2065692E-05  0.2418483E+04  0.7818609E-02  0.8432616E-01
       -1   -1    0    0    0  501  0.00000000000E+00  0.00000000000E+00  0.99881419360E+03  0.99881419361E+03  0.50400001928E-02 0.  1.
        1   -1    0    0  501    0  0.00000000000E+00  0.00000000000E+00 -0.14640007449E+04  0.14640007449E+04  0.50400001928E-02 0. -1.
    10030    2    1    2    0    0  0.00000000000E+00  0.00000000000E+00 -0.46518655126E+03  0.24628149385E+04  0.24184827669E+04 0.  0.
        3    1    3    3  502    0 -0.59607573379E+02 -0.70205297287E+03  0.76818959553E+03  0.10423755103E+04  0.10100000352E+00 0.  1.
       -3    1    3    3    0  502  0.59607573379E+02  0.70205297287E+03 -0.12333761468E+04  0.14204394282E+04  0.10100000352E+00 0. -1.
</event>
<event>
 5   0  0.2065692E-05  0.2397688E+04  0.7818609E-02  0.8440370E-01
       -1   -1    0    0    0  501  0.00000000000E+00  0.00000000000E+00  0.87880759624E+03  0.87880759626E+03  0.50400001928E-02 0.  1.
        1   -1    0    0  501    0  0.00000000000E+00  0.00000000000E+00 -0.16354282677E+04  0.16354282677E+04  0.50400001928E-02 0. -1.
    10030    2    1    2    0    0  0.00000000000E+00  0.00000000000E+00 -0.75662067149E+03  0.25142358640E+04  0.23976878736E+04 0.  0.
        3    1    3    3  502    0  0.42229695166E+03 -0.90030507371E+03  0.32382121100E+03  0.10458222258E+04  0.10100000352E+00 0.  1.
       -3    1    3    3    0  502 -0.42229695166E+03  0.90030507371E+03 -0.10804418825E+04  0.14684136382E+04  0.10100000352E+00 0. -1.
</event>
<event>
 5   0  0.2139556E-05  0.2368905E+04  0.7818609E-02  0.8451237E-01
        1   -1    0    0  501    0  0.00000000000E+00  0.00000000000E+00  0.14954260810E+04  0.14954260810E+04  0.50400001928E-02 0.  1.
       -1   -1    0    0    0  501  0.00000000000E+00  0.00000000000E+00 -0.93814620851E+03  0.93814620853E+03  0.50400001928E-02 0. -1.
    10030    2    1    2    0    0  0.00000000000E+00  0.00000000000E+00  0.55727987245E+03  0.24335722895E+04  0.23689054924E+04 0.  0.
        2    1    3    3  502    0  0.98803176167E+03 -0.46896473958E+03 -0.18851945459E+03  0.11098082149E+04  0.25500000920E-02 0. -1.
       -2    1    3    3    0  502 -0.98803176167E+03  0.46896473958E+03  0.74579932704E+03  0.13237640746E+04  0.25500000920E-02 0.  1.
</event>
<event>
 5   0  0.4713971E-05  0.2398030E+04  0.7818609E-02  0.8440242E-01
        2   -1    0    0  501    0  0.00000000000E+00  0.00000000000E+00  0.10754971604E+04  0.10754971604E+04  0.25500000920E-02 0. -1.
       -2   -1    0    0    0  501  0.00000000000E+00  0.00000000000E+00 -0.13367182267E+04  0.13367182267E+04  0.25500000920E-02 0.  1.
    10030    2    1    2    0    0  0.00000000000E+00  0.00000000000E+00 -0.26122106635E+03  0.24122153871E+04  0.23980297388E+04 0.  0.
        5    1    3    3  502    0 -0.10141028404E+04 -0.27654634870E+03 -0.71085215440E+03  0.12689426028E+04  0.46999998093E+01 0. -1.
       -5    1    3    3    0  502  0.10141028404E+04  0.27654634870E+03  0.44963108805E+03  0.11432727843E+04  0.46999998093E+01 0.  1.
</event>
<event>
 5   0  0.2057599E-05  0.2404884E+04  0.7818609E-02  0.8437677E-01
       -1   -1    0    0    0  501  0.00000000000E+00  0.00000000000E+00  0.10883130046E+04  0.10883130046E+04  0.50400001928E-02 0.  1.
        1   -1    0    0  501    0  0.00000000000E+00  0.00000000000E+00 -0.13285394124E+04  0.13285394124E+04  0.50400001928E-02 0. -1.
    10030    2    1    2    0    0  0.00000000000E+00  0.00000000000E+00 -0.24022640781E+03  0.24168524171E+04  0.24048839637E+04 0.  0.
        4    1    3    3  502    0 -0.59119859397E+03  0.85446496598E+03 -0.72830179755E+03  0.12688779598E+04  0.12699999809E+01 0. -1.
       -4    1    3    3    0  502  0.59119859397E+03 -0.85446496598E+03  0.48807538974E+03  0.11479744573E+04  0.12699999809E+01 0.  1.
</event>
<event>
 5   0  0.2065692E-05  0.2416134E+04  0.7818609E-02  0.8433488E-01
        1   -1    0    0  501    0  0.00000000000E+00  0.00000000000E+00  0.12659808825E+04  0.12659808825E+04  0.50400001928E-02 0.  1.
       -1   -1    0    0    0  501  0.00000000000E+00  0.00000000000E+00 -0.11528025775E+04  0.11528025775E+04  0.50400001928E-02 0. -1.
    10030    2    1    2    0    0  0.00000000000E+00  0.00000000000E+00  0.11317830499E+03  0.24187834600E+04  0.24161341224E+04 0.  0.
        3    1    3    3  502    0  0.89904746547E+02 -0.11935666199E+04  0.22029789577E+03  0.12170518940E+04  0.10100000352E+00 0.  1.
       -3    1    3    3    0  502 -0.89904746547E+02  0.11935666199E+04 -0.10711959078E+03  0.12017315660E+04  0.10100000352E+00 0. -1.
</event>
<event>
 5   0  0.4914005E-05  0.2357779E+04  0.7818609E-02  0.8455482E-01
        2   -1    0    0  501    0  0.00000000000E+00  0.00000000000E+00  0.86656915822E+03  0.86656915822E+03  0.25500000920E-02 0. -1.
       -2   -1    0    0    0  501  0.00000000000E+00  0.00000000000E+00 -0.16037736254E+04  0.16037736254E+04  0.25500000920E-02 0.  1.
    10030    2    1    2    0    0  0.00000000000E+00  0.00000000000E+00 -0.73720446716E+03  0.24703427836E+04  0.23577792607E+04 0.  0.
        2    1    3    3  502    0  0.47724085675E+03  0.88286909225E+03  0.27944427959E+03  0.10417800991E+04  0.25500000920E-02 0. -1.
       -2    1    3    3    0  502 -0.47724085675E+03 -0.88286909225E+03 -0.10166487467E+04  0.14285626845E+04  0.25500000920E-02 0.  1.
</event>
<event>
 5   0  0.2139556E-05  0.2390789E+04  0.7818609E-02  0.8442960E-01
        1   -1    0    0  501    0  0.00000000000E+00  0.00000000000E+00  0.10254109553E+04  0.10254109553E+04  0.50400001928E-02 0. -1.
       -1   -1    0    0    0  501  0.00000000000E+00  0.00000000000E+00 -0.13935563410E+04  0.13935563410E+04  0.50400001928E-02 0.  1.
    10030    2    1    2    0    0  0.00000000000E+00  0.00000000000E+00 -0.36814538565E+03  0.24189672963E+04  0.23907889400E+04 0.  0.
        2    1    3    3  502    0 -0.31687583283E+03  0.96027782743E+03 -0.82910060219E+03  0.13076511797E+04  0.25500000920E-02 0.  1.
       -2    1    3    3    0  502  0.31687583283E+03 -0.96027782743E+03  0.46095521654E+03  0.11113161166E+04  0.25500000920E-02 0. -1.
</event>
<event>
 5   0  0.4713971E-05  0.2388733E+04  0.7818609E-02  0.8443734E-01
        2   -1    0    0  501    0  0.00000000000E+00  0.00000000000E+00  0.15324130543E+04  0.15324130543E+04  0.25500000920E-02 0. -1.
       -2   -1    0    0    0  501  0.00000000000E+00  0.00000000000E+00 -0.93089239417E+03  0.93089239417E+03  0.25500000920E-02 0.  1.
    10030    2    1    2    0    0  0.00000000000E+00  0.00000000000E+00  0.60152066015E+03  0.24633054485E+04  0.23887332685E+04 0.  0.
        5    1    3    3  502    0 -0.67474730973E+03  0.59700149201E+03 -0.50780612718E+03  0.10342068779E+04  0.46999998093E+01 0.  1.
       -5    1    3    3    0  502  0.67474730973E+03 -0.59700149201E+03  0.11093267873E+04  0.14290985706E+04  0.46999998093E+01 0. -1.
</event>
<event>
 5   0  0.2090039E-05  0.2399841E+04  0.7818609E-02  0.8439563E-01
        1   -1    0    0  501    0  0.00000000000E+00  0.00000000000E+00  0.13358690975E+04  0.13358690975E+04  0.50400001928E-02 0. -1.
       -1   -1    0    0    0  501  0.00000000000E+00  0.00000000000E+00 -0.10778067741E+04  0.10778067741E+04  0.50400001928E-02 0.  1.
    10030    2    1    2    0    0  0.00000000000E+00  0.00000000000E+00  0.25806232340E+03  0.24136758716E+04  0.23998406302E+04 0.  0.
        1    1    3    3  502    0 -0.17962437009E+03 -0.88623777960E+03  0.92232828396E+03  0.12916546674E+04  0.50400001928E-02 0. -1.
       -1    1    3    3    0  502  0.17962437009E+03  0.88623777960E+03 -0.66426596056E+03  0.11220212042E+04  0.50400001928E-02 0.  1.
</event>
<event>
 5   0  0.4756705E-05  0.2363930E+04  0.7818609E-02  0.8453132E-01
       -2   -1    0    0    0  501  0.00000000000E+00  0.00000000000E+00  0.13023195572E+04  0.13023195572E+04  0.25500000920E-02 0. -1.
        2   -1    0    0  501    0  0.00000000000E+00  0.00000000000E+00 -0.10727331889E+04  0.10727331889E+04  0.25500000920E-02 0.  1.
    10030    2    1    2    0    0  0.00000000000E+00  0.00000000000E+00  0.22958636830E+03  0.23750527461E+04  0.23639301272E+04 0.  0.
        3    1    3    3  502    0  0.37409130326E+03 -0.60943632539E+03  0.10603293322E+04  0.12789273791E+04  0.10100000352E+00 0. -1.
       -3    1    3    3    0  502 -0.37409130326E+03  0.60943632539E+03 -0.83074296394E+03  0.10961253670E+04  0.10100000352E+00 0.  1.
</event>
<event>
 5   0  0.4713971E-05  0.2391517E+04  0.7818609E-02  0.8442686E-01
       -2   -1    0    0    0  501  0.00000000000E+00  0.00000000000E+00  0.48138866437E+03  0.48138866438E+03  0.25500000920E-02 0.  1.
        2   -1    0    0  501    0  0.00000000000E+00  0.00000000000E+00 -0.29702363455E+04  0.29702363455E+04  0.25500000920E-02 0. -1.
    10030    2    1    2    0    0  0.00000000000E+00  0.00000000000E+00 -0.24888476812E+04  0.34516250099E+04  0.23915167633E+04 0.  0.
        5    1    3    3  502    0 -0.68634945134E+03  0.80410462212E+03 -0.20507971856E+04  0.23072604966E+04  0.46999998093E+01 0. -1.
       -5    1    3    3    0  502  0.68634945134E+03 -0.80410462212E+03 -0.43805049554E+03  0.11443645133E+04  0.46999998093E+01 0.  1.
</event>
<event>
 5   0  0.2090039E-05  0.2083256E+04  0.7818609E-02  0.8568655E-01
       -1   -1    0    0    0  501  0.00000000000E+00  0.00000000000E+00  0.68214295666E+03  0.68214295668E+03  0.50400001928E-02 0.  1.
        1   -1    0    0  501    0  0.00000000000E+00  0.00000000000E+00 -0.15905594285E+04  0.15905594285E+04  0.50400001928E-02 0. -1.
    10030    2    1    2    0    0  0.00000000000E+00  0.00000000000E+00 -0.90841647185E+03  0.22727023852E+04  0.20832560201E+04 0.  0.
        1    1    3    3  502    0 -0.91587139019E+03  0.28354552262E+03 -0.10033888150E+02  0.95881131914E+03  0.50400001928E-02 0. -1.
       -1    1    3    3    0  502  0.91587139019E+03 -0.28354552262E+03 -0.89838258370E+03  0.13138910661E+04  0.50400001928E-02 0.  1.
</event>
<event>
 5   0  0.4914005E-05  0.2384221E+04  0.7818609E-02  0.8445435E-01
       -2   -1    0    0    0  501  0.00000000000E+00  0.00000000000E+00  0.10843778593E+04  0.10843778593E+04  0.25500000920E-02 0. -1.
        2   -1    0    0  501    0  0.00000000000E+00  0.00000000000E+00 -0.13105466281E+04  0.13105466281E+04  0.25500000920E-02 0.  1.
    10030    2    1    2    0    0  0.00000000000E+00  0.00000000000E+00 -0.22616876880E+03  0.23949244874E+04  0.23842212541E+04 0.  0.
        2    1    3    3  502    0 -0.18169997408E+03 -0.11038043505E+04  0.30074666111E+03  0.11583814048E+04  0.25500000920E-02 0. -1.
       -2    1    3    3    0  502  0.18169997408E+03  0.11038043505E+04 -0.52691542991E+03  0.12365430826E+04  0.25500000920E-02 0.  1.
</event>
<event>
 5   0  0.4713971E-05  0.2553062E+04  0.7818609E-02  0.8384322E-01
       -2   -1    0    0    0  501  0.00000000000E+00  0.00000000000E+00  0.95420837689E+03  0.95420837689E+03  0.25500000920E-02 0.  1.
        2   -1    0    0  501    0  0.00000000000E+00  0.00000000000E+00 -0.17077316272E+04  0.17077316272E+04  0.25500000920E-02 0. -1.
    10030    2    1    2    0    0  0.00000000000E+00  0.00000000000E+00 -0.75352325030E+03  0.26619400041E+04  0.25530623370E+04 0.  0.
        5    1    3    3  502    0 -0.10629899406E+04  0.63380095566E+03 -0.50597604358E+02  0.12386417855E+04  0.46999998093E+01 0.  1.
       -5    1    3    3    0  502  0.10629899406E+04 -0.63380095566E+03 -0.70292564594E+03  0.14232982186E+04  0.46999998093E+01 0. -1.
</event>
<event>
 5   0  0.2139556E-05  0.2385215E+04  0.7818609E-02  0.8445060E-01
        1   -1    0    0  501    0  0.00000000000E+00  0.00000000000E+00  0.19131707487E+04  0.19131707487E+04  0.50400001928E-02 0.  1.
       -1   -1    0    0    0  501  0.00000000000E+00  0.00000000000E+00 -0.74343229664E+03  0.74343229666E+03  0.50400001928E-02 0. -1.
    10030    2    1    2    0    0  0.00000000000E+00  0.00000000000E+00  0.11697384520E+04  0.26566030453E+04  0.23852152302E+04 0.  0.
        2    1    3    3  502    0 -0.20043411311E+03 -0.10381320131E+04  0.11993897694E+04  0.15988832757E+04  0.25500000920E-02 0.  1.
       -2    1    3    3    0  502  0.20043411311E+03  0.10381320131E+04 -0.29651317397E+02  0.10577197696E+04  0.25500000920E-02 0. -1.
</event>
<event>
 5   0  0.4713971E-05  0.2328623E+04  0.7818609E-02  0.8466720E-01
       -2   -1    0    0    0  501  0.00000000000E+00  0.00000000000E+00  0.11370023976E+04  0.11370023976E+04  0.25500000920E-02 0.  1.
        2   -1    0    0  501    0  0.00000000000E+00  0.00000000000E+00 -0.11922767464E+04  0.11922767464E+04  0.25500000920E-02 0. -1.
    10030    2    1    2    0    0  0.00000000000E+00  0.00000000000E+00 -0.55274348778E+02  0.23292791439E+04  0.23286232149E+04 0.  0.
        5    1    3    3  502    0 -0.47265354940E+03 -0.34387777542E+03  0.97959538382E+03  0.11407377035E+04  0.46999998093E+01 0.  1.
       -5    1    3    3    0  502  0.47265354940E+03  0.34387777542E+03 -0.10348697326E+04  0.11885414404E+04  0.46999998093E+01 0. -1.
</event>
<event>
 5   0  0.2057599E-05  0.2375682E+04  0.7818609E-02  0.8448664E-01
       -1   -1    0    0    0  501  0.00000000000E+00  0.00000000000E+00  0.94506395354E+03  0.94506395355E+03  0.50400001928E-02 0. -1.
        1   -1    0    0  501    0  0.00000000000E+00  0.00000000000E+00 -0.14929855156E+04  0.14929855156E+04  0.50400001928E-02 0.  1.
    10030    2    1    2    0    0  0.00000000000E+00  0.00000000000E+00 -0.54792156203E+03  0.24380494691E+04  0.23756824653E+04 0.  0.
        4    1    3    3  502    0 -0.99667284699E+03 -0.28695980111E+03 -0.86817987672E+03  0.13525681508E+04  0.12699999809E+01 0.  1.
       -4    1    3    3    0  502  0.99667284699E+03  0.28695980111E+03  0.32025831469E+03  0.10854813183E+04  0.12699999809E+01 0. -1.
</event>
<event>
 5   0  0.2149920E-05  0.2410718E+04  0.7818609E-02  0.8435502E-01
        1   -1    0    0  501    0  0.00000000000E+00  0.00000000000E+00  0.17468847179E+04  0.17468847179E+04  0.50400001928E-02 0. -1.
       -1   -1    0    0    0  501  0.00000000000E+00  0.00000000000E+00 -0.83170365829E+03  0.83170365830E+03  0.50400001928E-02 0.  1.
    10030    2    1    2    0    0  0.00000000000E+00  0.00000000000E+00  0.91518105958E+03  0.25785883762E+04  0.24107180760E+04 0.  0.
        5    1    3    3  502    0  0.11144296412E+04  0.10822230074E+03  0.93499155467E+03  0.14587312257E+04  0.46999998093E+01 0.  1.
       -5    1    3    3    0  502 -0.11144296412E+04 -0.10822230074E+03 -0.19810495089E+02  0.11198571504E+04  0.46999998093E+01 0. -1.
</event>
<event>
 5   0  0.2149920E-05  0.2405953E+04  0.7818609E-02  0.8437278E-01
       -1   -1    0    0    0  501  0.00000000000E+00  0.00000000000E+00  0.11451659320E+04  0.11451659320E+04  0.50400001928E-02 0.  1.
        1   -1    0    0  501    0  0.00000000000E+00  0.00000000000E+00 -0.12637054576E+04  0.12637054576E+04  0.50400001928E-02 0. -1.
    10030    2    1    2    0    0  0.00000000000E+00  0.00000000000E+00 -0.11853952562E+03  0.24088713896E+04  0.24059529821E+04 0.  0.
        5    1    3    3  502    0 -0.33102692860E+03 -0.45790996631E+02 -0.12162902761E+04  0.12613721769E+04  0.46999998093E+01 0. -1.
       -5    1    3    3    0  502  0.33102692860E+03  0.45790996631E+02  0.10977507505E+04  0.11474992127E+04  0.46999998093E+01 0.  1.
</event>
<event>
 5   0  0.1672125E-05  0.2410432E+04  0.7818609E-02  0.8435608E-01
       -3   -1    0    0    0  501  0.00000000000E+00  0.00000000000E+00  0.19081631061E+04  0.19081631088E+04  0.10100000352E+00 0. -1.
        3   -1    0    0  501    0  0.00000000000E+00  0.00000000000E+00 -0.76122701744E+03  0.76122702414E+03  0.10100000352E+00 0.  1.
    10030    2    1    2    0    0  0.00000000000E+00  0.00000000000E+00  0.11469360886E+04  0.26693901329E+04  0.24104317643E+04 0.  0.
        4    1    3    3  502    0  0.87113940380E+03 -0.79633349967E+03  0.84362890002E+03  0.14507729793E+04  0.12699999809E+01 0. -1.
       -4    1    3    3    0  502 -0.87113940380E+03  0.79633349967E+03  0.30330718862E+03  0.12186171536E+04  0.12699999809E+01 0.  1.
</event>
<event>
 5   0  0.4756705E-05  0.2385044E+04  0.7818609E-02  0.8445124E-01
       -2   -1    0    0    0  501  0.00000000000E+00  0.00000000000E+00  0.10897679228E+04  0.10897679228E+04  0.25500000920E-02 0.  1.
        2   -1    0    0  501    0  0.00000000000E+00  0.00000000000E+00 -0.13049646079E+04  0.13049646079E+04  0.25500000920E-02 0. -1.
    10030    2    1    2    0    0  0.00000000000E+00  0.00000000000E+00 -0.21519668505E+03  0.23947325307E+04  0.23850438739E+04 0.  0.
        3    1    3    3  502    0 -0.35668706249E+03  0.51357314963E+03  0.91197015679E+03  0.11057452770E+04  0.10100000352E+00 0.  1.
       -3    1    3    3    0  502  0.35668706249E+03 -0.51357314963E+03 -0.11271668418E+04  0.12889872537E+04  0.10100000352E+00 0. -1.
</event>
<event>
 5   0  0.2149920E-05  0.2346024E+04  0.7818609E-02  0.8459992E-01
        1   -1    0    0  501    0  0.00000000000E+00  0.00000000000E+00  0.11239442661E+04  0.11239442661E+04  0.50400001928E-02 0. -1.
       -1   -1    0    0    0  501  0.00000000000E+00  0.00000000000E+00 -0.12242218909E+04  0.12242218909E+04  0.50400001928E-02 0.  1.
    10030    2    1    2    0    0  0.00000000000E+00  0.00000000000E+00 -0.10027762482E+03  0.23481661570E+04  0.23460240192E+04 0.  0.
        5    1    3    3  502    0 -0.55624295592E+03 -0.13867013454E+02 -0.10837174414E+04  0.12182216969E+04  0.46999998093E+01 0.  1.
       -5    1    3    3    0  502  0.55624295592E+03  0.13867013454E+02  0.98343981655E+03  0.11299444601E+04  0.46999998093E+01 0. -1.
</event>
<event>
 5   0  0.2149920E-05  0.2378190E+04  0.7818609E-02  0.8447714E-01
        1   -1    0    0  501    0  0.00000000000E+00  0.00000000000E+00  0.26071977246E+04  0.26071977246E+04  0.50400001928E-02 0.  1.
       -1   -1    0    0    0  501  0.00000000000E+00  0.00000000000E+00 -0.54232437425E+03  0.54232437428E+03  0.50400001928E-02 0. -1.
    10030    2    1    2    0    0  0.00000000000E+00  0.00000000000E+00  0.20648733503E+04  0.31495220989E+04  0.23781899626E+04 0.  0.
        5    1    3    3  502    0 -0.58765191044E+03  0.55535588129E+03  0.21870948690E+04  0.23317720684E+04  0.46999998093E+01 0.  1.
       -5    1    3    3    0  502  0.58765191044E+03 -0.55535588129E+03 -0.12222151870E+03  0.81775003048E+03  0.46999998093E+01 0. -1.
</event>
<event>
 5   0  0.4756705E-05  0.2322451E+04  0.7818609E-02  0.8469121E-01
       -2   -1    0    0    0  501  0.00000000000E+00  0.00000000000E+00  0.97573484438E+03  0.97573484438E+03  0.25500000920E-02 0. -1.
        2   -1    0    0  501    0  0.00000000000E+00  0.00000000000E+00 -0.13819787058E+04  0.13819787058E+04  0.25500000920E-02 0.  1.
    10030    2    1    2    0    0  0.00000000000E+00  0.00000000000E+00 -0.40624386143E+03  0.23577135502E+04  0.23224510995E+04 0.  0.
        3    1    3    3  502    0 -0.10766830183E+04  0.24546977884E+03 -0.56766043024E+03  0.12416682764E+04  0.10100000352E+00 0. -1.
       -3    1    3    3    0  502  0.10766830183E+04 -0.24546977884E+03  0.16141656880E+03  0.11160452738E+04  0.10100000352E+00 0.  1.
</event>
<event>
 5   0  0.4856882E-05  0.2304835E+04  0.7818609E-02  0.8476017E-01
       -2   -1    0    0    0  501  0.00000000000E+00  0.00000000000E+00  0.63070710803E+03  0.63070710803E+03  0.25500000920E-02 0. -1.
        2   -1    0    0  501    0  0.00000000000E+00  0.00000000000E+00 -0.21056786761E+04  0.21056786761E+04  0.25500000920E-02 0.  1.
    10030    2    1    2    0    0  0.00000000000E+00  0.00000000000E+00 -0.14749715681E+04  0.27363857842E+04  0.23048353592E+04 0.  0.
        1    1    3    3  502    0  0.68242486599E+03 -0.57472776584E+03 -0.16034779638E+04  0.18349815484E+04  0.50400001928E-02 0.  1.
       -1    1    3    3    0  502 -0.68242486599E+03  0.57472776584E+03  0.12850639567E+03  0.90140423579E+03  0.50400001928E-02 0. -1.
</event>
<event>
 5   0  0.4664127E-05  0.2378885E+04  0.7818609E-02  0.8447451E-01
        2   -1    0    0  501    0  0.00000000000E+00  0.00000000000E+00  0.14543661176E+04  0.14543661177E+04  0.25500000920E-02 0.  1.
       -2   -1    0    0    0  501  0.00000000000E+00  0.00000000000E+00 -0.97277682376E+03  0.97277682377E+03  0.25500000920E-02 0. -1.
    10030    2    1    2    0    0  0.00000000000E+00  0.00000000000E+00  0.48158929389E+03  0.24271429414E+04  0.23788851612E+04 0.  0.
        4    1    3    3  502    0 -0.47896000835E+03 -0.44032173731E+03  0.12567279464E+04  0.14151511107E+04  0.12699999809E+01 0.  1.
       -4    1    3    3    0  502  0.47896000835E+03  0.44032173731E+03 -0.77513865250E+03  0.10119918307E+04  0.12699999809E+01 0. -1.
</event>
<event>
 5   0  0.2139556E-05  0.2405706E+04  0.7818609E-02  0.8437371E-01
       -1   -1    0    0    0  501  0.00000000000E+00  0.00000000000E+00  0.92104836392E+03  0.92104836393E+03  0.50400001928E-02 0.  1.
        1   -1    0    0  501    0  0.00000000000E+00  0.00000000000E+00 -0.15708781759E+04  0.15708781759E+04  0.50400001928E-02 0. -1.
    10030    2    1    2    0    0  0.00000000000E+00  0.00000000000E+00 -0.64982981202E+03  0.24919265399E+04  0.24057055297E+04 0.  0.
        2    1    3    3  502    0 -0.67495477072E+03 -0.45533131718E+03  0.59223619313E+03  0.10067940501E+04  0.25500000920E-02 0.  1.
       -2    1    3    3    0  502  0.67495477072E+03  0.45533131718E+03 -0.12420660051E+04  0.14851324897E+04  0.25500000920E-02 0. -1.
</event>
<event>
 5   0  0.4713971E-05  0.2321897E+04  0.7818609E-02  0.8469337E-01
       -2   -1    0    0    0  501  0.00000000000E+00  0.00000000000E+00  0.49693058689E+03  0.49693058690E+03  0.25500000920E-02 0. -1.
        2   -1    0    0  501    0  0.00000000000E+00  0.00000000000E+00 -0.27122526664E+04  0.27122526664E+04  0.25500000920E-02 0.  1.
    10030    2    1    2    0    0  0.00000000000E+00  0.00000000000E+00 -0.22153220795E+04  0.32091832533E+04  0.23218969050E+04 0.  0.
        5    1    3    3  502    0  0.10451008628E+04 -0.38552431435E+03 -0.15595895130E+04  0.19165610737E+04  0.46999998093E+01 0.  1.
       -5    1    3    3    0  502 -0.10451008628E+04  0.38552431435E+03 -0.65573256653E+03  0.12926221796E+04  0.46999998093E+01 0. -1.
</event>
<event>
 5   0  0.2057599E-05  0.2383771E+04  0.7818609E-02  0.8445605E-01
        1   -1    0    0  501    0  0.00000000000E+00  0.00000000000E+00  0.13247812205E+04  0.13247812206E+04  0.50400001928E-02 0. -1.
       -1   -1    0    0    0  501  0.00000000000E+00  0.00000000000E+00 -0.10723211919E+04  0.10723211919E+04  0.50400001928E-02 0.  1.
    10030    2    1    2    0    0  0.00000000000E+00  0.00000000000E+00  0.25246002868E+03  0.23971024124E+04  0.23837709432E+04 0.  0.
        4    1    3    3  502    0  0.51891105091E+03  0.87097300285E+03  0.75641389352E+03  0.12649214369E+04  0.12699999809E+01 0. -1.
       -4    1    3    3    0  502 -0.51891105091E+03 -0.87097300285E+03 -0.50395386484E+03  0.11321809755E+04  0.12699999809E+01 0.  1.
</event>
<event>
 5   0  0.4856882E-05  0.2443767E+04  0.7818609E-02  0.8423297E-01
       -2   -1    0    0    0  501  0.00000000000E+00  0.00000000000E+00  0.50302761823E+03  0.50302761824E+03  0.25500000920E-02 0. -1.
        2   -1    0    0  501    0  0.00000000000E+00  0.00000000000E+00 -0.29680271170E+04  0.29680271170E+04  0.25500000920E-02 0.  1.
    10030    2    1    2    0    0  0.00000000000E+00  0.00000000000E+00 -0.24649994988E+04  0.34710547353E+04  0.24437672651E+04 0.  0.
        1    1    3    3  502    0  0.50465830042E+03  0.91960926924E+01  0.34803178247E+03  0.61309924966E+03  0.50400001928E-02 0. -1.
       -1    1    3    3    0  502 -0.50465830042E+03 -0.91960926924E+01 -0.28130312813E+04  0.28579554856E+04  0.50400001928E-02 0.  1.
</event>
<event>
 5   0  0.4713971E-05  0.2400299E+04  0.7818609E-02  0.8439392E-01
        2   -1    0    0  501    0  0.00000000000E+00  0.00000000000E+00  0.22272560553E+04  0.22272560553E+04  0.25500000920E-02 0. -1.
       -2   -1    0    0    0  501  0.00000000000E+00  0.00000000000E+00 -0.64669640099E+03  0.64669640100E+03  0.25500000920E-02 0.  1.
    10030    2    1    2    0    0  0.00000000000E+00  0.00000000000E+00  0.15805596543E+04  0.28739524563E+04  0.24002987106E+04 0.  0.
        5    1    3    3  502    0 -0.60948736052E+03  0.77699713683E+03 -0.26311432943E+02  0.98788348239E+03  0.46999998093E+01 0.  1.
       -5    1    3    3    0  502  0.60948736052E+03 -0.77699713683E+03  0.16068710872E+04  0.18860689739E+04  0.46999998093E+01 0. -1.
</event>
<event>
 5   0  0.4914005E-05  0.2359037E+04  0.7818609E-02  0.8455001E-01
        2   -1    0    0  501    0  0.00000000000E+00  0.00000000000E+00  0.93398331333E+03  0.93398331333E+03  0.25500000920E-02 0.  1.
       -2   -1    0    0    0  501  0.00000000000E+00  0.00000000000E+00 -0.14896026490E+04  0.14896026490E+04  0.25500000920E-02 0. -1.
    10030    2    1    2    0    0  0.00000000000E+00  0.00000000000E+00 -0.55561933569E+03  0.24235859623E+04  0.23590371067E+04 0.  0.
        2    1    3    3  502    0  0.41899329960E+03  0.69060666503E+03  0.60522671013E+03  0.10093524268E+04  0.25500000920E-02 0.  1.
       -2    1    3    3    0  502 -0.41899329960E+03 -0.69060666503E+03 -0.11608460458E+04  0.14142335355E+04  0.25500000920E-02 0. -1.
</event>
<event>
 5   0  0.2090039E-05  0.2048084E+04  0.7818609E-02  0.8584464E-01
       -1   -1    0    0    0  501  0.00000000000E+00  0.00000000000E+00  0.62106903474E+03  0.62106903476E+03  0.50400001928E-02 0. -1.
        1   -1    0    0  501    0  0.00000000000E+00  0.00000000000E+00 -0.16884794560E+04  0.16884794560E+04  0.50400001928E-02 0.  1.
    10030    2    1    2    0    0  0.00000000000E+00  0.00000000000E+00 -0.10674104212E+04  0.23095484908E+04  0.20480842814E+04 0.  0.
        1    1    3    3  502    0  0.94104142750E+03  0.36245758752E+03 -0.73456799518E+03  0.12476075547E+04  0.50400001928E-02 0.  1.
       -1    1    3    3    0  502 -0.94104142750E+03 -0.36245758752E+03 -0.33284242606E+03  0.10619409360E+04  0.50400001928E-02 0. -1.
</event>
<event>
 5   0  0.2057599E-05  0.2405338E+04  0.7818609E-02  0.8437508E-01
        1   -1    0    0  501    0  0.00000000000E+00  0.00000000000E+00  0.17601106348E+04  0.17601106348E+04  0.50400001928E-02 0. -1.
       -1   -1    0    0    0  501  0.00000000000E+00  0.00000000000E+00 -0.82177370922E+03  0.82177370924E+03  0.50400001928E-02 0.  1.
    10030    2    1    2    0    0  0.00000000000E+00  0.00000000000E+00  0.93833692555E+03  0.25818843440E+04  0.24053379347E+04 0.  0.
        4    1    3    3  502    0 -0.39241982667E+03 -0.36214553641E+03 -0.68754815030E+03  0.87055544441E+03  0.12699999809E+01 0.  1.
       -4    1    3    3    0  502  0.39241982667E+03  0.36214553641E+03  0.16258850758E+04  0.17113288996E+04  0.12699999809E+01 0. -1.
</event>
<event>
 5   0  0.4914005E-05  0.2391712E+04  0.7818609E-02  0.8442613E-01
        2   -1    0    0  501    0  0.00000000000E+00  0.00000000000E+00  0.83450004498E+03  0.83450004498E+03  0.25500000920E-02 0.  1.
       -2   -1    0    0    0  501  0.00000000000E+00  0.00000000000E+00 -0.17136861339E+04  0.17136861339E+04  0.25500000920E-02 0. -1.
    10030    2    1    2    0    0  0.00000000000E+00  0.00000000000E+00 -0.87918608888E+03  0.25481861788E+04  0.23917116513E+04 0.  0.
        2    1    3    3  502    0  0.29495052375E+03 -0.67225114264E+03 -0.14453629925E+04  0.16211081366E+04  0.25500000920E-02 0. -1.
       -2    1    3    3    0  502 -0.29495052375E+03  0.67225114264E+03  0.56617690365E+03  0.92707804228E+03  0.25500000920E-02 0.  1.
</event>
<event>
 5   0  0.4713971E-05  0.2368557E+04  0.7818609E-02  0.8451370E-01
        2   -1    0    0  501    0  0.00000000000E+00  0.00000000000E+00  0.12132940276E+04  0.12132940276E+04  0.25500000920E-02 0.  1.
       -2   -1    0    0    0  501  0.00000000000E+00  0.00000000000E+00 -0.11559572653E+04  0.11559572653E+04  0.25500000920E-02 0. -1.
    10030    2    1    2    0    0  0.00000000000E+00  0.00000000000E+00  0.57336762279E+02  0.23692512929E+04  0.23685574058E+04 0.  0.
        5    1    3    3  502    0  0.41373725727E+03  0.78715721166E+03  0.81100936725E+03  0.12035585892E+04  0.46999998093E+01 0. -1.
       -5    1    3    3    0  502 -0.41373725727E+03 -0.78715721166E+03 -0.75367260498E+03  0.11656927037E+04  0.46999998093E+01 0.  1.
</event>
<event>
 5   0  0.2057599E-05  0.2378801E+04  0.7818609E-02  0.8447483E-01
       -1   -1    0    0    0  501  0.00000000000E+00  0.00000000000E+00  0.18618618220E+04  0.18618618220E+04  0.50400001928E-02 0.  1.
        1   -1    0    0  501    0  0.00000000000E+00  0.00000000000E+00 -0.75981688486E+03  0.75981688488E+03  0.50400001928E-02 0. -1.
    10030    2    1    2    0    0  0.00000000000E+00  0.00000000000E+00  0.11020449371E+04  0.26216787068E+04  0.23788014206E+04 0.  0.
        4    1    3    3  502    0  0.59588306029E+03 -0.97346101669E+03  0.91980562534E+03  0.14658604892E+04  0.12699999809E+01 0. -1.
       -4    1    3    3    0  502 -0.59588306029E+03  0.97346101669E+03  0.18223931177E+03  0.11558182176E+04  0.12699999809E+01 0.  1.
</event>
<event>
 5   0  0.2139556E-05  0.2376319E+04  0.7818609E-02  0.8448423E-01
        1   -1    0    0  501    0  0.00000000000E+00  0.00000000000E+00  0.17564999281E+04  0.17564999281E+04  0.50400001928E-02 0. -1.
       -1   -1    0    0    0  501  0.00000000000E+00  0.00000000000E+00 -0.80371368990E+03  0.80371368991E+03  0.50400001928E-02 0.  1.
    10030    2    1    2    0    0  0.00000000000E+00  0.00000000000E+00  0.95278623817E+03  0.25602136180E+04  0.23763190346E+04 0.  0.
        2    1    3    3  502    0  0.60279275744E+03 -0.10049871309E+04  0.68742006188E+03  0.13586407116E+04  0.25500000920E-02 0.  1.
       -2    1    3    3    0  502 -0.60279275744E+03  0.10049871309E+04  0.26536617629E+03  0.12015729064E+04  0.25500000920E-02 0. -1.
</event>
<event>
 5   0  0.4664127E-05  0.2516679E+04  0.7818609E-02  0.8397067E-01
       -2   -1    0    0    0  501  0.00000000000E+00  0.00000000000E+00  0.15334548683E+04  0.15334548683E+04  0.25500000920E-02 0.  1.
        2   -1    0    0  501    0  0.00000000000E+00  0.00000000000E+00 -0.10325824879E+04  0.10325824879E+04  0.25500000920E-02 0. -1.
    10030    2    1    2    0    0  0.00000000000E+00  0.00000000000E+00  0.50087238038E+03  0.25660373562E+04  0.25166792747E+04 0.  0.
        4    1    3    3  502    0  0.24010356823E+03 -0.10804287970E+04 -0.36000508978E+03  0.11638648489E+04  0.12699999809E+01 0. -1.
       -4    1    3    3    0  502 -0.24010356823E+03  0.10804287970E+04  0.86087747016E+03  0.14021725073E+04  0.12699999809E+01 0.  1.
</event>
<event>
 5   0  0.2149920E-05  0.2402872E+04  0.7818609E-02  0.8438429E-01
        1   -1    0    0  501    0  0.00000000000E+00  0.00000000000E+00  0.16099672899E+04  0.16099672899E+04  0.50400001928E-02 0. -1.
       -1   -1    0    0    0  501  0.00000000000E+00  0.00000000000E+00 -0.89657005121E+03  0.89657005123E+03  0.50400001928E-02 0.  1.
    10030    2    1    2    0    0  0.00000000000E+00  0.00000000000E+00  0.71339723866E+03  0.25065373411E+04  0.24028719946E+04 0.  0.
        5    1    3    3  502    0 -0.71634652840E+03 -0.42328638286E+03 -0.54735292350E+03  0.99596236050E+03  0.46999998093E+01 0.  1.
       -5    1    3    3    0  502  0.71634652840E+03  0.42328638286E+03  0.12607501622E+04  0.15105749806E+04  0.46999998093E+01 0. -1.
</event>
<event>
 5   0  0.4664127E-05  0.2343665E+04  0.7818609E-02  0.8460901E-01
        2   -1    0    0  501    0  0.00000000000E+00  0.00000000000E+00  0.20580802522E+04  0.20580802522E+04  0.25500000920E-02 0. -1.
       -2   -1    0    0    0  501  0.00000000000E+00  0.00000000000E+00 -0.66721944489E+03  0.66721944489E+03  0.25500000920E-02 0.  1.
    10030    2    1    2    0    0  0.00000000000E+00  0.00000000000E+00  0.13908608073E+04  0.27252996971E+04  0.23436647912E+04 0.  0.
        4    1    3    3  502    0 -0.82795738653E+03  0.74872568615E+03  0.11099714748E+04  0.15742115089E+04  0.12699999809E+01 0. -1.
       -4    1    3    3    0  502  0.82795738653E+03 -0.74872568615E+03  0.28088933254E+03  0.11510881882E+04  0.12699999809E+01 0.  1.
</event>
<event>
 5   0  0.4664127E-05  0.2339094E+04  0.7818609E-02  0.8462665E-01
       -2   -1    0    0    0  501  0.00000000000E+00  0.00000000000E+00  0.10050754568E+04  0.10050754568E+04  0.25500000920E-02 0. -1.
        2   -1    0    0  501    0  0.00000000000E+00  0.00000000000E+00 -0.13609324538E+04  0.13609324538E+04  0.25500000920E-02 0.  1.
    10030    2    1    2    0    0  0.00000000000E+00  0.00000000000E+00 -0.35585699699E+03  0.23660079106E+04  0.23390936772E+04 0.  0.
        4    1    3    3  502    0 -0.81105418559E+02  0.10817849352E+04  0.26413730461E+03  0.11165155008E+04  0.12699999809E+01 0. -1.
       -4    1    3    3    0  502  0.81105418559E+02 -0.10817849352E+04 -0.61999430160E+03  0.12494924097E+04  0.12699999809E+01 0.  1.
</event>
<event>
 5   0  0.4756705E-05  0.2422982E+04  0.7818609E-02  0.8430949E-01
       -2   -1    0    0    0  501  0.00000000000E+00  0.00000000000E+00  0.11780981807E+04  0.11780981807E+04  0.25500000920E-02 0. -1.
        2   -1    0    0  501    0  0.00000000000E+00  0.00000000000E+00 -0.12458303643E+04  0.12458303643E+04  0.25500000920E-02 0.  1.
    10030    2    1    2    0    0  0.00000000000E+00  0.00000000000E+00 -0.67732183570E+02  0.24239285450E+04  0.24229820351E+04 0.  0.
        3    1    3    3  502    0 -0.34820670479E+03 -0.27830447129E+03 -0.11608092263E+04  0.12434546064E+04  0.10100000352E+00 0.  1.
       -3    1    3    3    0  502  0.34820670479E+03  0.27830447129E+03  0.10930770428E+04  0.11804739386E+04  0.10100000352E+00 0. -1.
</event>
<event>
 5   0  0.2139556E-05  0.2401401E+04  0.7818609E-02  0.8438979E-01
        1   -1    0    0  501    0  0.00000000000E+00  0.00000000000E+00  0.19456193409E+04  0.19456193409E+04  0.50400001928E-02 0.  1.
       -1   -1    0    0    0  501  0.00000000000E+00  0.00000000000E+00 -0.74098835175E+03  0.74098835177E+03  0.50400001928E-02 0. -1.
    10030    2    1    2    0    0  0.00000000000E+00  0.00000000000E+00  0.12046309891E+04  0.26866076926E+04  0.24014006484E+04 0.  0.
        2    1    3    3  502    0  0.11906864144E+04  0.15402303029E+03  0.58556992907E+03  0.13357954084E+04  0.25500000920E-02 0.  1.
       -2    1    3    3    0  502 -0.11906864144E+04 -0.15402303029E+03  0.61906106003E+03  0.13508122842E+04  0.25500000920E-02 0. -1.
</event>
<event>
 5   0  0.2090039E-05  0.2422713E+04  0.7818609E-02  0.8431049E-01
        1   -1    0    0  501    0  0.00000000000E+00  0.00000000000E+00  0.10478041853E+04  0.10478041853E+04  0.50400001928E-02 0. -1.
       -1   -1    0    0    0  501  0.00000000000E+00  0.00000000000E+00 -0.14004381980E+04  0.14004381980E+04  0.50400001928E-02 0.  1.
    10030    2    1    2    0    0  0.00000000000E+00  0.00000000000E+00 -0.35263401277E+03  0.24482423833E+04  0.24227133591E+04 0.  0.
        1    1    3    3  502    0 -0.16309663446E+03 -0.10245283913E+04 -0.80830781063E+03  0.13151503540E+04  0.50400001928E-02 0. -1.
       -1    1    3    3    0  502  0.16309663446E+03  0.10245283913E+04  0.45567379786E+03  0.11330920293E+04  0.50400001928E-02 0.  1.
</event>
<event>
 5   0  0.2149920E-05  0.2432633E+04  0.7818609E-02  0.8427386E-01
       -1   -1    0    0    0  501  0.00000000000E+00  0.00000000000E+00  0.68998232890E+03  0.68998232892E+03  0.50400001928E-02 0.  1.
        1   -1    0    0  501    0  0.00000000000E+00  0.00000000000E+00 -0.21441503182E+04  0.21441503182E+04  0.50400001928E-02 0. -1.
    10030    2    1    2    0    0  0.00000000000E+00  0.00000000000E+00 -0.14541679893E+04  0.28341326472E+04  0.24326330016E+04 0.  0.
        5    1    3    3  502    0  0.12091871226E+04 -0.99829394572E+02 -0.62751275686E+03  0.13659772164E+04  0.46999998093E+01 0.  1.
       -5    1    3    3    0  502 -0.12091871226E+04  0.99829394572E+02 -0.82665523246E+03  0.14681554308E+04  0.46999998093E+01 0. -1.
</event>
<event>
 5   0  0.4856882E-05  0.2430513E+04  0.7818609E-02  0.8428168E-01
       -2   -1    0    0    0  501  0.00000000000E+00  0.00000000000E+00  0.65931766349E+03  0.65931766350E+03  0.25500000920E-02 0. -1.
        2   -1    0    0  501    0  0.00000000000E+00  0.00000000000E+00 -0.22399645097E+04  0.22399645097E+04  0.25500000920E-02 0.  1.
    10030    2    1    2    0    0  0.00000000000E+00  0.00000000000E+00 -0.15806468463E+04  0.28992821732E+04  0.24305128404E+04 0.  0.
        1    1    3    3  502    0  0.96397294696E+03 -0.47696108541E+03 -0.14652302890E+04  0.18175905808E+04  0.50400001928E-02 0.  1.
       -1    1    3    3    0  502 -0.96397294696E+03  0.47696108541E+03 -0.11541655722E+03  0.10816915924E+04  0.50400001928E-02 0. -1.
</event>
<event>
 5   0  0.4713971E-05  0.2384320E+04  0.7818609E-02  0.8445397E-01
        2   -1    0    0  501    0  0.00000000000E+00  0.00000000000E+00  0.14084889544E+04  0.14084889544E+04  0.25500000920E-02 0.  1.
       -2   -1    0    0    0  501  0.00000000000E+00  0.00000000000E+00 -0.10090572841E+04  0.10090572842E+04  0.25500000920E-02 0. -1.
    10030    2    1    2    0    0  0.00000000000E+00  0.00000000000E+00  0.39943167030E+03  0.24175462386E+04  0.23843204811E+04 0.  0.
        5    1    3    3  502    0 -0.57303113136E+03  0.70958042967E+03  0.97810826552E+03  0.13373806237E+04  0.46999998093E+01 0.  1.
       -5    1    3    3    0  502  0.57303113136E+03 -0.70958042967E+03 -0.57867659522E+03  0.10801656149E+04  0.46999998093E+01 0. -1.
</event>
<event>
 5   0  0.4664127E-05  0.2564021E+04  0.7818609E-02  0.8380526E-01
        2   -1    0    0  501    0  0.00000000000E+00  0.00000000000E+00  0.23644479664E+04  0.23644479664E+04  0.25500000920E-02 0.  1.
       -2   -1    0    0    0  501  0.00000000000E+00  0.00000000000E+00 -0.69510979959E+03  0.69510979959E+03  0.25500000920E-02 0. -1.
    10030    2    1    2    0    0  0.00000000000E+00  0.00000000000E+00  0.16693381668E+04  0.30595577660E+04  0.25640210234E+04 0.  0.
        4    1    3    3  502    0  0.59059615016E+02  0.61759148788E+03 -0.50404611790E+03  0.79935685767E+03  0.12699999809E+01 0. -1.
       -4    1    3    3    0  502 -0.59059615016E+02 -0.61759148788E+03  0.21733842847E+04  0.22602009083E+04  0.12699999809E+01 0.  1.
</event>
<event>
 5   0  0.2149920E-05  0.2437068E+04  0.7818609E-02  0.8425755E-01
       -1   -1    0    0    0  501  0.00000000000E+00  0.00000000000E+00  0.12521767926E+04  0.12521767926E+04  0.50400001928E-02 0.  1.
        1   -1    0    0  501    0  0.00000000000E+00  0.00000000000E+00 -0.11857946612E+04  0.11857946612E+04  0.50400001928E-02 0. -1.
    10030    2    1    2    0    0  0.00000000000E+00  0.00000000000E+00  0.66382131385E+02  0.24379714538E+04  0.24370675457E+04 0.  0.
        5    1    3    3  502    0 -0.45401117005E+03  0.10532086451E+03 -0.10930967778E+04  0.11883186789E+04  0.46999998093E+01 0. -1.
       -5    1    3    3    0  502  0.45401117005E+03 -0.10532086451E+03  0.11594789092E+04  0.12496527749E+04  0.46999998093E+01 0.  1.
</event>
<event>
 5   0  0.2090039E-05  0.2385030E+04  0.7818609E-02  0.8445129E-01
       -1   -1    0    0    0  501  0.00000000000E+00  0.00000000000E+00  0.57688955359E+03  0.57688955361E+03  0.50400001928E-02 0. -1.
        1   -1    0    0  501    0  0.00000000000E+00  0.00000000000E+00 -0.24651025567E+04  0.24651025567E+04  0.50400001928E-02 0.  1.
    10030    2    1    2    0    0  0.00000000000E+00  0.00000000000E+00 -0.18882130031E+04  0.30419921103E+04  0.23850299063E+04 0.  0.
        1    1    3    3  502    0 -0.78527297430E+03 -0.35551557080E+02  0.19966524454E+03  0.81103869654E+03  0.50400001928E-02 0. -1.
       -1    1    3    3    0  502  0.78527297430E+03  0.35551557080E+02 -0.20878782476E+04  0.22309534137E+04  0.50400001928E-02 0.  1.
</event>
<event>
 5   0  0.2139556E-05  0.2428609E+04  0.7818609E-02  0.8428870E-01
       -1   -1    0    0    0  501  0.00000000000E+00  0.00000000000E+00  0.11932721747E+04  0.11932721747E+04  0.50400001928E-02 0.  1.
        1   -1    0    0  501    0  0.00000000000E+00  0.00000000000E+00 -0.12357072103E+04  0.12357072103E+04  0.50400001928E-02 0. -1.
    10030    2    1    2    0    0  0.00000000000E+00  0.00000000000E+00 -0.42435035535E+02  0.24289793850E+04  0.24286086800E+04 0.  0.
        2    1    3    3  502    0  0.12013633403E+04  0.17636989779E+03 -0.87731928883E+01  0.12142722862E+04  0.25500000920E-02 0. -1.
       -2    1    3    3    0  502 -0.12013633403E+04 -0.17636989779E+03 -0.33661842647E+02  0.12147070988E+04  0.25500000920E-02 0.  1.
</event>
<event>
 5   0  0.2139556E-05  0.2396636E+04  0.7818609E-02  0.8440764E-01
        1   -1    0    0  501    0  0.00000000000E+00  0.00000000000E+00  0.65274409677E+03  0.65274409679E+03  0.50400001928E-02 0. -1.
       -1   -1    0    0    0  501  0.00000000000E+00  0.00000000000E+00 -0.21998920751E+04  0.21998920751E+04  0.50400001928E-02 0.  1.
    10030    2    1    2    0    0  0.00000000000E+00  0.00000000000E+00 -0.15471479783E+04  0.28526361719E+04  0.23966364477E+04 0.  0.
        2    1    3    3  502    0 -0.47881314377E+03  0.10957225421E+04 -0.68063673284E+03  0.13759128889E+04  0.25500000920E-02 0. -1.
       -2    1    3    3    0  502  0.47881314377E+03 -0.10957225421E+04 -0.86651124548E+03  0.14767232829E+04  0.25500000920E-02 0.  1.
</event>
<event>
 5   0  0.2149920E-05  0.2460983E+04  0.7818609E-02  0.8417019E-01
       -1   -1    0    0    0  501  0.00000000000E+00  0.00000000000E+00  0.16482763412E+04  0.16482763412E+04  0.50400001928E-02 0.  1.
        1   -1    0    0  501    0  0.00000000000E+00  0.00000000000E+00 -0.91860150073E+03  0.91860150074E+03  0.50400001928E-02 0. -1.
    10030    2    1    2    0    0  0.00000000000E+00  0.00000000000E+00  0.72967484050E+03  0.25668778420E+04  0.24609828286E+04 0.  0.
        5    1    3    3  502    0  0.10025794402E+02  0.50298707663E+03  0.15360953050E+04  0.16163871417E+04  0.46999998093E+01 0.  1.
       -5    1    3    3    0  502 -0.10025794402E+02 -0.50298707663E+03 -0.80642046448E+03  0.95049070030E+03  0.46999998093E+01 0. -1.
</event>
<event>
 5   0  0.4856882E-05  0.2420227E+04  0.7818609E-02  0.8431970E-01
       -2   -1    0    0    0  501  0.00000000000E+00  0.00000000000E+00  0.95633878833E+03  0.95633878833E+03  0.25500000920E-02 0. -1.
        2   -1    0    0  501    0  0.00000000000E+00  0.00000000000E+00 -0.15312294979E+04  0.15312294979E+04  0.25500000920E-02 0.  1.
    10030    2    1    2    0    0  0.00000000000E+00  0.00000000000E+00 -0.57489070958E+03  0.24875682862E+04  0.24202265701E+04 0.  0.
        1    1    3    3  502    0 -0.95789392779E+03  0.29369713449E+03  0.41007986783E+03  0.10825822286E+04  0.50400001928E-02 0. -1.
       -1    1    3    3    0  502  0.95789392779E+03 -0.29369713449E+03 -0.98497057740E+03  0.14049860576E+04  0.50400001928E-02 0.  1.
</event>
<event>
 5   0  0.2139556E-05  0.2353478E+04  0.7818609E-02  0.8457129E-01
       -1   -1    0    0    0  501  0.00000000000E+00  0.00000000000E+00  0.60436965015E+03  0.60436965017E+03  0.50400001928E-02 0.  1.
        1   -1    0    0  501    0  0.00000000000E+00  0.00000000000E+00 -0.22911724976E+04  0.22911724976E+04  0.50400001928E-02 0. -1.
    10030    2    1    2    0    0  0.00000000000E+00  0.00000000000E+00 -0.16868028475E+04  0.28955421478E+04  0.23534783796E+04 0.  0.
        2    1    3    3  502    0 -0.79577314717E+03  0.70044441519E+03 -0.14717562799E+04  0.18138202303E+04  0.25500000920E-02 0.  1.
       -2    1    3    3    0  502  0.79577314717E+03 -0.70044441519E+03 -0.21504656760E+03  0.10817219175E+04  0.25500000920E-02 0. -1.
</event>
<event>
 5   0  0.2090039E-05  0.2394538E+04  0.7818609E-02  0.8441551E-01
       -1   -1    0    0    0  501  0.00000000000E+00  0.00000000000E+00  0.72904596874E+03  0.72904596876E+03  0.50400001928E-02 0. -1.
        1   -1    0    0  501    0  0.00000000000E+00  0.00000000000E+00 -0.19662035443E+04  0.19662035443E+04  0.50400001928E-02 0.  1.
    10030    2    1    2    0    0  0.00000000000E+00  0.00000000000E+00 -0.12371575756E+04  0.26952495131E+04  0.23945377573E+04 0.  0.
        1    1    3    3  502    0  0.50381897608E+03 -0.52723486558E+03 -0.16873739985E+04  0.18382168465E+04  0.50400001928E-02 0.  1.
       -1    1    3    3    0  502 -0.50381897608E+03  0.52723486558E+03  0.45021642286E+03  0.85703266658E+03  0.50400001928E-02 0. -1.
</event>
<event>
 5   0  0.4664127E-05  0.2407254E+04  0.7818609E-02  0.8436793E-01
        2   -1    0    0  501    0  0.00000000000E+00  0.00000000000E+00  0.63551897453E+03  0.63551897454E+03  0.25500000920E-02 0. -1.
       -2   -1    0    0    0  501  0.00000000000E+00  0.00000000000E+00 -0.22795823432E+04  0.22795823432E+04  0.25500000920E-02 0.  1.
    10030    2    1    2    0    0  0.00000000000E+00  0.00000000000E+00 -0.16440633687E+04  0.29151013178E+04  0.24072538986E+04 0.  0.
        4    1    3    3  502    0  0.38286638174E+03 -0.11161808276E+04 -0.11092881954E+04  0.16195580321E+04  0.12699999809E+01 0. -1.
       -4    1    3    3    0  502 -0.38286638174E+03  0.11161808276E+04 -0.53477517334E+03  0.12955432857E+04  0.12699999809E+01 0.  1.
</event>
<event>
 5   0  0.2149920E-05  0.2346644E+04  0.7818609E-02  0.8459754E-01
       -1   -1    0    0    0  501  0.00000000000E+00  0.00000000000E+00  0.71169435842E+03  0.71169435844E+03  0.50400001928E-02 0. -1.
        1   -1    0    0  501    0  0.00000000000E+00  0.00000000000E+00 -0.19343753966E+04  0.19343753966E+04  0.50400001928E-02 0.  1.
    10030    2    1    2    0    0  0.00000000000E+00  0.00000000000E+00 -0.12226810382E+04  0.26460697551E+04  0.23466436090E+04 0.  0.
        5    1    3    3  502    0  0.56581193766E+03 -0.41093491065E+03  0.45102839068E+03  0.83214142355E+03  0.46999998093E+01 0. -1.
       -5    1    3    3    0  502 -0.56581193766E+03  0.41093491065E+03 -0.16737094289E+04  0.18139283315E+04  0.46999998093E+01 0.  1.
</event>
<event>
 5   0  0.2149920E-05  0.2401143E+04  0.7818609E-02  0.8439076E-01
        1   -1    0    0  501    0  0.00000000000E+00  0.00000000000E+00  0.26535337733E+04  0.26535337733E+04  0.50400001928E-02 0. -1.
       -1   -1    0    0    0  501  0.00000000000E+00  0.00000000000E+00 -0.54318970540E+03  0.54318970543E+03  0.50400001928E-02 0.  1.
    10030    2    1    2    0    0  0.00000000000E+00  0.00000000000E+00  0.21103440679E+04  0.31967234788E+04  0.24011432516E+04 0.  0.
        5    1    3    3  502    0  0.36307223571E+03  0.17827204893E+02 -0.46815027778E+03  0.59272761886E+03  0.46999998093E+01 0.  1.
       -5    1    3    3    0  502 -0.36307223571E+03 -0.17827204893E+02  0.25784943457E+04  0.26039958599E+04  0.46999998093E+01 0. -1.
</event>
<event>
 5   0  0.2139556E-05  0.2516484E+04  0.7818609E-02  0.8397136E-01
       -1   -1    0    0    0  501  0.00000000000E+00  0.00000000000E+00  0.62717120848E+03  0.62717120850E+03  0.50400001928E-02 0. -1.
        1   -1    0    0  501    0  0.00000000000E+00  0.00000000000E+00 -0.25243081906E+04  0.25243081906E+04  0.50400001928E-02 0.  1.
    10030    2    1    2    0    0  0.00000000000E+00  0.00000000000E+00 -0.18971369821E+04  0.31514793991E+04  0.25164843878E+04 0.  0.
        2    1    3    3  502    0 -0.36370225933E+03  0.25945200444E+03 -0.24216343789E+04  0.24625003027E+04  0.25500000920E-02 0.  1.
       -2    1    3    3    0  502  0.36370225933E+03 -0.25945200444E+03  0.52449739674E+03  0.68897909637E+03  0.25500000920E-02 0. -1.
</event>
<event>
 5   0  0.4856882E-05  0.2382238E+04  0.7818609E-02  0.8446184E-01
        2   -1    0    0  501    0  0.00000000000E+00  0.00000000000E+00  0.14388395808E+04  0.14388395808E+04  0.25500000920E-02 0. -1.
       -2   -1    0    0    0  501  0.00000000000E+00  0.00000000000E+00 -0.98604734763E+03  0.98604734763E+03  0.25500000920E-02 0.  1.
    10030    2    1    2    0    0  0.00000000000E+00  0.00000000000E+00  0.45279223321E+03  0.24248869285E+04  0.23822375636E+04 0.  0.
        1    1    3    3  502    0  0.65216657055E+03 -0.68128564723E+03  0.96694601781E+03  0.13507242392E+04  0.50400001928E-02 0. -1.
       -1    1    3    3    0  502 -0.65216657055E+03  0.68128564723E+03 -0.51415378460E+03  0.10741626893E+04  0.50400001928E-02 0.  1.
</event>
<event>
 5   0  0.2057599E-05  0.2424394E+04  0.7818609E-02  0.8430427E-01
       -1   -1    0    0    0  501  0.00000000000E+00  0.00000000000E+00  0.68056459828E+03  0.68056459830E+03  0.50400001928E-02 0. -1.
        1   -1    0    0  501    0  0.00000000000E+00  0.00000000000E+00 -0.21591219092E+04  0.21591219092E+04  0.50400001928E-02 0.  1.
    10030    2    1    2    0    0  0.00000000000E+00  0.00000000000E+00 -0.14785573110E+04  0.28396865075E+04  0.24243943036E+04 0.  0.
        4    1    3    3  502    0 -0.32097606406E+03 -0.74614946245E+03 -0.17932221397E+04  0.19686065908E+04  0.12699999809E+01 0.  1.
       -4    1    3    3    0  502  0.32097606406E+03  0.74614946245E+03  0.31466482877E+03  0.87107991675E+03  0.12699999809E+01 0. -1.
</event>
<event>
 5   0  0.4856882E-05  0.2391552E+04  0.7818609E-02  0.8442673E-01
        2   -1    0    0  501    0  0.00000000000E+00  0.00000000000E+00  0.16080807202E+04  0.16080807202E+04  0.25500000920E-02 0. -1.
       -2   -1    0    0    0  501  0.00000000000E+00  0.00000000000E+00 -0.88918400347E+03  0.88918400347E+03  0.25500000920E-02 0.  1.
    10030    2    1    2    0    0  0.00000000000E+00  0.00000000000E+00  0.71889671677E+03  0.24972647237E+04  0.23915515071E+04 0.  0.
        1    1    3    3  502    0 -0.41381699476E+03 -0.90260754972E+02 -0.80823376874E+03  0.91248744320E+03  0.50400001928E-02 0.  1.
       -1    1    3    3    0  502  0.41381699476E+03  0.90260754972E+02  0.15271304855E+04  0.15847772805E+04  0.50400001928E-02 0. -1.
</event>
<event>
 5   0  0.4756705E-05  0.2342755E+04  0.7818609E-02  0.8461251E-01
        2   -1    0    0  501    0  0.00000000000E+00  0.00000000000E+00  0.14044001598E+04  0.14044001598E+04  0.25500000920E-02 0. -1.
       -2   -1    0    0    0  501  0.00000000000E+00  0.00000000000E+00 -0.97701910969E+03  0.97701910969E+03  0.25500000920E-02 0.  1.
    10030    2    1    2    0    0  0.00000000000E+00  0.00000000000E+00  0.42738105015E+03  0.23814192695E+04  0.23427554664E+04 0.  0.
        3    1    3    3  502    0  0.28653635429E+02 -0.11697168988E+04  0.15739485906E+03  0.11806065416E+04  0.10100000352E+00 0.  1.
       -3    1    3    3    0  502 -0.28653635429E+02  0.11697168988E+04  0.26998619110E+03  0.12008127280E+04  0.10100000352E+00 0. -1.
</event>
<event>
 5   0  0.4756705E-05  0.2411506E+04  0.7818609E-02  0.8435208E-01
        2   -1    0    0  501    0  0.00000000000E+00  0.00000000000E+00  0.96429917998E+03  0.96429917998E+03  0.25500000920E-02 0.  1.
       -2   -1    0    0    0  501  0.00000000000E+00  0.00000000000E+00 -0.15076650517E+04  0.15076650517E+04  0.25500000920E-02 0. -1.
    10030    2    1    2    0    0  0.00000000000E+00  0.00000000000E+00 -0.54336587172E+03  0.24719642317E+04  0.24115058972E+04 0.  0.
        3    1    3    3  502    0  0.11485943176E+04 -0.32526090431E+01 -0.64770465932E+03  0.13186359702E+04  0.10100000352E+00 0.  1.
       -3    1    3    3    0  502 -0.11485943176E+04  0.32526090431E+01  0.10433878761E+03  0.11533282615E+04  0.10100000352E+00 0. -1.
</event>
<event>
 5   0  0.2090039E-05  0.2376852E+04  0.7818609E-02  0.8448221E-01
        1   -1    0    0  501    0  0.00000000000E+00  0.00000000000E+00  0.17681709247E+04  0.17681709247E+04  0.50400001928E-02 0.  1.
       -1   -1    0    0    0  501  0.00000000000E+00  0.00000000000E+00 -0.79876686724E+03  0.79876686726E+03  0.50400001928E-02 0. -1.
    10030    2    1    2    0    0  0.00000000000E+00  0.00000000000E+00  0.96940405749E+03  0.25669377920E+04  0.23768519940E+04 0.  0.
        1    1    3    3  502    0  0.56682844248E+03 -0.99447001844E+03  0.13963182166E+03  0.11531531323E+04  0.50400001928E-02 0. -1.
       -1    1    3    3    0  502 -0.56682844248E+03  0.99447001844E+03  0.82977223583E+03  0.14137846598E+04  0.50400001928E-02 0.  1.
</event>
<event>
 5   0  0.2149920E-05  0.2374386E+04  0.7818609E-02  0.8449156E-01
        1   -1    0    0  501    0  0.00000000000E+00  0.00000000000E+00  0.16853182052E+04  0.16853182052E+04  0.50400001928E-02 0.  1.
       -1   -1    0    0    0  501  0.00000000000E+00  0.00000000000E+00 -0.83629738703E+03  0.83629738704E+03  0.50400001928E-02 0. -1.
    10030    2    1    2    0    0  0.00000000000E+00  0.00000000000E+00  0.84902081821E+03  0.25216155923E+04  0.23743859934E+04 0.  0.
        5    1    3    3  502    0  0.86639025870E+03  0.22508965781E+03 -0.40365637169E+03  0.98196638986E+03  0.46999998093E+01 0. -1.
       -5    1    3    3    0  502 -0.86639025870E+03 -0.22508965781E+03  0.12526771899E+04  0.15396492024E+04  0.46999998093E+01 0.  1.
</event>
<event>
 5   0  0.4756705E-05  0.2426794E+04  0.7818609E-02  0.8429540E-01
       -2   -1    0    0    0  501  0.00000000000E+00  0.00000000000E+00  0.87911111561E+03  0.87911111562E+03  0.25500000920E-02 0. -1.
        2   -1    0    0  501    0  0.00000000000E+00  0.00000000000E+00 -0.16747967490E+04  0.16747967490E+04  0.25500000920E-02 0.  1.
    10030    2    1    2    0    0  0.00000000000E+00  0.00000000000E+00 -0.79568563336E+03  0.25539078646E+04  0.24267941309E+04 0.  0.
        3    1    3    3  502    0 -0.11887529708E+04  0.22223015351E+03 -0.50208979801E+03  0.13094327177E+04  0.10100000352E+00 0. -1.
       -3    1    3    3    0  502  0.11887529708E+04 -0.22223015351E+03 -0.29359583536E+03  0.12444751469E+04  0.10100000352E+00 0.  1.
</event>
<event>
 5   0  0.2149920E-05  0.2418875E+04  0.7818609E-02  0.8432471E-01
        1   -1    0    0  501    0  0.00000000000E+00  0.00000000000E+00  0.16919532695E+04  0.16919532695E+04  0.50400001928E-02 0.  1.
       -1   -1    0    0    0  501  0.00000000000E+00  0.00000000000E+00 -0.86452705189E+03  0.86452705190E+03  0.50400001928E-02 0. -1.
    10030    2    1    2    0    0  0.00000000000E+00  0.00000000000E+00  0.82742621761E+03  0.25564803214E+04  0.24188752527E+04 0.  0.
        5    1    3    3  502    0 -0.56575859382E+03  0.10667483575E+04  0.48603420011E+03  0.13016474862E+04  0.46999998093E+01 0. -1.
       -5    1    3    3    0  502  0.56575859382E+03 -0.10667483575E+04  0.34139201750E+03  0.12548328352E+04  0.46999998093E+01 0.  1.
</event>
<event>
 5   0  0.4914005E-05  0.2347357E+04  0.7818609E-02  0.8459480E-01
        2   -1    0    0  501    0  0.00000000000E+00  0.00000000000E+00  0.19752463379E+04  0.19752463379E+04  0.25500000920E-02 0.  1.
       -2   -1    0    0    0  501  0.00000000000E+00  0.00000000000E+00 -0.69739199689E+03  0.69739199690E+03  0.25500000920E-02 0. -1.
    10030    2    1    2    0    0  0.00000000000E+00  0.00000000000E+00  0.12778543410E+04  0.26726383348E+04  0.23473568011E+04 0.  0.
        2    1    3    3  502    0  0.61190623385E+02  0.11656036634E+04  0.49880953833E+03  0.12693254697E+04  0.25500000920E-02 0. -1.
       -2    1    3    3    0  502 -0.61190623385E+02 -0.11656036634E+04  0.77904480268E+03  0.14033128650E+04  0.25500000920E-02 0.  1.
</event>
<event>
 5   0  0.2090039E-05  0.2411630E+04  0.7818609E-02  0.8435162E-01
       -1   -1    0    0    0  501  0.00000000000E+00  0.00000000000E+00  0.73679822668E+03  0.73679822670E+03  0.50400001928E-02 0. -1.
        1   -1    0    0  501    0  0.00000000000E+00  0.00000000000E+00 -0.19733898786E+04  0.19733898786E+04  0.50400001928E-02 0.  1.
    10030    2    1    2    0    0  0.00000000000E+00  0.00000000000E+00 -0.12365916519E+04  0.27101881053E+04  0.24116302893E+04 0.  0.
        1    1    3    3  502    0 -0.11418539987E+04  0.38323892541E+03 -0.55386052065E+03  0.13256938201E+04  0.50400001928E-02 0. -1.
       -1    1    3    3    0  502  0.11418539987E+04 -0.38323892541E+03 -0.68273113123E+03  0.13844942852E+04  0.50400001928E-02 0.  1.
</event>
<event>
 5   0  0.2090039E-05  0.2416658E+04  0.7818609E-02  0.8433293E-01
       -1   -1    0    0    0  501  0.00000000000E+00  0.00000000000E+00  0.72796530126E+03  0.72796530128E+03  0.50400001928E-02 0.  1.
        1   -1    0    0  501    0  0.00000000000E+00  0.00000000000E+00 -0.20056711937E+04  0.20056711937E+04  0.50400001928E-02 0. -1.
    10030    2    1    2    0    0  0.00000000000E+00  0.00000000000E+00 -0.12777058924E+04  0.27336364949E+04  0.24166580517E+04 0.  0.
        1    1    3    3  502    0  0.91371328504E+03  0.17899771211E+03 -0.15100305211E+04  0.17740079828E+04  0.50400001928E-02 0. -1.
       -1    1    3    3    0  502 -0.91371328504E+03 -0.17899771211E+03  0.23232462873E+03  0.95962851216E+03  0.50400001928E-02 0.  1.
</event>
<event>
 5   0  0.2057599E-05  0.2382366E+04  0.7818609E-02  0.8446135E-01
        1   -1    0    0  501    0  0.00000000000E+00  0.00000000000E+00  0.10828371901E+04  0.10828371901E+04  0.50400001928E-02 0. -1.
       -1   -1    0    0    0  501  0.00000000000E+00  0.00000000000E+00 -0.13103699716E+04  0.13103699716E+04  0.50400001928E-02 0.  1.
    10030    2    1    2    0    0  0.00000000000E+00  0.00000000000E+00 -0.22753278152E+03  0.23932071617E+04  0.23823663345E+04 0.  0.
        4    1    3    3  502    0 -0.73391240164E+03  0.75829959873E+03  0.44126025766E+03  0.11438347445E+04  0.12699999809E+01 0. -1.
       -4    1    3    3    0  502  0.73391240164E+03 -0.75829959873E+03 -0.66879303917E+03  0.12493724172E+04  0.12699999809E+01 0.  1.
</event>
<event>
 5   0  0.4664127E-05  0.2393937E+04  0.7818609E-02  0.8441777E-01
       -2   -1    0    0    0  501  0.00000000000E+00  0.00000000000E+00  0.71322472441E+03  0.71322472442E+03  0.25500000920E-02 0.  1.
        2   -1    0    0  501    0  0.00000000000E+00  0.00000000000E+00 -0.20088102807E+04  0.20088102807E+04  0.25500000920E-02 0. -1.
    10030    2    1    2    0    0  0.00000000000E+00  0.00000000000E+00 -0.12955855563E+04  0.27220350052E+04  0.23939366398E+04 0.  0.
        4    1    3    3  502    0  0.13393193365E+03 -0.46223301181E+03 -0.18939615427E+04  0.19541466317E+04  0.12699999809E+01 0. -1.
       -4    1    3    3    0  502 -0.13393193365E+03  0.46223301181E+03  0.59837598640E+03  0.76788837343E+03  0.12699999809E+01 0.  1.
</event>
<event>
 5   0  0.2065692E-05  0.2225264E+04  0.7818609E-02  0.8507986E-01
        1   -1    0    0  501    0  0.00000000000E+00  0.00000000000E+00  0.15132061932E+04  0.15132061932E+04  0.50400001928E-02 0.  1.
       -1   -1    0    0    0  501  0.00000000000E+00  0.00000000000E+00 -0.81809731969E+03  0.81809731970E+03  0.50400001928E-02 0. -1.
    10030    2    1    2    0    0  0.00000000000E+00  0.00000000000E+00  0.69510887351E+03  0.23313035129E+04  0.22252639671E+04 0.  0.
        3    1    3    3  502    0 -0.42815393604E+03  0.37479074792E+03 -0.65412744946E+03  0.86698709795E+03  0.10100000352E+00 0. -1.
       -3    1    3    3    0  502  0.42815393604E+03 -0.37479074792E+03  0.13492363230E+04  0.14643164150E+04  0.10100000352E+00 0.  1.
</event>
<event>
 5   0  0.2149920E-05  0.2398689E+04  0.7818609E-02  0.8439994E-01
       -1   -1    0    0    0  501  0.00000000000E+00  0.00000000000E+00  0.11104308588E+04  0.11104308588E+04  0.50400001928E-02 0.  1.
        1   -1    0    0  501    0  0.00000000000E+00  0.00000000000E+00 -0.12953777664E+04  0.12953777664E+04  0.50400001928E-02 0. -1.
    10030    2    1    2    0    0  0.00000000000E+00  0.00000000000E+00 -0.18494690764E+03  0.24058086252E+04  0.23986891800E+04 0.  0.
        5    1    3    3  502    0  0.15591363504E+03  0.16624861240E+03 -0.12734476603E+04  0.12936918861E+04  0.46999998093E+01 0. -1.
       -5    1    3    3    0  502 -0.15591363504E+03 -0.16624861240E+03  0.10885007527E+04  0.11121167390E+04  0.46999998093E+01 0.  1.
</event>
<event>
 5   0  0.2057599E-05  0.2388805E+04  0.7818609E-02  0.8443707E-01
        1   -1    0    0  501    0  0.00000000000E+00  0.00000000000E+00  0.14476599182E+04  0.14476599182E+04  0.50400001928E-02 0. -1.
       -1   -1    0    0    0  501  0.00000000000E+00  0.00000000000E+00 -0.98545082707E+03  0.98545082708E+03  0.50400001928E-02 0.  1.
    10030    2    1    2    0    0  0.00000000000E+00  0.00000000000E+00  0.46220909117E+03  0.24331107453E+04  0.23888052778E+04 0.  0.
        4    1    3    3  502    0  0.90076464811E+03 -0.27516402591E+03 -0.51702775245E+03  0.10744354341E+04  0.12699999809E+01 0.  1.
       -4    1    3    3    0  502 -0.90076464811E+03  0.27516402591E+03  0.97923684362E+03  0.13586753112E+04  0.12699999809E+01 0. -1.
</event>
<event>
 5   0  0.4914005E-05  0.2428921E+04  0.7818609E-02  0.8428755E-01
       -2   -1    0    0    0  501  0.00000000000E+00  0.00000000000E+00  0.53975403371E+03  0.53975403372E+03  0.25500000920E-02 0.  1.
        2   -1    0    0  501    0  0.00000000000E+00  0.00000000000E+00 -0.27325672880E+04  0.27325672880E+04  0.25500000920E-02 0. -1.
    10030    2    1    2    0    0  0.00000000000E+00  0.00000000000E+00 -0.21928132543E+04  0.32723213218E+04  0.24289209259E+04 0.  0.
        2    1    3    3  502    0  0.10681604764E+04 -0.36804585472E+03 -0.49618517781E+03  0.12339466298E+04  0.25500000920E-02 0.  1.
       -2    1    3    3    0  502 -0.10681604764E+04  0.36804585472E+03 -0.16966280765E+04  0.20383746919E+04  0.25500000920E-02 0. -1.
</event>
<event>
 5   0  0.4664127E-05  0.2478104E+04  0.7818609E-02  0.8410828E-01
        2   -1    0    0  501    0  0.00000000000E+00  0.00000000000E+00  0.20469663617E+04  0.20469663617E+04  0.25500000920E-02 0. -1.
       -2   -1    0    0    0  501  0.00000000000E+00  0.00000000000E+00 -0.75001218036E+03  0.75001218036E+03  0.25500000920E-02 0.  1.
    10030    2    1    2    0    0  0.00000000000E+00  0.00000000000E+00  0.12969541814E+04  0.27969785421E+04  0.24781038752E+04 0.  0.
        4    1    3    3  502    0 -0.36384945418E+02  0.97403457609E+03 -0.21492816593E+03  0.99812972558E+03  0.12699999809E+01 0.  1.
       -4    1    3    3    0  502  0.36384945418E+02 -0.97403457609E+03  0.15118823473E+04  0.17988488165E+04  0.12699999809E+01 0. -1.
</event>
<event>
 5   0  0.4664127E-05  0.2384127E+04  0.7818609E-02  0.8445470E-01
        2   -1    0    0  501    0  0.00000000000E+00  0.00000000000E+00  0.16713452624E+04  0.16713452624E+04  0.25500000920E-02 0. -1.
       -2   -1    0    0    0  501  0.00000000000E+00  0.00000000000E+00 -0.85022265097E+03  0.85022265098E+03  0.25500000920E-02 0.  1.
    10030    2    1    2    0    0  0.00000000000E+00  0.00000000000E+00  0.82112261146E+03  0.25215679134E+04  0.23841271776E+04 0.  0.
        4    1    3    3  502    0 -0.74824531639E+02  0.43285602446E+03 -0.76149760690E+03  0.87911504745E+03  0.12699999809E+01 0.  1.
       -4    1    3    3    0  502  0.74824531639E+02 -0.43285602446E+03  0.15826202184E+04  0.16424528660E+04  0.12699999809E+01 0. -1.
</event>
<event>
 5   0  0.2057599E-05  0.2449552E+04  0.7818609E-02  0.8421182E-01
        1   -1    0    0  501    0  0.00000000000E+00  0.00000000000E+00  0.19468744036E+04  0.19468744036E+04  0.50400001928E-02 0. -1.
       -1   -1    0    0    0  501  0.00000000000E+00  0.00000000000E+00 -0.77050465414E+03  0.77050465416E+03  0.50400001928E-02 0.  1.
    10030    2    1    2    0    0  0.00000000000E+00  0.00000000000E+00  0.11763697495E+04  0.27173790578E+04  0.24495516235E+04 0.  0.
        4    1    3    3  502    0 -0.66474433672E+03 -0.38637678095E+03 -0.46941693971E+03  0.90084733793E+03  0.12699999809E+01 0.  1.
       -4    1    3    3    0  502  0.66474433672E+03  0.38637678095E+03  0.16457866892E+04  0.18165317199E+04  0.12699999809E+01 0. -1.
</event>
<event>
 5   0  0.4914005E-05  0.2695096E+04  0.7818609E-02  0.8336598E-01
        2   -1    0    0  501    0  0.00000000000E+00  0.00000000000E+00  0.19285050655E+04  0.19285050655E+04  0.25500000920E-02 0.  1.
       -2   -1    0    0    0  501  0.00000000000E+00  0.00000000000E+00 -0.94160263491E+03  0.94160263491E+03  0.25500000920E-02 0. -1.
    10030    2    1    2    0    0  0.00000000000E+00  0.00000000000E+00  0.98690243056E+03  0.28701077004E+04  0.26950958804E+04 0.  0.
        2    1    3    3  502    0  0.82596954082E+03  0.55335926180E+03  0.14621655332E+04  0.17681516342E+04  0.25500000920E-02 0.  1.
       -2    1    3    3    0  502 -0.82596954082E+03 -0.55335926180E+03 -0.47526310268E+03  0.11019560662E+04  0.25500000920E-02 0. -1.
</event>
<event>
 5   0  0.4664127E-05  0.2219070E+04  0.7818609E-02  0.8510532E-01
        2   -1    0    0  501    0  0.00000000000E+00  0.00000000000E+00  0.11571936471E+04  0.11571936471E+04  0.25500000920E-02 0. -1.
       -2   -1    0    0    0  501  0.00000000000E+00  0.00000000000E+00 -0.10638392050E+04  0.10638392050E+04  0.25500000920E-02 0.  1.
    10030    2    1    2    0    0  0.00000000000E+00  0.00000000000E+00  0.93354442177E+02  0.22210328521E+04  0.22190700481E+04 0.  0.
        4    1    3    3  502    0  0.57237731475E+03  0.79707247523E+03 -0.47158966865E+03  0.10887326346E+04  0.12699999809E+01 0.  1.
       -4    1    3    3    0  502 -0.57237731475E+03 -0.79707247523E+03  0.56494411083E+03  0.11323002175E+04  0.12699999809E+01 0. -1.
</event>
<event>
 5   0  0.4713971E-05  0.2388793E+04  0.7818609E-02  0.8443711E-01
        2   -1    0    0  501    0  0.00000000000E+00  0.00000000000E+00  0.10974138623E+04  0.10974138623E+04  0.25500000920E-02 0. -1.
       -2   -1    0    0    0  501  0.00000000000E+00  0.00000000000E+00 -0.12999498029E+04  0.12999498030E+04  0.25500000920E-02 0.  1.
    10030    2    1    2    0    0  0.00000000000E+00  0.00000000000E+00 -0.20253594063E+03  0.23973636653E+04  0.23887929455E+04 0.  0.
        5    1    3    3  502    0 -0.80327153832E+03 -0.27429196025E+03  0.74203230698E+03  0.11274374831E+04  0.46999998093E+01 0. -1.
       -5    1    3    3    0  502  0.80327153832E+03  0.27429196025E+03 -0.94456824761E+03  0.12699261822E+04  0.46999998093E+01 0.  1.
</event>
<event>
 5   0  0.1672125E-05  0.2243896E+04  0.7818609E-02  0.8500376E-01
        4   -1    0    0  501    0  0.00000000000E+00  0.00000000000E+00  0.12860009244E+04  0.12860015515E+04  0.12699999809E+01 0. -1.
       -4   -1    0    0    0  501  0.00000000000E+00  0.00000000000E+00 -0.97882201803E+03  0.97882284193E+03  0.12699999809E+01 0.  1.
    10030    2    1    2    0    0  0.00000000000E+00  0.00000000000E+00  0.30717890642E+03  0.22648243935E+04  0.22438963106E+04 0.  0.
        4    1    3    3  502    0 -0.64143373317E+03  0.33513515256E+03 -0.71173570868E+03  0.10150478493E+04  0.12699999809E+01 0. -1.
       -4    1    3    3    0  502  0.64143373317E+03 -0.33513515256E+03  0.10189146151E+04  0.12497765441E+04  0.12699999809E+01 0.  1.
</event>
<event>
 5   0  0.4713971E-05  0.2364093E+04  0.7818609E-02  0.8453070E-01
       -2   -1    0    0    0  501  0.00000000000E+00  0.00000000000E+00  0.10106394098E+04  0.10106394098E+04  0.25500000920E-02 0.  1.
        2   -1    0    0  501    0  0.00000000000E+00  0.00000000000E+00 -0.13825251616E+04  0.13825251616E+04  0.25500000920E-02 0. -1.
    10030    2    1    2    0    0  0.00000000000E+00  0.00000000000E+00 -0.37188575183E+03  0.23931645714E+04  0.23640934105E+04 0.  0.
        5    1    3    3  502    0 -0.13034763054E+03  0.17271482152E+03  0.99041039826E+03  0.10137828966E+04  0.46999998093E+01 0.  1.
       -5    1    3    3    0  502  0.13034763054E+03 -0.17271482152E+03 -0.13622961501E+04  0.13793816749E+04  0.46999998093E+01 0. -1.
</event>
<event>
 5   0  0.2149920E-05  0.2378709E+04  0.7818609E-02  0.8447518E-01
       -1   -1    0    0    0  501  0.00000000000E+00  0.00000000000E+00  0.18130039758E+04  0.18130039758E+04  0.50400001928E-02 0.  1.
        1   -1    0    0  501    0  0.00000000000E+00  0.00000000000E+00 -0.78023235235E+03  0.78023235236E+03  0.50400001928E-02 0. -1.
    10030    2    1    2    0    0  0.00000000000E+00  0.00000000000E+00  0.10327716234E+04  0.25932363281E+04  0.23787091935E+04 0.  0.
        5    1    3    3  502    0  0.31896141582E+03 -0.29234355114E+03  0.17241534538E+04  0.17776187327E+04  0.46999998093E+01 0.  1.
       -5    1    3    3    0  502 -0.31896141582E+03  0.29234355114E+03 -0.69138183034E+03  0.81561759545E+03  0.46999998093E+01 0. -1.
</event>
<event>
 5   0  0.2139556E-05  0.2650823E+04  0.7818609E-02  0.8351140E-01
        1   -1    0    0  501    0  0.00000000000E+00  0.00000000000E+00  0.22160356512E+04  0.22160356512E+04  0.50400001928E-02 0.  1.
       -1   -1    0    0    0  501  0.00000000000E+00  0.00000000000E+00 -0.79272924051E+03  0.79272924053E+03  0.50400001928E-02 0. -1.
    10030    2    1    2    0    0  0.00000000000E+00  0.00000000000E+00  0.14233064107E+04  0.30087648917E+04  0.26508234636E+04 0.  0.
        2    1    3    3  502    0 -0.11329450548E+04 -0.66020451461E+03  0.93081035983E+03  0.16080554792E+04  0.25500000920E-02 0.  1.
       -2    1    3    3    0  502  0.11329450548E+04  0.66020451461E+03  0.49249605085E+03  0.14007094125E+04  0.25500000920E-02 0. -1.
</event>
<event>
 5   0  0.4856882E-05  0.2300415E+04  0.7818609E-02  0.8477758E-01
        2   -1    0    0  501    0  0.00000000000E+00  0.00000000000E+00  0.17828885556E+04  0.17828885556E+04  0.25500000920E-02 0. -1.
       -2   -1    0    0    0  501  0.00000000000E+00  0.00000000000E+00 -0.74204127834E+03  0.74204127835E+03  0.25500000920E-02 0.  1.
    10030    2    1    2    0    0  0.00000000000E+00  0.00000000000E+00  0.10408472773E+04  0.25249298340E+04  0.23004146609E+04 0.  0.
        1    1    3    3  502    0  0.48988665117E+03 -0.30409184155E+03  0.16128041962E+04  0.17127749865E+04  0.50400001928E-02 0. -1.
       -1    1    3    3    0  502 -0.48988665117E+03  0.30409184155E+03 -0.57195691894E+03  0.81215484745E+03  0.50400001928E-02 0.  1.
</event>
<event>
 5   0  0.2057599E-05  0.2406675E+04  0.7818609E-02  0.8437009E-01
       -1   -1    0    0    0  501  0.00000000000E+00  0.00000000000E+00  0.17992314322E+04  0.17992314322E+04  0.50400001928E-02 0.  1.
        1   -1    0    0  501    0  0.00000000000E+00  0.00000000000E+00 -0.80480010235E+03  0.80480010237E+03  0.50400001928E-02 0. -1.
    10030    2    1    2    0    0  0.00000000000E+00  0.00000000000E+00  0.99443132983E+03  0.26040315346E+04  0.24066754171E+04 0.  0.
        4    1    3    3  502    0  0.53751332770E+03  0.26363797370E+03  0.16266504579E+04  0.17333259601E+04  0.12699999809E+01 0.  1.
       -4    1    3    3    0  502 -0.53751332770E+03 -0.26363797370E+03 -0.63221912810E+03  0.87070557450E+03  0.12699999809E+01 0. -1.
</event>
<event>
 5   0  0.4756705E-05  0.2410698E+04  0.7818609E-02  0.8435509E-01
        2   -1    0    0  501    0  0.00000000000E+00  0.00000000000E+00  0.11451877760E+04  0.11451877760E+04  0.25500000920E-02 0.  1.
       -2   -1    0    0    0  501  0.00000000000E+00  0.00000000000E+00 -0.12686709006E+04  0.12686709006E+04  0.25500000920E-02 0. -1.
    10030    2    1    2    0    0  0.00000000000E+00  0.00000000000E+00 -0.12348312458E+03  0.24138586767E+04  0.24106981621E+04 0.  0.
        3    1    3    3  502    0 -0.83837704205E+03  0.52899766063E+02 -0.92727747952E+03  0.12512066113E+04  0.10100000352E+00 0. -1.
       -3    1    3    3    0  502  0.83837704205E+03 -0.52899766063E+02  0.80379435494E+03  0.11626520654E+04  0.10100000352E+00 0.  1.
</event>
<event>
 5   0  0.2149920E-05  0.2397344E+04  0.7818609E-02  0.8440498E-01
        1   -1    0    0  501    0  0.00000000000E+00  0.00000000000E+00  0.13425843686E+04  0.13425843686E+04  0.50400001928E-02 0. -1.
       -1   -1    0    0    0  501  0.00000000000E+00  0.00000000000E+00 -0.10701859961E+04  0.10701859961E+04  0.50400001928E-02 0.  1.
    10030    2    1    2    0    0  0.00000000000E+00  0.00000000000E+00  0.27239837251E+03  0.24127703648E+04  0.23973443557E+04 0.  0.
        5    1    3    3  502    0 -0.13996367947E+03  0.55353285362E+03  0.11969280197E+04  0.13261399722E+04  0.46999998093E+01 0. -1.
       -5    1    3    3    0  502  0.13996367947E+03 -0.55353285362E+03 -0.92452964714E+03  0.10866303926E+04  0.46999998093E+01 0.  1.
</event>
<event>
 5   0  0.2065692E-05  0.2414410E+04  0.7818609E-02  0.8434128E-01
       -1   -1    0    0    0  501  0.00000000000E+00  0.00000000000E+00  0.14118254991E+04  0.14118254991E+04  0.50400001928E-02 0.  1.
        1   -1    0    0  501    0  0.00000000000E+00  0.00000000000E+00 -0.10322405018E+04  0.10322405019E+04  0.50400001928E-02 0. -1.
    10030    2    1    2    0    0  0.00000000000E+00  0.00000000000E+00  0.37958499725E+03  0.24440660010E+04  0.24144096270E+04 0.  0.
        3    1    3    3  502    0 -0.97577292385E+03 -0.22686563916E+03 -0.49208564424E+03  0.11161313133E+04  0.10100000352E+00 0. -1.
       -3    1    3    3    0  502  0.97577292385E+03  0.22686563916E+03  0.87167064149E+03  0.13279346876E+04  0.10100000352E+00 0.  1.
</event>
<event>
 5   0  0.1672125E-05  0.2392201E+04  0.7818609E-02  0.8442429E-01
        3   -1    0    0  501    0  0.00000000000E+00  0.00000000000E+00  0.83384781992E+03  0.83384782604E+03  0.10100000352E+00 0.  1.
       -3   -1    0    0    0  501  0.00000000000E+00  0.00000000000E+00 -0.17157287097E+04  0.17157287127E+04  0.10100000352E+00 0. -1.
    10030    2    1    2    0    0  0.00000000000E+00  0.00000000000E+00 -0.88188088979E+03  0.25495765387E+04  0.23922012087E+04 0.  0.
        4    1    3    3  502    0  0.98114484848E+03  0.23904848099E+03 -0.11240970429E+04  0.15110874113E+04  0.12699999809E+01 0. -1.
       -4    1    3    3    0  502 -0.98114484848E+03 -0.23904848099E+03  0.24221615311E+03  0.10384891274E+04  0.12699999809E+01 0.  1.
</event>
<event>
 5   0  0.4914005E-05  0.2347988E+04  0.7818609E-02  0.8459237E-01
        2   -1    0    0  501    0  0.00000000000E+00  0.00000000000E+00  0.25419825067E+04  0.25419825067E+04  0.25500000920E-02 0. -1.
       -2   -1    0    0    0  501  0.00000000000E+00  0.00000000000E+00 -0.54219957874E+03  0.54219957874E+03  0.25500000920E-02 0.  1.
    10030    2    1    2    0    0  0.00000000000E+00  0.00000000000E+00  0.19997829279E+04  0.30841820854E+04  0.23479879423E+04 0.  0.
        2    1    3    3  502    0  0.59630299840E+03 -0.36976475532E+03 -0.23648538114E+03  0.74042459149E+03  0.25500000920E-02 0.  1.
       -2    1    3    3    0  502 -0.59630299840E+03  0.36976475532E+03  0.22362683091E+04  0.23437574939E+04  0.25500000920E-02 0. -1.
</event>
<event>
 5   0  0.4713971E-05  0.2405828E+04  0.7818609E-02  0.8437325E-01
       -2   -1    0    0    0  501  0.00000000000E+00  0.00000000000E+00  0.10515372011E+04  0.10515372011E+04  0.25500000920E-02 0. -1.
        2   -1    0    0  501    0  0.00000000000E+00  0.00000000000E+00 -0.13760830065E+04  0.13760830065E+04  0.25500000920E-02 0.  1.
    10030    2    1    2    0    0  0.00000000000E+00  0.00000000000E+00 -0.32454580537E+03  0.24276202076E+04  0.24058283173E+04 0.  0.
        5    1    3    3  502    0 -0.28415102641E+03  0.12612293077E+03  0.10102904711E+04  0.10570514299E+04  0.46999998093E+01 0. -1.
       -5    1    3    3    0  502  0.28415102641E+03 -0.12612293077E+03 -0.13348362765E+04  0.13705687777E+04  0.46999998093E+01 0.  1.
</event>
<event>
 5   0  0.2057599E-05  0.2354709E+04  0.7818609E-02  0.8456657E-01
       -1   -1    0    0    0  501  0.00000000000E+00  0.00000000000E+00  0.10059697246E+04  0.10059697246E+04  0.50400001928E-02 0.  1.
        1   -1    0    0  501    0  0.00000000000E+00  0.00000000000E+00 -0.13779372155E+04  0.13779372155E+04  0.50400001928E-02 0. -1.
    10030    2    1    2    0    0  0.00000000000E+00  0.00000000000E+00 -0.37196749098E+03  0.23839069401E+04  0.23547085775E+04 0.  0.
        4    1    3    3  502    0 -0.11180396337E+04  0.11239063469E+03  0.16982441614E+03  0.11364357538E+04  0.12699999809E+01 0.  1.
       -4    1    3    3    0  502  0.11180396337E+04 -0.11239063469E+03 -0.54179190713E+03  0.12474711863E+04  0.12699999809E+01 0. -1.
</event>
<event>
 5   0  0.4664127E-05  0.2207566E+04  0.7818609E-02  0.8515286E-01
       -2   -1    0    0    0  501  0.00000000000E+00  0.00000000000E+00  0.77606441344E+03  0.77606441345E+03  0.25500000920E-02 0.  1.
        2   -1    0    0  501    0  0.00000000000E+00  0.00000000000E+00 -0.15698908776E+04  0.15698908776E+04  0.25500000920E-02 0. -1.
    10030    2    1    2    0    0  0.00000000000E+00  0.00000000000E+00 -0.79382646420E+03  0.23459552911E+04  0.22075655760E+04 0.  0.
        4    1    3    3  502    0  0.79891822758E+03 -0.60723520808E+03  0.91611538608E+02  0.10076701937E+04  0.12699999809E+01 0.  1.
       -4    1    3    3    0  502 -0.79891822758E+03  0.60723520808E+03 -0.88543800280E+03  0.13382850974E+04  0.12699999809E+01 0. -1.
</event>
<event>
 5   0  0.2149920E-05  0.2407662E+04  0.7818609E-02  0.8436641E-01
       -1   -1    0    0    0  501  0.00000000000E+00  0.00000000000E+00  0.11305128914E+04  0.11305128914E+04  0.50400001928E-02 0. -1.
        1   -1    0    0  501    0  0.00000000000E+00  0.00000000000E+00 -0.12819036865E+04  0.12819036865E+04  0.50400001928E-02 0.  1.
    10030    2    1    2    0    0  0.00000000000E+00  0.00000000000E+00 -0.15139079518E+03  0.24124165779E+04  0.24076616400E+04 0.  0.
        5    1    3    3  502    0  0.13067082245E+03 -0.44965112890E+03 -0.11869057092E+04  0.12759421045E+04  0.46999998093E+01 0.  1.
       -5    1    3    3    0  502 -0.13067082245E+03  0.44965112890E+03  0.10355149140E+04  0.11364744734E+04  0.46999998093E+01 0. -1.
</event>
<event>
 5   0  0.4914005E-05  0.2394459E+04  0.7818609E-02  0.8441581E-01
       -2   -1    0    0    0  501  0.00000000000E+00  0.00000000000E+00  0.10934291607E+04  0.10934291607E+04  0.25500000920E-02 0.  1.
        2   -1    0    0  501    0  0.00000000000E+00  0.00000000000E+00 -0.13108838107E+04  0.13108838107E+04  0.25500000920E-02 0. -1.
    10030    2    1    2    0    0  0.00000000000E+00  0.00000000000E+00 -0.21745464999E+03  0.24043129713E+04  0.23944590912E+04 0.  0.
        2    1    3    3  502    0  0.49256424334E+03  0.85627728602E+03  0.57046464105E+03  0.11407279391E+04  0.25500000920E-02 0.  1.
       -2    1    3    3    0  502 -0.49256424334E+03 -0.85627728602E+03 -0.78791929105E+03  0.12635850322E+04  0.25500000920E-02 0. -1.
</event>
<event>
 5   0  0.4756705E-05  0.2424705E+04  0.7818609E-02  0.8430312E-01
       -2   -1    0    0    0  501  0.00000000000E+00  0.00000000000E+00  0.79681291954E+03  0.79681291954E+03  0.25500000920E-02 0.  1.
        2   -1    0    0  501    0  0.00000000000E+00  0.00000000000E+00 -0.18445962035E+04  0.18445962035E+04  0.25500000920E-02 0. -1.
    10030    2    1    2    0    0  0.00000000000E+00  0.00000000000E+00 -0.10477832840E+04  0.26414091231E+04  0.24247045893E+04 0.  0.
        3    1    3    3  502    0  0.11135933893E+03  0.90742648378E+03 -0.13912781903E+04  0.16647758825E+04  0.10100000352E+00 0. -1.
       -3    1    3    3    0  502 -0.11135933893E+03 -0.90742648378E+03  0.34349490629E+03  0.97663324062E+03  0.10100000352E+00 0.  1.
</event>
<event>
 5   0  0.2139556E-05  0.2407896E+04  0.7818609E-02  0.8436553E-01
       -1   -1    0    0    0  501  0.00000000000E+00  0.00000000000E+00  0.18118864366E+04  0.18118864366E+04  0.50400001928E-02 0.  1.
        1   -1    0    0  501    0  0.00000000000E+00  0.00000000000E+00 -0.79999001089E+03  0.79999001091E+03  0.50400001928E-02 0. -1.
    10030    2    1    2    0    0  0.00000000000E+00  0.00000000000E+00  0.10118964257E+04  0.26118764475E+04  0.24078962188E+04 0.  0.
        2    1    3    3  502    0 -0.94713783913E+03 -0.46783252559E+03 -0.12051812575E+03  0.10632318547E+04  0.25500000920E-02 0. -1.
       -2    1    3    3    0  502  0.94713783913E+03  0.46783252559E+03  0.11324145514E+04  0.15486445927E+04  0.25500000920E-02 0.  1.
</event>
<event>
 5   0  0.2149920E-05  0.2482908E+04  0.7818609E-02  0.8409100E-01
        1   -1    0    0  501    0  0.00000000000E+00  0.00000000000E+00  0.10835993979E+04  0.10835993979E+04  0.50400001928E-02 0. -1.
       -1   -1    0    0    0  501  0.00000000000E+00  0.00000000000E+00 -0.14223039264E+04  0.14223039265E+04  0.50400001928E-02 0.  1.
    10030    2    1    2    0    0  0.00000000000E+00  0.00000000000E+00 -0.33870452857E+03  0.25059033243E+04  0.24829077134E+04 0.  0.
        5    1    3    3  502    0 -0.65033142958E+02 -0.38721988598E+03 -0.13579766409E+04  0.14136092802E+04  0.46999998093E+01 0.  1.
       -5    1    3    3    0  502  0.65033142958E+02  0.38721988598E+03  0.10192721124E+04  0.10922940441E+04  0.46999998093E+01 0. -1.
</event>
<event>
 5   0  0.4756705E-05  0.2409556E+04  0.7818609E-02  0.8435934E-01
       -2   -1    0    0    0  501  0.00000000000E+00  0.00000000000E+00  0.99246735112E+03  0.99246735113E+03  0.25500000920E-02 0. -1.
        2   -1    0    0  501    0  0.00000000000E+00  0.00000000000E+00 -0.14625071195E+04  0.14625071195E+04  0.25500000920E-02 0.  1.
    10030    2    1    2    0    0  0.00000000000E+00  0.00000000000E+00 -0.47003976835E+03  0.24549744706E+04  0.24095564462E+04 0.  0.
        3    1    3    3  502    0  0.25841467896E+03 -0.66536218832E+03  0.75384421663E+03  0.10381551431E+04  0.10100000352E+00 0. -1.
       -3    1    3    3    0  502 -0.25841467896E+03  0.66536218832E+03 -0.12238839850E+04  0.14168193275E+04  0.10100000352E+00 0.  1.
</event>
<event>
 5   0  0.4756705E-05  0.2218068E+04  0.7818609E-02  0.8510945E-01
       -2   -1    0    0    0  501  0.00000000000E+00  0.00000000000E+00  0.60105757538E+03  0.60105757539E+03  0.25500000920E-02 0. -1.
        2   -1    0    0  501    0  0.00000000000E+00  0.00000000000E+00 -0.20463202111E+04  0.20463202111E+04  0.25500000920E-02 0.  1.
    10030    2    1    2    0    0  0.00000000000E+00  0.00000000000E+00 -0.14452626357E+04  0.26473777865E+04  0.22180678660E+04 0.  0.
        3    1    3    3  502    0 -0.20790512951E+03  0.10827532607E+04 -0.86574348365E+03  0.14018170195E+04  0.10100000352E+00 0. -1.
       -3    1    3    3    0  502  0.20790512951E+03 -0.10827532607E+04 -0.57951915204E+03  0.12455607670E+04  0.10100000352E+00 0.  1.
</event>
<event>
 5   0  0.4914005E-05  0.2000437E+04  0.7818609E-02  0.8606416E-01
       -2   -1    0    0    0  501  0.00000000000E+00  0.00000000000E+00  0.11427462879E+04  0.11427462879E+04  0.25500000920E-02 0. -1.
        2   -1    0    0  501    0  0.00000000000E+00  0.00000000000E+00 -0.87546728531E+03  0.87546728532E+03  0.25500000920E-02 0.  1.
    10030    2    1    2    0    0  0.00000000000E+00  0.00000000000E+00  0.26727900259E+03  0.20182135732E+04  0.20004369427E+04 0.  0.
        2    1    3    3  502    0 -0.34179244786E+03  0.52736598567E+03  0.91869315829E+03  0.11130741572E+04  0.25500000920E-02 0. -1.
       -2    1    3    3    0  502  0.34179244786E+03 -0.52736598567E+03 -0.65141415570E+03  0.90513941606E+03  0.25500000920E-02 0.  1.
</event>
<event>
 5   0  0.2090039E-05  0.2452973E+04  0.7818609E-02  0.8419933E-01
       -1   -1    0    0    0  501  0.00000000000E+00  0.00000000000E+00  0.61046629624E+03  0.61046629626E+03  0.50400001928E-02 0. -1.
        1   -1    0    0  501    0  0.00000000000E+00  0.00000000000E+00 -0.24641309946E+04  0.24641309946E+04  0.50400001928E-02 0.  1.
    10030    2    1    2    0    0  0.00000000000E+00  0.00000000000E+00 -0.18536646984E+04  0.30745972909E+04  0.24529728264E+04 0.  0.
        1    1    3    3  502    0 -0.71871609249E+03  0.83202164678E+03 -0.16081379643E+04  0.19480555831E+04  0.50400001928E-02 0.  1.
       -1    1    3    3    0  502  0.71871609249E+03 -0.83202164678E+03 -0.24552673403E+03  0.11265417078E+04  0.50400001928E-02 0. -1.
</event>
<event>
 5   0  0.4664127E-05  0.2389912E+04  0.7818609E-02  0.8443290E-01
        2   -1    0    0  501    0  0.00000000000E+00  0.00000000000E+00  0.17213108585E+04  0.17213108585E+04  0.25500000920E-02 0.  1.
       -2   -1    0    0    0  501  0.00000000000E+00  0.00000000000E+00 -0.82955362069E+03  0.82955362069E+03  0.25500000920E-02 0. -1.
    10030    2    1    2    0    0  0.00000000000E+00  0.00000000000E+00  0.89175723785E+03  0.25508644792E+04  0.23899118436E+04 0.  0.
        4    1    3    3  502    0 -0.19453138148E+03 -0.11597909155E+04  0.67219794004E+03  0.13545512576E+04  0.12699999809E+01 0.  1.
       -4    1    3    3    0  502  0.19453138148E+03  0.11597909155E+04  0.21955929782E+03  0.11963132216E+04  0.12699999809E+01 0. -1.
</event>
<event>
 5   0  0.4756705E-05  0.2446582E+04  0.7818609E-02  0.8422267E-01
        2   -1    0    0  501    0  0.00000000000E+00  0.00000000000E+00  0.12422577694E+04  0.12422577694E+04  0.25500000920E-02 0.  1.
       -2   -1    0    0    0  501  0.00000000000E+00  0.00000000000E+00 -0.12046136871E+04  0.12046136871E+04  0.25500000920E-02 0. -1.
    10030    2    1    2    0    0  0.00000000000E+00  0.00000000000E+00  0.37644082313E+02  0.24468714565E+04  0.24465818702E+04 0.  0.
        3    1    3    3  502    0  0.48836301817E+03  0.53085358609E+02 -0.11016338252E+04  0.12061979887E+04  0.10100000352E+00 0. -1.
       -3    1    3    3    0  502 -0.48836301817E+03 -0.53085358609E+02  0.11392779075E+04  0.12406734678E+04  0.10100000352E+00 0.  1.
</event>
<event>
 5   0  0.2139556E-05  0.2354526E+04  0.7818609E-02  0.8456727E-01
        1   -1    0    0  501    0  0.00000000000E+00  0.00000000000E+00  0.49780306352E+03  0.49780306355E+03  0.50400001928E-02 0. -1.
       -1   -1    0    0    0  501  0.00000000000E+00  0.00000000000E+00 -0.27841284279E+04  0.27841284280E+04  0.50400001928E-02 0.  1.
    10030    2    1    2    0    0  0.00000000000E+00  0.00000000000E+00 -0.22863253644E+04  0.32819314915E+04  0.23545255664E+04 0.  0.
        2    1    3    3  502    0  0.91429325314E+03  0.32027396182E+03 -0.21078139003E+03  0.99143146901E+03  0.25500000920E-02 0. -1.
       -2    1    3    3    0  502 -0.91429325314E+03 -0.32027396182E+03 -0.20755439744E+04  0.22905000225E+04  0.25500000920E-02 0.  1.
</event>
<event>
 5   0  0.2090039E-05  0.2387177E+04  0.7818609E-02  0.8444320E-01
        1   -1    0    0  501    0  0.00000000000E+00  0.00000000000E+00  0.17015205554E+04  0.17015205554E+04  0.50400001928E-02 0.  1.
       -1   -1    0    0    0  501  0.00000000000E+00  0.00000000000E+00 -0.83728289065E+03  0.83728289067E+03  0.50400001928E-02 0. -1.
    10030    2    1    2    0    0  0.00000000000E+00  0.00000000000E+00  0.86423766470E+03  0.25388034460E+04  0.23871774539E+04 0.  0.
        1    1    3    3  502    0  0.73190263144E+03 -0.91360922214E+03  0.18431535217E+03  0.11850465905E+04  0.50400001928E-02 0. -1.
       -1    1    3    3    0  502 -0.73190263144E+03  0.91360922214E+03  0.67992231253E+03  0.13537568555E+04  0.50400001928E-02 0.  1.
</event>
<event>
 5   0  0.4856882E-05  0.2289401E+04  0.7818609E-02  0.8482112E-01
        2   -1    0    0  501    0  0.00000000000E+00  0.00000000000E+00  0.21017094197E+04  0.21017094197E+04  0.25500000920E-02 0. -1.
       -2   -1    0    0    0  501  0.00000000000E+00  0.00000000000E+00 -0.62346366938E+03  0.62346366939E+03  0.25500000920E-02 0.  1.
    10030    2    1    2    0    0  0.00000000000E+00  0.00000000000E+00  0.14782457503E+04  0.27251730891E+04  0.22894012028E+04 0.  0.
        1    1    3    3  502    0  0.77979715998E+03  0.12388862933E+03  0.17256778766E+04  0.18977344748E+04  0.50400001928E-02 0. -1.
       -1    1    3    3    0  502 -0.77979715998E+03 -0.12388862933E+03 -0.24743212629E+03  0.82743861424E+03  0.50400001928E-02 0.  1.
</event>
<event>
 5   0  0.2149920E-05  0.2176986E+04  0.7818609E-02  0.8528069E-01
        1   -1    0    0  501    0  0.00000000000E+00  0.00000000000E+00  0.15041969945E+04  0.15041969945E+04  0.50400001928E-02 0. -1.
       -1   -1    0    0    0  501  0.00000000000E+00  0.00000000000E+00 -0.78767378890E+03  0.78767378891E+03  0.50400001928E-02 0.  1.
    10030    2    1    2    0    0  0.00000000000E+00  0.00000000000E+00  0.71652320557E+03  0.22918707834E+04  0.21769855727E+04 0.  0.
        5    1    3    3  502    0  0.82416864859E+03 -0.58192788359E+03 -0.71832322885E+02  0.10114721922E+04  0.46999998093E+01 0.  1.
       -5    1    3    3    0  502 -0.82416864859E+03  0.58192788359E+03  0.78835552846E+03  0.12803985912E+04  0.46999998093E+01 0. -1.
</event>
<event>
 5   0  0.2090039E-05  0.1831319E+04  0.7818609E-02  0.8689819E-01
        1   -1    0    0  501    0  0.00000000000E+00  0.00000000000E+00  0.20432892540E+04  0.20432892540E+04  0.50400001928E-02 0.  1.
       -1   -1    0    0    0  501  0.00000000000E+00  0.00000000000E+00 -0.41033464618E+03  0.41033464621E+03  0.50400001928E-02 0. -1.
    10030    2    1    2    0    0  0.00000000000E+00  0.00000000000E+00  0.16329546078E+04  0.24536239002E+04  0.18313190581E+04 0.  0.
        1    1    3    3  502    0 -0.15509819309E+03  0.29785185581E+03  0.19578065035E+04  0.19863981179E+04  0.50400001928E-02 0.  1.
       -1    1    3    3    0  502  0.15509819309E+03 -0.29785185581E+03 -0.32485189570E+03  0.46722578233E+03  0.50400001928E-02 0. -1.
</event>
<event>
 5   0  0.4756705E-05  0.2396959E+04  0.7818609E-02  0.8440643E-01
       -2   -1    0    0    0  501  0.00000000000E+00  0.00000000000E+00  0.11687148229E+04  0.11687148229E+04  0.25500000920E-02 0. -1.
        2   -1    0    0  501    0  0.00000000000E+00  0.00000000000E+00 -0.12290022591E+04  0.12290022591E+04  0.25500000920E-02 0.  1.
    10030    2    1    2    0    0  0.00000000000E+00  0.00000000000E+00 -0.60287436203E+02  0.23977170821E+04  0.23969590382E+04 0.  0.
        3    1    3    3  502    0 -0.10273733759E+03 -0.96876797522E+02 -0.12206516360E+04  0.12287922937E+04  0.10100000352E+00 0.  1.
       -3    1    3    3    0  502  0.10273733759E+03  0.96876797522E+02  0.11603641998E+04  0.11689247884E+04  0.10100000352E+00 0. -1.
</event>
<event>
 5   0  0.2057599E-05  0.2472579E+04  0.7818609E-02  0.8412820E-01
       -1   -1    0    0    0  501  0.00000000000E+00  0.00000000000E+00  0.81121626298E+03  0.81121626300E+03  0.50400001928E-02 0.  1.
        1   -1    0    0  501    0  0.00000000000E+00  0.00000000000E+00 -0.18840996842E+04  0.18840996842E+04  0.50400001928E-02 0. -1.
    10030    2    1    2    0    0  0.00000000000E+00  0.00000000000E+00 -0.10728834212E+04  0.26953159472E+04  0.24725794668E+04 0.  0.
        4    1    3    3  502    0  0.98399900477E+03 -0.60712566622E+03 -0.10135382373E+04  0.15375685310E+04  0.12699999809E+01 0.  1.
       -4    1    3    3    0  502 -0.98399900477E+03  0.60712566622E+03 -0.59345183832E+02  0.11577474162E+04  0.12699999809E+01 0. -1.
</event>
<event>
 5   0  0.2090039E-05  0.2508580E+04  0.7818609E-02  0.8399935E-01
        1   -1    0    0  501    0  0.00000000000E+00  0.00000000000E+00  0.12458722855E+04  0.12458722855E+04  0.50400001928E-02 0. -1.
       -1   -1    0    0    0  501  0.00000000000E+00  0.00000000000E+00 -0.12627643987E+04  0.12627643987E+04  0.50400001928E-02 0.  1.
    10030    2    1    2    0    0  0.00000000000E+00  0.00000000000E+00 -0.16892113188E+02  0.25086366842E+04  0.25085798114E+04 0.  0.
        1    1    3    3  502    0  0.25873998610E+03 -0.92922514569E+03 -0.81023565742E+03  0.12597172589E+04  0.50400001928E-02 0.  1.
       -1    1    3    3    0  502 -0.25873998610E+03  0.92922514569E+03  0.79334354423E+03  0.12489194253E+04  0.50400001928E-02 0. -1.
</event>
<event>
 5   0  0.2139556E-05  0.2390199E+04  0.7818609E-02  0.8443182E-01
        1   -1    0    0  501    0  0.00000000000E+00  0.00000000000E+00  0.28071630575E+04  0.28071630575E+04  0.50400001928E-02 0. -1.
       -1   -1    0    0    0  501  0.00000000000E+00  0.00000000000E+00 -0.50879216281E+03  0.50879216284E+03  0.50400001928E-02 0.  1.
    10030    2    1    2    0    0  0.00000000000E+00  0.00000000000E+00  0.22983708947E+04  0.33159552204E+04  0.23901987896E+04 0.  0.
        2    1    3    3  502    0 -0.44448413600E+03  0.70170114362E+03 -0.42864836273E+02  0.83173796132E+03  0.25500000920E-02 0.  1.
       -2    1    3    3    0  502  0.44448413600E+03 -0.70170114362E+03  0.23412357310E+04  0.24842172590E+04  0.25500000920E-02 0. -1.
</event>
<event>
 5   0  0.4856882E-05  0.2181064E+04  0.7818609E-02  0.8526351E-01
       -2   -1    0    0    0  501  0.00000000000E+00  0.00000000000E+00  0.89410670949E+03  0.89410670949E+03  0.25500000920E-02 0.  1.
        2   -1    0    0  501    0  0.00000000000E+00  0.00000000000E+00 -0.13301093867E+04  0.13301093867E+04  0.25500000920E-02 0. -1.
    10030    2    1    2    0    0  0.00000000000E+00  0.00000000000E+00 -0.43600267723E+03  0.22242160962E+04  0.21810637102E+04 0.  0.
        1    1    3    3  502    0  0.18533105482E+03  0.46839409692E+02  0.87688793738E+03  0.89748202485E+03  0.50400001928E-02 0.  1.
       -1    1    3    3    0  502 -0.18533105482E+03 -0.46839409692E+02 -0.13128906146E+04  0.13267340714E+04  0.50400001928E-02 0. -1.
</event>
<event>
 5   0  0.1672125E-05  0.2386844E+04  0.7818609E-02  0.8444446E-01
        3   -1    0    0  501    0  0.00000000000E+00  0.00000000000E+00  0.12650986835E+04  0.12650986875E+04  0.10100000352E+00 0.  1.
       -3   -1    0    0    0  501  0.00000000000E+00  0.00000000000E+00 -0.11258059531E+04  0.11258059577E+04  0.10100000352E+00 0. -1.
    10030    2    1    2    0    0  0.00000000000E+00  0.00000000000E+00  0.13929273036E+03  0.23909046452E+04  0.23868436391E+04 0.  0.
        4    1    3    3  502    0  0.56637738122E+03 -0.81362250647E+03 -0.59593059796E+03  0.11566761913E+04  0.12699999809E+01 0. -1.
       -4    1    3    3    0  502 -0.56637738122E+03  0.81362250647E+03  0.73522332832E+03  0.12342284539E+04  0.12699999809E+01 0.  1.
</event>
<event>
 5   0  0.4756705E-05  0.2412577E+04  0.7818609E-02  0.8434810E-01
        2   -1    0    0  501    0  0.00000000000E+00  0.00000000000E+00  0.18565467313E+04  0.18565467313E+04  0.25500000920E-02 0.  1.
       -2   -1    0    0    0  501  0.00000000000E+00  0.00000000000E+00 -0.78378391789E+03  0.78378391789E+03  0.25500000920E-02 0. -1.
    10030    2    1    2    0    0  0.00000000000E+00  0.00000000000E+00  0.10727628134E+04  0.26403306492E+04  0.24125766067E+04 0.  0.
        3    1    3    3  502    0  0.72621126601E+02 -0.26744491818E+03 -0.74847307209E+03  0.79813066733E+03  0.10100000352E+00 0. -1.
       -3    1    3    3    0  502 -0.72621126601E+02  0.26744491818E+03  0.18212358855E+04  0.18421999819E+04  0.10100000352E+00 0.  1.
</event>
<event>
 5   0  0.4914005E-05  0.2404445E+04  0.7818609E-02  0.8437841E-01
        2   -1    0    0  501    0  0.00000000000E+00  0.00000000000E+00  0.12543157551E+04  0.12543157551E+04  0.25500000920E-02 0. -1.
       -2   -1    0    0    0  501  0.00000000000E+00  0.00000000000E+00 -0.11522929904E+04  0.11522929904E+04  0.25500000920E-02 0.  1.
    10030    2    1    2    0    0  0.00000000000E+00  0.00000000000E+00  0.10202276466E+03  0.24066087455E+04  0.24044452603E+04 0.  0.
        2    1    3    3  502    0  0.85694426054E+03  0.76363036221E+03 -0.30687776721E+03  0.11881324673E+04  0.25500000920E-02 0.  1.
       -2    1    3    3    0  502 -0.85694426054E+03 -0.76363036221E+03  0.40890053187E+03  0.12184762783E+04  0.25500000920E-02 0. -1.
</event>
<event>
 5   0  0.4664127E-05  0.2408204E+04  0.7818609E-02  0.8436439E-01
        2   -1    0    0  501    0  0.00000000000E+00  0.00000000000E+00  0.16161691931E+04  0.16161691931E+04  0.25500000920E-02 0.  1.
       -2   -1    0    0    0  501  0.00000000000E+00  0.00000000000E+00 -0.89709759421E+03  0.89709759422E+03  0.25500000920E-02 0. -1.
    10030    2    1    2    0    0  0.00000000000E+00  0.00000000000E+00  0.71907159887E+03  0.25132667873E+04  0.24082038908E+04 0.  0.
        4    1    3    3  502    0  0.55501979653E+03 -0.92637145658E+03 -0.19628633562E+03  0.10976069372E+04  0.12699999809E+01 0. -1.
       -4    1    3    3    0  502 -0.55501979653E+03  0.92637145658E+03  0.91535793449E+03  0.14156598501E+04  0.12699999809E+01 0.  1.
</event>
<event>
 5   0  0.4756705E-05  0.2373277E+04  0.7818609E-02  0.8449577E-01
        2   -1    0    0  501    0  0.00000000000E+00  0.00000000000E+00  0.14963170185E+04  0.14963170185E+04  0.25500000920E-02 0.  1.
       -2   -1    0    0    0  501  0.00000000000E+00  0.00000000000E+00 -0.94105083348E+03  0.94105083348E+03  0.25500000920E-02 0. -1.
    10030    2    1    2    0    0  0.00000000000E+00  0.00000000000E+00  0.55526618497E+03  0.24373678519E+04  0.23732765346E+04 0.  0.
        3    1    3    3  502    0 -0.58304265933E+03  0.32139615075E+03 -0.73117490537E+03  0.98886347934E+03  0.10100000352E+00 0. -1.
       -3    1    3    3    0  502  0.58304265933E+03 -0.32139615075E+03  0.12864410903E+04  0.14485043726E+04  0.10100000352E+00 0.  1.
</event>
<event>
 5   0  0.2090039E-05  0.2376518E+04  0.7818609E-02  0.8448348E-01
        1   -1    0    0  501    0  0.00000000000E+00  0.00000000000E+00  0.22638976767E+04  0.22638976767E+04  0.50400001928E-02 0.  1.
       -1   -1    0    0    0  501  0.00000000000E+00  0.00000000000E+00 -0.62368515333E+03  0.62368515335E+03  0.50400001928E-02 0. -1.
    10030    2    1    2    0    0  0.00000000000E+00  0.00000000000E+00  0.16402125234E+04  0.28875828301E+04  0.23765179315E+04 0.  0.
        1    1    3    3  502    0  0.82294136654E+03  0.30866330670E+03 -0.15151711495E+03  0.89188730556E+03  0.50400001928E-02 0. -1.
       -1    1    3    3    0  502 -0.82294136654E+03 -0.30866330670E+03  0.17917296384E+04  0.19956955245E+04  0.50400001928E-02 0.  1.
</event>
<event>
 5   0  0.1672125E-05  0.2413111E+04  0.7818609E-02  0.8434611E-01
       -3   -1    0    0    0  501  0.00000000000E+00  0.00000000000E+00  0.11044355365E+04  0.11044355411E+04  0.10100000352E+00 0.  1.
        3   -1    0    0  501    0  0.00000000000E+00  0.00000000000E+00 -0.13181175665E+04  0.13181175703E+04  0.10100000352E+00 0. -1.
    10030    2    1    2    0    0  0.00000000000E+00  0.00000000000E+00 -0.21368202995E+03  0.24225531114E+04  0.24131107658E+04 0.  0.
        4    1    3    3  502    0  0.81297862898E+03 -0.55776194767E+03  0.59139586705E+03  0.11496883603E+04  0.12699999809E+01 0. -1.
       -4    1    3    3    0  502 -0.81297862898E+03  0.55776194767E+03 -0.80507789700E+03  0.12728647511E+04  0.12699999809E+01 0.  1.
</event>
<event>
 5   0  0.1672125E-05  0.2397151E+04  0.7818609E-02  0.8440571E-01
       -3   -1    0    0    0  501  0.00000000000E+00  0.00000000000E+00  0.17545776223E+04  0.17545776252E+04  0.10100000352E+00 0.  1.
        3   -1    0    0  501    0  0.00000000000E+00  0.00000000000E+00 -0.81876270236E+03  0.81876270859E+03  0.10100000352E+00 0. -1.
    10030    2    1    2    0    0  0.00000000000E+00  0.00000000000E+00  0.93581491990E+03  0.25733403338E+04  0.23971505812E+04 0.  0.
        5    1    3    3  502    0 -0.94023332630E+03 -0.45503722205E+03  0.10988687509E+04  0.15161240725E+04  0.46999998093E+01 0. -1.
       -5    1    3    3    0  502  0.94023332630E+03  0.45503722205E+03 -0.16305383104E+03  0.10572162613E+04  0.46999998093E+01 0.  1.
</event>
<event>
 5   0  0.4664127E-05  0.2264237E+04  0.7818609E-02  0.8492157E-01
       -2   -1    0    0    0  501  0.00000000000E+00  0.00000000000E+00  0.74712038603E+03  0.74712038603E+03  0.25500000920E-02 0.  1.
        2   -1    0    0  501    0  0.00000000000E+00  0.00000000000E+00 -0.17155090572E+04  0.17155090572E+04  0.25500000920E-02 0. -1.
    10030    2    1    2    0    0  0.00000000000E+00  0.00000000000E+00 -0.96838867118E+03  0.24626294432E+04  0.22642365504E+04 0.  0.
        4    1    3    3  502    0 -0.82401756861E+02 -0.82175658549E+03 -0.13263918679E+04  0.15624950993E+04  0.12699999809E+01 0. -1.
       -4    1    3    3    0  502  0.82401756861E+02  0.82175658549E+03  0.35800319671E+03  0.90013434391E+03  0.12699999809E+01 0.  1.
</event>
<event>
 5   0  0.4914005E-05  0.2419602E+04  0.7818609E-02  0.8432201E-01
       -2   -1    0    0    0  501  0.00000000000E+00  0.00000000000E+00  0.10037157913E+04  0.10037157913E+04  0.25500000920E-02 0.  1.
        2   -1    0    0  501    0  0.00000000000E+00  0.00000000000E+00 -0.14581998937E+04  0.14581998937E+04  0.25500000920E-02 0. -1.
    10030    2    1    2    0    0  0.00000000000E+00  0.00000000000E+00 -0.45448410237E+03  0.24619156850E+04  0.24196018351E+04 0.  0.
        2    1    3    3  502    0 -0.38839212747E+03  0.87827991736E+03  0.52142043189E+03  0.10927503488E+04  0.25500000920E-02 0.  1.
       -2    1    3    3    0  502  0.38839212747E+03 -0.87827991736E+03 -0.97590453427E+03  0.13691653362E+04  0.25500000920E-02 0. -1.
</event>
<event>
 5   0  0.2139556E-05  0.2408730E+04  0.7818609E-02  0.8436242E-01
       -1   -1    0    0    0  501  0.00000000000E+00  0.00000000000E+00  0.18995406875E+04  0.18995406876E+04  0.50400001928E-02 0. -1.
        1   -1    0    0  501    0  0.00000000000E+00  0.00000000000E+00 -0.76360330170E+03  0.76360330172E+03  0.50400001928E-02 0.  1.
    10030    2    1    2    0    0  0.00000000000E+00  0.00000000000E+00  0.11359373858E+04  0.26631439893E+04  0.24087304048E+04 0.  0.
        2    1    3    3  502    0  0.68181993582E+03  0.69344245372E+03 -0.21753210481E+03  0.99652449951E+03  0.25500000920E-02 0.  1.
       -2    1    3    3    0  502 -0.68181993582E+03 -0.69344245372E+03  0.13534694907E+04  0.16666194898E+04  0.25500000920E-02 0. -1.
</event>
<event>
 5   0  0.1672125E-05  0.2351891E+04  0.7818609E-02  0.8457738E-01
       -4   -1    0    0    0  501  0.00000000000E+00  0.00000000000E+00  0.11202408851E+04  0.11202416050E+04  0.12699999809E+01 0. -1.
        4   -1    0    0  501    0  0.00000000000E+00  0.00000000000E+00 -0.12344183391E+04  0.12344189924E+04  0.12699999809E+01 0.  1.
    10030    2    1    2    0    0  0.00000000000E+00  0.00000000000E+00 -0.11417745399E+03  0.23546605974E+04  0.23518907368E+04 0.  0.
        1    1    3    3  502    0 -0.84128013732E+03  0.37527546484E+03  0.67470545761E+03  0.11418456106E+04  0.50400001928E-02 0. -1.
       -1    1    3    3    0  502  0.84128013732E+03 -0.37527546484E+03 -0.78888291160E+03  0.12128149868E+04  0.50400001928E-02 0.  1.
</event>
<event>
 5   0  0.4856882E-05  0.2346867E+04  0.7818609E-02  0.8459668E-01
       -2   -1    0    0    0  501  0.00000000000E+00  0.00000000000E+00  0.83741713818E+03  0.83741713819E+03  0.25500000920E-02 0.  1.
        2   -1    0    0  501    0  0.00000000000E+00  0.00000000000E+00 -0.16442777071E+04  0.16442777071E+04  0.25500000920E-02 0. -1.
    10030    2    1    2    0    0  0.00000000000E+00  0.00000000000E+00 -0.80686056890E+03  0.24816948453E+04  0.23468671303E+04 0.  0.
        1    1    3    3  502    0 -0.55293571663E+03 -0.25225792621E+03 -0.14648775700E+04  0.15859502713E+04  0.50400001928E-02 0. -1.
       -1    1    3    3    0  502  0.55293571663E+03  0.25225792621E+03  0.65801700107E+03  0.89574457396E+03  0.50400001928E-02 0.  1.
</event>
<event>
 5   0  0.2090039E-05  0.2410553E+04  0.7818609E-02  0.8435563E-01
       -1   -1    0    0    0  501  0.00000000000E+00  0.00000000000E+00  0.49853531491E+03  0.49853531493E+03  0.50400001928E-02 0.  1.
        1   -1    0    0  501    0  0.00000000000E+00  0.00000000000E+00 -0.29139190577E+04  0.29139190577E+04  0.50400001928E-02 0. -1.
    10030    2    1    2    0    0  0.00000000000E+00  0.00000000000E+00 -0.24153837428E+04  0.34124543726E+04  0.24105530943E+04 0.  0.
        1    1    3    3  502    0  0.93340446689E+02 -0.27144152595E+03  0.44944263562E+03  0.53328381162E+03  0.50400001928E-02 0.  1.
       -1    1    3    3    0  502 -0.93340446689E+02  0.27144152595E+03 -0.28648263784E+04  0.28791705610E+04  0.50400001928E-02 0. -1.
</event>
<event>
 5   0  0.2149920E-05  0.2435011E+04  0.7818609E-02  0.8426511E-01
        1   -1    0    0  501    0  0.00000000000E+00  0.00000000000E+00  0.82038858565E+03  0.82038858567E+03  0.50400001928E-02 0. -1.
       -1   -1    0    0    0  501  0.00000000000E+00  0.00000000000E+00 -0.18068501664E+04  0.18068501664E+04  0.50400001928E-02 0.  1.
    10030    2    1    2    0    0  0.00000000000E+00  0.00000000000E+00 -0.98646158071E+03  0.26272387520E+04  0.24350106796E+04 0.  0.
        5    1    3    3  502    0 -0.64590272304E+03  0.10307639925E+04 -0.43787324665E+03  0.12928340210E+04  0.46999998093E+01 0.  1.
       -5    1    3    3    0  502  0.64590272304E+03 -0.10307639925E+04 -0.54858833406E+03  0.13344047310E+04  0.46999998093E+01 0. -1.
</event>
<event>
 5   0  0.2090039E-05  0.2365150E+04  0.7818609E-02  0.8452667E-01
        1   -1    0    0  501    0  0.00000000000E+00  0.00000000000E+00  0.14244591747E+04  0.14244591747E+04  0.50400001928E-02 0.  1.
       -1   -1    0    0    0  501  0.00000000000E+00  0.00000000000E+00 -0.98176500636E+03  0.98176500637E+03  0.50400001928E-02 0. -1.
    10030    2    1    2    0    0  0.00000000000E+00  0.00000000000E+00  0.44269416829E+03  0.24062241810E+04  0.23651504567E+04 0.  0.
        1    1    3    3  502    0  0.59117139991E+03  0.82257492089E+03 -0.39947229639E+03  0.10888945037E+04  0.50400001928E-02 0. -1.
       -1    1    3    3    0  502 -0.59117139991E+03 -0.82257492089E+03  0.84216646469E+03  0.13173296773E+04  0.50400001928E-02 0.  1.
</event>
<event>
 5   0  0.2065692E-05  0.2267577E+04  0.7818609E-02  0.8490816E-01
       -1   -1    0    0    0  501  0.00000000000E+00  0.00000000000E+00  0.11244926977E+04  0.11244926977E+04  0.50400001928E-02 0. -1.
        1   -1    0    0  501    0  0.00000000000E+00  0.00000000000E+00 -0.11431615671E+04  0.11431615671E+04  0.50400001928E-02 0.  1.
    10030    2    1    2    0    0  0.00000000000E+00  0.00000000000E+00 -0.18668869486E+02  0.22676542648E+04  0.22675774161E+04 0.  0.
        3    1    3    3  502    0  0.45832480746E+03  0.86055956478E+03 -0.58801839640E+03  0.11385912517E+04  0.10100000352E+00 0.  1.
       -3    1    3    3    0  502 -0.45832480746E+03 -0.86055956478E+03  0.56934952691E+03  0.11290630131E+04  0.10100000352E+00 0. -1.
</event>
<event>
 5   0  0.4756705E-05  0.2383067E+04  0.7818609E-02  0.8445870E-01
        2   -1    0    0  501    0  0.00000000000E+00  0.00000000000E+00  0.15167707943E+04  0.15167707943E+04  0.25500000920E-02 0.  1.
       -2   -1    0    0    0  501  0.00000000000E+00  0.00000000000E+00 -0.93603593826E+03  0.93603593826E+03  0.25500000920E-02 0. -1.
    10030    2    1    2    0    0  0.00000000000E+00  0.00000000000E+00  0.58073485600E+03  0.24528067325E+04  0.23830669093E+04 0.  0.
        3    1    3    3  502    0 -0.79461566180E+02 -0.22889630384E+03 -0.91041196083E+03  0.94210275822E+03  0.10100000352E+00 0. -1.
       -3    1    3    3    0  502  0.79461566180E+02  0.22889630384E+03  0.14911468168E+04  0.15107039743E+04  0.10100000352E+00 0.  1.
</event>
<event>
 5   0  0.4856882E-05  0.2396855E+04  0.7818609E-02  0.8440682E-01
        2   -1    0    0  501    0  0.00000000000E+00  0.00000000000E+00  0.94734856438E+03  0.94734856438E+03  0.25500000920E-02 0.  1.
       -2   -1    0    0    0  501  0.00000000000E+00  0.00000000000E+00 -0.15160510200E+04  0.15160510200E+04  0.25500000920E-02 0. -1.
    10030    2    1    2    0    0  0.00000000000E+00  0.00000000000E+00 -0.56870245558E+03  0.24633995843E+04  0.23968552374E+04 0.  0.
        1    1    3    3  502    0  0.11203597500E+04 -0.10458090956E+03  0.13951309129E+03  0.11338461266E+04  0.50400001928E-02 0. -1.
       -1    1    3    3    0  502 -0.11203597500E+04  0.10458090956E+03 -0.70821554686E+03  0.13295534577E+04  0.50400001928E-02 0.  1.
</event>
<event>
 5   0  0.1672125E-05  0.2406267E+04  0.7818609E-02  0.8437161E-01
       -3   -1    0    0    0  501  0.00000000000E+00  0.00000000000E+00  0.26173576731E+04  0.26173576750E+04  0.10100000352E+00 0.  1.
        3   -1    0    0  501    0  0.00000000000E+00  0.00000000000E+00 -0.55305043575E+03  0.55305044498E+03  0.10100000352E+00 0. -1.
    10030    2    1    2    0    0  0.00000000000E+00  0.00000000000E+00  0.20643072373E+04  0.31704081200E+04  0.24062674991E+04 0.  0.
        1    1    3    3  502    0  0.36373694113E+03  0.53548879505E+03 -0.30403808557E+03  0.71518666757E+03  0.50400001928E-02 0. -1.
       -1    1    3    3    0  502 -0.36373694113E+03 -0.53548879505E+03  0.23683453229E+04  0.24552214524E+04  0.50400001928E-02 0.  1.
</event>
<event>
 5   0  0.4664127E-05  0.1994542E+04  0.7818609E-02  0.8609176E-01
       -2   -1    0    0    0  501  0.00000000000E+00  0.00000000000E+00  0.52080820080E+03  0.52080820081E+03  0.25500000920E-02 0.  1.
        2   -1    0    0  501    0  0.00000000000E+00  0.00000000000E+00 -0.19096280096E+04  0.19096280096E+04  0.25500000920E-02 0. -1.
    10030    2    1    2    0    0  0.00000000000E+00  0.00000000000E+00 -0.13888198088E+04  0.24304362104E+04  0.19945424817E+04 0.  0.
        4    1    3    3  502    0  0.64164878063E+03  0.37541518823E+02  0.23474491242E+03  0.68427283311E+03  0.12699999809E+01 0.  1.
       -4    1    3    3    0  502 -0.64164878063E+03 -0.37541518823E+02 -0.16235647212E+04  0.17461633773E+04  0.12699999809E+01 0. -1.
</event>
<event>
 5   0  0.2139556E-05  0.2416220E+04  0.7818609E-02  0.8433456E-01
        1   -1    0    0  501    0  0.00000000000E+00  0.00000000000E+00  0.12908785361E+04  0.12908785361E+04  0.50400001928E-02 0.  1.
       -1   -1    0    0    0  501  0.00000000000E+00  0.00000000000E+00 -0.11306488731E+04  0.11306488732E+04  0.50400001928E-02 0. -1.
    10030    2    1    2    0    0  0.00000000000E+00  0.00000000000E+00  0.16022966295E+03  0.24215274093E+04  0.24162204885E+04 0.  0.
        2    1    3    3  502    0 -0.48622609720E+02 -0.40442934596E+03 -0.10597499929E+04  0.11353401699E+04  0.25500000920E-02 0. -1.
       -2    1    3    3    0  502  0.48622609720E+02  0.40442934596E+03  0.12199796558E+04  0.12861872394E+04  0.25500000920E-02 0.  1.
</event>
<event>
 5   0  0.4713971E-05  0.2314071E+04  0.7818609E-02  0.8472394E-01
        2   -1    0    0  501    0  0.00000000000E+00  0.00000000000E+00  0.14857943361E+04  0.14857943361E+04  0.25500000920E-02 0.  1.
       -2   -1    0    0    0  501  0.00000000000E+00  0.00000000000E+00 -0.90102060318E+03  0.90102060319E+03  0.25500000920E-02 0. -1.
    10030    2    1    2    0    0  0.00000000000E+00  0.00000000000E+00  0.58477373290E+03  0.23868149393E+04  0.23140711389E+04 0.  0.
        5    1    3    3  502    0  0.95017532446E+03 -0.58654808882E+03  0.60496015224E+03  0.12699884580E+04  0.46999998093E+01 0.  1.
       -5    1    3    3    0  502 -0.95017532446E+03  0.58654808882E+03 -0.20186419342E+02  0.11168264813E+04  0.46999998093E+01 0. -1.
</event>
<event>
 5   0  0.4713971E-05  0.2390862E+04  0.7818609E-02  0.8442933E-01
       -2   -1    0    0    0  501  0.00000000000E+00  0.00000000000E+00  0.95473379552E+03  0.95473379552E+03  0.25500000920E-02 0.  1.
        2   -1    0    0  501    0  0.00000000000E+00  0.00000000000E+00 -0.14968095818E+04  0.14968095818E+04  0.25500000920E-02 0. -1.
    10030    2    1    2    0    0  0.00000000000E+00  0.00000000000E+00 -0.54207578627E+03  0.24515433773E+04  0.23908615127E+04 0.  0.
        5    1    3    3  502    0  0.55782014267E+01  0.74036542345E+03 -0.12334004900E+04  0.14385655826E+04  0.46999998093E+01 0. -1.
       -5    1    3    3    0  502 -0.55782014267E+01 -0.74036542345E+03  0.69132470377E+03  0.10129777947E+04  0.46999998093E+01 0.  1.
</event>
<event>
 5   0  0.4756705E-05  0.2408254E+04  0.7818609E-02  0.8436420E-01
        2   -1    0    0  501    0  0.00000000000E+00  0.00000000000E+00  0.15011290177E+04  0.15011290177E+04  0.25500000920E-02 0. -1.
       -2   -1    0    0    0  501  0.00000000000E+00  0.00000000000E+00 -0.96588793521E+03  0.96588793522E+03  0.25500000920E-02 0.  1.
    10030    2    1    2    0    0  0.00000000000E+00  0.00000000000E+00  0.53524108253E+03  0.24670169530E+04  0.24082544778E+04 0.  0.
        3    1    3    3  502    0 -0.60593466712E+03 -0.96334063828E+03  0.67058950869E+03  0.13209361474E+04  0.10100000352E+00 0. -1.
       -3    1    3    3    0  502  0.60593466712E+03  0.96334063828E+03 -0.13534842617E+03  0.11460808055E+04  0.10100000352E+00 0.  1.
</event>
<event>
 5   0  0.4713971E-05  0.2375690E+04  0.7818609E-02  0.8448661E-01
        2   -1    0    0  501    0  0.00000000000E+00  0.00000000000E+00  0.85410332752E+03  0.85410332753E+03  0.25500000920E-02 0.  1.
       -2   -1    0    0    0  501  0.00000000000E+00  0.00000000000E+00 -0.16519967135E+04  0.16519967135E+04  0.25500000920E-02 0. -1.
    10030    2    1    2    0    0  0.00000000000E+00  0.00000000000E+00 -0.79789338598E+03  0.25061000410E+04  0.23756901229E+04 0.  0.
        5    1    3    3  502    0 -0.22130447346E+03 -0.21711902905E+03  0.81066129302E+03  0.86793442422E+03  0.46999998093E+01 0.  1.
       -5    1    3    3    0  502  0.22130447346E+03  0.21711902905E+03 -0.16085546790E+04  0.16381656168E+04  0.46999998093E+01 0. -1.
</event>
<event>
 5   0  0.4914005E-05  0.2423380E+04  0.7818609E-02  0.8430802E-01
        2   -1    0    0  501    0  0.00000000000E+00  0.00000000000E+00  0.12139216341E+04  0.12139216341E+04  0.25500000920E-02 0. -1.
       -2   -1    0    0    0  501  0.00000000000E+00  0.00000000000E+00 -0.12094628453E+04  0.12094628453E+04  0.25500000920E-02 0.  1.
    10030    2    1    2    0    0  0.00000000000E+00  0.00000000000E+00  0.44587888246E+01  0.24233844794E+04  0.24233803776E+04 0.  0.
        2    1    3    3  502    0  0.78579904524E+03  0.25515540789E+02 -0.91976019823E+03  0.12099958696E+04  0.25500000920E-02 0.  1.
       -2    1    3    3    0  502 -0.78579904524E+03 -0.25515540789E+02  0.92421898705E+03  0.12133886098E+04  0.25500000920E-02 0. -1.
</event>
<event>
 5   0  0.4713971E-05  0.1776773E+04  0.7818609E-02  0.8718750E-01
        2   -1    0    0  501    0  0.00000000000E+00  0.00000000000E+00  0.17010589317E+04  0.17010589317E+04  0.25500000920E-02 0.  1.
       -2   -1    0    0    0  501  0.00000000000E+00  0.00000000000E+00 -0.46396443042E+03  0.46396443042E+03  0.25500000920E-02 0. -1.
    10030    2    1    2    0    0  0.00000000000E+00  0.00000000000E+00  0.12370945013E+04  0.21650233622E+04  0.17767732983E+04 0.  0.
        5    1    3    3  502    0  0.39230230576E+03  0.64864484188E+03  0.11829804588E+04  0.14050288559E+04  0.46999998093E+01 0.  1.
       -5    1    3    3    0  502 -0.39230230576E+03 -0.64864484188E+03  0.54114042552E+02  0.75999450629E+03  0.46999998093E+01 0. -1.
</event>
<event>
 5   0  0.4914005E-05  0.2421302E+04  0.7818609E-02  0.8431571E-01
        2   -1    0    0  501    0  0.00000000000E+00  0.00000000000E+00  0.10304866189E+04  0.10304866189E+04  0.25500000920E-02 0. -1.
       -2   -1    0    0    0  501  0.00000000000E+00  0.00000000000E+00 -0.14223141280E+04  0.14223141280E+04  0.25500000920E-02 0.  1.
    10030    2    1    2    0    0  0.00000000000E+00  0.00000000000E+00 -0.39182750916E+03  0.24528007469E+04  0.24213018620E+04 0.  0.
        2    1    3    3  502    0 -0.54473277748E+03 -0.10114595456E+04  0.19101256917E+03  0.11645900622E+04  0.25500000920E-02 0. -1.
       -2    1    3    3    0  502  0.54473277748E+03  0.10114595456E+04 -0.58284007833E+03  0.12882106847E+04  0.25500000920E-02 0.  1.
</event>
<event>
 5   0  0.4664127E-05  0.2334579E+04  0.7818609E-02  0.8464411E-01
       -2   -1    0    0    0  501  0.00000000000E+00  0.00000000000E+00  0.79633606576E+03  0.79633606576E+03  0.25500000920E-02 0.  1.
        2   -1    0    0  501    0  0.00000000000E+00  0.00000000000E+00 -0.17110421436E+04  0.17110421436E+04  0.25500000920E-02 0. -1.
    10030    2    1    2    0    0  0.00000000000E+00  0.00000000000E+00 -0.91470607782E+03  0.25073782093E+04  0.23345788219E+04 0.  0.
        4    1    3    3  502    0  0.38814254790E+03  0.70891032278E+03  0.44721858821E+03  0.92369614148E+03  0.12699999809E+01 0.  1.
       -4    1    3    3    0  502 -0.38814254790E+03 -0.70891032278E+03 -0.13619246660E+04  0.15836820679E+04  0.12699999809E+01 0. -1.
</event>
<event>
 5   0  0.4856882E-05  0.2397601E+04  0.7818609E-02  0.8440402E-01
       -2   -1    0    0    0  501  0.00000000000E+00  0.00000000000E+00  0.82167032300E+03  0.82167032301E+03  0.25500000920E-02 0.  1.
        2   -1    0    0  501    0  0.00000000000E+00  0.00000000000E+00 -0.17490252556E+04  0.17490252556E+04  0.25500000920E-02 0. -1.
    10030    2    1    2    0    0  0.00000000000E+00  0.00000000000E+00 -0.92735493255E+03  0.25706955786E+04  0.23976005895E+04 0.  0.
        1    1    3    3  502    0  0.93677278282E+03 -0.60102841123E+03  0.13833195290E+02  0.11130901828E+04  0.50400001928E-02 0.  1.
       -1    1    3    3    0  502 -0.93677278282E+03  0.60102841123E+03 -0.94118812784E+03  0.14576053958E+04  0.50400001928E-02 0. -1.
</event>
<event>
 5   0  0.2090039E-05  0.2391155E+04  0.7818609E-02  0.8442822E-01
        1   -1    0    0  501    0  0.00000000000E+00  0.00000000000E+00  0.23176810954E+04  0.23176810954E+04  0.50400001928E-02 0. -1.
       -1   -1    0    0    0  501  0.00000000000E+00  0.00000000000E+00 -0.61673972654E+03  0.61673972656E+03  0.50400001928E-02 0.  1.
    10030    2    1    2    0    0  0.00000000000E+00  0.00000000000E+00  0.17009413689E+04  0.29344208220E+04  0.23911553735E+04 0.  0.
        1    1    3    3  502    0 -0.93748756135E+03  0.73862004628E+03  0.76401196242E+03  0.14170944849E+04  0.50400001928E-02 0. -1.
       -1    1    3    3    0  502  0.93748756135E+03 -0.73862004628E+03  0.93692940647E+03  0.15173263371E+04  0.50400001928E-02 0.  1.
</event>
<event>
 5   0  0.2149920E-05  0.2357367E+04  0.7818609E-02  0.8455639E-01
        1   -1    0    0  501    0  0.00000000000E+00  0.00000000000E+00  0.16978290585E+04  0.16978290585E+04  0.50400001928E-02 0. -1.
       -1   -1    0    0    0  501  0.00000000000E+00  0.00000000000E+00 -0.81827714102E+03  0.81827714103E+03  0.50400001928E-02 0.  1.
    10030    2    1    2    0    0  0.00000000000E+00  0.00000000000E+00  0.87955191744E+03  0.25161061995E+04  0.23573669277E+04 0.  0.
        5    1    3    3  502    0  0.50818587456E+03  0.68807319486E+03  0.13052906274E+04  0.15606099181E+04  0.46999998093E+01 0. -1.
       -5    1    3    3    0  502 -0.50818587456E+03 -0.68807319486E+03 -0.42573870994E+03  0.95549628138E+03  0.46999998093E+01 0.  1.
</event>
<event>
 5   0  0.2139556E-05  0.2445702E+04  0.7818609E-02  0.8422589E-01
       -1   -1    0    0    0  501  0.00000000000E+00  0.00000000000E+00  0.80432762819E+03  0.80432762821E+03  0.50400001928E-02 0. -1.
        1   -1    0    0  501    0  0.00000000000E+00  0.00000000000E+00 -0.18591492400E+04  0.18591492401E+04  0.50400001928E-02 0.  1.
    10030    2    1    2    0    0  0.00000000000E+00  0.00000000000E+00 -0.10548216119E+04  0.26634768683E+04  0.24457024338E+04 0.  0.
        2    1    3    3  502    0 -0.10159691518E+04 -0.61379357045E+03 -0.84757712738E+03  0.14585344875E+04  0.25500000920E-02 0.  1.
       -2    1    3    3    0  502  0.10159691518E+04  0.61379357045E+03 -0.20724448448E+03  0.12049423807E+04  0.25500000920E-02 0. -1.
</event>
<event>
 5   0  0.2149920E-05  0.2390775E+04  0.7818609E-02  0.8442965E-01
       -1   -1    0    0    0  501  0.00000000000E+00  0.00000000000E+00  0.98307009404E+03  0.98307009405E+03  0.50400001928E-02 0. -1.
        1   -1    0    0  501    0  0.00000000000E+00  0.00000000000E+00 -0.14535595622E+04  0.14535595622E+04  0.50400001928E-02 0.  1.
    10030    2    1    2    0    0  0.00000000000E+00  0.00000000000E+00 -0.47048946819E+03  0.24366296563E+04  0.23907747159E+04 0.  0.
        5    1    3    3  502    0  0.10659653290E+04 -0.53804621198E+03 -0.29247363213E+03  0.12293651713E+04  0.46999998093E+01 0. -1.
       -5    1    3    3    0  502 -0.10659653290E+04  0.53804621198E+03 -0.17801583606E+03  0.12072644850E+04  0.46999998093E+01 0.  1.
</event>
<event>
 5   0  0.4856882E-05  0.2401653E+04  0.7818609E-02  0.8438885E-01
       -2   -1    0    0    0  501  0.00000000000E+00  0.00000000000E+00  0.16466583543E+04  0.16466583543E+04  0.25500000920E-02 0.  1.
        2   -1    0    0  501    0  0.00000000000E+00  0.00000000000E+00 -0.87570302948E+03  0.87570302948E+03  0.25500000920E-02 0. -1.
    10030    2    1    2    0    0  0.00000000000E+00  0.00000000000E+00  0.77095532486E+03  0.25223613838E+04  0.24016525223E+04 0.  0.
        1    1    3    3  502    0  0.92684425355E+03  0.75795336857E+03  0.28893287411E+03  0.12316719470E+04  0.50400001928E-02 0. -1.
       -1    1    3    3    0  502 -0.92684425355E+03 -0.75795336857E+03  0.48202245075E+03  0.12906894368E+04  0.50400001928E-02 0.  1.
</event>
<event>
 5   0  0.4664127E-05  0.2376371E+04  0.7818609E-02  0.8448403E-01
        2   -1    0    0  501    0  0.00000000000E+00  0.00000000000E+00  0.22584188181E+04  0.22584188181E+04  0.25500000920E-02 0. -1.
       -2   -1    0    0    0  501  0.00000000000E+00  0.00000000000E+00 -0.62512063491E+03  0.62512063491E+03  0.25500000920E-02 0.  1.
    10030    2    1    2    0    0  0.00000000000E+00  0.00000000000E+00  0.16332981832E+04  0.28835394530E+04  0.23763705144E+04 0.  0.
        4    1    3    3  502    0 -0.74187008786E+03 -0.75887461118E+03  0.14650304722E+04  0.18090267550E+04  0.12699999809E+01 0. -1.
       -4    1    3    3    0  502  0.74187008786E+03  0.75887461118E+03  0.16826771093E+03  0.10745126980E+04  0.12699999809E+01 0.  1.
</event>
<event>
 5   0  0.2057599E-05  0.2266750E+04  0.7818609E-02  0.8491148E-01
       -1   -1    0    0    0  501  0.00000000000E+00  0.00000000000E+00  0.85732230429E+03  0.85732230430E+03  0.50400001928E-02 0. -1.
        1   -1    0    0  501    0  0.00000000000E+00  0.00000000000E+00 -0.14983146073E+04  0.14983146073E+04  0.50400001928E-02 0.  1.
    10030    2    1    2    0    0  0.00000000000E+00  0.00000000000E+00 -0.64099230297E+03  0.23556369116E+04  0.22667496833E+04 0.  0.
        4    1    3    3  502    0  0.99420071108E+03  0.46286781534E+03 -0.23173458482E+02  0.10969139850E+04  0.12699999809E+01 0. -1.
       -4    1    3    3    0  502 -0.99420071108E+03 -0.46286781534E+03 -0.61781884449E+03  0.12587229266E+04  0.12699999809E+01 0.  1.
</event>
<event>
 5   0  0.2139556E-05  0.2334891E+04  0.7818609E-02  0.8464290E-01
        1   -1    0    0  501    0  0.00000000000E+00  0.00000000000E+00  0.16539152192E+04  0.16539152192E+04  0.50400001928E-02 0.  1.
       -1   -1    0    0    0  501  0.00000000000E+00  0.00000000000E+00 -0.82406254104E+03  0.82406254106E+03  0.50400001928E-02 0. -1.
    10030    2    1    2    0    0  0.00000000000E+00  0.00000000000E+00  0.82985267813E+03  0.24779777602E+04  0.23348914992E+04 0.  0.
        2    1    3    3  502    0  0.45184478855E+03  0.23672890197E+03  0.15293860380E+04  0.16122115057E+04  0.25500000920E-02 0.  1.
       -2    1    3    3    0  502 -0.45184478855E+03 -0.23672890197E+03 -0.69953335984E+03  0.86576625454E+03  0.25500000920E-02 0. -1.
</event>
<event>
 5   0  0.2139556E-05  0.2496029E+04  0.7818609E-02  0.8404402E-01
        1   -1    0    0  501    0  0.00000000000E+00  0.00000000000E+00  0.22474564989E+04  0.22474564989E+04  0.50400001928E-02 0.  1.
       -1   -1    0    0    0  501  0.00000000000E+00  0.00000000000E+00 -0.69302362472E+03  0.69302362473E+03  0.50400001928E-02 0. -1.
    10030    2    1    2    0    0  0.00000000000E+00  0.00000000000E+00  0.15544328742E+04  0.29404801237E+04  0.24960292060E+04 0.  0.
        2    1    3    3  502    0 -0.10968786902E+04  0.54308385524E+03  0.48995855071E+03  0.13183862546E+04  0.25500000920E-02 0. -1.
       -2    1    3    3    0  502  0.10968786902E+04 -0.54308385524E+03  0.10644743235E+04  0.16220938691E+04  0.25500000920E-02 0.  1.
</event>
<event>
 5   0  0.4914005E-05  0.2408461E+04  0.7818609E-02  0.8436343E-01
        2   -1    0    0  501    0  0.00000000000E+00  0.00000000000E+00  0.78841506759E+03  0.78841506759E+03  0.25500000920E-02 0. -1.
       -2   -1    0    0    0  501  0.00000000000E+00  0.00000000000E+00 -0.18393500187E+04  0.18393500187E+04  0.25500000920E-02 0.  1.
    10030    2    1    2    0    0  0.00000000000E+00  0.00000000000E+00 -0.10509349511E+04  0.26277650863E+04  0.24084611430E+04 0.  0.
        2    1    3    3  502    0  0.62693762564E+03  0.98315466512E+03 -0.19719317293E+03  0.11825941947E+04  0.25500000920E-02 0. -1.
       -2    1    3    3    0  502 -0.62693762564E+03 -0.98315466512E+03 -0.85374177822E+03  0.14451708916E+04  0.25500000920E-02 0.  1.
</event>
<event>
 5   0  0.2090039E-05  0.2581236E+04  0.7818609E-02  0.8374603E-01
        1   -1    0    0  501    0  0.00000000000E+00  0.00000000000E+00  0.30296102247E+04  0.30296102247E+04  0.50400001928E-02 0.  1.
       -1   -1    0    0    0  501  0.00000000000E+00  0.00000000000E+00 -0.54980485229E+03  0.54980485231E+03  0.50400001928E-02 0. -1.
    10030    2    1    2    0    0  0.00000000000E+00  0.00000000000E+00  0.24798053724E+04  0.35794150770E+04  0.25812356747E+04 0.  0.
        1    1    3    3  502    0 -0.68034691012E+03 -0.56667884531E+03 -0.62196976187E+02  0.88761776441E+03  0.50400001928E-02 0. -1.
       -1    1    3    3    0  502  0.68034691012E+03  0.56667884531E+03  0.25420023486E+04  0.26917973126E+04  0.50400001928E-02 0.  1.
</event>
<event>
 5   0  0.2139556E-05  0.2374022E+04  0.7818609E-02  0.8449294E-01
       -1   -1    0    0    0  501  0.00000000000E+00  0.00000000000E+00  0.81410588115E+03  0.81410588117E+03  0.50400001928E-02 0. -1.
        1   -1    0    0  501    0  0.00000000000E+00  0.00000000000E+00 -0.17307266727E+04  0.17307266727E+04  0.50400001928E-02 0.  1.
    10030    2    1    2    0    0  0.00000000000E+00  0.00000000000E+00 -0.91662079150E+03  0.25448325538E+04  0.23740217041E+04 0.  0.
        2    1    3    3  502    0 -0.33821206240E+03  0.71717866918E+01 -0.16779595969E+04  0.17117205504E+04  0.25500000920E-02 0.  1.
       -2    1    3    3    0  502  0.33821206240E+03 -0.71717866918E+01  0.76133880541E+03  0.83311200346E+03  0.25500000920E-02 0. -1.
</event>
<event>
 5   0  0.2065692E-05  0.2321145E+04  0.7818609E-02  0.8469630E-01
       -1   -1    0    0    0  501  0.00000000000E+00  0.00000000000E+00  0.14330165705E+04  0.14330165705E+04  0.50400001928E-02 0. -1.
        1   -1    0    0  501    0  0.00000000000E+00  0.00000000000E+00 -0.93992531752E+03  0.93992531754E+03  0.50400001928E-02 0.  1.
    10030    2    1    2    0    0  0.00000000000E+00  0.00000000000E+00  0.49309125300E+03  0.23729418881E+04  0.23211450236E+04 0.  0.
        3    1    3    3  502    0 -0.50730547150E+03  0.47968994445E+03 -0.70121681884E+03  0.98952833281E+03  0.10100000352E+00 0.  1.
       -3    1    3    3    0  502  0.50730547150E+03 -0.47968994445E+03  0.11943080718E+04  0.13834135553E+04  0.10100000352E+00 0. -1.
</event>
<event>
 5   0  0.2057599E-05  0.2357238E+04  0.7818609E-02  0.8455689E-01
        1   -1    0    0  501    0  0.00000000000E+00  0.00000000000E+00  0.10348075241E+04  0.10348075242E+04  0.50400001928E-02 0. -1.
       -1   -1    0    0    0  501  0.00000000000E+00  0.00000000000E+00 -0.13424161257E+04  0.13424161258E+04  0.50400001928E-02 0.  1.
    10030    2    1    2    0    0  0.00000000000E+00  0.00000000000E+00 -0.30760860160E+03  0.23772236499E+04  0.23572376269E+04 0.  0.
        4    1    3    3  502    0 -0.31447361834E+03 -0.76960858203E+03 -0.99632141205E+03  0.12976320723E+04  0.12699999809E+01 0.  1.
       -4    1    3    3    0  502  0.31447361834E+03  0.76960858203E+03  0.68871281045E+03  0.10795915776E+04  0.12699999809E+01 0. -1.
</event>
<event>
 5   0  0.4664127E-05  0.2390953E+04  0.7818609E-02  0.8442899E-01
        2   -1    0    0  501    0  0.00000000000E+00  0.00000000000E+00  0.17578658062E+04  0.17578658062E+04  0.25500000920E-02 0. -1.
       -2   -1    0    0    0  501  0.00000000000E+00  0.00000000000E+00 -0.81301062620E+03  0.81301062621E+03  0.25500000920E-02 0.  1.
    10030    2    1    2    0    0  0.00000000000E+00  0.00000000000E+00  0.94485517995E+03  0.25708764324E+04  0.23909525966E+04 0.  0.
        4    1    3    3  502    0  0.10778587751E+03  0.37060662734E+03 -0.74417373043E+03  0.83830974083E+03  0.12699999809E+01 0.  1.
       -4    1    3    3    0  502 -0.10778587751E+03 -0.37060662734E+03  0.16890289104E+04  0.17325666915E+04  0.12699999809E+01 0. -1.
</event>
<event>
 5   0  0.4914005E-05  0.2408875E+04  0.7818609E-02  0.8436188E-01
       -2   -1    0    0    0  501  0.00000000000E+00  0.00000000000E+00  0.90200835138E+03  0.90200835139E+03  0.25500000920E-02 0. -1.
        2   -1    0    0  501    0  0.00000000000E+00  0.00000000000E+00 -0.16082662463E+04  0.16082662463E+04  0.25500000920E-02 0.  1.
    10030    2    1    2    0    0  0.00000000000E+00  0.00000000000E+00 -0.70625789490E+03  0.25102745977E+04  0.24088749120E+04 0.  0.
        2    1    3    3  502    0 -0.85830542062E+03 -0.23541674386E+03 -0.11988064389E+04  0.14930660121E+04  0.25500000920E-02 0.  1.
       -2    1    3    3    0  502  0.85830542062E+03  0.23541674386E+03  0.49254854405E+03  0.10172085856E+04  0.25500000920E-02 0. -1.
</event>
<event>
 5   0  0.4713971E-05  0.2373188E+04  0.7818609E-02  0.8449610E-01
        2   -1    0    0  501    0  0.00000000000E+00  0.00000000000E+00  0.22107650290E+04  0.22107650290E+04  0.25500000920E-02 0. -1.
       -2   -1    0    0    0  501  0.00000000000E+00  0.00000000000E+00 -0.63688592099E+03  0.63688592100E+03  0.25500000920E-02 0.  1.
    10030    2    1    2    0    0  0.00000000000E+00  0.00000000000E+00  0.15738791080E+04  0.28476509500E+04  0.23731878321E+04 0.  0.
        5    1    3    3  502    0 -0.83225764781E+03  0.30431667071E+03 -0.15995497643E+03  0.90048271105E+03  0.46999998093E+01 0.  1.
       -5    1    3    3    0  502  0.83225764781E+03 -0.30431667071E+03  0.17338340844E+04  0.19471682389E+04  0.46999998093E+01 0. -1.
</event>
<event>
 5   0  0.4756705E-05  0.2222921E+04  0.7818609E-02  0.8508948E-01
        2   -1    0    0  501    0  0.00000000000E+00  0.00000000000E+00  0.15673942984E+04  0.15673942984E+04  0.25500000920E-02 0.  1.
       -2   -1    0    0    0  501  0.00000000000E+00  0.00000000000E+00 -0.78815176279E+03  0.78815176279E+03  0.25500000920E-02 0. -1.
    10030    2    1    2    0    0  0.00000000000E+00  0.00000000000E+00  0.77924253562E+03  0.23555460612E+04  0.22229211226E+04 0.  0.
        3    1    3    3  502    0 -0.38267128670E+03 -0.10414373901E+04  0.45923244420E+03  0.12008012322E+04  0.10100000352E+00 0.  1.
       -3    1    3    3    0  502  0.38267128670E+03  0.10414373901E+04  0.32001009142E+03  0.11547448290E+04  0.10100000352E+00 0. -1.
</event>
<event>
 5   0  0.4856882E-05  0.2475789E+04  0.7818609E-02  0.8411662E-01
       -2   -1    0    0    0  501  0.00000000000E+00  0.00000000000E+00  0.12588408325E+04  0.12588408325E+04  0.25500000920E-02 0. -1.
        2   -1    0    0  501    0  0.00000000000E+00  0.00000000000E+00 -0.12172971751E+04  0.12172971751E+04  0.25500000920E-02 0.  1.
    10030    2    1    2    0    0  0.00000000000E+00  0.00000000000E+00  0.41543657360E+02  0.24761380076E+04  0.24757894817E+04 0.  0.
        1    1    3    3  502    0  0.75036046057E+03  0.39429959613E+03  0.92304648545E+03  0.12532070087E+04  0.50400001928E-02 0. -1.
       -1    1    3    3    0  502 -0.75036046057E+03 -0.39429959613E+03 -0.88150282809E+03  0.12229309990E+04  0.50400001928E-02 0.  1.
</event>
<event>
 5   0  0.2065692E-05  0.2349079E+04  0.7818609E-02  0.8458817E-01
       -1   -1    0    0    0  501  0.00000000000E+00  0.00000000000E+00  0.94566091769E+03  0.94566091771E+03  0.50400001928E-02 0. -1.
        1   -1    0    0  501    0  0.00000000000E+00  0.00000000000E+00 -0.14588136654E+04  0.14588136654E+04  0.50400001928E-02 0.  1.
    10030    2    1    2    0    0  0.00000000000E+00  0.00000000000E+00 -0.51315274767E+03  0.24044745831E+04  0.23490790277E+04 0.  0.
        3    1    3    3  502    0  0.18948204442E+03  0.99088822027E+03 -0.87224203271E+03  0.13336300402E+04  0.10100000352E+00 0.  1.
       -3    1    3    3    0  502 -0.18948204442E+03 -0.99088822027E+03  0.35908928504E+03  0.10708445429E+04  0.10100000352E+00 0. -1.
</event>
<event>
 5   0  0.2065692E-05  0.2395688E+04  0.7818609E-02  0.8441120E-01
        1   -1    0    0  501    0  0.00000000000E+00  0.00000000000E+00  0.15582150968E+04  0.15582150968E+04  0.50400001928E-02 0. -1.
       -1   -1    0    0    0  501  0.00000000000E+00  0.00000000000E+00 -0.92081659280E+03  0.92081659282E+03  0.50400001928E-02 0.  1.
    10030    2    1    2    0    0  0.00000000000E+00  0.00000000000E+00  0.63739850399E+03  0.24790316896E+04  0.23956880567E+04 0.  0.
        3    1    3    3  502    0 -0.28792730806E+03  0.10827916661E+04 -0.11970261829E+03  0.11267957463E+04  0.10100000352E+00 0.  1.
       -3    1    3    3    0  502  0.28792730806E+03 -0.10827916661E+04  0.75710112228E+03  0.13522359433E+04  0.10100000352E+00 0. -1.
</event>
<event>
 5   0  0.4713971E-05  0.2476450E+04  0.7818609E-02  0.8411424E-01
       -2   -1    0    0    0  501  0.00000000000E+00  0.00000000000E+00  0.14149577283E+04  0.14149577283E+04  0.25500000920E-02 0.  1.
        2   -1    0    0  501    0  0.00000000000E+00  0.00000000000E+00 -0.10835663453E+04  0.10835663453E+04  0.25500000920E-02 0. -1.
    10030    2    1    2    0    0  0.00000000000E+00  0.00000000000E+00  0.33139138306E+03  0.24985240736E+04  0.24764495347E+04 0.  0.
        5    1    3    3  502    0 -0.32232369995E+03 -0.53939182070E+03 -0.91074599616E+03  0.11064883476E+04  0.46999998093E+01 0. -1.
       -5    1    3    3    0  502  0.32232369995E+03  0.53939182070E+03  0.12421373792E+04  0.13920357261E+04  0.46999998093E+01 0.  1.
</event>
<event>
 5   0  0.2057599E-05  0.2381130E+04  0.7818609E-02  0.8446602E-01
        1   -1    0    0  501    0  0.00000000000E+00  0.00000000000E+00  0.16626832435E+04  0.16626832435E+04  0.50400001928E-02 0. -1.
       -1   -1    0    0    0  501  0.00000000000E+00  0.00000000000E+00 -0.85250418853E+03  0.85250418855E+03  0.50400001928E-02 0.  1.
    10030    2    1    2    0    0  0.00000000000E+00  0.00000000000E+00  0.81017905497E+03  0.25151874321E+04  0.23811295045E+04 0.  0.
        4    1    3    3  502    0  0.93302617500E+03  0.63567016961E+03  0.58857551227E+01  0.11290042793E+04  0.12699999809E+01 0.  1.
       -4    1    3    3    0  502 -0.93302617500E+03 -0.63567016961E+03  0.80429329985E+03  0.13861831527E+04  0.12699999809E+01 0. -1.
</event>
<event>
 5   0  0.4856882E-05  0.2390059E+04  0.7818609E-02  0.8443235E-01
        2   -1    0    0  501    0  0.00000000000E+00  0.00000000000E+00  0.10814052028E+04  0.10814052028E+04  0.25500000920E-02 0. -1.
       -2   -1    0    0    0  501  0.00000000000E+00  0.00000000000E+00 -0.13205929127E+04  0.13205929127E+04  0.25500000920E-02 0.  1.
    10030    2    1    2    0    0  0.00000000000E+00  0.00000000000E+00 -0.23918770989E+03  0.24019981155E+04  0.23900594525E+04 0.  0.
        1    1    3    3  502    0 -0.93606567983E+03 -0.48220160795E+03 -0.68753500082E+03  0.12575538657E+04  0.50400001928E-02 0.  1.
       -1    1    3    3    0  502  0.93606567983E+03  0.48220160795E+03  0.44834729093E+03  0.11444442498E+04  0.50400001928E-02 0. -1.
</event>
<event>
 5   0  0.4756705E-05  0.2365972E+04  0.7818609E-02  0.8452354E-01
        2   -1    0    0  501    0  0.00000000000E+00  0.00000000000E+00  0.14601216254E+04  0.14601216254E+04  0.25500000920E-02 0.  1.
       -2   -1    0    0    0  501  0.00000000000E+00  0.00000000000E+00 -0.95845138986E+03  0.95845138986E+03  0.25500000920E-02 0. -1.
    10030    2    1    2    0    0  0.00000000000E+00  0.00000000000E+00  0.50167023555E+03  0.24185730153E+04  0.23659717676E+04 0.  0.
        3    1    3    3  502    0 -0.14062442275E+02  0.91593368667E+03  0.10160246037E+04  0.13680052179E+04  0.10100000352E+00 0.  1.
       -3    1    3    3    0  502  0.14062442275E+02 -0.91593368667E+03 -0.51435436815E+03  0.10505677974E+04  0.10100000352E+00 0. -1.
</event>
<event>
 5   0  0.2090039E-05  0.2402471E+04  0.7818609E-02  0.8438579E-01
        1   -1    0    0  501    0  0.00000000000E+00  0.00000000000E+00  0.18232844863E+04  0.18232844863E+04  0.50400001928E-02 0.  1.
       -1   -1    0    0    0  501  0.00000000000E+00  0.00000000000E+00 -0.79141070978E+03  0.79141070980E+03  0.50400001928E-02 0. -1.
    10030    2    1    2    0    0  0.00000000000E+00  0.00000000000E+00  0.10318737765E+04  0.26146951961E+04  0.24024711191E+04 0.  0.
        1    1    3    3  502    0 -0.46069285190E+03 -0.27195087620E+02  0.17229544153E+04  0.17836898256E+04  0.50400001928E-02 0.  1.
       -1    1    3    3    0  502  0.46069285190E+03  0.27195087620E+02 -0.69108063877E+03  0.83100537055E+03  0.50400001928E-02 0. -1.
</event>
<event>
 5   0  0.4756705E-05  0.2394106E+04  0.7818609E-02  0.8441714E-01
       -2   -1    0    0    0  501  0.00000000000E+00  0.00000000000E+00  0.54882235027E+03  0.54882235028E+03  0.25500000920E-02 0. -1.
        2   -1    0    0  501    0  0.00000000000E+00  0.00000000000E+00 -0.26109278882E+04  0.26109278882E+04  0.25500000920E-02 0.  1.
    10030    2    1    2    0    0  0.00000000000E+00  0.00000000000E+00 -0.20621055379E+04  0.31597502385E+04  0.23941057454E+04 0.  0.
        3    1    3    3  502    0  0.55210161126E+03 -0.67881189276E+03 -0.21092072340E+04  0.22834966480E+04  0.10100000352E+00 0.  1.
       -3    1    3    3    0  502 -0.55210161126E+03  0.67881189276E+03  0.47101696119E+02  0.87625359052E+03  0.10100000352E+00 0. -1.
</event>
<event>
 5   0  0.4856882E-05  0.2379075E+04  0.7818609E-02  0.8447379E-01
       -2   -1    0    0    0  501  0.00000000000E+00  0.00000000000E+00  0.72801633913E+03  0.72801633913E+03  0.25500000920E-02 0.  1.
        2   -1    0    0  501    0  0.00000000000E+00  0.00000000000E+00 -0.19436375188E+04  0.19436375188E+04  0.25500000920E-02 0. -1.
    10030    2    1    2    0    0  0.00000000000E+00  0.00000000000E+00 -0.12156211797E+04  0.26716538579E+04  0.23790753422E+04 0.  0.
        1    1    3    3  502    0  0.50743700227E+03 -0.15822037119E+03  0.58723944767E+03  0.79207080874E+03  0.50400001928E-02 0.  1.
       -1    1    3    3    0  502 -0.50743700227E+03  0.15822037119E+03 -0.18028606273E+04  0.18795830492E+04  0.50400001928E-02 0. -1.
</event>
<event>
 5   0  0.2139556E-05  0.1988109E+04  0.7818609E-02  0.8612200E-01
       -1   -1    0    0    0  501  0.00000000000E+00  0.00000000000E+00  0.55589325315E+03  0.55589325318E+03  0.50400001928E-02 0. -1.
        1   -1    0    0  501    0  0.00000000000E+00  0.00000000000E+00 -0.17775790307E+04  0.17775790307E+04  0.50400001928E-02 0.  1.
    10030    2    1    2    0    0  0.00000000000E+00  0.00000000000E+00 -0.12216857775E+04  0.23334722839E+04  0.19881088402E+04 0.  0.
        2    1    3    3  502    0 -0.55073690682E+03  0.77651473497E+03 -0.27503350150E+03  0.99092366058E+03  0.25500000920E-02 0. -1.
       -2    1    3    3    0  502  0.55073690682E+03 -0.77651473497E+03 -0.94665227602E+03  0.13425486233E+04  0.25500000920E-02 0.  1.
</event>
<event>
 5   0  0.4664127E-05  0.2394489E+04  0.7818609E-02  0.8441570E-01
        2   -1    0    0  501    0  0.00000000000E+00  0.00000000000E+00  0.19099774092E+04  0.19099774093E+04  0.25500000920E-02 0.  1.
       -2   -1    0    0    0  501  0.00000000000E+00  0.00000000000E+00 -0.75047713327E+03  0.75047713328E+03  0.25500000920E-02 0. -1.
    10030    2    1    2    0    0  0.00000000000E+00  0.00000000000E+00  0.11595002760E+04  0.26604545425E+04  0.23944889816E+04 0.  0.
        4    1    3    3  502    0  0.18235521952E+03 -0.50905906058E+02 -0.73373860177E+03  0.75777225206E+03  0.12699999809E+01 0. -1.
       -4    1    3    3    0  502 -0.18235521952E+03  0.50905906058E+02  0.18932388777E+04  0.19026822905E+04  0.12699999809E+01 0.  1.
</event>
<event>
 5   0  0.4914005E-05  0.2392136E+04  0.7818609E-02  0.8442454E-01
       -2   -1    0    0    0  501  0.00000000000E+00  0.00000000000E+00  0.13033391019E+04  0.13033391019E+04  0.25500000920E-02 0.  1.
        2   -1    0    0  501    0  0.00000000000E+00  0.00000000000E+00 -0.10976253968E+04  0.10976253968E+04  0.25500000920E-02 0. -1.
    10030    2    1    2    0    0  0.00000000000E+00  0.00000000000E+00  0.20571370510E+03  0.24009644986E+04  0.23921355303E+04 0.  0.
        2    1    3    3  502    0 -0.75324258342E+03 -0.56732592116E+03  0.84133394013E+03  0.12637546792E+04  0.25500000920E-02 0.  1.
       -2    1    3    3    0  502  0.75324258342E+03  0.56732592116E+03 -0.63562023503E+03  0.11372098195E+04  0.25500000920E-02 0. -1.
</event>
<event>
 5   0  0.2065692E-05  0.2410317E+04  0.7818609E-02  0.8435651E-01
       -1   -1    0    0    0  501  0.00000000000E+00  0.00000000000E+00  0.64655053760E+03  0.64655053762E+03  0.50400001928E-02 0. -1.
        1   -1    0    0  501    0  0.00000000000E+00  0.00000000000E+00 -0.22463933380E+04  0.22463933380E+04  0.50400001928E-02 0.  1.
    10030    2    1    2    0    0  0.00000000000E+00  0.00000000000E+00 -0.15998428004E+04  0.28929438756E+04  0.24103168426E+04 0.  0.
        3    1    3    3  502    0  0.11631910505E+04  0.30576442244E+03 -0.70771790561E+03  0.13954819763E+04  0.10100000352E+00 0.  1.
       -3    1    3    3    0  502 -0.11631910505E+04 -0.30576442244E+03 -0.89212489479E+03  0.14974618994E+04  0.10100000352E+00 0. -1.
</event>
<event>
 5   0  0.2057599E-05  0.2405958E+04  0.7818609E-02  0.8437276E-01
       -1   -1    0    0    0  501  0.00000000000E+00  0.00000000000E+00  0.89115744240E+03  0.89115744241E+03  0.50400001928E-02 0. -1.
        1   -1    0    0  501    0  0.00000000000E+00  0.00000000000E+00 -0.16239090715E+04  0.16239090716E+04  0.50400001928E-02 0.  1.
    10030    2    1    2    0    0  0.00000000000E+00  0.00000000000E+00 -0.73275162915E+03  0.25150665140E+04  0.24059581500E+04 0.  0.
        4    1    3    3  502    0 -0.10468356816E+04 -0.35621195826E+03 -0.86157258638E+03  0.14018062769E+04  0.12699999809E+01 0.  1.
       -4    1    3    3    0  502  0.10468356816E+04  0.35621195826E+03  0.12882095723E+03  0.11132602371E+04  0.12699999809E+01 0. -1.
</event>
<event>
 5   0  0.2149920E-05  0.2470814E+04  0.7818609E-02  0.8413457E-01
       -1   -1    0    0    0  501  0.00000000000E+00  0.00000000000E+00  0.82527541782E+03  0.82527541783E+03  0.50400001928E-02 0.  1.
        1   -1    0    0  501    0  0.00000000000E+00  0.00000000000E+00 -0.18493595048E+04  0.18493595048E+04  0.50400001928E-02 0. -1.
    10030    2    1    2    0    0  0.00000000000E+00  0.00000000000E+00 -0.10240840870E+04  0.26746349227E+04  0.24708143905E+04 0.  0.
        5    1    3    3  502    0 -0.17774140948E+03  0.82954445947E+03  0.46007657020E+03  0.96510546539E+03  0.46999998093E+01 0.  1.
       -5    1    3    3    0  502  0.17774140948E+03 -0.82954445947E+03 -0.14841606572E+04  0.17095294573E+04  0.46999998093E+01 0. -1.
</event>
<event>
 5   0  0.2057599E-05  0.2475778E+04  0.7818609E-02  0.8411666E-01
        1   -1    0    0  501    0  0.00000000000E+00  0.00000000000E+00  0.11410761076E+04  0.11410761076E+04  0.50400001928E-02 0.  1.
       -1   -1    0    0    0  501  0.00000000000E+00  0.00000000000E+00 -0.13429155787E+04  0.13429155787E+04  0.50400001928E-02 0. -1.
    10030    2    1    2    0    0  0.00000000000E+00  0.00000000000E+00 -0.20183947108E+03  0.24839916864E+04  0.24757777618E+04 0.  0.
        4    1    3    3  502    0 -0.12682931594E+03 -0.10609500488E+04 -0.72802668643E+03  0.12929521068E+04  0.12699999809E+01 0. -1.
       -4    1    3    3    0  502  0.12682931594E+03  0.10609500488E+04  0.52618721535E+03  0.11910395795E+04  0.12699999809E+01 0.  1.
</event>
<event>
 5   0  0.2090039E-05  0.2424394E+04  0.7818609E-02  0.8430427E-01
       -1   -1    0    0    0  501  0.00000000000E+00  0.00000000000E+00  0.12980679317E+04  0.12980679317E+04  0.50400001928E-02 0. -1.
        1   -1    0    0  501    0  0.00000000000E+00  0.00000000000E+00 -0.11320062670E+04  0.11320062670E+04  0.50400001928E-02 0.  1.
    10030    2    1    2    0    0  0.00000000000E+00  0.00000000000E+00  0.16606166476E+03  0.24300741987E+04  0.24243935602E+04 0.  0.
        1    1    3    3  502    0  0.10989479069E+04 -0.35258797503E+03 -0.28853473492E+03  0.11896457773E+04  0.50400001928E-02 0.  1.
       -1    1    3    3    0  502 -0.10989479069E+04  0.35258797503E+03  0.45459639968E+03  0.12404284215E+04  0.50400001928E-02 0. -1.
</event>
<event>
 5   0  0.4713971E-05  0.2395043E+04  0.7818609E-02  0.8441362E-01
        2   -1    0    0  501    0  0.00000000000E+00  0.00000000000E+00  0.13999971522E+04  0.13999971522E+04  0.25500000920E-02 0. -1.
       -2   -1    0    0    0  501  0.00000000000E+00  0.00000000000E+00 -0.10243291964E+04  0.10243291964E+04  0.25500000920E-02 0.  1.
    10030    2    1    2    0    0  0.00000000000E+00  0.00000000000E+00  0.37566795583E+03  0.24243263487E+04  0.23950431795E+04 0.  0.
        5    1    3    3  502    0 -0.74664090309E+03 -0.77174054692E+02  0.11323055922E+04  0.13585162925E+04  0.46999998093E+01 0. -1.
       -5    1    3    3    0  502  0.74664090309E+03  0.77174054692E+02 -0.75663763641E+03  0.10658100561E+04  0.46999998093E+01 0.  1.
</event>
<event>
 5   0  0.2057599E-05  0.2429304E+04  0.7818609E-02  0.8428613E-01
       -1   -1    0    0    0  501  0.00000000000E+00  0.00000000000E+00  0.18531258871E+04  0.18531258871E+04  0.50400001928E-02 0. -1.
        1   -1    0    0  501    0  0.00000000000E+00  0.00000000000E+00 -0.79615729382E+03  0.79615729383E+03  0.50400001928E-02 0.  1.
    10030    2    1    2    0    0  0.00000000000E+00  0.00000000000E+00  0.10569685933E+04  0.26492831809E+04  0.24293041731E+04 0.  0.
        4    1    3    3  502    0  0.10788534937E+04  0.50371420130E+03  0.26646740605E+03  0.12201062859E+04  0.12699999809E+01 0.  1.
       -4    1    3    3    0  502 -0.10788534937E+04 -0.50371420130E+03  0.79050118721E+03  0.14291768950E+04  0.12699999809E+01 0. -1.
</event>
<event>
 5   0  0.4713971E-05  0.2391559E+04  0.7818609E-02  0.8442671E-01
       -2   -1    0    0    0  501  0.00000000000E+00  0.00000000000E+00  0.90123860370E+03  0.90123860370E+03  0.25500000920E-02 0.  1.
        2   -1    0    0  501    0  0.00000000000E+00  0.00000000000E+00 -0.15865810317E+04  0.15865810317E+04  0.25500000920E-02 0. -1.
    10030    2    1    2    0    0  0.00000000000E+00  0.00000000000E+00 -0.68534242804E+03  0.24878196354E+04  0.23915585493E+04 0.  0.
        5    1    3    3  502    0 -0.72347549553E+02 -0.36688764641E+03 -0.15241800737E+04  0.15693908691E+04  0.46999998093E+01 0. -1.
       -5    1    3    3    0  502  0.72347549553E+02  0.36688764641E+03  0.83883764566E+03  0.91842876632E+03  0.46999998093E+01 0.  1.
</event>
<event>
 5   0  0.4756705E-05  0.2318084E+04  0.7818609E-02  0.8470825E-01
       -2   -1    0    0    0  501  0.00000000000E+00  0.00000000000E+00  0.84575369519E+03  0.84575369519E+03  0.25500000920E-02 0.  1.
        2   -1    0    0  501    0  0.00000000000E+00  0.00000000000E+00 -0.15883807570E+04  0.15883807570E+04  0.25500000920E-02 0. -1.
    10030    2    1    2    0    0  0.00000000000E+00  0.00000000000E+00 -0.74262706178E+03  0.24341344522E+04  0.23180844632E+04 0.  0.
        3    1    3    3  502    0 -0.16789142649E+03 -0.10207558957E+04 -0.92021501217E+03  0.13845308984E+04  0.10100000352E+00 0.  1.
       -3    1    3    3    0  502  0.16789142649E+03  0.10207558957E+04  0.17758795040E+03  0.10496035538E+04  0.10100000352E+00 0. -1.
</event>
<event>
 5   0  0.4756705E-05  0.2388427E+04  0.7818609E-02  0.8443849E-01
        2   -1    0    0  501    0  0.00000000000E+00  0.00000000000E+00  0.20247744685E+04  0.20247744685E+04  0.25500000920E-02 0.  1.
       -2   -1    0    0    0  501  0.00000000000E+00  0.00000000000E+00 -0.70434793505E+03  0.70434793505E+03  0.25500000920E-02 0. -1.
    10030    2    1    2    0    0  0.00000000000E+00  0.00000000000E+00  0.13204265334E+04  0.27291224035E+04  0.23884268595E+04 0.  0.
        3    1    3    3  502    0  0.90013128122E+02 -0.41085839866E+03  0.19373393837E+04  0.19824709039E+04  0.10100000352E+00 0.  1.
       -3    1    3    3    0  502 -0.90013128122E+02  0.41085839866E+03 -0.61691285023E+03  0.74665149967E+03  0.10100000352E+00 0. -1.
</event>
<event>
 5   0  0.2149920E-05  0.2454951E+04  0.7818609E-02  0.8419213E-01
        1   -1    0    0  501    0  0.00000000000E+00  0.00000000000E+00  0.13416395088E+04  0.13416395088E+04  0.50400001928E-02 0. -1.
       -1   -1    0    0    0  501  0.00000000000E+00  0.00000000000E+00 -0.11230256938E+04  0.11230256938E+04  0.50400001928E-02 0.  1.
    10030    2    1    2    0    0  0.00000000000E+00  0.00000000000E+00  0.21861381501E+03  0.24646652027E+04  0.24549506230E+04 0.  0.
        5    1    3    3  502    0 -0.40332840629E+02 -0.62680749131E+01  0.13409489565E+04  0.13415782574E+04  0.46999998093E+01 0. -1.
       -5    1    3    3    0  502  0.40332840629E+02  0.62680749131E+01 -0.11223351415E+04  0.11230869453E+04  0.46999998093E+01 0.  1.
</event>
<event>
 5   0  0.4713971E-05  0.2343073E+04  0.7818609E-02  0.8461129E-01
        2   -1    0    0  501    0  0.00000000000E+00  0.00000000000E+00  0.22609712830E+04  0.22609712830E+04  0.25500000920E-02 0.  1.
       -2   -1    0    0    0  501  0.00000000000E+00  0.00000000000E+00 -0.60703898144E+03  0.60703898145E+03  0.25500000920E-02 0. -1.
    10030    2    1    2    0    0  0.00000000000E+00  0.00000000000E+00  0.16539323015E+04  0.28680102644E+04  0.23430729435E+04 0.  0.
        5    1    3    3  502    0 -0.27148915443E+00  0.76248136915E+03  0.19156704900E+04  0.20618422414E+04  0.46999998093E+01 0.  1.
       -5    1    3    3    0  502  0.27148915443E+00 -0.76248136915E+03 -0.26173818851E+03  0.80616802302E+03  0.46999998093E+01 0. -1.
</event>
<event>
 5   0  0.4756705E-05  0.2091591E+04  0.7818609E-02  0.8564957E-01
        2   -1    0    0  501    0  0.00000000000E+00  0.00000000000E+00  0.13970056874E+04  0.13970056874E+04  0.25500000920E-02 0.  1.
       -2   -1    0    0    0  501  0.00000000000E+00  0.00000000000E+00 -0.78288006750E+03  0.78288006751E+03  0.25500000920E-02 0. -1.
    10030    2    1    2    0    0  0.00000000000E+00  0.00000000000E+00  0.61412561987E+03  0.21798857549E+04  0.20915906931E+04 0.  0.
        3    1    3    3  502    0  0.34245713740E+03  0.17730352291E+03 -0.70607160863E+03  0.80451883564E+03  0.10100000352E+00 0. -1.
       -3    1    3    3    0  502 -0.34245713740E+03 -0.17730352291E+03  0.13201972285E+04  0.13753669192E+04  0.10100000352E+00 0.  1.
</event>
<event>
 5   0  0.2065692E-05  0.2384995E+04  0.7818609E-02  0.8445143E-01
        1   -1    0    0  501    0  0.00000000000E+00  0.00000000000E+00  0.12877821578E+04  0.12877821579E+04  0.50400001928E-02 0. -1.
       -1   -1    0    0    0  501  0.00000000000E+00  0.00000000000E+00 -0.11042633758E+04  0.11042633758E+04  0.50400001928E-02 0.  1.
    10030    2    1    2    0    0  0.00000000000E+00  0.00000000000E+00  0.18351878207E+03  0.23920455336E+04  0.23849953232E+04 0.  0.
        3    1    3    3  502    0 -0.11624217274E+04 -0.57959236364E+02  0.35227154365E+03  0.12160093734E+04  0.10100000352E+00 0. -1.
       -3    1    3    3    0  502  0.11624217274E+04  0.57959236364E+02 -0.16875276158E+03  0.11760361603E+04  0.10100000352E+00 0.  1.
</event>
<event>
 5   0  0.2065692E-05  0.2360529E+04  0.7818609E-02  0.8454430E-01
       -1   -1    0    0    0  501  0.00000000000E+00  0.00000000000E+00  0.76107465813E+03  0.76107465814E+03  0.50400001928E-02 0. -1.
        1   -1    0    0  501    0  0.00000000000E+00  0.00000000000E+00 -0.18303389719E+04  0.18303389719E+04  0.50400001928E-02 0.  1.
    10030    2    1    2    0    0  0.00000000000E+00  0.00000000000E+00 -0.10692643137E+04  0.25914136300E+04  0.23605292689E+04 0.  0.
        3    1    3    3  502    0  0.11185908994E+04 -0.14498252143E+03 -0.91612572518E+03  0.14531179877E+04  0.10100000352E+00 0.  1.
       -3    1    3    3    0  502 -0.11185908994E+04  0.14498252143E+03 -0.15313858856E+03  0.11382956423E+04  0.10100000352E+00 0. -1.
</event>
<event>
 5   0  0.2057599E-05  0.2478337E+04  0.7818609E-02  0.8410744E-01
       -1   -1    0    0    0  501  0.00000000000E+00  0.00000000000E+00  0.16625596215E+04  0.16625596215E+04  0.50400001928E-02 0. -1.
        1   -1    0    0  501    0  0.00000000000E+00  0.00000000000E+00 -0.92359922573E+03  0.92359922574E+03  0.50400001928E-02 0.  1.
    10030    2    1    2    0    0  0.00000000000E+00  0.00000000000E+00  0.73896039580E+03  0.25861588473E+04  0.24783371677E+04 0.  0.
        4    1    3    3  502    0  0.30642416129E+03 -0.93888765817E+03  0.11504599108E+04  0.15162339597E+04  0.12699999809E+01 0. -1.
       -4    1    3    3    0  502 -0.30642416129E+03  0.93888765817E+03 -0.41149951501E+03  0.10699248876E+04  0.12699999809E+01 0.  1.
</event>
<event>
 5   0  0.4856882E-05  0.2359010E+04  0.7818609E-02  0.8455011E-01
       -2   -1    0    0    0  501  0.00000000000E+00  0.00000000000E+00  0.97364240787E+03  0.97364240787E+03  0.25500000920E-02 0. -1.
        2   -1    0    0  501    0  0.00000000000E+00  0.00000000000E+00 -0.14288943429E+04  0.14288943429E+04  0.25500000920E-02 0.  1.
    10030    2    1    2    0    0  0.00000000000E+00  0.00000000000E+00 -0.45525193502E+03  0.24025367508E+04  0.23590100709E+04 0.  0.
        1    1    3    3  502    0 -0.46977064275E+03  0.98443716292E+03 -0.68471789808E+03  0.12878818209E+04  0.50400001928E-02 0. -1.
       -1    1    3    3    0  502  0.46977064275E+03 -0.98443716292E+03  0.22946596306E+03  0.11146549299E+04  0.50400001928E-02 0.  1.
</event>
<event>
 5   0  0.4713971E-05  0.2442374E+04  0.7818609E-02  0.8423808E-01
       -2   -1    0    0    0  501  0.00000000000E+00  0.00000000000E+00  0.11465937234E+04  0.11465937234E+04  0.25500000920E-02 0. -1.
        2   -1    0    0  501    0  0.00000000000E+00  0.00000000000E+00 -0.13006327264E+04  0.13006327264E+04  0.25500000920E-02 0.  1.
    10030    2    1    2    0    0  0.00000000000E+00  0.00000000000E+00 -0.15403900301E+03  0.24472264498E+04  0.24423736983E+04 0.  0.
        5    1    3    3  502    0  0.65374117685E+03 -0.98067156956E+03 -0.39731222219E+03  0.12437738322E+04  0.46999998093E+01 0.  1.
       -5    1    3    3    0  502 -0.65374117685E+03  0.98067156956E+03  0.24327321918E+03  0.12034526176E+04  0.46999998093E+01 0. -1.
</event>
<event>
 5   0  0.4914005E-05  0.2392564E+04  0.7818609E-02  0.8442293E-01
       -2   -1    0    0    0  501  0.00000000000E+00  0.00000000000E+00  0.10577175903E+04  0.10577175903E+04  0.25500000920E-02 0.  1.
        2   -1    0    0  501    0  0.00000000000E+00  0.00000000000E+00 -0.13529990348E+04  0.13529990348E+04  0.25500000920E-02 0. -1.
    10030    2    1    2    0    0  0.00000000000E+00  0.00000000000E+00 -0.29528144446E+03  0.24107166252E+04  0.23925642134E+04 0.  0.
        2    1    3    3  502    0  0.11590943443E+04 -0.29033117897E+03 -0.89768145040E+02  0.11982696743E+04  0.25500000920E-02 0. -1.
       -2    1    3    3    0  502 -0.11590943443E+04  0.29033117897E+03 -0.20551329942E+03  0.12124469509E+04  0.25500000920E-02 0.  1.
</event>
<event>
 5   0  0.4756705E-05  0.2399517E+04  0.7818609E-02  0.8439685E-01
       -2   -1    0    0    0  501  0.00000000000E+00  0.00000000000E+00  0.93424550406E+03  0.93424550406E+03  0.25500000920E-02 0.  1.
        2   -1    0    0  501    0  0.00000000000E+00  0.00000000000E+00 -0.15407299331E+04  0.15407299331E+04  0.25500000920E-02 0. -1.
    10030    2    1    2    0    0  0.00000000000E+00  0.00000000000E+00 -0.60648442904E+03  0.24749754372E+04  0.23995166288E+04 0.  0.
        3    1    3    3  502    0 -0.74612514693E+03 -0.56082946119E+03  0.47424453926E+03  0.10469671975E+04  0.10100000352E+00 0.  1.
       -3    1    3    3    0  502  0.74612514693E+03  0.56082946119E+03 -0.10807289683E+04  0.14280082397E+04  0.10100000352E+00 0. -1.
</event>
<event>
 5   0  0.2139556E-05  0.2276444E+04  0.7818609E-02  0.8487267E-01
        1   -1    0    0  501    0  0.00000000000E+00  0.00000000000E+00  0.10007210307E+04  0.10007210307E+04  0.50400001928E-02 0. -1.
       -1   -1    0    0    0  501  0.00000000000E+00  0.00000000000E+00 -0.12946160133E+04  0.12946160133E+04  0.50400001928E-02 0.  1.
    10030    2    1    2    0    0  0.00000000000E+00  0.00000000000E+00 -0.29389498256E+03  0.22953370440E+04  0.22764441317E+04 0.  0.
        2    1    3    3  502    0  0.19097954734E+03  0.17299009274E+03 -0.12648193872E+04  0.12908008529E+04  0.25500000920E-02 0.  1.
       -2    1    3    3    0  502 -0.19097954734E+03 -0.17299009274E+03  0.97092440463E+03  0.10045361911E+04  0.25500000920E-02 0. -1.
</event>
<event>
 5   0  0.2090039E-05  0.2458214E+04  0.7818609E-02  0.8418025E-01
       -1   -1    0    0    0  501  0.00000000000E+00  0.00000000000E+00  0.13101301045E+04  0.13101301045E+04  0.50400001928E-02 0.  1.
        1   -1    0    0  501    0  0.00000000000E+00  0.00000000000E+00 -0.11530946068E+04  0.11530946068E+04  0.50400001928E-02 0. -1.
    10030    2    1    2    0    0  0.00000000000E+00  0.00000000000E+00  0.15703549763E+03  0.24632247113E+04  0.24582139514E+04 0.  0.
        1    1    3    3  502    0  0.11251730427E+03 -0.13624134240E+01  0.13049578502E+04  0.13098003629E+04  0.50400001928E-02 0.  1.
       -1    1    3    3    0  502 -0.11251730427E+03  0.13624134240E+01 -0.11479223526E+04  0.11534243484E+04  0.50400001928E-02 0. -1.
</event>
<event>
 5   0  0.4756705E-05  0.2613866E+04  0.7818609E-02  0.8363507E-01
       -2   -1    0    0    0  501  0.00000000000E+00  0.00000000000E+00  0.16033450263E+04  0.16033450263E+04  0.25500000920E-02 0.  1.
        2   -1    0    0  501    0  0.00000000000E+00  0.00000000000E+00 -0.10653186699E+04  0.10653186700E+04  0.25500000920E-02 0. -1.
    10030    2    1    2    0    0  0.00000000000E+00  0.00000000000E+00  0.53802635636E+03  0.26686636963E+04  0.26138656361E+04 0.  0.
        3    1    3    3  502    0 -0.54834616095E+03 -0.10471949553E+04  0.83816999916E+03  0.14490789296E+04  0.10100000352E+00 0.  1.
       -3    1    3    3    0  502  0.54834616095E+03  0.10471949553E+04 -0.30014364280E+03  0.12195847667E+04  0.10100000352E+00 0. -1.
</event>
<event>
 5   0  0.4713971E-05  0.2398240E+04  0.7818609E-02  0.8440163E-01
       -2   -1    0    0    0  501  0.00000000000E+00  0.00000000000E+00  0.11968962458E+04  0.11968962458E+04  0.25500000920E-02 0.  1.
        2   -1    0    0  501    0  0.00000000000E+00  0.00000000000E+00 -0.12013475112E+04  0.12013475112E+04  0.25500000920E-02 0. -1.
    10030    2    1    2    0    0  0.00000000000E+00  0.00000000000E+00 -0.44512654581E+01  0.23982437570E+04  0.23982396261E+04 0.  0.
        5    1    3    3  502    0 -0.33786582131E+03  0.11360974980E+04 -0.18387229969E+03  0.11994590242E+04  0.46999998093E+01 0.  1.
       -5    1    3    3    0  502  0.33786582131E+03 -0.11360974980E+04  0.17942103423E+03  0.11987847328E+04  0.46999998093E+01 0. -1.
</event>
<event>
 5   0  0.2065692E-05  0.2393052E+04  0.7818609E-02  0.8442109E-01
        1   -1    0    0  501    0  0.00000000000E+00  0.00000000000E+00  0.12172062449E+04  0.12172062449E+04  0.50400001928E-02 0.  1.
       -1   -1    0    0    0  501  0.00000000000E+00  0.00000000000E+00 -0.11761968551E+04  0.11761968551E+04  0.50400001928E-02 0. -1.
    10030    2    1    2    0    0  0.00000000000E+00  0.00000000000E+00  0.41009389808E+02  0.23934030999E+04  0.23930517397E+04 0.  0.
        3    1    3    3  502    0 -0.54862565067E+03 -0.67278174766E+03  0.84406275984E+03  0.12108126764E+04  0.10100000352E+00 0.  1.
       -3    1    3    3    0  502  0.54862565067E+03  0.67278174766E+03 -0.80305337003E+03  0.11825904235E+04  0.10100000352E+00 0. -1.
</event>
<event>
 5   0  0.2139556E-05  0.2406335E+04  0.7818609E-02  0.8437135E-01
        1   -1    0    0  501    0  0.00000000000E+00  0.00000000000E+00  0.15996111069E+04  0.15996111069E+04  0.50400001928E-02 0.  1.
       -1   -1    0    0    0  501  0.00000000000E+00  0.00000000000E+00 -0.90497781854E+03  0.90497781856E+03  0.50400001928E-02 0. -1.
    10030    2    1    2    0    0  0.00000000000E+00  0.00000000000E+00  0.69463328837E+03  0.25045889255E+04  0.24063354463E+04 0.  0.
        2    1    3    3  502    0 -0.61376943718E+03 -0.10344651973E+04  0.31822166788E+03  0.12442251389E+04  0.25500000920E-02 0.  1.
       -2    1    3    3    0  502  0.61376943718E+03  0.10344651973E+04  0.37641162049E+03  0.12603637866E+04  0.25500000920E-02 0. -1.
</event>
<event>
 5   0  0.2139556E-05  0.2403253E+04  0.7818609E-02  0.8438287E-01
        1   -1    0    0  501    0  0.00000000000E+00  0.00000000000E+00  0.10432252561E+04  0.10432252561E+04  0.50400001928E-02 0.  1.
       -1   -1    0    0    0  501  0.00000000000E+00  0.00000000000E+00 -0.13840788624E+04  0.13840788624E+04  0.50400001928E-02 0. -1.
    10030    2    1    2    0    0  0.00000000000E+00  0.00000000000E+00 -0.34085360628E+03  0.24273041186E+04  0.24032528172E+04 0.  0.
        2    1    3    3  502    0  0.42313106116E+03 -0.13309202767E+02 -0.13062653484E+04  0.13731519181E+04  0.25500000920E-02 0. -1.
       -2    1    3    3    0  502 -0.42313106116E+03  0.13309202767E+02  0.96541174214E+03  0.10541522004E+04  0.25500000920E-02 0.  1.
</event>
<event>
 5   0  0.4664127E-05  0.2394392E+04  0.7818609E-02  0.8441606E-01
        2   -1    0    0  501    0  0.00000000000E+00  0.00000000000E+00  0.12153948614E+04  0.12153948614E+04  0.25500000920E-02 0.  1.
       -2   -1    0    0    0  501  0.00000000000E+00  0.00000000000E+00 -0.11792697345E+04  0.11792697345E+04  0.25500000920E-02 0. -1.
    10030    2    1    2    0    0  0.00000000000E+00  0.00000000000E+00  0.36125126908E+02  0.23946645958E+04  0.23943920944E+04 0.  0.
        4    1    3    3  502    0  0.24026444317E+03 -0.71870055683E+03  0.94500096890E+03  0.12113157875E+04  0.12699999809E+01 0.  1.
       -4    1    3    3    0  502 -0.24026444317E+03  0.71870055683E+03 -0.90887584199E+03  0.11833488083E+04  0.12699999809E+01 0. -1.
</event>
<event>
 5   0  0.2149920E-05  0.1729964E+04  0.7818609E-02  0.8744457E-01
        1   -1    0    0  501    0  0.00000000000E+00  0.00000000000E+00  0.12039716036E+04  0.12039716036E+04  0.50400001928E-02 0.  1.
       -1   -1    0    0    0  501  0.00000000000E+00  0.00000000000E+00 -0.62143785910E+03  0.62143785912E+03  0.50400001928E-02 0. -1.
    10030    2    1    2    0    0  0.00000000000E+00  0.00000000000E+00  0.58253374447E+03  0.18254094627E+04  0.17299636248E+04 0.  0.
        5    1    3    3  502    0  0.63033067418E+02  0.17031563786E+03 -0.60108122998E+03  0.62793416783E+03  0.46999998093E+01 0. -1.
       -5    1    3    3    0  502 -0.63033067418E+02 -0.17031563786E+03  0.11836149745E+04  0.11974752949E+04  0.46999998093E+01 0.  1.
</event>
<event>
 5   0  0.4713971E-05  0.2406131E+04  0.7818609E-02  0.8437212E-01
       -2   -1    0    0    0  501  0.00000000000E+00  0.00000000000E+00  0.79597569030E+03  0.79597569030E+03  0.25500000920E-02 0. -1.
        2   -1    0    0  501    0  0.00000000000E+00  0.00000000000E+00 -0.18183556979E+04  0.18183556979E+04  0.25500000920E-02 0.  1.
    10030    2    1    2    0    0  0.00000000000E+00  0.00000000000E+00 -0.10223800076E+04  0.26143313882E+04  0.24061312781E+04 0.  0.
        5    1    3    3  502    0 -0.10069975725E+04 -0.15147331807E+03  0.18483046433E+03  0.10349747183E+04  0.46999998093E+01 0. -1.
       -5    1    3    3    0  502  0.10069975725E+04  0.15147331807E+03 -0.12072104719E+04  0.15793566699E+04  0.46999998093E+01 0.  1.
</event>
<event>
 5   0  0.2139556E-05  0.2398375E+04  0.7818609E-02  0.8440112E-01
       -1   -1    0    0    0  501  0.00000000000E+00  0.00000000000E+00  0.77461884205E+03  0.77461884206E+03  0.50400001928E-02 0.  1.
        1   -1    0    0  501    0  0.00000000000E+00  0.00000000000E+00 -0.18564622065E+04  0.18564622065E+04  0.50400001928E-02 0. -1.
    10030    2    1    2    0    0  0.00000000000E+00  0.00000000000E+00 -0.10818433645E+04  0.26310810486E+04  0.23983749538E+04 0.  0.
        2    1    3    3  502    0 -0.44580022562E+03 -0.57410594059E+03  0.50541115659E+03  0.88531119353E+03  0.25500000920E-02 0.  1.
       -2    1    3    3    0  502  0.44580022562E+03  0.57410594059E+03 -0.15872545211E+04  0.17457698551E+04  0.25500000920E-02 0. -1.
</event>
<event>
 5   0  0.4856882E-05  0.2420054E+04  0.7818609E-02  0.8432034E-01
       -2   -1    0    0    0  501  0.00000000000E+00  0.00000000000E+00  0.77691293619E+03  0.77691293620E+03  0.25500000920E-02 0. -1.
        2   -1    0    0  501    0  0.00000000000E+00  0.00000000000E+00 -0.18845931529E+04  0.18845931529E+04  0.25500000920E-02 0.  1.
    10030    2    1    2    0    0  0.00000000000E+00  0.00000000000E+00 -0.11076802167E+04  0.26615060891E+04  0.24200535531E+04 0.  0.
        1    1    3    3  502    0 -0.44064350941E+03  0.44855293986E+03  0.58313348059E+03  0.85756113394E+03  0.50400001928E-02 0. -1.
       -1    1    3    3    0  502  0.44064350941E+03 -0.44855293986E+03 -0.16908136973E+04  0.18039449551E+04  0.50400001928E-02 0.  1.
</event>
<event>
 5   0  0.2149920E-05  0.2388930E+04  0.7818609E-02  0.8443660E-01
        1   -1    0    0  501    0  0.00000000000E+00  0.00000000000E+00  0.18533717531E+04  0.18533717531E+04  0.50400001928E-02 0.  1.
       -1   -1    0    0    0  501  0.00000000000E+00  0.00000000000E+00 -0.76981127579E+03  0.76981127581E+03  0.50400001928E-02 0. -1.
    10030    2    1    2    0    0  0.00000000000E+00  0.00000000000E+00  0.10835604773E+04  0.26231830289E+04  0.23889298640E+04 0.  0.
        5    1    3    3  502    0 -0.46178387271E+03  0.26469182311E+03  0.17159415314E+04  0.17966033328E+04  0.46999998093E+01 0.  1.
       -5    1    3    3    0  502  0.46178387271E+03 -0.26469182311E+03 -0.63238105413E+03  0.82657969606E+03  0.46999998093E+01 0. -1.
</event>
<event>
 5   0  0.1672125E-05  0.2331891E+04  0.7818609E-02  0.8465452E-01
       -4   -1    0    0    0  501  0.00000000000E+00  0.00000000000E+00  0.10258222850E+04  0.10258230712E+04  0.12699999809E+01 0. -1.
        4   -1    0    0  501    0  0.00000000000E+00  0.00000000000E+00 -0.13252071130E+04  0.13252077216E+04  0.12699999809E+01 0.  1.
    10030    2    1    2    0    0  0.00000000000E+00  0.00000000000E+00 -0.29938482799E+03  0.23510307928E+04  0.23318907593E+04 0.  0.
        5    1    3    3  502    0  0.43255602158E+03  0.56080134878E+03 -0.10834713369E+04  0.12944246183E+04  0.46999998093E+01 0.  1.
       -5    1    3    3    0  502 -0.43255602158E+03 -0.56080134878E+03  0.78408650887E+03  0.10566061745E+04  0.46999998093E+01 0. -1.
</event>
<event>
 5   0  0.4914005E-05  0.2417677E+04  0.7818609E-02  0.8432915E-01
        2   -1    0    0  501    0  0.00000000000E+00  0.00000000000E+00  0.13996004766E+04  0.13996004766E+04  0.25500000920E-02 0.  1.
       -2   -1    0    0    0  501  0.00000000000E+00  0.00000000000E+00 -0.10440770164E+04  0.10440770164E+04  0.25500000920E-02 0. -1.
    10030    2    1    2    0    0  0.00000000000E+00  0.00000000000E+00  0.35552346022E+03  0.24436774931E+04  0.24176771412E+04 0.  0.
        2    1    3    3  502    0  0.77881428428E+03 -0.32567035200E+02  0.11116452857E+04  0.13577067218E+04  0.25500000920E-02 0.  1.
       -2    1    3    3    0  502 -0.77881428428E+03  0.32567035200E+02 -0.75612182544E+03  0.10859707713E+04  0.25500000920E-02 0. -1.
</event>
<event>
 5   0  0.4914005E-05  0.2473641E+04  0.7818609E-02  0.8412437E-01
        2   -1    0    0  501    0  0.00000000000E+00  0.00000000000E+00  0.19228855383E+04  0.19228855383E+04  0.25500000920E-02 0.  1.
       -2   -1    0    0    0  501  0.00000000000E+00  0.00000000000E+00 -0.79553589741E+03  0.79553589742E+03  0.25500000920E-02 0. -1.
    10030    2    1    2    0    0  0.00000000000E+00  0.00000000000E+00  0.11273496409E+04  0.27184214357E+04  0.24736406144E+04 0.  0.
        2    1    3    3  502    0 -0.43836876682E+02 -0.11470641072E+04  0.57621850891E+02  0.11493467777E+04  0.25500000920E-02 0. -1.
       -2    1    3    3    0  502  0.43836876682E+02  0.11470641072E+04  0.10697277900E+04  0.15690746580E+04  0.25500000920E-02 0.  1.
</event>
<event>
 5   0  0.4664127E-05  0.2393633E+04  0.7818609E-02  0.8441891E-01
       -2   -1    0    0    0  501  0.00000000000E+00  0.00000000000E+00  0.14149085821E+04  0.14149085821E+04  0.25500000920E-02 0.  1.
        2   -1    0    0  501    0  0.00000000000E+00  0.00000000000E+00 -0.10123412491E+04  0.10123412491E+04  0.25500000920E-02 0. -1.
    10030    2    1    2    0    0  0.00000000000E+00  0.00000000000E+00  0.40256733304E+03  0.24272498312E+04  0.23936334902E+04 0.  0.
        4    1    3    3  502    0  0.69752036709E+03 -0.89140881246E+03  0.59562084637E+03  0.12790270282E+04  0.12699999809E+01 0. -1.
       -4    1    3    3    0  502 -0.69752036709E+03  0.89140881246E+03 -0.19305351332E+03  0.11482228030E+04  0.12699999809E+01 0.  1.
</event>
<event>
 5   0  0.4914005E-05  0.2408416E+04  0.7818609E-02  0.8436360E-01
       -2   -1    0    0    0  501  0.00000000000E+00  0.00000000000E+00  0.95400764673E+03  0.95400764673E+03  0.25500000920E-02 0. -1.
        2   -1    0    0  501    0  0.00000000000E+00  0.00000000000E+00 -0.15200258780E+04  0.15200258780E+04  0.25500000920E-02 0.  1.
    10030    2    1    2    0    0  0.00000000000E+00  0.00000000000E+00 -0.56601823127E+03  0.24740335247E+04  0.24084155047E+04 0.  0.
        2    1    3    3  502    0 -0.73484622354E+03  0.74433521667E+03 -0.89599353319E+03  0.13772575280E+04  0.25500000920E-02 0.  1.
       -2    1    3    3    0  502  0.73484622354E+03 -0.74433521667E+03  0.32997530192E+03  0.10967759967E+04  0.25500000920E-02 0. -1.
</event>
<event>
 5   0  0.4914005E-05  0.2411071E+04  0.7818609E-02  0.8435370E-01
       -2   -1    0    0    0  501  0.00000000000E+00  0.00000000000E+00  0.95011097404E+03  0.95011097404E+03  0.25500000920E-02 0. -1.
        2   -1    0    0  501    0  0.00000000000E+00  0.00000000000E+00 -0.15296273202E+04  0.15296273202E+04  0.25500000920E-02 0.  1.
    10030    2    1    2    0    0  0.00000000000E+00  0.00000000000E+00 -0.57951634619E+03  0.24797382943E+04  0.24110708850E+04 0.  0.
        2    1    3    3  502    0 -0.84810684477E+03  0.85451533443E+03 -0.22607518842E+03  0.12249863949E+04  0.25500000920E-02 0. -1.
       -2    1    3    3    0  502  0.84810684477E+03 -0.85451533443E+03 -0.35344115777E+03  0.12547518993E+04  0.25500000920E-02 0.  1.
</event>
<event>
 5   0  0.4756705E-05  0.2450691E+04  0.7818609E-02  0.8420766E-01
       -2   -1    0    0    0  501  0.00000000000E+00  0.00000000000E+00  0.15057348183E+04  0.15057348183E+04  0.25500000920E-02 0. -1.
        2   -1    0    0  501    0  0.00000000000E+00  0.00000000000E+00 -0.99716891379E+03  0.99716891380E+03  0.25500000920E-02 0.  1.
    10030    2    1    2    0    0  0.00000000000E+00  0.00000000000E+00  0.50856590450E+03  0.25029037321E+04  0.24506912929E+04 0.  0.
        3    1    3    3  502    0  0.12870831571E+03  0.32319346057E+02 -0.98980828784E+03  0.99866452202E+03  0.10100000352E+00 0.  1.
       -3    1    3    3    0  502 -0.12870831571E+03 -0.32319346057E+02  0.14983741923E+04  0.15042392101E+04  0.10100000352E+00 0. -1.
</event>
<event>
 5   0  0.2057599E-05  0.2338405E+04  0.7818609E-02  0.8462930E-01
        1   -1    0    0  501    0  0.00000000000E+00  0.00000000000E+00  0.97752530565E+03  0.97752530566E+03  0.50400001928E-02 0.  1.
       -1   -1    0    0    0  501  0.00000000000E+00  0.00000000000E+00 -0.13984651139E+04  0.13984651139E+04  0.50400001928E-02 0. -1.
    10030    2    1    2    0    0  0.00000000000E+00  0.00000000000E+00 -0.42093980820E+03  0.23759904195E+04  0.23384054720E+04 0.  0.
        4    1    3    3  502    0 -0.81798404992E+03 -0.35066217267E+03 -0.98092627058E+03  0.13244922901E+04  0.12699999809E+01 0. -1.
       -4    1    3    3    0  502  0.81798404992E+03  0.35066217267E+03  0.55998646238E+03  0.10514981294E+04  0.12699999809E+01 0.  1.
</event>
<event>
 5   0  0.2090039E-05  0.2409842E+04  0.7818609E-02  0.8435828E-01
       -1   -1    0    0    0  501  0.00000000000E+00  0.00000000000E+00  0.58556388753E+03  0.58556388755E+03  0.50400001928E-02 0.  1.
        1   -1    0    0  501    0  0.00000000000E+00  0.00000000000E+00 -0.24793779124E+04  0.24793779124E+04  0.50400001928E-02 0. -1.
    10030    2    1    2    0    0  0.00000000000E+00  0.00000000000E+00 -0.18938140248E+04  0.30649417999E+04  0.24098416289E+04 0.  0.
        1    1    3    3  502    0  0.52220440814E+03 -0.36564502325E+03 -0.22473262275E+04  0.23359941994E+04  0.50400001928E-02 0. -1.
       -1    1    3    3    0  502 -0.52220440814E+03  0.36564502325E+03  0.35351220262E+03  0.72894760054E+03  0.50400001928E-02 0.  1.
</event>
<event>
 5   0  0.2065692E-05  0.2406084E+04  0.7818609E-02  0.8437229E-01
       -1   -1    0    0    0  501  0.00000000000E+00  0.00000000000E+00  0.17904935225E+04  0.17904935225E+04  0.50400001928E-02 0. -1.
        1   -1    0    0  501    0  0.00000000000E+00  0.00000000000E+00 -0.80833029522E+03  0.80833029524E+03  0.50400001928E-02 0.  1.
    10030    2    1    2    0    0  0.00000000000E+00  0.00000000000E+00  0.98216322725E+03  0.25988238177E+04  0.24060840864E+04 0.  0.
        3    1    3    3  502    0 -0.98707260048E+03 -0.10720743725E+03 -0.24267825936E+03  0.10221049364E+04  0.10100000352E+00 0. -1.
       -3    1    3    3    0  502  0.98707260048E+03  0.10720743725E+03  0.12248414866E+04  0.15767188813E+04  0.10100000352E+00 0.  1.
</event>
<event>
 5   0  0.2139556E-05  0.2402681E+04  0.7818609E-02  0.8438501E-01
        1   -1    0    0  501    0  0.00000000000E+00  0.00000000000E+00  0.14425588520E+04  0.14425588520E+04  0.50400001928E-02 0.  1.
       -1   -1    0    0    0  501  0.00000000000E+00  0.00000000000E+00 -0.10004574389E+04  0.10004574389E+04  0.50400001928E-02 0. -1.
    10030    2    1    2    0    0  0.00000000000E+00  0.00000000000E+00  0.44210141307E+03  0.24430162909E+04  0.24026807816E+04 0.  0.
        2    1    3    3  502    0 -0.33581912246E+02 -0.11582037064E+04  0.54363878919E+03  0.12798854259E+04  0.25500000920E-02 0.  1.
       -2    1    3    3    0  502  0.33581912246E+02  0.11582037064E+04 -0.10153737612E+03  0.11631308650E+04  0.25500000920E-02 0. -1.
</event>
<event>
 5   0  0.2090039E-05  0.2298066E+04  0.7818609E-02  0.8478684E-01
       -1   -1    0    0    0  501  0.00000000000E+00  0.00000000000E+00  0.19443321535E+04  0.19443321535E+04  0.50400001928E-02 0. -1.
        1   -1    0    0  501    0  0.00000000000E+00  0.00000000000E+00 -0.67903879816E+03  0.67903879817E+03  0.50400001928E-02 0.  1.
    10030    2    1    2    0    0  0.00000000000E+00  0.00000000000E+00  0.12652933553E+04  0.26233709516E+04  0.22980661163E+04 0.  0.
        1    1    3    3  502    0  0.78821452903E+03  0.22249039959E+03  0.15526393584E+04  0.17554125153E+04  0.50400001928E-02 0. -1.
       -1    1    3    3    0  502 -0.78821452903E+03 -0.22249039959E+03 -0.28734600308E+03  0.86795843633E+03  0.50400001928E-02 0.  1.
</event>
<event>
 5   0  0.4664127E-05  0.2385484E+04  0.7818609E-02  0.8444958E-01
       -2   -1    0    0    0  501  0.00000000000E+00  0.00000000000E+00  0.73412450338E+03  0.73412450338E+03  0.25500000920E-02 0. -1.
        2   -1    0    0  501    0  0.00000000000E+00  0.00000000000E+00 -0.19378634556E+04  0.19378634556E+04  0.25500000920E-02 0.  1.
    10030    2    1    2    0    0  0.00000000000E+00  0.00000000000E+00 -0.12037389522E+04  0.26719879589E+04  0.23854836381E+04 0.  0.
        4    1    3    3  502    0 -0.55580937265E+03  0.33920400737E+03 -0.17212152825E+04  0.18402627744E+04  0.12699999809E+01 0.  1.
       -4    1    3    3    0  502  0.55580937265E+03 -0.33920400737E+03  0.51747633026E+03  0.83172518456E+03  0.12699999809E+01 0. -1.
</event>
<event>
 5   0  0.4664127E-05  0.2356883E+04  0.7818609E-02  0.8455825E-01
       -2   -1    0    0    0  501  0.00000000000E+00  0.00000000000E+00  0.11252295942E+04  0.11252295942E+04  0.25500000920E-02 0. -1.
        2   -1    0    0  501    0  0.00000000000E+00  0.00000000000E+00 -0.12341694973E+04  0.12341694973E+04  0.25500000920E-02 0.  1.
    10030    2    1    2    0    0  0.00000000000E+00  0.00000000000E+00 -0.10893990318E+03  0.23593990915E+04  0.23568827231E+04 0.  0.
        4    1    3    3  502    0 -0.39785427216E+03  0.62896869037E+03 -0.96913731990E+03  0.12219322375E+04  0.12699999809E+01 0.  1.
       -4    1    3    3    0  502  0.39785427216E+03 -0.62896869037E+03  0.86019741672E+03  0.11374668540E+04  0.12699999809E+01 0. -1.
</event>
<event>
 5   0  0.4914005E-05  0.2436322E+04  0.7818609E-02  0.8426029E-01
        2   -1    0    0  501    0  0.00000000000E+00  0.00000000000E+00  0.12121733718E+04  0.12121733718E+04  0.25500000920E-02 0. -1.
       -2   -1    0    0    0  501  0.00000000000E+00  0.00000000000E+00 -0.12241783635E+04  0.12241783635E+04  0.25500000920E-02 0.  1.
    10030    2    1    2    0    0  0.00000000000E+00  0.00000000000E+00 -0.12004991627E+02  0.24363517353E+04  0.24363221582E+04 0.  0.
        2    1    3    3  502    0 -0.93118856142E+03 -0.32902289133E+03  0.70713182699E+03  0.12146619368E+04  0.25500000920E-02 0. -1.
       -2    1    3    3    0  502  0.93118856142E+03  0.32902289133E+03 -0.71913681861E+03  0.12216897985E+04  0.25500000920E-02 0.  1.
</event>
<event>
 5   0  0.1672125E-05  0.2237748E+04  0.7818609E-02  0.8502879E-01
       -3   -1    0    0    0  501  0.00000000000E+00  0.00000000000E+00  0.91124531285E+03  0.91124531845E+03  0.10100000352E+00 0. -1.
        3   -1    0    0  501    0  0.00000000000E+00  0.00000000000E+00 -0.13738112543E+04  0.13738112580E+04  0.10100000352E+00 0.  1.
    10030    2    1    2    0    0  0.00000000000E+00  0.00000000000E+00 -0.46256594141E+03  0.22850565764E+04  0.22377480438E+04 0.  0.
        2    1    3    3  502    0 -0.17247438055E+03  0.84175079737E+03 -0.96308379156E+03  0.12906673492E+04  0.25500000920E-02 0.  1.
       -2    1    3    3    0  502  0.17247438055E+03 -0.84175079737E+03  0.50051785015E+03  0.99438922719E+03  0.25500000920E-02 0. -1.
</event>
<event>
 5   0  0.2057599E-05  0.1988259E+04  0.7818609E-02  0.8612130E-01
        1   -1    0    0  501    0  0.00000000000E+00  0.00000000000E+00  0.99890226240E+03  0.99890226241E+03  0.50400001928E-02 0. -1.
       -1   -1    0    0    0  501  0.00000000000E+00  0.00000000000E+00 -0.98937922012E+03  0.98937922013E+03  0.50400001928E-02 0.  1.
    10030    2    1    2    0    0  0.00000000000E+00  0.00000000000E+00  0.95230422833E+01  0.19882814825E+04  0.19882586767E+04 0.  0.
        4    1    3    3  502    0 -0.31830941458E+03  0.39813872458E+03  0.85826776735E+03  0.99822868161E+03  0.12699999809E+01 0. -1.
       -4    1    3    3    0  502  0.31830941458E+03 -0.39813872458E+03 -0.84874472506E+03  0.99005280094E+03  0.12699999809E+01 0.  1.
</event>
<event>
 5   0  0.2065692E-05  0.2410499E+04  0.7818609E-02  0.8435583E-01
       -1   -1    0    0    0  501  0.00000000000E+00  0.00000000000E+00  0.11285838578E+04  0.11285838579E+04  0.50400001928E-02 0. -1.
        1   -1    0    0  501    0  0.00000000000E+00  0.00000000000E+00 -0.12871234686E+04  0.12871234686E+04  0.50400001928E-02 0.  1.
    10030    2    1    2    0    0  0.00000000000E+00  0.00000000000E+00 -0.15853961077E+03  0.24157073265E+04  0.24104993422E+04 0.  0.
        3    1    3    3  502    0  0.37273435964E+03 -0.11423462103E+04  0.14425465846E+02  0.12017045691E+04  0.10100000352E+00 0. -1.
       -3    1    3    3    0  502 -0.37273435964E+03  0.11423462103E+04 -0.17296507661E+03  0.12140027574E+04  0.10100000352E+00 0.  1.
</event>
<event>
 5   0  0.2057599E-05  0.2397885E+04  0.7818609E-02  0.8440296E-01
        1   -1    0    0  501    0  0.00000000000E+00  0.00000000000E+00  0.17384640389E+04  0.17384640390E+04  0.50400001928E-02 0. -1.
       -1   -1    0    0    0  501  0.00000000000E+00  0.00000000000E+00 -0.82685842166E+03  0.82685842167E+03  0.50400001928E-02 0.  1.
    10030    2    1    2    0    0  0.00000000000E+00  0.00000000000E+00  0.91160561729E+03  0.25653224606E+04  0.23978854279E+04 0.  0.
        4    1    3    3  502    0  0.50718064544E+03  0.22728707254E+03 -0.68071923217E+03  0.87879002407E+03  0.12699999809E+01 0.  1.
       -4    1    3    3    0  502 -0.50718064544E+03 -0.22728707254E+03  0.15923248495E+04  0.16865324366E+04  0.12699999809E+01 0. -1.
</event>
<event>
 5   0  0.2057599E-05  0.2414705E+04  0.7818609E-02  0.8434019E-01
       -1   -1    0    0    0  501  0.00000000000E+00  0.00000000000E+00  0.15581789034E+04  0.15581789034E+04  0.50400001928E-02 0. -1.
        1   -1    0    0  501    0  0.00000000000E+00  0.00000000000E+00 -0.93551536227E+03  0.93551536228E+03  0.50400001928E-02 0.  1.
    10030    2    1    2    0    0  0.00000000000E+00  0.00000000000E+00  0.62266354117E+03  0.24936942657E+04  0.24147052005E+04 0.  0.
        4    1    3    3  502    0  0.11891208752E+03  0.77302786211E+03  0.12611944248E+04  0.14840232984E+04  0.12699999809E+01 0. -1.
       -4    1    3    3    0  502 -0.11891208752E+03 -0.77302786211E+03 -0.63853088358E+03  0.10096709674E+04  0.12699999809E+01 0.  1.
</event>
<event>
 5   0  0.4856882E-05  0.2371790E+04  0.7818609E-02  0.8450141E-01
        2   -1    0    0  501    0  0.00000000000E+00  0.00000000000E+00  0.10890182899E+04  0.10890182899E+04  0.25500000920E-02 0.  1.
       -2   -1    0    0    0  501  0.00000000000E+00  0.00000000000E+00 -0.12913898503E+04  0.12913898503E+04  0.25500000920E-02 0. -1.
    10030    2    1    2    0    0  0.00000000000E+00  0.00000000000E+00 -0.20237156040E+03  0.23804081403E+04  0.23717901817E+04 0.  0.
        1    1    3    3  502    0  0.53457712289E+03  0.35904821545E+03 -0.11006248087E+04  0.12751718672E+04  0.50400001928E-02 0. -1.
       -1    1    3    3    0  502 -0.53457712289E+03 -0.35904821545E+03  0.89825324828E+03  0.11052362731E+04  0.50400001928E-02 0.  1.
</event>
<event>
 5   0  0.4914005E-05  0.2373770E+04  0.7818609E-02  0.8449390E-01
        2   -1    0    0  501    0  0.00000000000E+00  0.00000000000E+00  0.18085166405E+04  0.18085166405E+04  0.25500000920E-02 0.  1.
       -2   -1    0    0    0  501  0.00000000000E+00  0.00000000000E+00 -0.77892326479E+03  0.77892326479E+03  0.25500000920E-02 0. -1.
    10030    2    1    2    0    0  0.00000000000E+00  0.00000000000E+00  0.10295933757E+04  0.25874399053E+04  0.23737697328E+04 0.  0.
        2    1    3    3  502    0  0.19235824648E+03  0.67147663592E+03 -0.53116898741E+03  0.87750957873E+03  0.25500000920E-02 0. -1.
       -2    1    3    3    0  502 -0.19235824648E+03 -0.67147663592E+03  0.15607623631E+04  0.17099303266E+04  0.25500000920E-02 0.  1.
</event>
<event>
 5   0  0.4756705E-05  0.2395191E+04  0.7818609E-02  0.8441306E-01
       -2   -1    0    0    0  501  0.00000000000E+00  0.00000000000E+00  0.85649802962E+03  0.85649802962E+03  0.25500000920E-02 0.  1.
        2   -1    0    0  501    0  0.00000000000E+00  0.00000000000E+00 -0.16745333602E+04  0.16745333602E+04  0.25500000920E-02 0. -1.
    10030    2    1    2    0    0  0.00000000000E+00  0.00000000000E+00 -0.81803533059E+03  0.25310313898E+04  0.23951906175E+04 0.  0.
        3    1    3    3  502    0  0.11519884563E+04 -0.30537598644E+03 -0.28442119921E+03  0.12252458224E+04  0.10100000352E+00 0.  1.
       -3    1    3    3    0  502 -0.11519884563E+04  0.30537598644E+03 -0.53361413138E+03  0.13057855674E+04  0.10100000352E+00 0. -1.
</event>
<event>
 5   0  0.4713971E-05  0.2560725E+04  0.7818609E-02  0.8381666E-01
        2   -1    0    0  501    0  0.00000000000E+00  0.00000000000E+00  0.13934669483E+04  0.13934669483E+04  0.25500000920E-02 0. -1.
       -2   -1    0    0    0  501  0.00000000000E+00  0.00000000000E+00 -0.11764384688E+04  0.11764384688E+04  0.25500000920E-02 0.  1.
    10030    2    1    2    0    0  0.00000000000E+00  0.00000000000E+00  0.21702847947E+03  0.25699054171E+04  0.25607249934E+04 0.  0.
        5    1    3    3  502    0  0.71477275577E+03 -0.10432702680E+04 -0.92185436347E+02  0.12680036235E+04  0.46999998093E+01 0.  1.
       -5    1    3    3    0  502 -0.71477275577E+03  0.10432702680E+04  0.30921391581E+03  0.13019017936E+04  0.46999998093E+01 0. -1.
</event>
<event>
 5   0  0.2149920E-05  0.2444505E+04  0.7818609E-02  0.8423027E-01
        1   -1    0    0  501    0  0.00000000000E+00  0.00000000000E+00  0.10985371350E+04  0.10985371350E+04  0.50400001928E-02 0.  1.
       -1   -1    0    0    0  501  0.00000000000E+00  0.00000000000E+00 -0.13599002889E+04  0.13599002890E+04  0.50400001928E-02 0. -1.
    10030    2    1    2    0    0  0.00000000000E+00  0.00000000000E+00 -0.26136315397E+03  0.24584374239E+04  0.24445048311E+04 0.  0.
        5    1    3    3  502    0 -0.55263448285E+03  0.49874620217E+02  0.96455549714E+03  0.11127810865E+04  0.46999998093E+01 0.  1.
       -5    1    3    3    0  502  0.55263448285E+03 -0.49874620217E+02 -0.12259186511E+04  0.13456563374E+04  0.46999998093E+01 0. -1.
</event>
<event>
 5   0  0.2139556E-05  0.2403683E+04  0.7818609E-02  0.8438126E-01
        1   -1    0    0  501    0  0.00000000000E+00  0.00000000000E+00  0.18686781767E+04  0.18686781767E+04  0.50400001928E-02 0. -1.
       -1   -1    0    0    0  501  0.00000000000E+00  0.00000000000E+00 -0.77296525529E+03  0.77296525531E+03  0.50400001928E-02 0.  1.
    10030    2    1    2    0    0  0.00000000000E+00  0.00000000000E+00  0.10957129214E+04  0.26416434320E+04  0.24036832603E+04 0.  0.
        2    1    3    3  502    0 -0.13173505703E+03  0.11564959036E+04  0.87679746110E+03  0.14572613657E+04  0.25500000920E-02 0. -1.
       -2    1    3    3    0  502  0.13173505703E+03 -0.11564959036E+04  0.21891546030E+03  0.11843820663E+04  0.25500000920E-02 0.  1.
</event>
<event>
 5   0  0.2149920E-05  0.2374032E+04  0.7818609E-02  0.8449290E-01
        1   -1    0    0  501    0  0.00000000000E+00  0.00000000000E+00  0.23328665861E+04  0.23328665861E+04  0.50400001928E-02 0. -1.
       -1   -1    0    0    0  501  0.00000000000E+00  0.00000000000E+00 -0.60398086299E+03  0.60398086301E+03  0.50400001928E-02 0.  1.
    10030    2    1    2    0    0  0.00000000000E+00  0.00000000000E+00  0.17288857231E+04  0.29368474491E+04  0.23740318228E+04 0.  0.
        5    1    3    3  502    0 -0.56091226966E+03  0.96178521823E+03  0.13734964204E+04  0.17680972505E+04  0.46999998093E+01 0. -1.
       -5    1    3    3    0  502  0.56091226966E+03 -0.96178521823E+03  0.35538930263E+03  0.11687501986E+04  0.46999998093E+01 0.  1.
</event>
<event>
 5   0  0.4914005E-05  0.2397443E+04  0.7818609E-02  0.8440461E-01
       -2   -1    0    0    0  501  0.00000000000E+00  0.00000000000E+00  0.93307539528E+03  0.93307539528E+03  0.25500000920E-02 0.  1.
        2   -1    0    0  501    0  0.00000000000E+00  0.00000000000E+00 -0.15399975397E+04  0.15399975397E+04  0.25500000920E-02 0. -1.
    10030    2    1    2    0    0  0.00000000000E+00  0.00000000000E+00 -0.60692214445E+03  0.24730729350E+04  0.23974434826E+04 0.  0.
        2    1    3    3  502    0 -0.17228060782E+03 -0.81245367037E+02 -0.15242869626E+04  0.15361419732E+04  0.25500000920E-02 0. -1.
       -2    1    3    3    0  502  0.17228060782E+03  0.81245367037E+02  0.91736481818E+03  0.93693096178E+03  0.25500000920E-02 0.  1.
</event>
<event>
 5   0  0.4856882E-05  0.2388912E+04  0.7818609E-02  0.8443666E-01
       -2   -1    0    0    0  501  0.00000000000E+00  0.00000000000E+00  0.10835210172E+04  0.10835210172E+04  0.25500000920E-02 0.  1.
        2   -1    0    0  501    0  0.00000000000E+00  0.00000000000E+00 -0.13167487102E+04  0.13167487102E+04  0.25500000920E-02 0. -1.
    10030    2    1    2    0    0  0.00000000000E+00  0.00000000000E+00 -0.23322769292E+03  0.24002697274E+04  0.23889118040E+04 0.  0.
        1    1    3    3  502    0  0.43429253909E+03 -0.10321628818E+04 -0.53422764449E+03  0.12407132627E+04  0.50400001928E-02 0. -1.
       -1    1    3    3    0  502 -0.43429253909E+03  0.10321628818E+04  0.30099995157E+03  0.11595564647E+04  0.50400001928E-02 0.  1.
</event>
<event>
 5   0  0.4856882E-05  0.2009598E+04  0.7818609E-02  0.8602147E-01
       -2   -1    0    0    0  501  0.00000000000E+00  0.00000000000E+00  0.59975494301E+03  0.59975494301E+03  0.25500000920E-02 0.  1.
        2   -1    0    0  501    0  0.00000000000E+00  0.00000000000E+00 -0.16833887580E+04  0.16833887580E+04  0.25500000920E-02 0. -1.
    10030    2    1    2    0    0  0.00000000000E+00  0.00000000000E+00 -0.10836338150E+04  0.22831437010E+04  0.20095976997E+04 0.  0.
        1    1    3    3  502    0 -0.43629833463E+03  0.88802014024E+03 -0.74083163710E+03  0.12360289320E+04  0.50400001928E-02 0.  1.
       -1    1    3    3    0  502  0.43629833463E+03 -0.88802014024E+03 -0.34280217792E+03  0.10471147690E+04  0.50400001928E-02 0. -1.
</event>
<event>
 5   0  0.4756705E-05  0.2410132E+04  0.7818609E-02  0.8435720E-01
       -2   -1    0    0    0  501  0.00000000000E+00  0.00000000000E+00  0.67025309924E+03  0.67025309925E+03  0.25500000920E-02 0.  1.
        2   -1    0    0  501    0  0.00000000000E+00  0.00000000000E+00 -0.21666208001E+04  0.21666208001E+04  0.25500000920E-02 0. -1.
    10030    2    1    2    0    0  0.00000000000E+00  0.00000000000E+00 -0.14963677009E+04  0.28368738994E+04  0.24101322007E+04 0.  0.
        3    1    3    3  502    0  0.63911537302E+03  0.61054331967E+03 -0.17123349833E+04  0.19269983681E+04  0.10100000352E+00 0. -1.
       -3    1    3    3    0  502 -0.63911537302E+03 -0.61054331967E+03  0.21596728243E+03  0.90987553132E+03  0.10100000352E+00 0.  1.
</event>
<event>
 5   0  0.2057599E-05  0.2362285E+04  0.7818609E-02  0.8453760E-01
        1   -1    0    0  501    0  0.00000000000E+00  0.00000000000E+00  0.15150517703E+04  0.15150517703E+04  0.50400001928E-02 0. -1.
       -1   -1    0    0    0  501  0.00000000000E+00  0.00000000000E+00 -0.92082501054E+03  0.92082501056E+03  0.50400001928E-02 0.  1.
    10030    2    1    2    0    0  0.00000000000E+00  0.00000000000E+00  0.59422675975E+03  0.24358767809E+04  0.23622849637E+04 0.  0.
        4    1    3    3  502    0 -0.79165986705E+03 -0.32770097989E+03 -0.54122252590E+03  0.10134281981E+04  0.12699999809E+01 0.  1.
       -4    1    3    3    0  502  0.79165986705E+03  0.32770097989E+03  0.11354492856E+04  0.14224485827E+04  0.12699999809E+01 0. -1.
</event>
<event>
 5   0  0.4756705E-05  0.2375907E+04  0.7818609E-02  0.8448579E-01
        2   -1    0    0  501    0  0.00000000000E+00  0.00000000000E+00  0.21719666358E+04  0.21719666358E+04  0.25500000920E-02 0.  1.
       -2   -1    0    0    0  501  0.00000000000E+00  0.00000000000E+00 -0.64974912286E+03  0.64974912287E+03  0.25500000920E-02 0. -1.
    10030    2    1    2    0    0  0.00000000000E+00  0.00000000000E+00  0.15222175129E+04  0.28217157587E+04  0.23759069144E+04 0.  0.
        3    1    3    3  502    0 -0.48791501410E+03  0.63172852715E+03 -0.28380384612E+03  0.84716387215E+03  0.10100000352E+00 0. -1.
       -3    1    3    3    0  502  0.48791501410E+03 -0.63172852715E+03  0.18060213590E+04  0.19745518865E+04  0.10100000352E+00 0.  1.
</event>
<event>
 5   0  0.2139556E-05  0.2375490E+04  0.7818609E-02  0.8448737E-01
       -1   -1    0    0    0  501  0.00000000000E+00  0.00000000000E+00  0.86613777987E+03  0.86613777988E+03  0.50400001928E-02 0.  1.
        1   -1    0    0  501    0  0.00000000000E+00  0.00000000000E+00 -0.16287686302E+04  0.16287686302E+04  0.50400001928E-02 0. -1.
    10030    2    1    2    0    0  0.00000000000E+00  0.00000000000E+00 -0.76263085030E+03  0.24949064100E+04  0.23754898823E+04 0.  0.
        2    1    3    3  502    0 -0.43436587323E+03 -0.10037364412E+04  0.10519612405E+03  0.10987387222E+04  0.25500000920E-02 0.  1.
       -2    1    3    3    0  502  0.43436587323E+03  0.10037364412E+04 -0.86782697435E+03  0.13961676878E+04  0.25500000920E-02 0. -1.
</event>
<event>
 5   0  0.4713971E-05  0.2356635E+04  0.7818609E-02  0.8455919E-01
       -2   -1    0    0    0  501  0.00000000000E+00  0.00000000000E+00  0.99548817555E+03  0.99548817555E+03  0.25500000920E-02 0. -1.
        2   -1    0    0  501    0  0.00000000000E+00  0.00000000000E+00 -0.13947252027E+04  0.13947252027E+04  0.25500000920E-02 0.  1.
    10030    2    1    2    0    0  0.00000000000E+00  0.00000000000E+00 -0.39923702710E+03  0.23902133782E+04  0.23566352687E+04 0.  0.
        5    1    3    3  502    0 -0.49725563911E+03 -0.26542086162E+03 -0.12491077503E+04  0.13704027387E+04  0.46999998093E+01 0.  1.
       -5    1    3    3    0  502  0.49725563911E+03  0.26542086162E+03  0.84987072316E+03  0.10198106395E+04  0.46999998093E+01 0. -1.
</event>
<event>
 5   0  0.4756705E-05  0.2395174E+04  0.7818609E-02  0.8441313E-01
       -2   -1    0    0    0  501  0.00000000000E+00  0.00000000000E+00  0.11057820605E+04  0.11057820605E+04  0.25500000920E-02 0. -1.
        2   -1    0    0  501    0  0.00000000000E+00  0.00000000000E+00 -0.12970138405E+04  0.12970138405E+04  0.25500000920E-02 0.  1.
    10030    2    1    2    0    0  0.00000000000E+00  0.00000000000E+00 -0.19123178006E+03  0.24027959010E+04  0.23951740121E+04 0.  0.
        3    1    3    3  502    0 -0.32165719878E+03  0.41022367876E+02  0.10609050059E+04  0.11093536992E+04  0.10100000352E+00 0. -1.
       -3    1    3    3    0  502  0.32165719878E+03 -0.41022367876E+02 -0.12521367860E+04  0.12934422017E+04  0.10100000352E+00 0.  1.
</event>
<event>
 5   0  0.2139556E-05  0.2418630E+04  0.7818609E-02  0.8432562E-01
       -1   -1    0    0    0  501  0.00000000000E+00  0.00000000000E+00  0.85210764192E+03  0.85210764193E+03  0.50400001928E-02 0. -1.
        1   -1    0    0  501    0  0.00000000000E+00  0.00000000000E+00 -0.17162645871E+04  0.17162645871E+04  0.50400001928E-02 0.  1.
    10030    2    1    2    0    0  0.00000000000E+00  0.00000000000E+00 -0.86415694517E+03  0.25683722290E+04  0.24186295047E+04 0.  0.
        2    1    3    3  502    0 -0.76533204304E+03 -0.63537095095E+03 -0.11624184274E+04  0.15299169853E+04  0.25500000920E-02 0.  1.
       -2    1    3    3    0  502  0.76533204304E+03  0.63537095095E+03  0.29826148228E+03  0.10384552437E+04  0.25500000920E-02 0. -1.
</event>
<event>
 5   0  0.2139556E-05  0.2101729E+04  0.7818609E-02  0.8560482E-01
        1   -1    0    0  501    0  0.00000000000E+00  0.00000000000E+00  0.61657982932E+03  0.61657982934E+03  0.50400001928E-02 0.  1.
       -1   -1    0    0    0  501  0.00000000000E+00  0.00000000000E+00 -0.17910352200E+04  0.17910352200E+04  0.50400001928E-02 0. -1.
    10030    2    1    2    0    0  0.00000000000E+00  0.00000000000E+00 -0.11744553907E+04  0.24076150494E+04  0.21017289933E+04 0.  0.
        2    1    3    3  502    0  0.91096254278E+03 -0.50373309874E+03 -0.42234788081E+03  0.11233777288E+04  0.25500000920E-02 0.  1.
       -2    1    3    3    0  502 -0.91096254278E+03  0.50373309874E+03 -0.75210750988E+03  0.12842373206E+04  0.25500000920E-02 0. -1.
</event>
<event>
 5   0  0.2149920E-05  0.2425258E+04  0.7818609E-02  0.8430107E-01
       -1   -1    0    0    0  501  0.00000000000E+00  0.00000000000E+00  0.97500968144E+03  0.97500968145E+03  0.50400001928E-02 0. -1.
        1   -1    0    0  501    0  0.00000000000E+00  0.00000000000E+00 -0.15081587874E+04  0.15081587874E+04  0.50400001928E-02 0.  1.
    10030    2    1    2    0    0  0.00000000000E+00  0.00000000000E+00 -0.53314910595E+03  0.24831684688E+04  0.24252582699E+04 0.  0.
        5    1    3    3  502    0 -0.18667953979E+03  0.43594803468E+03 -0.14092642687E+04  0.14869256230E+04  0.46999998093E+01 0.  1.
       -5    1    3    3    0  502  0.18667953979E+03 -0.43594803468E+03  0.87611516270E+03  0.99624284581E+03  0.46999998093E+01 0. -1.
</event>
<event>
 5   0  0.4914005E-05  0.2407968E+04  0.7818609E-02  0.8436527E-01
        2   -1    0    0  501    0  0.00000000000E+00  0.00000000000E+00  0.25073538215E+04  0.25073538215E+04  0.25500000920E-02 0. -1.
       -2   -1    0    0    0  501  0.00000000000E+00  0.00000000000E+00 -0.57813030948E+03  0.57813030948E+03  0.25500000920E-02 0.  1.
    10030    2    1    2    0    0  0.00000000000E+00  0.00000000000E+00  0.19292235120E+04  0.30854841310E+04  0.24079678077E+04 0.  0.
        2    1    3    3  502    0 -0.99717668413E+03 -0.22949936209E+03  0.17775927043E+04  0.20510648744E+04  0.25500000920E-02 0. -1.
       -2    1    3    3    0  502  0.99717668413E+03  0.22949936209E+03  0.15163080773E+03  0.10344192566E+04  0.25500000920E-02 0.  1.
</event>
<event>
 5   0  0.4914005E-05  0.2415004E+04  0.7818609E-02  0.8433908E-01
        2   -1    0    0  501    0  0.00000000000E+00  0.00000000000E+00  0.24248153619E+04  0.24248153619E+04  0.25500000920E-02 0.  1.
       -2   -1    0    0    0  501  0.00000000000E+00  0.00000000000E+00 -0.60130807546E+03  0.60130807546E+03  0.25500000920E-02 0. -1.
    10030    2    1    2    0    0  0.00000000000E+00  0.00000000000E+00  0.18235072864E+04  0.30261234373E+04  0.24150039823E+04 0.  0.
        2    1    3    3  502    0 -0.11323800713E+04  0.36775748405E+02  0.38842816337E+03  0.11977117849E+04  0.25500000920E-02 0. -1.
       -2    1    3    3    0  502  0.11323800713E+04 -0.36775748405E+02  0.14350791231E+04  0.18284116525E+04  0.25500000920E-02 0.  1.
</event>
<event>
 5   0  0.2065692E-05  0.2414271E+04  0.7818609E-02  0.8434180E-01
       -1   -1    0    0    0  501  0.00000000000E+00  0.00000000000E+00  0.14335547666E+04  0.14335547666E+04  0.50400001928E-02 0. -1.
        1   -1    0    0  501    0  0.00000000000E+00  0.00000000000E+00 -0.10164774660E+04  0.10164774660E+04  0.50400001928E-02 0.  1.
    10030    2    1    2    0    0  0.00000000000E+00  0.00000000000E+00  0.41707730062E+03  0.24500322326E+04  0.24142710009E+04 0.  0.
        3    1    3    3  502    0 -0.11270465780E+04  0.26657491344E+02  0.64647636284E+03  0.12995677391E+04  0.10100000352E+00 0. -1.
       -3    1    3    3    0  502  0.11270465780E+04 -0.26657491344E+02 -0.22939906222E+03  0.11504644934E+04  0.10100000352E+00 0.  1.
</event>
<event>
 5   0  0.4664127E-05  0.1722266E+04  0.7818609E-02  0.8748766E-01
        2   -1    0    0  501    0  0.00000000000E+00  0.00000000000E+00  0.16635410573E+04  0.16635410573E+04  0.25500000920E-02 0. -1.
       -2   -1    0    0    0  501  0.00000000000E+00  0.00000000000E+00 -0.44576603484E+03  0.44576603485E+03  0.25500000920E-02 0.  1.
    10030    2    1    2    0    0  0.00000000000E+00  0.00000000000E+00  0.12177750225E+04  0.21093070922E+04  0.17222660665E+04 0.  0.
        4    1    3    3  502    0 -0.22918119319E+02 -0.54454878381E+03  0.14254144207E+04  0.15260624174E+04  0.12699999809E+01 0. -1.
       -4    1    3    3    0  502  0.22918119319E+02  0.54454878381E+03 -0.20763939817E+03  0.58324467482E+03  0.12699999809E+01 0.  1.
</event>
<event>
 5   0  0.2090039E-05  0.2393389E+04  0.7818609E-02  0.8441983E-01
        1   -1    0    0  501    0  0.00000000000E+00  0.00000000000E+00  0.10298402323E+04  0.10298402323E+04  0.50400001928E-02 0. -1.
       -1   -1    0    0    0  501  0.00000000000E+00  0.00000000000E+00 -0.13905819602E+04  0.13905819602E+04  0.50400001928E-02 0.  1.
    10030    2    1    2    0    0  0.00000000000E+00  0.00000000000E+00 -0.36074172791E+03  0.24204221925E+04  0.23933886011E+04 0.  0.
        1    1    3    3  502    0  0.25695325233E+03 -0.29526626531E+03  0.96327384771E+03  0.10397613414E+04  0.50400001928E-02 0. -1.
       -1    1    3    3    0  502 -0.25695325233E+03  0.29526626531E+03 -0.13240155756E+04  0.13806608511E+04  0.50400001928E-02 0.  1.
</event>
<event>
 5   0  0.4914005E-05  0.2425891E+04  0.7818609E-02  0.8429873E-01
       -2   -1    0    0    0  501  0.00000000000E+00  0.00000000000E+00  0.52752773679E+03  0.52752773679E+03  0.25500000920E-02 0. -1.
        2   -1    0    0  501    0  0.00000000000E+00  0.00000000000E+00 -0.27889281102E+04  0.27889281102E+04  0.25500000920E-02 0.  1.
    10030    2    1    2    0    0  0.00000000000E+00  0.00000000000E+00 -0.22614003734E+04  0.33164558470E+04  0.24258911221E+04 0.  0.
        2    1    3    3  502    0 -0.73254086009E+03  0.96335772775E+03 -0.10199499801E+04  0.15827103921E+04  0.25500000920E-02 0. -1.
       -2    1    3    3    0  502  0.73254086009E+03 -0.96335772775E+03 -0.12414503933E+04  0.17337454549E+04  0.25500000920E-02 0.  1.
</event>
<event>
 5   0  0.2065692E-05  0.2393028E+04  0.7818609E-02  0.8442118E-01
        1   -1    0    0  501    0  0.00000000000E+00  0.00000000000E+00  0.97740777529E+03  0.97740777530E+03  0.50400001928E-02 0. -1.
       -1   -1    0    0    0  501  0.00000000000E+00  0.00000000000E+00 -0.14647373443E+04  0.14647373443E+04  0.50400001928E-02 0.  1.
    10030    2    1    2    0    0  0.00000000000E+00  0.00000000000E+00 -0.48732956904E+03  0.24421451196E+04  0.23930279306E+04 0.  0.
        3    1    3    3  502    0 -0.47713626276E+03 -0.44761696986E+03 -0.12660382880E+04  0.14250869875E+04  0.10100000352E+00 0.  1.
       -3    1    3    3    0  502  0.47713626276E+03  0.44761696986E+03  0.77870871899E+03  0.10170581322E+04  0.10100000352E+00 0. -1.
</event>
<event>
 5   0  0.4856882E-05  0.2407275E+04  0.7818609E-02  0.8436785E-01
        2   -1    0    0  501    0  0.00000000000E+00  0.00000000000E+00  0.20788853600E+04  0.20788853600E+04  0.25500000920E-02 0. -1.
       -2   -1    0    0    0  501  0.00000000000E+00  0.00000000000E+00 -0.69688485996E+03  0.69688485997E+03  0.25500000920E-02 0.  1.
    10030    2    1    2    0    0  0.00000000000E+00  0.00000000000E+00  0.13820005000E+04  0.27757702200E+04  0.24072754167E+04 0.  0.
        1    1    3    3  502    0  0.29343795176E+03  0.61724058463E+03  0.18334484054E+04  0.19566872070E+04  0.50400001928E-02 0. -1.
       -1    1    3    3    0  502 -0.29343795176E+03 -0.61724058463E+03 -0.45144790535E+03  0.81908301296E+03  0.50400001928E-02 0.  1.
</event>
<event>
 5   0  0.4713971E-05  0.2394461E+04  0.7818609E-02  0.8441580E-01
       -2   -1    0    0    0  501  0.00000000000E+00  0.00000000000E+00  0.54942471786E+03  0.54942471787E+03  0.25500000920E-02 0.  1.
        2   -1    0    0  501    0  0.00000000000E+00  0.00000000000E+00 -0.26088385875E+04  0.26088385875E+04  0.25500000920E-02 0. -1.
    10030    2    1    2    0    0  0.00000000000E+00  0.00000000000E+00 -0.20594138696E+04  0.31582633054E+04  0.23944606114E+04 0.  0.
        5    1    3    3  502    0 -0.86808935749E+03 -0.46360977339E+03 -0.19289672972E+04  0.21655138139E+04  0.46999998093E+01 0. -1.
       -5    1    3    3    0  502  0.86808935749E+03  0.46360977339E+03 -0.13044657247E+03  0.99274949149E+03  0.46999998093E+01 0.  1.
</event>
<event>
 5   0  0.2090039E-05  0.2493287E+04  0.7818609E-02  0.8405381E-01
       -1   -1    0    0    0  501  0.00000000000E+00  0.00000000000E+00  0.93475924437E+03  0.93475924438E+03  0.50400001928E-02 0. -1.
        1   -1    0    0  501    0  0.00000000000E+00  0.00000000000E+00 -0.16625890241E+04  0.16625890241E+04  0.50400001928E-02 0.  1.
    10030    2    1    2    0    0  0.00000000000E+00  0.00000000000E+00 -0.72782977970E+03  0.25973482685E+04  0.24932873560E+04 0.  0.
        1    1    3    3  502    0  0.10499974176E+04 -0.46725854622E+03 -0.86708041579E+03  0.14396713422E+04  0.50400001928E-02 0.  1.
       -1    1    3    3    0  502 -0.10499974176E+04  0.46725854622E+03  0.13925063609E+03  0.11576769263E+04  0.50400001928E-02 0. -1.
</event>
<event>
 5   0  0.2057599E-05  0.2368248E+04  0.7818609E-02  0.8451487E-01
       -1   -1    0    0    0  501  0.00000000000E+00  0.00000000000E+00  0.74119946314E+03  0.74119946315E+03  0.50400001928E-02 0.  1.
        1   -1    0    0  501    0  0.00000000000E+00  0.00000000000E+00 -0.18917312866E+04  0.18917312866E+04  0.50400001928E-02 0. -1.
    10030    2    1    2    0    0  0.00000000000E+00  0.00000000000E+00 -0.11505318234E+04  0.26329307497E+04  0.23682484785E+04 0.  0.
        4    1    3    3  502    0  0.94299262691E+03 -0.56320976430E+03 -0.83433940296E+02  0.11015458085E+04  0.12699999809E+01 0.  1.
       -4    1    3    3    0  502 -0.94299262691E+03  0.56320976430E+03 -0.10670978831E+04  0.15313849412E+04  0.12699999809E+01 0. -1.
</event>
<event>
 5   0  0.2057599E-05  0.2363321E+04  0.7818609E-02  0.8453365E-01
        1   -1    0    0  501    0  0.00000000000E+00  0.00000000000E+00  0.11914177299E+04  0.11914177299E+04  0.50400001928E-02 0. -1.
       -1   -1    0    0    0  501  0.00000000000E+00  0.00000000000E+00 -0.11719828317E+04  0.11719828317E+04  0.50400001928E-02 0.  1.
    10030    2    1    2    0    0  0.00000000000E+00  0.00000000000E+00  0.19434898220E+02  0.23634005616E+04  0.23633206509E+04 0.  0.
        4    1    3    3  502    0 -0.11786734714E+04  0.24365235607E+02 -0.70626384510E+02  0.11810395912E+04  0.12699999809E+01 0. -1.
       -4    1    3    3    0  502  0.11786734714E+04 -0.24365235607E+02  0.90061282730E+02  0.11823609704E+04  0.12699999809E+01 0.  1.
</event>
<event>
 5   0  0.4914005E-05  0.2409677E+04  0.7818609E-02  0.8435889E-01
        2   -1    0    0  501    0  0.00000000000E+00  0.00000000000E+00  0.13938095249E+04  0.13938095249E+04  0.25500000920E-02 0.  1.
       -2   -1    0    0    0  501  0.00000000000E+00  0.00000000000E+00 -0.10414882667E+04  0.10414882667E+04  0.25500000920E-02 0. -1.
    10030    2    1    2    0    0  0.00000000000E+00  0.00000000000E+00  0.35232125817E+03  0.24352977916E+04  0.24096773777E+04 0.  0.
        2    1    3    3  502    0  0.80248220410E+03  0.86441002527E+03  0.42464855299E+03  0.12535983301E+04  0.25500000920E-02 0.  1.
       -2    1    3    3    0  502 -0.80248220410E+03 -0.86441002527E+03 -0.72327294812E+02  0.11816994615E+04  0.25500000920E-02 0. -1.
</event>
<event>
 5   0  0.4914005E-05  0.2309589E+04  0.7818609E-02  0.8474150E-01
        2   -1    0    0  501    0  0.00000000000E+00  0.00000000000E+00  0.11640458700E+04  0.11640458700E+04  0.25500000920E-02 0. -1.
       -2   -1    0    0    0  501  0.00000000000E+00  0.00000000000E+00 -0.11456167547E+04  0.11456167547E+04  0.25500000920E-02 0.  1.
    10030    2    1    2    0    0  0.00000000000E+00  0.00000000000E+00  0.18429115280E+02  0.23096626247E+04  0.23095890993E+04 0.  0.
        2    1    3    3  502    0  0.19690107949E+02  0.36866438658E+03 -0.10850091632E+04  0.11461003510E+04  0.25500000920E-02 0.  1.
       -2    1    3    3    0  502 -0.19690107949E+02 -0.36866438658E+03  0.11034382785E+04  0.11635622737E+04  0.25500000920E-02 0. -1.
</event>
<event>
 5   0  0.4664127E-05  0.2289732E+04  0.7818609E-02  0.8481981E-01
        2   -1    0    0  501    0  0.00000000000E+00  0.00000000000E+00  0.13157639926E+04  0.13157639926E+04  0.25500000920E-02 0.  1.
       -2   -1    0    0    0  501  0.00000000000E+00  0.00000000000E+00 -0.99616519324E+03  0.99616519324E+03  0.25500000920E-02 0. -1.
    10030    2    1    2    0    0  0.00000000000E+00  0.00000000000E+00  0.31959879932E+03  0.23119291858E+04  0.22897321170E+04 0.  0.
        4    1    3    3  502    0  0.29225174303E+03 -0.98702975378E+03  0.66573362956E+03  0.12259044394E+04  0.12699999809E+01 0.  1.
       -4    1    3    3    0  502 -0.29225174303E+03  0.98702975378E+03 -0.34613483024E+03  0.10860247464E+04  0.12699999809E+01 0. -1.
</event>
<event>
 5   0  0.4713971E-05  0.2210853E+04  0.7818609E-02  0.8513925E-01
       -2   -1    0    0    0  501  0.00000000000E+00  0.00000000000E+00  0.71481255952E+03  0.71481255952E+03  0.25500000920E-02 0.  1.
        2   -1    0    0  501    0  0.00000000000E+00  0.00000000000E+00 -0.17094933521E+04  0.17094933521E+04  0.25500000920E-02 0. -1.
    10030    2    1    2    0    0  0.00000000000E+00  0.00000000000E+00 -0.99468079254E+03  0.24243059116E+04  0.22108526124E+04 0.  0.
        5    1    3    3  502    0 -0.20589560061E+02 -0.99288105727E+03 -0.10297124575E+04  0.14305825942E+04  0.46999998093E+01 0.  1.
       -5    1    3    3    0  502  0.20589560061E+02  0.99288105727E+03  0.35031664949E+02  0.99372331733E+03  0.46999998093E+01 0. -1.
</event>
<event>
 5   0  0.4914005E-05  0.2254313E+04  0.7818609E-02  0.8496156E-01
        2   -1    0    0  501    0  0.00000000000E+00  0.00000000000E+00  0.20401451280E+04  0.20401451280E+04  0.25500000920E-02 0.  1.
       -2   -1    0    0    0  501  0.00000000000E+00  0.00000000000E+00 -0.62274112045E+03  0.62274112046E+03  0.25500000920E-02 0. -1.
    10030    2    1    2    0    0  0.00000000000E+00  0.00000000000E+00  0.14174040075E+04  0.26628862484E+04  0.22543134324E+04 0.  0.
        2    1    3    3  502    0 -0.10242718687E+04 -0.44888261913E+03  0.87514291844E+03  0.14200364765E+04  0.25500000920E-02 0.  1.
       -2    1    3    3    0  502  0.10242718687E+04  0.44888261913E+03  0.54226108907E+03  0.12428497719E+04  0.25500000920E-02 0. -1.
</event>
<event>
 5   0  0.4856882E-05  0.2307933E+04  0.7818609E-02  0.8474800E-01
       -2   -1    0    0    0  501  0.00000000000E+00  0.00000000000E+00  0.12707398589E+04  0.12707398589E+04  0.25500000920E-02 0. -1.
        2   -1    0    0  501    0  0.00000000000E+00  0.00000000000E+00 -0.10479234575E+04  0.10479234575E+04  0.25500000920E-02 0.  1.
    10030    2    1    2    0    0  0.00000000000E+00  0.00000000000E+00  0.22281640134E+03  0.23186633164E+04  0.23079325004E+04 0.  0.
        1    1    3    3  502    0 -0.14431467079E+03  0.28782459932E+03 -0.10018814724E+04  0.10523479505E+04  0.50400001928E-02 0.  1.
       -1    1    3    3    0  502  0.14431467079E+03 -0.28782459932E+03  0.12246978737E+04  0.12663153660E+04  0.50400001928E-02 0. -1.
</event>
<event>
 5   0  0.4664127E-05  0.2112675E+04  0.7818609E-02  0.8555680E-01
        2   -1    0    0  501    0  0.00000000000E+00  0.00000000000E+00  0.20278937153E+04  0.20278937153E+04  0.25500000920E-02 0.  1.
       -2   -1    0    0    0  501  0.00000000000E+00  0.00000000000E+00 -0.55025020338E+03  0.55025020338E+03  0.25500000920E-02 0. -1.
    10030    2    1    2    0    0  0.00000000000E+00  0.00000000000E+00  0.14776435120E+04  0.25781439187E+04  0.21126750146E+04 0.  0.
        4    1    3    3  502    0 -0.85321233330E+03  0.57951331517E+03  0.10172059401E+04  0.14486257300E+04  0.12699999809E+01 0.  1.
       -4    1    3    3    0  502  0.85321233330E+03 -0.57951331517E+03  0.46043757183E+03  0.11295181887E+04  0.12699999809E+01 0. -1.
</event>
<event>
 5   0  0.4664127E-05  0.2383344E+04  0.7818609E-02  0.8445766E-01
       -2   -1    0    0    0  501  0.00000000000E+00  0.00000000000E+00  0.97374515597E+03  0.97374515597E+03  0.25500000920E-02 0. -1.
        2   -1    0    0  501    0  0.00000000000E+00  0.00000000000E+00 -0.14583718176E+04  0.14583718176E+04  0.25500000920E-02 0.  1.
    10030    2    1    2    0    0  0.00000000000E+00  0.00000000000E+00 -0.48462666159E+03  0.24321169735E+04  0.23833442831E+04 0.  0.
        4    1    3    3  502    0 -0.19836533077E+03 -0.97631140078E+03  0.42493912219E+03  0.10831009308E+04  0.12699999809E+01 0. -1.
       -4    1    3    3    0  502  0.19836533077E+03  0.97631140078E+03 -0.90956578378E+03  0.13490160428E+04  0.12699999809E+01 0.  1.
</event>
<event>
 5   0  0.4713971E-05  0.2418274E+04  0.7818609E-02  0.8432694E-01
       -2   -1    0    0    0  501  0.00000000000E+00  0.00000000000E+00  0.20795107170E+04  0.20795107170E+04  0.25500000920E-02 0.  1.
        2   -1    0    0  501    0  0.00000000000E+00  0.00000000000E+00 -0.70305600820E+03  0.70305600821E+03  0.25500000920E-02 0. -1.
    10030    2    1    2    0    0  0.00000000000E+00  0.00000000000E+00  0.13764547088E+04  0.27825667252E+04  0.24182741810E+04 0.  0.
        5    1    3    3  502    0 -0.34045396664E+03  0.10387255988E+04  0.12829327808E+04  0.16854668145E+04  0.46999998093E+01 0.  1.
       -5    1    3    3    0  502  0.34045396664E+03 -0.10387255988E+04  0.93521927988E+02  0.10970999106E+04  0.46999998093E+01 0. -1.
</event>
<event>
 5   0  0.2057599E-05  0.2354057E+04  0.7818609E-02  0.8456907E-01
       -1   -1    0    0    0  501  0.00000000000E+00  0.00000000000E+00  0.10193209952E+04  0.10193209952E+04  0.50400001928E-02 0. -1.
        1   -1    0    0  501    0  0.00000000000E+00  0.00000000000E+00 -0.13591366154E+04  0.13591366154E+04  0.50400001928E-02 0.  1.
    10030    2    1    2    0    0  0.00000000000E+00  0.00000000000E+00 -0.33981562018E+03  0.23784576106E+04  0.23540573378E+04 0.  0.
        4    1    3    3  502    0 -0.11415419958E+04  0.61191879941E+02 -0.45304866433E+03  0.12296817797E+04  0.12699999809E+01 0. -1.
       -4    1    3    3    0  502  0.11415419958E+04 -0.61191879941E+02  0.11323304415E+03  0.11487758308E+04  0.12699999809E+01 0.  1.
</event>
<event>
 5   0  0.4713971E-05  0.2516399E+04  0.7818609E-02  0.8397166E-01
       -2   -1    0    0    0  501  0.00000000000E+00  0.00000000000E+00  0.70227630601E+03  0.70227630601E+03  0.25500000920E-02 0.  1.
        2   -1    0    0  501    0  0.00000000000E+00  0.00000000000E+00 -0.22541933280E+04  0.22541933280E+04  0.25500000920E-02 0. -1.
    10030    2    1    2    0    0  0.00000000000E+00  0.00000000000E+00 -0.15519170220E+04  0.29564696340E+04  0.25163994623E+04 0.  0.
        5    1    3    3  502    0 -0.36498660804E+03  0.13297533538E+03 -0.21819659190E+04  0.22162795459E+04  0.46999998093E+01 0. -1.
       -5    1    3    3    0  502  0.36498660804E+03 -0.13297533538E+03  0.63004889703E+03  0.74019008809E+03  0.46999998093E+01 0.  1.
</event>
<event>
 5   0  0.4756705E-05  0.2387953E+04  0.7818609E-02  0.8444028E-01
       -2   -1    0    0    0  501  0.00000000000E+00  0.00000000000E+00  0.85630840055E+03  0.85630840055E+03  0.25500000920E-02 0. -1.
        2   -1    0    0  501    0  0.00000000000E+00  0.00000000000E+00 -0.16647968191E+04  0.16647968191E+04  0.25500000920E-02 0.  1.
    10030    2    1    2    0    0  0.00000000000E+00  0.00000000000E+00 -0.80848841858E+03  0.25211052197E+04  0.23879526808E+04 0.  0.
        3    1    3    3  502    0 -0.79512870592E+03 -0.56173788579E+02  0.53425132752E+03  0.95958826830E+03  0.10100000352E+00 0. -1.
       -3    1    3    3    0  502  0.79512870592E+03  0.56173788579E+02 -0.13427397461E+04  0.15615169514E+04  0.10100000352E+00 0.  1.
</event>
<event>
 5   0  0.4713971E-05  0.2396452E+04  0.7818609E-02  0.8440833E-01
       -2   -1    0    0    0  501  0.00000000000E+00  0.00000000000E+00  0.11464171056E+04  0.11464171056E+04  0.25500000920E-02 0.  1.
        2   -1    0    0  501    0  0.00000000000E+00  0.00000000000E+00 -0.12523764771E+04  0.12523764771E+04  0.25500000920E-02 0. -1.
    10030    2    1    2    0    0  0.00000000000E+00  0.00000000000E+00 -0.10595937148E+03  0.23987935827E+04  0.23964522244E+04 0.  0.
        5    1    3    3  502    0 -0.65002183773E+03 -0.83488352986E+03 -0.61581440598E+03  0.12242582941E+04  0.46999998093E+01 0. -1.
       -5    1    3    3    0  502  0.65002183773E+03  0.83488352986E+03  0.50985503450E+03  0.11745352886E+04  0.46999998093E+01 0.  1.
</event>
<event>
 5   0  0.2090039E-05  0.2378864E+04  0.7818609E-02  0.8447459E-01
        1   -1    0    0  501    0  0.00000000000E+00  0.00000000000E+00  0.22304603088E+04  0.22304603088E+04  0.50400001928E-02 0.  1.
       -1   -1    0    0    0  501  0.00000000000E+00  0.00000000000E+00 -0.63428554542E+03  0.63428554544E+03  0.50400001928E-02 0. -1.
    10030    2    1    2    0    0  0.00000000000E+00  0.00000000000E+00  0.15961747633E+04  0.28647458542E+04  0.23788642109E+04 0.  0.
        1    1    3    3  502    0  0.96442733023E+03  0.82656918444E+02 -0.34323838433E+02  0.96857130216E+03  0.50400001928E-02 0.  1.
       -1    1    3    3    0  502 -0.96442733023E+03 -0.82656918444E+02  0.16304986018E+04  0.18961745521E+04  0.50400001928E-02 0. -1.
</event>
<event>
 5   0  0.2149920E-05  0.2377619E+04  0.7818609E-02  0.8447930E-01
       -1   -1    0    0    0  501  0.00000000000E+00  0.00000000000E+00  0.52736461845E+03  0.52736461847E+03  0.50400001928E-02 0. -1.
        1   -1    0    0  501    0  0.00000000000E+00  0.00000000000E+00 -0.26798693337E+04  0.26798693337E+04  0.50400001928E-02 0.  1.
    10030    2    1    2    0    0  0.00000000000E+00  0.00000000000E+00 -0.21525047153E+04  0.32072339522E+04  0.23776192031E+04 0.  0.
        5    1    3    3  502    0 -0.45078459238E+03 -0.22211485070E+03 -0.25295319022E+04  0.25789717893E+04  0.46999998093E+01 0.  1.
       -5    1    3    3    0  502  0.45078459238E+03  0.22211485070E+03  0.37702718695E+03  0.62826216290E+03  0.46999998093E+01 0. -1.
</event>
<event>
 5   0  0.2149920E-05  0.2421344E+04  0.7818609E-02  0.8431556E-01
        1   -1    0    0  501    0  0.00000000000E+00  0.00000000000E+00  0.15265415473E+04  0.15265415473E+04  0.50400001928E-02 0. -1.
       -1   -1    0    0    0  501  0.00000000000E+00  0.00000000000E+00 -0.96016130182E+03  0.96016130183E+03  0.50400001928E-02 0.  1.
    10030    2    1    2    0    0  0.00000000000E+00  0.00000000000E+00  0.56638024549E+03  0.24867028492E+04  0.24213435274E+04 0.  0.
        5    1    3    3  502    0  0.17856192557E+03 -0.11874567328E+04  0.12486598336E+03  0.12072909580E+04  0.46999998093E+01 0.  1.
       -5    1    3    3    0  502 -0.17856192557E+03  0.11874567328E+04  0.44151426214E+03  0.12794118911E+04  0.46999998093E+01 0. -1.
</event>
<event>
 5   0  0.4856882E-05  0.2363846E+04  0.7818609E-02  0.8453164E-01
       -2   -1    0    0    0  501  0.00000000000E+00  0.00000000000E+00  0.16280732207E+04  0.16280732207E+04  0.25500000920E-02 0. -1.
        2   -1    0    0  501    0  0.00000000000E+00  0.00000000000E+00 -0.85803400470E+03  0.85803400471E+03  0.25500000920E-02 0.  1.
    10030    2    1    2    0    0  0.00000000000E+00  0.00000000000E+00  0.77003921597E+03  0.24861072254E+04  0.23638461756E+04 0.  0.
        1    1    3    3  502    0 -0.54570015886E+03 -0.12999250495E+03  0.14791410740E+04  0.15819434350E+04  0.50400001928E-02 0. -1.
       -1    1    3    3    0  502  0.54570015886E+03  0.12999250495E+03 -0.70910185804E+03  0.90416379037E+03  0.50400001928E-02 0.  1.
</event>
<event>
 5   0  0.4856882E-05  0.2448770E+04  0.7818609E-02  0.8421467E-01
        2   -1    0    0  501    0  0.00000000000E+00  0.00000000000E+00  0.13828679147E+04  0.13828679147E+04  0.25500000920E-02 0. -1.
       -2   -1    0    0    0  501  0.00000000000E+00  0.00000000000E+00 -0.10840651263E+04  0.10840651263E+04  0.25500000920E-02 0.  1.
    10030    2    1    2    0    0  0.00000000000E+00  0.00000000000E+00  0.29880278846E+03  0.24669330410E+04  0.24487702061E+04 0.  0.
        1    1    3    3  502    0 -0.60696966532E+03  0.34990123405E+03  0.11609785377E+04  0.13559919665E+04  0.50400001928E-02 0. -1.
       -1    1    3    3    0  502  0.60696966532E+03 -0.34990123405E+03 -0.86217574927E+03  0.11109410744E+04  0.50400001928E-02 0.  1.
</event>
<event>
 5   0  0.2057599E-05  0.2040271E+04  0.7818609E-02  0.8588021E-01
        1   -1    0    0  501    0  0.00000000000E+00  0.00000000000E+00  0.23512699853E+04  0.23512699853E+04  0.50400001928E-02 0.  1.
       -1   -1    0    0    0  501  0.00000000000E+00  0.00000000000E+00 -0.44260165568E+03  0.44260165571E+03  0.50400001928E-02 0. -1.
    10030    2    1    2    0    0  0.00000000000E+00  0.00000000000E+00  0.19086683296E+04  0.27938716410E+04  0.20402705590E+04 0.  0.
        4    1    3    3  502    0 -0.78618750027E+02  0.52832517520E+03 -0.23580403906E+03  0.58387803208E+03  0.12699999809E+01 0. -1.
       -4    1    3    3    0  502  0.78618750027E+02 -0.52832517520E+03  0.21444723687E+04  0.22099936090E+04  0.12699999809E+01 0.  1.
</event>
<event>
 5   0  0.4914005E-05  0.2376282E+04  0.7818609E-02  0.8448437E-01
       -2   -1    0    0    0  501  0.00000000000E+00  0.00000000000E+00  0.13156241117E+04  0.13156241117E+04  0.25500000920E-02 0.  1.
        2   -1    0    0  501    0  0.00000000000E+00  0.00000000000E+00 -0.10730106569E+04  0.10730106569E+04  0.25500000920E-02 0. -1.
    10030    2    1    2    0    0  0.00000000000E+00  0.00000000000E+00  0.24261345482E+03  0.23886347685E+04  0.23762817108E+04 0.  0.
        2    1    3    3  502    0 -0.14222422080E+03 -0.31500186440E+03  0.12639768131E+04  0.13103782994E+04  0.25500000920E-02 0.  1.
       -2    1    3    3    0  502  0.14222422080E+03  0.31500186440E+03 -0.10213633583E+04  0.10782564691E+04  0.25500000920E-02 0. -1.
</event>
<event>
 5   0  0.1672125E-05  0.2407376E+04  0.7818609E-02  0.8436747E-01
        3   -1    0    0  501    0  0.00000000000E+00  0.00000000000E+00  0.16502452403E+04  0.16502452434E+04  0.10100000352E+00 0. -1.
       -3   -1    0    0    0  501  0.00000000000E+00  0.00000000000E+00 -0.87796956674E+03  0.87796957255E+03  0.10100000352E+00 0.  1.
    10030    2    1    2    0    0  0.00000000000E+00  0.00000000000E+00  0.77227567360E+03  0.25282148160E+04  0.24073762564E+04 0.  0.
        3    1    3    3  502    0  0.86639442170E+03 -0.35805082099E+03 -0.40675977381E+03  0.10219066533E+04  0.10100000352E+00 0.  1.
       -3    1    3    3    0  502 -0.86639442170E+03  0.35805082099E+03  0.11790354474E+04  0.15063081626E+04  0.10100000352E+00 0. -1.
</event>
<event>
 5   0  0.4713971E-05  0.2442224E+04  0.7818609E-02  0.8423863E-01
        2   -1    0    0  501    0  0.00000000000E+00  0.00000000000E+00  0.53361539243E+03  0.53361539243E+03  0.25500000920E-02 0. -1.
       -2   -1    0    0    0  501  0.00000000000E+00  0.00000000000E+00 -0.27943621344E+04  0.27943621344E+04  0.25500000920E-02 0.  1.
    10030    2    1    2    0    0  0.00000000000E+00  0.00000000000E+00 -0.22607467420E+04  0.33279775269E+04  0.24422241068E+04 0.  0.
        5    1    3    3  502    0 -0.86772572874E+03  0.61382319265E+03 -0.19495326178E+04  0.22204563428E+04  0.46999998093E+01 0.  1.
       -5    1    3    3    0  502  0.86772572874E+03 -0.61382319265E+03 -0.31121412418E+03  0.11075211841E+04  0.46999998093E+01 0. -1.
</event>
<event>
 5   0  0.4713971E-05  0.2390059E+04  0.7818609E-02  0.8443235E-01
        2   -1    0    0  501    0  0.00000000000E+00  0.00000000000E+00  0.21558282012E+04  0.21558282012E+04  0.25500000920E-02 0. -1.
       -2   -1    0    0    0  501  0.00000000000E+00  0.00000000000E+00 -0.66243500925E+03  0.66243500926E+03  0.25500000920E-02 0.  1.
    10030    2    1    2    0    0  0.00000000000E+00  0.00000000000E+00  0.14933931919E+04  0.28182632105E+04  0.23900594758E+04 0.  0.
        5    1    3    3  502    0 -0.95389881525E+03  0.30435413602E+03 -0.22491624668E+02  0.10015399907E+04  0.46999998093E+01 0.  1.
       -5    1    3    3    0  502  0.95389881525E+03 -0.30435413602E+03  0.15158848166E+04  0.18167232197E+04  0.46999998093E+01 0. -1.
</event>
<event>
 5   0  0.2090039E-05  0.1943225E+04  0.7818609E-02  0.8633635E-01
       -1   -1    0    0    0  501  0.00000000000E+00  0.00000000000E+00  0.89608574663E+03  0.89608574664E+03  0.50400001928E-02 0.  1.
        1   -1    0    0  501    0  0.00000000000E+00  0.00000000000E+00 -0.10535046878E+04  0.10535046878E+04  0.50400001928E-02 0. -1.
    10030    2    1    2    0    0  0.00000000000E+00  0.00000000000E+00 -0.15741894114E+03  0.19495904344E+04  0.19432246754E+04 0.  0.
        1    1    3    3  502    0 -0.79285726021E+03 -0.16446080779E+03  0.46004177297E+03  0.93129395213E+03  0.50400001928E-02 0.  1.
       -1    1    3    3    0  502  0.79285726021E+03  0.16446080779E+03 -0.61746071411E+03  0.10182964823E+04  0.50400001928E-02 0. -1.
</event>
<event>
 5   0  0.2057599E-05  0.2381602E+04  0.7818609E-02  0.8446424E-01
       -1   -1    0    0    0  501  0.00000000000E+00  0.00000000000E+00  0.11896247607E+04  0.11896247607E+04  0.50400001928E-02 0. -1.
        1   -1    0    0  501    0  0.00000000000E+00  0.00000000000E+00 -0.11919780446E+04  0.11919780446E+04  0.50400001928E-02 0.  1.
    10030    2    1    2    0    0  0.00000000000E+00  0.00000000000E+00 -0.23532839041E+01  0.23816028053E+04  0.23816016426E+04 0.  0.
        4    1    3    3  502    0  0.55494418812E+03  0.10532432997E+04 -0.28018465141E+02  0.11908279253E+04  0.12699999809E+01 0.  1.
       -4    1    3    3    0  502 -0.55494418812E+03 -0.10532432997E+04  0.25665181237E+02  0.11907748800E+04  0.12699999809E+01 0. -1.
</event>
<event>
 5   0  0.4756705E-05  0.2101013E+04  0.7818609E-02  0.8560797E-01
        2   -1    0    0  501    0  0.00000000000E+00  0.00000000000E+00  0.74235675615E+03  0.74235675616E+03  0.25500000920E-02 0. -1.
       -2   -1    0    0    0  501  0.00000000000E+00  0.00000000000E+00 -0.14865685863E+04  0.14865685863E+04  0.25500000920E-02 0.  1.
    10030    2    1    2    0    0  0.00000000000E+00  0.00000000000E+00 -0.74421183010E+03  0.22289253424E+04  0.21010133112E+04 0.  0.
        3    1    3    3  502    0  0.62953427601E+02  0.10480566698E+04 -0.33568961745E+03  0.11023036998E+04  0.10100000352E+00 0. -1.
       -3    1    3    3    0  502 -0.62953427601E+02 -0.10480566698E+04 -0.40852221265E+03  0.11266216426E+04  0.10100000352E+00 0.  1.
</event>
<event>
 5   0  0.4856882E-05  0.2245568E+04  0.7818609E-02  0.8499698E-01
        2   -1    0    0  501    0  0.00000000000E+00  0.00000000000E+00  0.15867274269E+04  0.15867274269E+04  0.25500000920E-02 0. -1.
       -2   -1    0    0    0  501  0.00000000000E+00  0.00000000000E+00 -0.79449302511E+03  0.79449302511E+03  0.25500000920E-02 0.  1.
    10030    2    1    2    0    0  0.00000000000E+00  0.00000000000E+00  0.79223440176E+03  0.23812204520E+04  0.22455679668E+04 0.  0.
        1    1    3    3  502    0 -0.49663758514E+03 -0.75672807088E+03  0.11005972668E+04  0.14249914413E+04  0.50400001928E-02 0. -1.
       -1    1    3    3    0  502  0.49663758514E+03  0.75672807088E+03 -0.30836286503E+03  0.95622901064E+03  0.50400001928E-02 0.  1.
</event>
<event>
 5   0  0.4713971E-05  0.2544604E+04  0.7818609E-02  0.8387265E-01
       -2   -1    0    0    0  501  0.00000000000E+00  0.00000000000E+00  0.14840661764E+04  0.14840661764E+04  0.25500000920E-02 0.  1.
        2   -1    0    0  501    0  0.00000000000E+00  0.00000000000E+00 -0.10907549212E+04  0.10907549212E+04  0.25500000920E-02 0. -1.
    10030    2    1    2    0    0  0.00000000000E+00  0.00000000000E+00  0.39331125526E+03  0.25748210976E+04  0.25446040834E+04 0.  0.
        5    1    3    3  502    0  0.74594602877E+03  0.77870054007E+03  0.87989257749E+03  0.13917769386E+04  0.46999998093E+01 0.  1.
       -5    1    3    3    0  502 -0.74594602877E+03 -0.77870054007E+03 -0.48658132222E+03  0.11830441590E+04  0.46999998093E+01 0. -1.
</event>
<event>
 5   0  0.4713971E-05  0.2353189E+04  0.7818609E-02  0.8457240E-01
       -2   -1    0    0    0  501  0.00000000000E+00  0.00000000000E+00  0.14124354241E+04  0.14124354241E+04  0.25500000920E-02 0. -1.
        2   -1    0    0  501    0  0.00000000000E+00  0.00000000000E+00 -0.98013317906E+03  0.98013317906E+03  0.25500000920E-02 0.  1.
    10030    2    1    2    0    0  0.00000000000E+00  0.00000000000E+00  0.43230224501E+03  0.23925686031E+04  0.23531891742E+04 0.  0.
        5    1    3    3  502    0 -0.10510374285E+04  0.35841403429E+03 -0.17921669279E+03  0.11248471048E+04  0.46999998093E+01 0.  1.
       -5    1    3    3    0  502  0.10510374285E+04 -0.35841403429E+03  0.61151893780E+03  0.12677214984E+04  0.46999998093E+01 0. -1.
</event>
<event>
 5   0  0.4756705E-05  0.2333277E+04  0.7818609E-02  0.8464915E-01
       -2   -1    0    0    0  501  0.00000000000E+00  0.00000000000E+00  0.95376057523E+03  0.95376057524E+03  0.25500000920E-02 0.  1.
        2   -1    0    0  501    0  0.00000000000E+00  0.00000000000E+00 -0.14270304502E+04  0.14270304502E+04  0.25500000920E-02 0. -1.
    10030    2    1    2    0    0  0.00000000000E+00  0.00000000000E+00 -0.47326987497E+03  0.23807910254E+04  0.23332769943E+04 0.  0.
        3    1    3    3  502    0  0.30651616318E+03  0.64283021494E+03  0.70622884867E+03  0.10029666198E+04  0.10100000352E+00 0.  1.
       -3    1    3    3    0  502 -0.30651616318E+03 -0.64283021494E+03 -0.11794987236E+04  0.13778244056E+04  0.10100000352E+00 0. -1.
</event>
<event>
 5   0  0.4664127E-05  0.2073626E+04  0.7818609E-02  0.8572951E-01
        2   -1    0    0  501    0  0.00000000000E+00  0.00000000000E+00  0.18058783211E+04  0.18058783211E+04  0.25500000920E-02 0.  1.
       -2   -1    0    0    0  501  0.00000000000E+00  0.00000000000E+00 -0.59526790504E+03  0.59526790504E+03  0.25500000920E-02 0. -1.
    10030    2    1    2    0    0  0.00000000000E+00  0.00000000000E+00  0.12106104160E+04  0.24011462261E+04  0.20736262006E+04 0.  0.
        4    1    3    3  502    0  0.59443708490E+03 -0.80158246472E+03  0.27965703917E+03  0.10363877499E+04  0.12699999809E+01 0. -1.
       -4    1    3    3    0  502 -0.59443708490E+03  0.80158246472E+03  0.93095337686E+03  0.13647584762E+04  0.12699999809E+01 0.  1.
</event>
<event>
 5   0  0.1672125E-05  0.2419344E+04  0.7818609E-02  0.8432297E-01
        3   -1    0    0  501    0  0.00000000000E+00  0.00000000000E+00  0.23179430712E+04  0.23179430734E+04  0.10100000352E+00 0. -1.
       -3   -1    0    0    0  501  0.00000000000E+00  0.00000000000E+00 -0.63129505242E+03  0.63129506050E+03  0.10100000352E+00 0.  1.
    10030    2    1    2    0    0  0.00000000000E+00  0.00000000000E+00  0.16866480188E+04  0.29492381339E+04  0.24193437191E+04 0.  0.
        2    1    3    3  502    0  0.18934680704E+03  0.85296537724E+03 -0.17651462788E+03  0.89138070541E+03  0.25500000920E-02 0.  1.
       -2    1    3    3    0  502 -0.18934680704E+03 -0.85296537724E+03  0.18631626467E+04  0.20578574285E+04  0.25500000920E-02 0. -1.
</event>
<event>
 5   0  0.4756705E-05  0.2083886E+04  0.7818609E-02  0.8568375E-01
       -2   -1    0    0    0  501  0.00000000000E+00  0.00000000000E+00  0.66618910571E+03  0.66618910571E+03  0.25500000920E-02 0.  1.
        2   -1    0    0  501    0  0.00000000000E+00  0.00000000000E+00 -0.16296352322E+04  0.16296352322E+04  0.25500000920E-02 0. -1.
    10030    2    1    2    0    0  0.00000000000E+00  0.00000000000E+00 -0.96344612652E+03  0.22958243379E+04  0.20838860218E+04 0.  0.
        3    1    3    3  502    0  0.78134753375E+02 -0.75635931753E+03 -0.12665355991E+04  0.14772599266E+04  0.10100000352E+00 0. -1.
       -3    1    3    3    0  502 -0.78134753375E+02  0.75635931753E+03  0.30308947255E+03  0.81856441132E+03  0.10100000352E+00 0.  1.
</event>
<event>
 5   0  0.4664127E-05  0.2394112E+04  0.7818609E-02  0.8441711E-01
        2   -1    0    0  501    0  0.00000000000E+00  0.00000000000E+00  0.14346125080E+04  0.14346125080E+04  0.25500000920E-02 0. -1.
       -2   -1    0    0    0  501  0.00000000000E+00  0.00000000000E+00 -0.99883635694E+03  0.99883635695E+03  0.25500000920E-02 0.  1.
    10030    2    1    2    0    0  0.00000000000E+00  0.00000000000E+00  0.43577615107E+03  0.24334488650E+04  0.23941120535E+04 0.  0.
        4    1    3    3  502    0 -0.48228547618E+03 -0.10813781682E+04  0.39032394578E+02  0.11846953887E+04  0.12699999809E+01 0. -1.
       -4    1    3    3    0  502  0.48228547618E+03  0.10813781682E+04  0.39674375649E+03  0.12487534763E+04  0.12699999809E+01 0.  1.
</event>
<event>
 5   0  0.4856882E-05  0.2391604E+04  0.7818609E-02  0.8442653E-01
        2   -1    0    0  501    0  0.00000000000E+00  0.00000000000E+00  0.25384750768E+04  0.25384750768E+04  0.25500000920E-02 0.  1.
       -2   -1    0    0    0  501  0.00000000000E+00  0.00000000000E+00 -0.56330780944E+03  0.56330780944E+03  0.25500000920E-02 0. -1.
    10030    2    1    2    0    0  0.00000000000E+00  0.00000000000E+00  0.19751672674E+04  0.31017828862E+04  0.23916043442E+04 0.  0.
        1    1    3    3  502    0  0.35318503394E+03  0.80124385004E+03 -0.68621010233E+02  0.87831669601E+03  0.50400001928E-02 0. -1.
       -1    1    3    3    0  502 -0.35318503394E+03 -0.80124385004E+03  0.20437882776E+04  0.22234661902E+04  0.50400001928E-02 0.  1.
</event>
<event>
 5   0  0.2057599E-05  0.2405049E+04  0.7818609E-02  0.8437616E-01
       -1   -1    0    0    0  501  0.00000000000E+00  0.00000000000E+00  0.69861235512E+03  0.69861235514E+03  0.50400001928E-02 0. -1.
        1   -1    0    0  501    0  0.00000000000E+00  0.00000000000E+00 -0.20699115272E+04  0.20699115272E+04  0.50400001928E-02 0.  1.
    10030    2    1    2    0    0  0.00000000000E+00  0.00000000000E+00 -0.13712991721E+04  0.27685238823E+04  0.24050494938E+04 0.  0.
        4    1    3    3  502    0  0.88755041268E+03 -0.31790574311E+03  0.17366264353E+03  0.95862929394E+03  0.12699999809E+01 0. -1.
       -4    1    3    3    0  502 -0.88755041268E+03  0.31790574311E+03 -0.15449618156E+04  0.18098945884E+04  0.12699999809E+01 0.  1.
</event>
<event>
 5   0  0.4756705E-05  0.2400953E+04  0.7818609E-02  0.8439147E-01
        2   -1    0    0  501    0  0.00000000000E+00  0.00000000000E+00  0.19472009714E+04  0.19472009714E+04  0.25500000920E-02 0. -1.
       -2   -1    0    0    0  501  0.00000000000E+00  0.00000000000E+00 -0.74011047457E+03  0.74011047457E+03  0.25500000920E-02 0.  1.
    10030    2    1    2    0    0  0.00000000000E+00  0.00000000000E+00  0.12070904968E+04  0.26873114460E+04  0.24009530066E+04 0.  0.
        3    1    3    3  502    0 -0.40112606323E+03  0.19260089695E+03 -0.64439995320E+03  0.78310186694E+03  0.10100000352E+00 0.  1.
       -3    1    3    3    0  502  0.40112606323E+03 -0.19260089695E+03  0.18514904500E+04  0.19042095790E+04  0.10100000352E+00 0. -1.
</event>
<event>
 5   0  0.4713971E-05  0.2463163E+04  0.7818609E-02  0.8416228E-01
       -2   -1    0    0    0  501  0.00000000000E+00  0.00000000000E+00  0.68044985001E+03  0.68044985002E+03  0.25500000920E-02 0. -1.
        2   -1    0    0  501    0  0.00000000000E+00  0.00000000000E+00 -0.22291027474E+04  0.22291027475E+04  0.25500000920E-02 0.  1.
    10030    2    1    2    0    0  0.00000000000E+00  0.00000000000E+00 -0.15486528974E+04  0.29095525975E+04  0.24631627069E+04 0.  0.
        5    1    3    3  502    0 -0.30112192567E+03 -0.66105847584E+03 -0.19490961412E+04  0.20800650423E+04  0.46999998093E+01 0.  1.
       -5    1    3    3    0  502  0.30112192567E+03  0.66105847584E+03  0.40044324379E+03  0.82948755512E+03  0.46999998093E+01 0. -1.
</event>
<event>
 5   0  0.2065692E-05  0.1815029E+04  0.7818609E-02  0.8698348E-01
        1   -1    0    0  501    0  0.00000000000E+00  0.00000000000E+00  0.13247581753E+04  0.13247581753E+04  0.50400001928E-02 0.  1.
       -1   -1    0    0    0  501  0.00000000000E+00  0.00000000000E+00 -0.62168528078E+03  0.62168528080E+03  0.50400001928E-02 0. -1.
    10030    2    1    2    0    0  0.00000000000E+00  0.00000000000E+00  0.70307289450E+03  0.19464434561E+04  0.18150290997E+04 0.  0.
        3    1    3    3  502    0  0.27772029200E+03  0.81570033244E+03  0.65691178735E+03  0.10835260493E+04  0.10100000352E+00 0.  1.
       -3    1    3    3    0  502 -0.27772029200E+03 -0.81570033244E+03  0.46161107146E+02  0.86291740679E+03  0.10100000352E+00 0. -1.
</event>
<event>
 5   0  0.2057599E-05  0.2346786E+04  0.7818609E-02  0.8459699E-01
        1   -1    0    0  501    0  0.00000000000E+00  0.00000000000E+00  0.11925494257E+04  0.11925494257E+04  0.50400001928E-02 0.  1.
       -1   -1    0    0    0  501  0.00000000000E+00  0.00000000000E+00 -0.11545443868E+04  0.11545443869E+04  0.50400001928E-02 0. -1.
    10030    2    1    2    0    0  0.00000000000E+00  0.00000000000E+00  0.38005038888E+02  0.23470938126E+04  0.23467860964E+04 0.  0.
        4    1    3    3  502    0  0.96927116385E+03  0.65806481455E+03 -0.46685186960E+02  0.11724832659E+04  0.12699999809E+01 0.  1.
       -4    1    3    3    0  502 -0.96927116385E+03 -0.65806481455E+03  0.84690225848E+02  0.11746105467E+04  0.12699999809E+01 0. -1.
</event>
<event>
 5   0  0.4664127E-05  0.2343302E+04  0.7818609E-02  0.8461041E-01
       -2   -1    0    0    0  501  0.00000000000E+00  0.00000000000E+00  0.12089749001E+04  0.12089749001E+04  0.25500000920E-02 0.  1.
        2   -1    0    0  501    0  0.00000000000E+00  0.00000000000E+00 -0.11354796099E+04  0.11354796099E+04  0.25500000920E-02 0. -1.
    10030    2    1    2    0    0  0.00000000000E+00  0.00000000000E+00  0.73495290159E+02  0.23444545100E+04  0.23433022409E+04 0.  0.
        4    1    3    3  502    0  0.10218103460E+04 -0.31690518925E+03 -0.44123140462E+03  0.11572432966E+04  0.12699999809E+01 0. -1.
       -4    1    3    3    0  502 -0.10218103460E+04  0.31690518925E+03  0.51472669477E+03  0.11872112135E+04  0.12699999809E+01 0.  1.
</event>
<event>
 5   0  0.2065692E-05  0.2397358E+04  0.7818609E-02  0.8440493E-01
        1   -1    0    0  501    0  0.00000000000E+00  0.00000000000E+00  0.11433764090E+04  0.11433764090E+04  0.50400001928E-02 0. -1.
       -1   -1    0    0    0  501  0.00000000000E+00  0.00000000000E+00 -0.12566567252E+04  0.12566567253E+04  0.50400001928E-02 0.  1.
    10030    2    1    2    0    0  0.00000000000E+00  0.00000000000E+00 -0.11328031626E+03  0.24000331343E+04  0.23973582576E+04 0.  0.
        3    1    3    3  502    0 -0.55220122504E+03  0.72192461048E+03 -0.83900447532E+03  0.12369437562E+04  0.10100000352E+00 0.  1.
       -3    1    3    3    0  502  0.55220122504E+03 -0.72192461048E+03  0.72572415906E+03  0.11630893781E+04  0.10100000352E+00 0. -1.
</event>
<event>
 5   0  0.4713971E-05  0.2420056E+04  0.7818609E-02  0.8432033E-01
        2   -1    0    0  501    0  0.00000000000E+00  0.00000000000E+00  0.18760091955E+04  0.18760091955E+04  0.25500000920E-02 0. -1.
       -2   -1    0    0    0  501  0.00000000000E+00  0.00000000000E+00 -0.78046937263E+03  0.78046937264E+03  0.25500000920E-02 0.  1.
    10030    2    1    2    0    0  0.00000000000E+00  0.00000000000E+00  0.10955398229E+04  0.26564785682E+04  0.24200559662E+04 0.  0.
        5    1    3    3  502    0 -0.12469921358E+03  0.89983725024E+03 -0.32962173741E+03  0.96640030555E+03  0.46999998093E+01 0.  1.
       -5    1    3    3    0  502  0.12469921358E+03 -0.89983725024E+03  0.14251615603E+04  0.16900782626E+04  0.46999998093E+01 0. -1.
</event>
<event>
 5   0  0.4914005E-05  0.2393005E+04  0.7818609E-02  0.8442127E-01
        2   -1    0    0  501    0  0.00000000000E+00  0.00000000000E+00  0.21423799671E+04  0.21423799671E+04  0.25500000920E-02 0.  1.
       -2   -1    0    0    0  501  0.00000000000E+00  0.00000000000E+00 -0.66823741931E+03  0.66823741931E+03  0.25500000920E-02 0. -1.
    10030    2    1    2    0    0  0.00000000000E+00  0.00000000000E+00  0.14741425478E+04  0.28106173864E+04  0.23930051905E+04 0.  0.
        2    1    3    3  502    0 -0.10435906633E+04  0.56731709507E+03  0.90600661276E+03  0.14939136994E+04  0.25500000920E-02 0.  1.
       -2    1    3    3    0  502  0.10435906633E+04 -0.56731709507E+03  0.56813593504E+03  0.13167036870E+04  0.25500000920E-02 0. -1.
</event>
<event>
 5   0  0.4713971E-05  0.2400945E+04  0.7818609E-02  0.8439150E-01
       -2   -1    0    0    0  501  0.00000000000E+00  0.00000000000E+00  0.11675675168E+04  0.11675675168E+04  0.25500000920E-02 0. -1.
        2   -1    0    0  501    0  0.00000000000E+00  0.00000000000E+00 -0.12343049153E+04  0.12343049153E+04  0.25500000920E-02 0.  1.
    10030    2    1    2    0    0  0.00000000000E+00  0.00000000000E+00 -0.66737398493E+02  0.24018724321E+04  0.24009450847E+04 0.  0.
        5    1    3    3  502    0 -0.71407168280E+03 -0.17469253163E+03 -0.98278551773E+03  0.12273163051E+04  0.46999998093E+01 0.  1.
       -5    1    3    3    0  502  0.71407168280E+03  0.17469253163E+03  0.91604811924E+03  0.11745561270E+04  0.46999998093E+01 0. -1.
</event>
<event>
 5   0  0.2149920E-05  0.2396934E+04  0.7818609E-02  0.8440652E-01
        1   -1    0    0  501    0  0.00000000000E+00  0.00000000000E+00  0.14771905787E+04  0.14771905787E+04  0.50400001928E-02 0. -1.
       -1   -1    0    0    0  501  0.00000000000E+00  0.00000000000E+00 -0.97233475201E+03  0.97233475202E+03  0.50400001928E-02 0.  1.
    10030    2    1    2    0    0  0.00000000000E+00  0.00000000000E+00  0.50485582668E+03  0.24495253307E+04  0.23969344881E+04 0.  0.
        5    1    3    3  502    0  0.60019297057E+03 -0.98121662482E+03  0.59638955783E+03  0.12956543758E+04  0.46999998093E+01 0. -1.
       -5    1    3    3    0  502 -0.60019297057E+03  0.98121662482E+03 -0.91533731144E+02  0.11538709550E+04  0.46999998093E+01 0.  1.
</event>
<event>
 5   0  0.2057599E-05  0.2444973E+04  0.7818609E-02  0.8422856E-01
       -1   -1    0    0    0  501  0.00000000000E+00  0.00000000000E+00  0.12560230374E+04  0.12560230374E+04  0.50400001928E-02 0.  1.
        1   -1    0    0  501    0  0.00000000000E+00  0.00000000000E+00 -0.11898455217E+04  0.11898455217E+04  0.50400001928E-02 0. -1.
    10030    2    1    2    0    0  0.00000000000E+00  0.00000000000E+00  0.66177515725E+02  0.24458685591E+04  0.24449731174E+04 0.  0.
        4    1    3    3  502    0  0.32590858487E+03 -0.60094983293E+03 -0.98074906950E+03  0.11955030145E+04  0.12699999809E+01 0. -1.
       -4    1    3    3    0  502 -0.32590858487E+03  0.60094983293E+03  0.10469265852E+04  0.12503655446E+04  0.12699999809E+01 0.  1.
</event>
<event>
 5   0  0.4756705E-05  0.2404994E+04  0.7818609E-02  0.8437636E-01
        2   -1    0    0  501    0  0.00000000000E+00  0.00000000000E+00  0.15823026030E+04  0.15823026030E+04  0.25500000920E-02 0. -1.
       -2   -1    0    0    0  501  0.00000000000E+00  0.00000000000E+00 -0.91385750922E+03  0.91385750922E+03  0.25500000920E-02 0.  1.
    10030    2    1    2    0    0  0.00000000000E+00  0.00000000000E+00  0.66844509374E+03  0.24961601122E+04  0.24049940670E+04 0.  0.
        3    1    3    3  502    0  0.85582490477E+03  0.79838636111E+03  0.47824052910E+02  0.11713855896E+04  0.10100000352E+00 0.  1.
       -3    1    3    3    0  502 -0.85582490477E+03 -0.79838636111E+03  0.62062104083E+03  0.13247745226E+04  0.10100000352E+00 0. -1.
</event>
<event>
 5   0  0.2139556E-05  0.2526882E+04  0.7818609E-02  0.8393471E-01
       -1   -1    0    0    0  501  0.00000000000E+00  0.00000000000E+00  0.10696564043E+04  0.10696564043E+04  0.50400001928E-02 0.  1.
        1   -1    0    0  501    0  0.00000000000E+00  0.00000000000E+00 -0.14923324555E+04  0.14923324555E+04  0.50400001928E-02 0. -1.
    10030    2    1    2    0    0  0.00000000000E+00  0.00000000000E+00 -0.42267605121E+03  0.25619888598E+04  0.25268818479E+04 0.  0.
        2    1    3    3  502    0  0.81450577549E+03  0.38994057996E+03  0.68457301496E+03  0.11331873309E+04  0.25500000920E-02 0.  1.
       -2    1    3    3    0  502 -0.81450577549E+03 -0.38994057996E+03 -0.11072490662E+04  0.14288015288E+04  0.25500000920E-02 0. -1.
</event>
<event>
 5   0  0.4664127E-05  0.2358878E+04  0.7818609E-02  0.8455061E-01
        2   -1    0    0  501    0  0.00000000000E+00  0.00000000000E+00  0.15375099660E+04  0.15375099660E+04  0.25500000920E-02 0. -1.
       -2   -1    0    0    0  501  0.00000000000E+00  0.00000000000E+00 -0.90475960937E+03  0.90475960937E+03  0.25500000920E-02 0.  1.
    10030    2    1    2    0    0  0.00000000000E+00  0.00000000000E+00  0.63275035666E+03  0.24422695754E+04  0.23588784761E+04 0.  0.
        4    1    3    3  502    0  0.22508781994E+03 -0.51822085890E+03  0.13882810303E+04  0.14988472962E+04  0.12699999809E+01 0. -1.
       -4    1    3    3    0  502 -0.22508781994E+03  0.51822085890E+03 -0.75553067362E+03  0.94342227924E+03  0.12699999809E+01 0.  1.
</event>
<event>
 5   0  0.2057599E-05  0.2401572E+04  0.7818609E-02  0.8438915E-01
        1   -1    0    0  501    0  0.00000000000E+00  0.00000000000E+00  0.10872280857E+04  0.10872280857E+04  0.50400001928E-02 0. -1.
       -1   -1    0    0    0  501  0.00000000000E+00  0.00000000000E+00 -0.13262047239E+04  0.13262047239E+04  0.50400001928E-02 0.  1.
    10030    2    1    2    0    0  0.00000000000E+00  0.00000000000E+00 -0.23897663827E+03  0.24134328096E+04  0.24015720045E+04 0.  0.
        4    1    3    3  502    0  0.37383116899E+03  0.43154661194E+03 -0.11810686410E+04  0.13118334379E+04  0.12699999809E+01 0.  1.
       -4    1    3    3    0  502 -0.37383116899E+03 -0.43154661194E+03  0.94209200273E+03  0.11015993717E+04  0.12699999809E+01 0. -1.
</event>
<event>
 5   0  0.2090039E-05  0.2349326E+04  0.7818609E-02  0.8458723E-01
       -1   -1    0    0    0  501  0.00000000000E+00  0.00000000000E+00  0.13740724309E+04  0.13740724309E+04  0.50400001928E-02 0. -1.
        1   -1    0    0  501    0  0.00000000000E+00  0.00000000000E+00 -0.10041922550E+04  0.10041922551E+04  0.50400001928E-02 0.  1.
    10030    2    1    2    0    0  0.00000000000E+00  0.00000000000E+00  0.36988017588E+03  0.23782646860E+04  0.23493257697E+04 0.  0.
        1    1    3    3  502    0  0.96065825236E+03 -0.61523940696E+03  0.46847784032E+03  0.12332296188E+04  0.50400001928E-02 0. -1.
       -1    1    3    3    0  502 -0.96065825236E+03  0.61523940696E+03 -0.98597664446E+02  0.11450350672E+04  0.50400001928E-02 0.  1.
</event>
<event>
 5   0  0.2149920E-05  0.2380993E+04  0.7818609E-02  0.8446654E-01
        1   -1    0    0  501    0  0.00000000000E+00  0.00000000000E+00  0.77311477472E+03  0.77311477473E+03  0.50400001928E-02 0.  1.
       -1   -1    0    0    0  501  0.00000000000E+00  0.00000000000E+00 -0.18332105149E+04  0.18332105149E+04  0.50400001928E-02 0. -1.
    10030    2    1    2    0    0  0.00000000000E+00  0.00000000000E+00 -0.10600957402E+04  0.26063252896E+04  0.23809931829E+04 0.  0.
        5    1    3    3  502    0 -0.65441753104E+03 -0.32967325188E+03  0.49699623547E+03  0.88542312258E+03  0.46999998093E+01 0.  1.
       -5    1    3    3    0  502  0.65441753104E+03  0.32967325188E+03 -0.15570919757E+04  0.17209021671E+04  0.46999998093E+01 0. -1.
</event>
<event>
 5   0  0.2065692E-05  0.2392590E+04  0.7818609E-02  0.8442283E-01
       -1   -1    0    0    0  501  0.00000000000E+00  0.00000000000E+00  0.17509439379E+04  0.17509439379E+04  0.50400001928E-02 0.  1.
        1   -1    0    0  501    0  0.00000000000E+00  0.00000000000E+00 -0.81734329052E+03  0.81734329054E+03  0.50400001928E-02 0. -1.
    10030    2    1    2    0    0  0.00000000000E+00  0.00000000000E+00  0.93360064735E+03  0.25682872284E+04  0.23925904620E+04 0.  0.
        3    1    3    3  502    0 -0.82255911450E+03  0.32319511180E+03 -0.39867199152E+03  0.96953491126E+03  0.10100000352E+00 0. -1.
       -3    1    3    3    0  502  0.82255911450E+03 -0.32319511180E+03  0.13322726389E+04  0.15987523172E+04  0.10100000352E+00 0.  1.
</event>
<event>
 5   0  0.4914005E-05  0.2387240E+04  0.7818609E-02  0.8444296E-01
       -2   -1    0    0    0  501  0.00000000000E+00  0.00000000000E+00  0.74035007126E+03  0.74035007126E+03  0.25500000920E-02 0.  1.
        2   -1    0    0  501    0  0.00000000000E+00  0.00000000000E+00 -0.19243980475E+04  0.19243980475E+04  0.25500000920E-02 0. -1.
    10030    2    1    2    0    0  0.00000000000E+00  0.00000000000E+00 -0.11840479762E+04  0.26647481188E+04  0.23872396039E+04 0.  0.
        2    1    3    3  502    0  0.11245494599E+04  0.40010487975E+03 -0.58562828158E+03  0.13295322060E+04  0.25500000920E-02 0. -1.
       -2    1    3    3    0  502 -0.11245494599E+04 -0.40010487975E+03 -0.59841969467E+03  0.13352159127E+04  0.25500000920E-02 0.  1.
</event>
<event>
 5   0  0.2057599E-05  0.2119655E+04  0.7818609E-02  0.8552634E-01
        1   -1    0    0  501    0  0.00000000000E+00  0.00000000000E+00  0.93405575905E+03  0.93405575907E+03  0.50400001928E-02 0. -1.
       -1   -1    0    0    0  501  0.00000000000E+00  0.00000000000E+00 -0.12025349253E+04  0.12025349253E+04  0.50400001928E-02 0.  1.
    10030    2    1    2    0    0  0.00000000000E+00  0.00000000000E+00 -0.26847916625E+03  0.21365906844E+04  0.21196553234E+04 0.  0.
        4    1    3    3  502    0  0.36845365904E+03 -0.22258535819E+03 -0.11104455647E+04  0.11909631840E+04  0.12699999809E+01 0.  1.
       -4    1    3    3    0  502 -0.36845365904E+03  0.22258535819E+03  0.84196639844E+03  0.94562750041E+03  0.12699999809E+01 0. -1.
</event>
<event>
 5   0  0.4756705E-05  0.2341280E+04  0.7818609E-02  0.8461820E-01
        2   -1    0    0  501    0  0.00000000000E+00  0.00000000000E+00  0.10477943403E+04  0.10477943403E+04  0.25500000920E-02 0.  1.
       -2   -1    0    0    0  501  0.00000000000E+00  0.00000000000E+00 -0.13078888257E+04  0.13078888257E+04  0.25500000920E-02 0. -1.
    10030    2    1    2    0    0  0.00000000000E+00  0.00000000000E+00 -0.26009448542E+03  0.23556831661E+04  0.23412804269E+04 0.  0.
        3    1    3    3  502    0  0.66014426987E+03  0.44338201105E+03  0.73431868146E+03  0.10824056545E+04  0.10100000352E+00 0.  1.
       -3    1    3    3    0  502 -0.66014426987E+03 -0.44338201105E+03 -0.99441316688E+03  0.12732775116E+04  0.10100000352E+00 0. -1.
</event>
<event>
 5   0  0.4664127E-05  0.2398278E+04  0.7818609E-02  0.8440148E-01
       -2   -1    0    0    0  501  0.00000000000E+00  0.00000000000E+00  0.94071526186E+03  0.94071526186E+03  0.25500000920E-02 0.  1.
        2   -1    0    0  501    0  0.00000000000E+00  0.00000000000E+00 -0.15285546992E+04  0.15285546992E+04  0.25500000920E-02 0. -1.
    10030    2    1    2    0    0  0.00000000000E+00  0.00000000000E+00 -0.58783943732E+03  0.24692699610E+04  0.23982783275E+04 0.  0.
        4    1    3    3  502    0  0.93542947184E+03 -0.42128685174E+03 -0.93312059339E+03  0.13868044429E+04  0.12699999809E+01 0. -1.
       -4    1    3    3    0  502 -0.93542947184E+03  0.42128685174E+03  0.34528115608E+03  0.10824655181E+04  0.12699999809E+01 0.  1.
</event>
<event>
 5   0  0.2090039E-05  0.2402510E+04  0.7818609E-02  0.8438564E-01
       -1   -1    0    0    0  501  0.00000000000E+00  0.00000000000E+00  0.13875359084E+04  0.13875359084E+04  0.50400001928E-02 0. -1.
        1   -1    0    0  501    0  0.00000000000E+00  0.00000000000E+00 -0.10399831739E+04  0.10399831739E+04  0.50400001928E-02 0.  1.
    10030    2    1    2    0    0  0.00000000000E+00  0.00000000000E+00  0.34755273449E+03  0.24275190824E+04  0.24025103521E+04 0.  0.
        1    1    3    3  502    0 -0.10364711952E+04  0.17871206757E+03 -0.41261241661E+03  0.11298050929E+04  0.50400001928E-02 0.  1.
       -1    1    3    3    0  502  0.10364711952E+04 -0.17871206757E+03  0.76016515109E+03  0.12977139895E+04  0.50400001928E-02 0. -1.
</event>
<event>
 5   0  0.4713971E-05  0.2415473E+04  0.7818609E-02  0.8433733E-01
        2   -1    0    0  501    0  0.00000000000E+00  0.00000000000E+00  0.14113701676E+04  0.14113701676E+04  0.25500000920E-02 0.  1.
       -2   -1    0    0    0  501  0.00000000000E+00  0.00000000000E+00 -0.10334833498E+04  0.10334833498E+04  0.25500000920E-02 0. -1.
    10030    2    1    2    0    0  0.00000000000E+00  0.00000000000E+00  0.37788681779E+03  0.24448535174E+04  0.24154730954E+04 0.  0.
        5    1    3    3  502    0 -0.20707435787E+03 -0.31331532382E+03  0.13507550068E+04  0.14020012340E+04  0.46999998093E+01 0.  1.
       -5    1    3    3    0  502  0.20707435787E+03  0.31331532382E+03 -0.97286818899E+03  0.10428522834E+04  0.46999998093E+01 0. -1.
</event>
<event>
 5   0  0.4856882E-05  0.2356607E+04  0.7818609E-02  0.8455930E-01
       -2   -1    0    0    0  501  0.00000000000E+00  0.00000000000E+00  0.50919731407E+03  0.50919731408E+03  0.25500000920E-02 0.  1.
        2   -1    0    0  501    0  0.00000000000E+00  0.00000000000E+00 -0.27266422060E+04  0.27266422060E+04  0.25500000920E-02 0. -1.
    10030    2    1    2    0    0  0.00000000000E+00  0.00000000000E+00 -0.22174448919E+04  0.32358395200E+04  0.23566067875E+04 0.  0.
        1    1    3    3  502    0 -0.51093939390E+03 -0.27251240200E+03  0.30033881829E+03  0.65232314023E+03  0.50400001928E-02 0.  1.
       -1    1    3    3    0  502  0.51093939390E+03  0.27251240200E+03 -0.25177837102E+04  0.25835163798E+04  0.50400001928E-02 0. -1.
</event>
<event>
 5   0  0.4756705E-05  0.2384557E+04  0.7818609E-02  0.8445308E-01
       -2   -1    0    0    0  501  0.00000000000E+00  0.00000000000E+00  0.96666529410E+03  0.96666529411E+03  0.25500000920E-02 0.  1.
        2   -1    0    0  501    0  0.00000000000E+00  0.00000000000E+00 -0.14705484714E+04  0.14705484714E+04  0.25500000920E-02 0. -1.
    10030    2    1    2    0    0  0.00000000000E+00  0.00000000000E+00 -0.50388317727E+03  0.24372137655E+04  0.23845571250E+04 0.  0.
        3    1    3    3  502    0  0.10618139898E+04  0.11318541126E+03  0.29011704447E+03  0.11065386554E+04  0.10100000352E+00 0.  1.
       -3    1    3    3    0  502 -0.10618139898E+04 -0.11318541126E+03 -0.79400022174E+03  0.13306751101E+04  0.10100000352E+00 0. -1.
</event>
<event>
 5   0  0.2090039E-05  0.2246373E+04  0.7818609E-02  0.8499371E-01
       -1   -1    0    0    0  501  0.00000000000E+00  0.00000000000E+00  0.15472138286E+04  0.15472138286E+04  0.50400001928E-02 0.  1.
        1   -1    0    0  501    0  0.00000000000E+00  0.00000000000E+00 -0.81536756414E+03  0.81536756416E+03  0.50400001928E-02 0. -1.
    10030    2    1    2    0    0  0.00000000000E+00  0.00000000000E+00  0.73184626443E+03  0.23625813927E+04  0.22463730506E+04 0.  0.
        1    1    3    3  502    0 -0.32818472303E+03  0.37813194694E+03 -0.69150336187E+03  0.85373642375E+03  0.50400001928E-02 0. -1.
       -1    1    3    3    0  502  0.32818472303E+03 -0.37813194694E+03  0.14233496263E+04  0.15088449690E+04  0.50400001928E-02 0.  1.
</event>
<event>
 5   0  0.2139556E-05  0.2362284E+04  0.7818609E-02  0.8453760E-01
        1   -1    0    0  501    0  0.00000000000E+00  0.00000000000E+00  0.92798050871E+03  0.92798050872E+03  0.50400001928E-02 0. -1.
       -1   -1    0    0    0  501  0.00000000000E+00  0.00000000000E+00 -0.15033678891E+04  0.15033678891E+04  0.50400001928E-02 0.  1.
    10030    2    1    2    0    0  0.00000000000E+00  0.00000000000E+00 -0.57538738037E+03  0.24313483978E+04  0.23622837243E+04 0.  0.
        2    1    3    3  502    0  0.64800485084E+03 -0.60987786522E+02  0.72675248151E+03  0.97560184819E+03  0.25500000920E-02 0. -1.
       -2    1    3    3    0  502 -0.64800485084E+03  0.60987786522E+02 -0.13021398619E+04  0.14557465496E+04  0.25500000920E-02 0.  1.
</event>
<event>
 5   0  0.4856882E-05  0.2403204E+04  0.7818609E-02  0.8438305E-01
       -2   -1    0    0    0  501  0.00000000000E+00  0.00000000000E+00  0.83175784609E+03  0.83175784609E+03  0.25500000920E-02 0. -1.
        2   -1    0    0  501    0  0.00000000000E+00  0.00000000000E+00 -0.17358983547E+04  0.17358983547E+04  0.25500000920E-02 0.  1.
    10030    2    1    2    0    0  0.00000000000E+00  0.00000000000E+00 -0.90414050863E+03  0.25676562008E+04  0.24032037588E+04 0.  0.
        1    1    3    3  502    0 -0.11887642659E+04 -0.14831398554E+03 -0.55166699518E+03  0.13188987800E+04  0.50400001928E-02 0.  1.
       -1    1    3    3    0  502  0.11887642659E+04  0.14831398554E+03 -0.35247351344E+03  0.12487574208E+04  0.50400001928E-02 0. -1.
</event>
<event>
 5   0  0.4756705E-05  0.2408025E+04  0.7818609E-02  0.8436505E-01
        2   -1    0    0  501    0  0.00000000000E+00  0.00000000000E+00  0.73244972093E+03  0.73244972093E+03  0.25500000920E-02 0.  1.
       -2   -1    0    0    0  501  0.00000000000E+00  0.00000000000E+00 -0.19791755808E+04  0.19791755808E+04  0.25500000920E-02 0. -1.
    10030    2    1    2    0    0  0.00000000000E+00  0.00000000000E+00 -0.12467258599E+04  0.27116253017E+04  0.24080254167E+04 0.  0.
        3    1    3    3  502    0  0.89503646643E+02 -0.11581284177E+04 -0.98012590973E+03  0.15198418154E+04  0.10100000352E+00 0. -1.
       -3    1    3    3    0  502 -0.89503646643E+02  0.11581284177E+04 -0.26659995015E+03  0.11917834863E+04  0.10100000352E+00 0.  1.
</event>
<event>
 5   0  0.2149920E-05  0.2363135E+04  0.7818609E-02  0.8453436E-01
        1   -1    0    0  501    0  0.00000000000E+00  0.00000000000E+00  0.19005120455E+04  0.19005120456E+04  0.50400001928E-02 0.  1.
       -1   -1    0    0    0  501  0.00000000000E+00  0.00000000000E+00 -0.73459222488E+03  0.73459222490E+03  0.50400001928E-02 0. -1.
    10030    2    1    2    0    0  0.00000000000E+00  0.00000000000E+00  0.11659198207E+04  0.26351042705E+04  0.23631346741E+04 0.  0.
        5    1    3    3  502    0  0.58830134245E+03 -0.73141935030E+03 -0.21727170800E+03  0.96348420881E+03  0.46999998093E+01 0. -1.
       -5    1    3    3    0  502 -0.58830134245E+03  0.73141935030E+03  0.13831915287E+04  0.16716200616E+04  0.46999998093E+01 0.  1.
</event>
<event>
 5   0  0.4756705E-05  0.2494492E+04  0.7818609E-02  0.8404950E-01
       -2   -1    0    0    0  501  0.00000000000E+00  0.00000000000E+00  0.12059975676E+04  0.12059975676E+04  0.25500000920E-02 0. -1.
        2   -1    0    0  501    0  0.00000000000E+00  0.00000000000E+00 -0.12899050654E+04  0.12899050654E+04  0.25500000920E-02 0.  1.
    10030    2    1    2    0    0  0.00000000000E+00  0.00000000000E+00 -0.83907497789E+02  0.24959026330E+04  0.24944918290E+04 0.  0.
        3    1    3    3  502    0 -0.22100872791E+03 -0.51003316784E+03  0.10752097094E+04  0.12103944066E+04  0.10100000352E+00 0. -1.
       -3    1    3    3    0  502  0.22100872791E+03  0.51003316784E+03 -0.11591172071E+04  0.12855082264E+04  0.10100000352E+00 0.  1.
</event>
<event>
 5   0  0.2057599E-05  0.2389006E+04  0.7818609E-02  0.8443631E-01
        1   -1    0    0  501    0  0.00000000000E+00  0.00000000000E+00  0.12374632996E+04  0.12374632996E+04  0.50400001928E-02 0. -1.
       -1   -1    0    0    0  501  0.00000000000E+00  0.00000000000E+00 -0.11530337304E+04  0.11530337304E+04  0.50400001928E-02 0.  1.
    10030    2    1    2    0    0  0.00000000000E+00  0.00000000000E+00  0.84429569219E+02  0.23904970300E+04  0.23890055878E+04 0.  0.
        4    1    3    3  502    0  0.68887361786E+03 -0.32781822357E+03  0.96193149582E+03  0.12277318374E+04  0.12699999809E+01 0. -1.
       -4    1    3    3    0  502 -0.68887361786E+03  0.32781822357E+03 -0.87750192660E+03  0.11627651926E+04  0.12699999809E+01 0.  1.
</event>
<event>
 5   0  0.2057599E-05  0.2373350E+04  0.7818609E-02  0.8449549E-01
        1   -1    0    0  501    0  0.00000000000E+00  0.00000000000E+00  0.15146968519E+04  0.15146968520E+04  0.50400001928E-02 0. -1.
       -1   -1    0    0    0  501  0.00000000000E+00  0.00000000000E+00 -0.92968944678E+03  0.92968944680E+03  0.50400001928E-02 0.  1.
    10030    2    1    2    0    0  0.00000000000E+00  0.00000000000E+00  0.58500740517E+03  0.24443862988E+04  0.23733501034E+04 0.  0.
        4    1    3    3  502    0  0.98866289292E+03  0.63330868527E+02 -0.38029493718E+03  0.10611743339E+04  0.12699999809E+01 0.  1.
       -4    1    3    3    0  502 -0.98866289292E+03 -0.63330868527E+02  0.96530234235E+03  0.13832119649E+04  0.12699999809E+01 0. -1.
</event>
<event>
 5   0  0.4756705E-05  0.2113633E+04  0.7818609E-02  0.8555262E-01
        2   -1    0    0  501    0  0.00000000000E+00  0.00000000000E+00  0.12248023883E+04  0.12248023883E+04  0.25500000920E-02 0. -1.
       -2   -1    0    0    0  501  0.00000000000E+00  0.00000000000E+00 -0.91187060659E+03  0.91187060659E+03  0.25500000920E-02 0.  1.
    10030    2    1    2    0    0  0.00000000000E+00  0.00000000000E+00  0.31293178167E+03  0.21366729949E+04  0.21136331723E+04 0.  0.
        3    1    3    3  502    0  0.95483603273E+03 -0.44299024503E+03  0.25188269641E+03  0.10823110041E+04  0.10100000352E+00 0.  1.
       -3    1    3    3    0  502 -0.95483603273E+03  0.44299024503E+03  0.61049085263E+02  0.10543619908E+04  0.10100000352E+00 0. -1.
</event>
<event>
 5   0  0.2065692E-05  0.2394259E+04  0.7818609E-02  0.8441656E-01
        1   -1    0    0  501    0  0.00000000000E+00  0.00000000000E+00  0.18702753512E+04  0.18702753512E+04  0.50400001928E-02 0. -1.
       -1   -1    0    0    0  501  0.00000000000E+00  0.00000000000E+00 -0.76626099106E+03  0.76626099108E+03  0.50400001928E-02 0.  1.
    10030    2    1    2    0    0  0.00000000000E+00  0.00000000000E+00  0.11040143602E+04  0.26365363423E+04  0.23942590037E+04 0.  0.
        3    1    3    3  502    0  0.15157320671E+03  0.34165341825E+03  0.18043753055E+04  0.18426805877E+04  0.10100000352E+00 0. -1.
       -3    1    3    3    0  502 -0.15157320671E+03 -0.34165341825E+03 -0.70036094530E+03  0.79385575459E+03  0.10100000352E+00 0.  1.
</event>
<event>
 5   0  0.2090039E-05  0.1749160E+04  0.7818609E-02  0.8733813E-01
       -1   -1    0    0    0  501  0.00000000000E+00  0.00000000000E+00  0.91549537713E+03  0.91549537715E+03  0.50400001928E-02 0. -1.
        1   -1    0    0  501    0  0.00000000000E+00  0.00000000000E+00 -0.83549285439E+03  0.83549285441E+03  0.50400001928E-02 0.  1.
    10030    2    1    2    0    0  0.00000000000E+00  0.00000000000E+00  0.80002522738E+02  0.17509882316E+04  0.17491596220E+04 0.  0.
        1    1    3    3  502    0  0.51241044781E+03  0.70814842690E+03  0.10795698423E+02  0.87415971577E+03  0.50400001928E-02 0.  1.
       -1    1    3    3    0  502 -0.51241044781E+03 -0.70814842690E+03  0.69206824316E+02  0.87682851579E+03  0.50400001928E-02 0. -1.
</event>
<event>
 5   0  0.2057599E-05  0.2341814E+04  0.7818609E-02  0.8461614E-01
       -1   -1    0    0    0  501  0.00000000000E+00  0.00000000000E+00  0.12561478168E+04  0.12561478168E+04  0.50400001928E-02 0.  1.
        1   -1    0    0  501    0  0.00000000000E+00  0.00000000000E+00 -0.10914508397E+04  0.10914508397E+04  0.50400001928E-02 0. -1.
    10030    2    1    2    0    0  0.00000000000E+00  0.00000000000E+00  0.16469697711E+03  0.23475986566E+04  0.23418143304E+04 0.  0.
        4    1    3    3  502    0  0.66522313345E+03 -0.88405906527E+03  0.46662249601E+03  0.12007582666E+04  0.12699999809E+01 0. -1.
       -4    1    3    3    0  502 -0.66522313345E+03  0.88405906527E+03 -0.30192551889E+03  0.11468403900E+04  0.12699999809E+01 0.  1.
</event>
<event>
 5   0  0.4914005E-05  0.2370492E+04  0.7818609E-02  0.8450634E-01
       -2   -1    0    0    0  501  0.00000000000E+00  0.00000000000E+00  0.98776427859E+03  0.98776427859E+03  0.25500000920E-02 0.  1.
        2   -1    0    0  501    0  0.00000000000E+00  0.00000000000E+00 -0.14222102830E+04  0.14222102830E+04  0.25500000920E-02 0. -1.
    10030    2    1    2    0    0  0.00000000000E+00  0.00000000000E+00 -0.43444600439E+03  0.24099745616E+04  0.23704923659E+04 0.  0.
        2    1    3    3  502    0  0.11040226698E+04  0.27639361291E+03 -0.55371765276E+03  0.12656471561E+04  0.25500000920E-02 0.  1.
       -2    1    3    3    0  502 -0.11040226698E+04 -0.27639361291E+03  0.11927164837E+03  0.11443274055E+04  0.25500000920E-02 0. -1.
</event>
<event>
 5   0  0.4914005E-05  0.2306818E+04  0.7818609E-02  0.8475238E-01
       -2   -1    0    0    0  501  0.00000000000E+00  0.00000000000E+00  0.66447874934E+03  0.66447874935E+03  0.25500000920E-02 0. -1.
        2   -1    0    0  501    0  0.00000000000E+00  0.00000000000E+00 -0.20020989552E+04  0.20020989552E+04  0.25500000920E-02 0.  1.
    10030    2    1    2    0    0  0.00000000000E+00  0.00000000000E+00 -0.13376202058E+04  0.26665777045E+04  0.23068179033E+04 0.  0.
        2    1    3    3  502    0 -0.63166732035E+03 -0.79888458781E+03 -0.42956780862E+02  0.10193456103E+04  0.25500000920E-02 0. -1.
       -2    1    3    3    0  502  0.63166732035E+03  0.79888458781E+03 -0.12946634250E+04  0.16472320942E+04  0.25500000920E-02 0.  1.
</event>
<event>
 5   0  0.4914005E-05  0.2421127E+04  0.7818609E-02  0.8431636E-01
       -2   -1    0    0    0  501  0.00000000000E+00  0.00000000000E+00  0.71843769113E+03  0.71843769113E+03  0.25500000920E-02 0. -1.
        2   -1    0    0  501    0  0.00000000000E+00  0.00000000000E+00 -0.20397935115E+04  0.20397935115E+04  0.25500000920E-02 0.  1.
    10030    2    1    2    0    0  0.00000000000E+00  0.00000000000E+00 -0.13213558204E+04  0.27582312027E+04  0.24211274570E+04 0.  0.
        2    1    3    3  502    0  0.13733120727E+03  0.29794690459E+03  0.66682684532E+03  0.74316233765E+03  0.25500000920E-02 0. -1.
       -2    1    3    3    0  502 -0.13733120727E+03 -0.29794690459E+03 -0.19881826657E+04  0.20150688650E+04  0.25500000920E-02 0.  1.
</event>
<event>
 5   0  0.2139556E-05  0.2362062E+04  0.7818609E-02  0.8453845E-01
        1   -1    0    0  501    0  0.00000000000E+00  0.00000000000E+00  0.26637737364E+04  0.26637737364E+04  0.50400001928E-02 0.  1.
       -1   -1    0    0    0  501  0.00000000000E+00  0.00000000000E+00 -0.52363109805E+03  0.52363109807E+03  0.50400001928E-02 0. -1.
    10030    2    1    2    0    0  0.00000000000E+00  0.00000000000E+00  0.21401426384E+04  0.31874048345E+04  0.23620624603E+04 0.  0.
        2    1    3    3  502    0 -0.15376023220E+03  0.44717580470E+02 -0.50891427588E+03  0.53351252207E+03  0.25500000920E-02 0. -1.
       -2    1    3    3    0  502  0.15376023220E+03 -0.44717580470E+02  0.26490569143E+04  0.26538923124E+04  0.25500000920E-02 0.  1.
</event>
<event>
 5   0  0.2057599E-05  0.2408275E+04  0.7818609E-02  0.8436412E-01
       -1   -1    0    0    0  501  0.00000000000E+00  0.00000000000E+00  0.15788132111E+04  0.15788132111E+04  0.50400001928E-02 0.  1.
        1   -1    0    0  501    0  0.00000000000E+00  0.00000000000E+00 -0.91837816592E+03  0.91837816593E+03  0.50400001928E-02 0. -1.
    10030    2    1    2    0    0  0.00000000000E+00  0.00000000000E+00  0.66043504515E+03  0.24971913770E+04  0.24082753839E+04 0.  0.
        4    1    3    3  502    0 -0.11128421902E+04  0.24612183005E+03  0.73308806005E+03  0.13551433180E+04  0.12699999809E+01 0.  1.
       -4    1    3    3    0  502  0.11128421902E+04 -0.24612183005E+03 -0.72653014903E+02  0.11420480590E+04  0.12699999809E+01 0. -1.
</event>
<event>
 5   0  0.2065692E-05  0.2443189E+04  0.7818609E-02  0.8423509E-01
       -1   -1    0    0    0  501  0.00000000000E+00  0.00000000000E+00  0.22285349793E+04  0.22285349794E+04  0.50400001928E-02 0. -1.
        1   -1    0    0  501    0  0.00000000000E+00  0.00000000000E+00 -0.66962941825E+03  0.66962941827E+03  0.50400001928E-02 0.  1.
    10030    2    1    2    0    0  0.00000000000E+00  0.00000000000E+00  0.15589055611E+04  0.28981643976E+04  0.24431885574E+04 0.  0.
        3    1    3    3  502    0  0.91162751156E+03  0.35015899592E+03  0.16500271359E+04  0.19173590174E+04  0.10100000352E+00 0.  1.
       -3    1    3    3    0  502 -0.91162751156E+03 -0.35015899592E+03 -0.91121574787E+02  0.98080538021E+03  0.10100000352E+00 0. -1.
</event>
<event>
 5   0  0.4713971E-05  0.2380767E+04  0.7818609E-02  0.8446740E-01
       -2   -1    0    0    0  501  0.00000000000E+00  0.00000000000E+00  0.12038747984E+04  0.12038747984E+04  0.25500000920E-02 0. -1.
        2   -1    0    0  501    0  0.00000000000E+00  0.00000000000E+00 -0.11770430160E+04  0.11770430160E+04  0.25500000920E-02 0.  1.
    10030    2    1    2    0    0  0.00000000000E+00  0.00000000000E+00  0.26831782402E+02  0.23809178145E+04  0.23807666191E+04 0.  0.
        5    1    3    3  502    0  0.30111591325E+03 -0.10128088446E+04 -0.53483218992E+03  0.11842804188E+04  0.46999998093E+01 0.  1.
       -5    1    3    3    0  502 -0.30111591325E+03  0.10128088446E+04  0.56166397233E+03  0.11966373957E+04  0.46999998093E+01 0. -1.
</event>
<event>
 5   0  0.2057599E-05  0.2480460E+04  0.7818609E-02  0.8409980E-01
       -1   -1    0    0    0  501  0.00000000000E+00  0.00000000000E+00  0.69567519780E+03  0.69567519782E+03  0.50400001928E-02 0. -1.
        1   -1    0    0  501    0  0.00000000000E+00  0.00000000000E+00 -0.22110474597E+04  0.22110474597E+04  0.50400001928E-02 0.  1.
    10030    2    1    2    0    0  0.00000000000E+00  0.00000000000E+00 -0.15153722619E+04  0.29067226575E+04  0.24804603435E+04 0.  0.
        4    1    3    3  502    0  0.10426056395E+04  0.55270274104E+03 -0.31044155953E+03  0.12201976948E+04  0.12699999809E+01 0. -1.
       -4    1    3    3    0  502 -0.10426056395E+04 -0.55270274104E+03 -0.12049307023E+04  0.16865249627E+04  0.12699999809E+01 0.  1.
</event>
<event>
 5   0  0.4713971E-05  0.2358509E+04  0.7818609E-02  0.8455202E-01
        2   -1    0    0  501    0  0.00000000000E+00  0.00000000000E+00  0.16775801520E+04  0.16775801520E+04  0.25500000920E-02 0.  1.
       -2   -1    0    0    0  501  0.00000000000E+00  0.00000000000E+00 -0.82895671483E+03  0.82895671483E+03  0.25500000920E-02 0. -1.
    10030    2    1    2    0    0  0.00000000000E+00  0.00000000000E+00  0.84862343718E+03  0.25065368668E+04  0.23585091322E+04 0.  0.
        5    1    3    3  502    0  0.47216428046E+03 -0.24677841101E+03 -0.69375390245E+03  0.87473153541E+03  0.46999998093E+01 0. -1.
       -5    1    3    3    0  502 -0.47216428046E+03  0.24677841101E+03  0.15423773396E+04  0.16318053314E+04  0.46999998093E+01 0.  1.
</event>
<event>
 5   0  0.2057599E-05  0.1869694E+04  0.7818609E-02  0.8670090E-01
       -1   -1    0    0    0  501  0.00000000000E+00  0.00000000000E+00  0.38274227983E+03  0.38274227986E+03  0.50400001928E-02 0.  1.
        1   -1    0    0  501    0  0.00000000000E+00  0.00000000000E+00 -0.22833623358E+04  0.22833623358E+04  0.50400001928E-02 0. -1.
    10030    2    1    2    0    0  0.00000000000E+00  0.00000000000E+00 -0.19006200560E+04  0.26661046157E+04  0.18696944201E+04 0.  0.
        4    1    3    3  502    0 -0.93360429411E+03 -0.15648414870E+02 -0.10152786627E+04  0.13793673284E+04  0.12699999809E+01 0. -1.
       -4    1    3    3    0  502  0.93360429411E+03  0.15648414870E+02 -0.88534139321E+03  0.12867372872E+04  0.12699999809E+01 0.  1.
</event>
<event>
 5   0  0.2149920E-05  0.2374591E+04  0.7818609E-02  0.8449078E-01
        1   -1    0    0  501    0  0.00000000000E+00  0.00000000000E+00  0.12848658445E+04  0.12848658445E+04  0.50400001928E-02 0.  1.
       -1   -1    0    0    0  501  0.00000000000E+00  0.00000000000E+00 -0.10971347085E+04  0.10971347085E+04  0.50400001928E-02 0. -1.
    10030    2    1    2    0    0  0.00000000000E+00  0.00000000000E+00  0.18773113597E+03  0.23820005531E+04  0.23745912607E+04 0.  0.
        5    1    3    3  502    0 -0.10428075775E+04 -0.22752629059E+02 -0.47507563179E+03  0.11461606657E+04  0.46999998093E+01 0. -1.
       -5    1    3    3    0  502  0.10428075775E+04  0.22752629059E+02  0.66280676775E+03  0.12358398873E+04  0.46999998093E+01 0.  1.
</event>
<event>
 5   0  0.2065692E-05  0.2360843E+04  0.7818609E-02  0.8454310E-01
       -1   -1    0    0    0  501  0.00000000000E+00  0.00000000000E+00  0.97559824609E+03  0.97559824611E+03  0.50400001928E-02 0.  1.
        1   -1    0    0  501    0  0.00000000000E+00  0.00000000000E+00 -0.14282471794E+04  0.14282471794E+04  0.50400001928E-02 0. -1.
    10030    2    1    2    0    0  0.00000000000E+00  0.00000000000E+00 -0.45264893328E+03  0.24038454255E+04  0.23608434452E+04 0.  0.
        3    1    3    3  502    0  0.11662775279E+04  0.15914456939E+03 -0.13602330880E+03  0.11849188229E+04  0.10100000352E+00 0. -1.
       -3    1    3    3    0  502 -0.11662775279E+04 -0.15914456939E+03 -0.31662562448E+03  0.12189266026E+04  0.10100000352E+00 0.  1.
</event>
<event>
 5   0  0.2090039E-05  0.2364919E+04  0.7818609E-02  0.8452755E-01
        1   -1    0    0  501    0  0.00000000000E+00  0.00000000000E+00  0.16210556993E+04  0.16210556993E+04  0.50400001928E-02 0.  1.
       -1   -1    0    0    0  501  0.00000000000E+00  0.00000000000E+00 -0.86253100975E+03  0.86253100977E+03  0.50400001928E-02 0. -1.
    10030    2    1    2    0    0  0.00000000000E+00  0.00000000000E+00  0.75852468954E+03  0.24835867091E+04  0.23649192876E+04 0.  0.
        1    1    3    3  502    0  0.53861345036E+03  0.34418572771E+03  0.14239878142E+04  0.15608682068E+04  0.50400001928E-02 0.  1.
       -1    1    3    3    0  502 -0.53861345036E+03 -0.34418572771E+03 -0.66546312466E+03  0.92271850224E+03  0.50400001928E-02 0. -1.
</event>
<event>
 5   0  0.4664127E-05  0.2377174E+04  0.7818609E-02  0.8448099E-01
        2   -1    0    0  501    0  0.00000000000E+00  0.00000000000E+00  0.66046558384E+03  0.66046558384E+03  0.25500000920E-02 0.  1.
       -2   -1    0    0    0  501  0.00000000000E+00  0.00000000000E+00 -0.21390045581E+04  0.21390045581E+04  0.25500000920E-02 0. -1.
    10030    2    1    2    0    0  0.00000000000E+00  0.00000000000E+00 -0.14785389743E+04  0.27994701419E+04  0.23771738635E+04 0.  0.
        4    1    3    3  502    0  0.46644308119E+03  0.72912158915E+03  0.22002438034E+03  0.89308441963E+03  0.12699999809E+01 0.  1.
       -4    1    3    3    0  502 -0.46644308119E+03 -0.72912158915E+03 -0.16985633546E+04  0.19063857223E+04  0.12699999809E+01 0. -1.
</event>
<event>
 5   0  0.4914005E-05  0.2352404E+04  0.7818609E-02  0.8457541E-01
       -2   -1    0    0    0  501  0.00000000000E+00  0.00000000000E+00  0.10555518518E+04  0.10555518518E+04  0.25500000920E-02 0. -1.
        2   -1    0    0  501    0  0.00000000000E+00  0.00000000000E+00 -0.13106429243E+04  0.13106429243E+04  0.25500000920E-02 0.  1.
    10030    2    1    2    0    0  0.00000000000E+00  0.00000000000E+00 -0.25509107254E+03  0.23661947761E+04  0.23524043579E+04 0.  0.
        2    1    3    3  502    0 -0.93610494818E+03  0.52218164059E+02  0.58685205820E+03  0.11060807154E+04  0.25500000920E-02 0. -1.
       -2    1    3    3    0  502  0.93610494818E+03 -0.52218164059E+02 -0.84194313074E+03  0.12601140607E+04  0.25500000920E-02 0.  1.
</event>
<event>
 5   0  0.2065692E-05  0.2444649E+04  0.7818609E-02  0.8422974E-01
       -1   -1    0    0    0  501  0.00000000000E+00  0.00000000000E+00  0.10751224089E+04  0.10751224089E+04  0.50400001928E-02 0.  1.
        1   -1    0    0  501    0  0.00000000000E+00  0.00000000000E+00 -0.13896808251E+04  0.13896808251E+04  0.50400001928E-02 0. -1.
    10030    2    1    2    0    0  0.00000000000E+00  0.00000000000E+00 -0.31455841626E+03  0.24648032340E+04  0.24446488470E+04 0.  0.
        3    1    3    3  502    0  0.11825405727E+04 -0.24741026218E+03 -0.34445166700E+03  0.12562885835E+04  0.10100000352E+00 0. -1.
       -3    1    3    3    0  502 -0.11825405727E+04  0.24741026218E+03  0.29893250738E+02  0.12085146505E+04  0.10100000352E+00 0.  1.
</event>
<event>
 5   0  0.4756705E-05  0.2293326E+04  0.7818609E-02  0.8480557E-01
       -2   -1    0    0    0  501  0.00000000000E+00  0.00000000000E+00  0.85781439829E+03  0.85781439829E+03  0.25500000920E-02 0.  1.
        2   -1    0    0  501    0  0.00000000000E+00  0.00000000000E+00 -0.15327741331E+04  0.15327741331E+04  0.25500000920E-02 0. -1.
    10030    2    1    2    0    0  0.00000000000E+00  0.00000000000E+00 -0.67495973480E+03  0.23905885314E+04  0.22933257254E+04 0.  0.
        3    1    3    3  502    0  0.80032642109E+03 -0.26497597043E+03  0.47272321236E+03  0.96654119980E+03  0.10100000352E+00 0.  1.
       -3    1    3    3    0  502 -0.80032642109E+03  0.26497597043E+03 -0.11476829472E+04  0.14240473316E+04  0.10100000352E+00 0. -1.
</event>
<event>
 5   0  0.2090039E-05  0.2468809E+04  0.7818609E-02  0.8414183E-01
        1   -1    0    0  501    0  0.00000000000E+00  0.00000000000E+00  0.19708007622E+04  0.19708007622E+04  0.50400001928E-02 0. -1.
       -1   -1    0    0    0  501  0.00000000000E+00  0.00000000000E+00 -0.77316508631E+03  0.77316508632E+03  0.50400001928E-02 0.  1.
    10030    2    1    2    0    0  0.00000000000E+00  0.00000000000E+00  0.11976356759E+04  0.27439658486E+04  0.24688088962E+04 0.  0.
        1    1    3    3  502    0 -0.89639534910E+03  0.70798776288E+03  0.11189293608E+04  0.15989916225E+04  0.50400001928E-02 0. -1.
       -1    1    3    3    0  502  0.89639534910E+03 -0.70798776288E+03  0.78706315106E+02  0.11449742261E+04  0.50400001928E-02 0.  1.
</event>
<event>
 5   0  0.2057599E-05  0.2401710E+04  0.7818609E-02  0.8438863E-01
        1   -1    0    0  501    0  0.00000000000E+00  0.00000000000E+00  0.83718732535E+03  0.83718732536E+03  0.50400001928E-02 0.  1.
       -1   -1    0    0    0  501  0.00000000000E+00  0.00000000000E+00 -0.17224976651E+04  0.17224976651E+04  0.50400001928E-02 0. -1.
    10030    2    1    2    0    0  0.00000000000E+00  0.00000000000E+00 -0.88531033977E+03  0.25596849905E+04  0.24017104015E+04 0.  0.
        4    1    3    3  502    0  0.98713902270E+03 -0.49397185440E+03 -0.94662175373E+03  0.14541478606E+04  0.12699999809E+01 0.  1.
       -4    1    3    3    0  502 -0.98713902270E+03  0.49397185440E+03  0.61311413966E+02  0.11055371298E+04  0.12699999809E+01 0. -1.
</event>
<event>
 5   0  0.2149920E-05  0.2399009E+04  0.7818609E-02  0.8439875E-01
        1   -1    0    0  501    0  0.00000000000E+00  0.00000000000E+00  0.15167615565E+04  0.15167615565E+04  0.50400001928E-02 0. -1.
       -1   -1    0    0    0  501  0.00000000000E+00  0.00000000000E+00 -0.94860728701E+03  0.94860728702E+03  0.50400001928E-02 0.  1.
    10030    2    1    2    0    0  0.00000000000E+00  0.00000000000E+00  0.56815426951E+03  0.24653688435E+04  0.23990090164E+04 0.  0.
        5    1    3    3  502    0  0.72294217308E+03 -0.55374692049E+03 -0.51822824794E+03  0.10477898857E+04  0.46999998093E+01 0.  1.
       -5    1    3    3    0  502 -0.72294217308E+03  0.55374692049E+03  0.10863825175E+04  0.14175789579E+04  0.46999998093E+01 0. -1.
</event>
<event>
 5   0  0.4756705E-05  0.2336152E+04  0.7818609E-02  0.8463802E-01
        2   -1    0    0  501    0  0.00000000000E+00  0.00000000000E+00  0.15173476090E+04  0.15173476090E+04  0.25500000920E-02 0.  1.
       -2   -1    0    0    0  501  0.00000000000E+00  0.00000000000E+00 -0.89920154826E+03  0.89920154827E+03  0.25500000920E-02 0. -1.
    10030    2    1    2    0    0  0.00000000000E+00  0.00000000000E+00  0.61814606071E+03  0.24165491572E+04  0.23361518095E+04 0.  0.
        3    1    3    3  502    0 -0.31379278599E+03 -0.28871552422E+03  0.14339618673E+04  0.14960177852E+04  0.10100000352E+00 0.  1.
       -3    1    3    3    0  502  0.31379278599E+03  0.28871552422E+03 -0.81581580660E+03  0.92053137207E+03  0.10100000352E+00 0. -1.
</event>
<event>
 5   0  0.2090039E-05  0.2378099E+04  0.7818609E-02  0.8447749E-01
        1   -1    0    0  501    0  0.00000000000E+00  0.00000000000E+00  0.18482549622E+04  0.18482549622E+04  0.50400001928E-02 0. -1.
       -1   -1    0    0    0  501  0.00000000000E+00  0.00000000000E+00 -0.76495847017E+03  0.76495847018E+03  0.50400001928E-02 0.  1.
    10030    2    1    2    0    0  0.00000000000E+00  0.00000000000E+00  0.10832964920E+04  0.26132134324E+04  0.23780986425E+04 0.  0.
        1    1    3    3  502    0  0.63273910293E+03 -0.92145074892E+03  0.98720859351E+03  0.14913118595E+04  0.50400001928E-02 0. -1.
       -1    1    3    3    0  502 -0.63273910293E+03  0.92145074892E+03  0.96087898532E+02  0.11219015729E+04  0.50400001928E-02 0.  1.
</event>
<event>
 5   0  0.4856882E-05  0.2403540E+04  0.7818609E-02  0.8438179E-01
       -2   -1    0    0    0  501  0.00000000000E+00  0.00000000000E+00  0.54373040939E+03  0.54373040939E+03  0.25500000920E-02 0.  1.
        2   -1    0    0  501    0  0.00000000000E+00  0.00000000000E+00 -0.26561895537E+04  0.26561895537E+04  0.25500000920E-02 0. -1.
    10030    2    1    2    0    0  0.00000000000E+00  0.00000000000E+00 -0.21124591443E+04  0.31999199631E+04  0.24035399173E+04 0.  0.
        1    1    3    3  502    0 -0.23687303843E+03  0.52702215087E+03  0.34666656116E+03  0.67382407830E+03  0.50400001928E-02 0.  1.
       -1    1    3    3    0  502  0.23687303843E+03 -0.52702215087E+03 -0.24591257055E+04  0.25260958848E+04  0.50400001928E-02 0. -1.
</event>
<event>
 5   0  0.2057599E-05  0.2356785E+04  0.7818609E-02  0.8455862E-01
        1   -1    0    0  501    0  0.00000000000E+00  0.00000000000E+00  0.13889263652E+04  0.13889263652E+04  0.50400001928E-02 0. -1.
       -1   -1    0    0    0  501  0.00000000000E+00  0.00000000000E+00 -0.99977175440E+03  0.99977175441E+03  0.50400001928E-02 0.  1.
    10030    2    1    2    0    0  0.00000000000E+00  0.00000000000E+00  0.38915461077E+03  0.23886981196E+04  0.23567853944E+04 0.  0.
        4    1    3    3  502    0 -0.15299607749E+03  0.47191327895E+03  0.12779276219E+04  0.13708430116E+04  0.12699999809E+01 0. -1.
       -4    1    3    3    0  502  0.15299607749E+03 -0.47191327895E+03 -0.88877301118E+03  0.10178551080E+04  0.12699999809E+01 0.  1.
</event>
<event>
 5   0  0.2149920E-05  0.2396110E+04  0.7818609E-02  0.8440961E-01
        1   -1    0    0  501    0  0.00000000000E+00  0.00000000000E+00  0.23872659436E+04  0.23872659437E+04  0.50400001928E-02 0.  1.
       -1   -1    0    0    0  501  0.00000000000E+00  0.00000000000E+00 -0.60124680646E+03  0.60124680648E+03  0.50400001928E-02 0. -1.
    10030    2    1    2    0    0  0.00000000000E+00  0.00000000000E+00  0.17860191372E+04  0.29885127501E+04  0.23961102018E+04 0.  0.
        5    1    3    3  502    0  0.10814723137E+04 -0.15763729539E+03  0.28086986852E+03  0.11284245014E+04  0.46999998093E+01 0.  1.
       -5    1    3    3    0  502 -0.10814723137E+04  0.15763729539E+03  0.15051492687E+04  0.18600882488E+04  0.46999998093E+01 0. -1.
</event>
<event>
 5   0  0.2139556E-05  0.2413559E+04  0.7818609E-02  0.8434445E-01
       -1   -1    0    0    0  501  0.00000000000E+00  0.00000000000E+00  0.11771733648E+04  0.11771733648E+04  0.50400001928E-02 0. -1.
        1   -1    0    0  501    0  0.00000000000E+00  0.00000000000E+00 -0.12371298199E+04  0.12371298199E+04  0.50400001928E-02 0.  1.
    10030    2    1    2    0    0  0.00000000000E+00  0.00000000000E+00 -0.59956455069E+02  0.24143031847E+04  0.24135585949E+04 0.  0.
        2    1    3    3  502    0  0.98999101267E+03 -0.24277082315E+03 -0.67616234138E+03  0.12231988349E+04  0.25500000920E-02 0.  1.
       -2    1    3    3    0  502 -0.98999101267E+03  0.24277082315E+03  0.61620588631E+03  0.11911043498E+04  0.25500000920E-02 0. -1.
</event>
<event>
 5   0  0.2139556E-05  0.2378983E+04  0.7818609E-02  0.8447414E-01
        1   -1    0    0  501    0  0.00000000000E+00  0.00000000000E+00  0.11084043071E+04  0.11084043071E+04  0.50400001928E-02 0.  1.
       -1   -1    0    0    0  501  0.00000000000E+00  0.00000000000E+00 -0.12765103002E+04  0.12765103002E+04  0.50400001928E-02 0. -1.
    10030    2    1    2    0    0  0.00000000000E+00  0.00000000000E+00 -0.16810599309E+03  0.23849146074E+04  0.23789825682E+04 0.  0.
        2    1    3    3  502    0 -0.20783937396E+03  0.38908371549E+03 -0.11914822148E+04  0.12705169071E+04  0.25500000920E-02 0. -1.
       -2    1    3    3    0  502  0.20783937396E+03 -0.38908371549E+03  0.10233762218E+04  0.11143977002E+04  0.25500000920E-02 0.  1.
</event>
<event>
 5   0  0.2149920E-05  0.2408440E+04  0.7818609E-02  0.8436351E-01
        1   -1    0    0  501    0  0.00000000000E+00  0.00000000000E+00  0.15307822484E+04  0.15307822484E+04  0.50400001928E-02 0.  1.
       -1   -1    0    0    0  501  0.00000000000E+00  0.00000000000E+00 -0.94732332848E+03  0.94732332850E+03  0.50400001928E-02 0. -1.
    10030    2    1    2    0    0  0.00000000000E+00  0.00000000000E+00  0.58345891989E+03  0.24781055769E+04  0.24084399388E+04 0.  0.
        5    1    3    3  502    0 -0.43397350626E+02  0.11990209002E+04  0.18584908576E+03  0.12141237260E+04  0.46999998093E+01 0.  1.
       -5    1    3    3    0  502  0.43397350626E+02 -0.11990209002E+04  0.39760983413E+03  0.12639818509E+04  0.46999998093E+01 0. -1.
</event>
<event>
 5   0  0.4914005E-05  0.2470445E+04  0.7818609E-02  0.8413591E-01
        2   -1    0    0  501    0  0.00000000000E+00  0.00000000000E+00  0.15713449130E+04  0.15713449130E+04  0.25500000920E-02 0.  1.
       -2   -1    0    0    0  501  0.00000000000E+00  0.00000000000E+00 -0.97099893913E+03  0.97099893914E+03  0.25500000920E-02 0. -1.
    10030    2    1    2    0    0  0.00000000000E+00  0.00000000000E+00  0.60034597384E+03  0.25423438521E+04  0.24704446916E+04 0.  0.
        2    1    3    3  502    0  0.67395319466E+03  0.68719849895E+03 -0.49651520157E+03  0.10830429497E+04  0.25500000920E-02 0. -1.
       -2    1    3    3    0  502 -0.67395319466E+03 -0.68719849895E+03  0.10968611754E+04  0.14593009024E+04  0.25500000920E-02 0.  1.
</event>
<event>
 5   0  0.2090039E-05  0.2379652E+04  0.7818609E-02  0.8447161E-01
       -1   -1    0    0    0  501  0.00000000000E+00  0.00000000000E+00  0.10599016290E+04  0.10599016290E+04  0.50400001928E-02 0. -1.
        1   -1    0    0  501    0  0.00000000000E+00  0.00000000000E+00 -0.13356772585E+04  0.13356772585E+04  0.50400001928E-02 0.  1.
    10030    2    1    2    0    0  0.00000000000E+00  0.00000000000E+00 -0.27577562951E+03  0.23955788876E+04  0.23796524975E+04 0.  0.
        1    1    3    3  502    0 -0.66920341714E+03  0.93416777780E+03  0.17269582327E+03  0.11620354977E+04  0.50400001928E-02 0. -1.
       -1    1    3    3    0  502  0.66920341714E+03 -0.93416777780E+03 -0.44847145279E+03  0.12335433898E+04  0.50400001928E-02 0.  1.
</event>
<event>
 5   0  0.2090039E-05  0.2364438E+04  0.7818609E-02  0.8452939E-01
       -1   -1    0    0    0  501  0.00000000000E+00  0.00000000000E+00  0.11855735130E+04  0.11855735130E+04  0.50400001928E-02 0.  1.
        1   -1    0    0  501    0  0.00000000000E+00  0.00000000000E+00 -0.11788737351E+04  0.11788737351E+04  0.50400001928E-02 0. -1.
    10030    2    1    2    0    0  0.00000000000E+00  0.00000000000E+00  0.66997779234E+01  0.23644472481E+04  0.23644377560E+04 0.  0.
        1    1    3    3  502    0 -0.37450946079E+03 -0.53347604093E+03 -0.98295395044E+03  0.11794288835E+04  0.50400001928E-02 0. -1.
       -1    1    3    3    0  502  0.37450946079E+03  0.53347604093E+03  0.98965372836E+03  0.11850183646E+04  0.50400001928E-02 0.  1.
</event>
<event>
 5   0  0.2090039E-05  0.2362999E+04  0.7818609E-02  0.8453488E-01
       -1   -1    0    0    0  501  0.00000000000E+00  0.00000000000E+00  0.15918173981E+04  0.15918173981E+04  0.50400001928E-02 0. -1.
        1   -1    0    0  501    0  0.00000000000E+00  0.00000000000E+00 -0.87694796013E+03  0.87694796015E+03  0.50400001928E-02 0.  1.
    10030    2    1    2    0    0  0.00000000000E+00  0.00000000000E+00  0.71486943799E+03  0.24687653583E+04  0.23629989591E+04 0.  0.
        1    1    3    3  502    0 -0.16554538267E+03 -0.42077408323E+03 -0.78297407856E+03  0.90415956034E+03  0.50400001928E-02 0.  1.
       -1    1    3    3    0  502  0.16554538267E+03  0.42077408323E+03  0.14978435165E+04  0.15646057979E+04  0.50400001928E-02 0. -1.
</event>
<event>
 5   0  0.4664127E-05  0.2117875E+04  0.7818609E-02  0.8553410E-01
       -2   -1    0    0    0  501  0.00000000000E+00  0.00000000000E+00  0.19578633208E+04  0.19578633208E+04  0.25500000920E-02 0. -1.
        2   -1    0    0  501    0  0.00000000000E+00  0.00000000000E+00 -0.57274087984E+03  0.57274087984E+03  0.25500000920E-02 0.  1.
    10030    2    1    2    0    0  0.00000000000E+00  0.00000000000E+00  0.13851224410E+04  0.25306042007E+04  0.21178747470E+04 0.  0.
        4    1    3    3  502    0 -0.15968333641E+02  0.21443893994E+03  0.19315002632E+04  0.19434335405E+04  0.12699999809E+01 0. -1.
       -4    1    3    3    0  502  0.15968333641E+02 -0.21443893994E+03 -0.54637782223E+03  0.58717066017E+03  0.12699999809E+01 0.  1.
</event>
<event>
 5   0  0.2065692E-05  0.2408215E+04  0.7818609E-02  0.8436434E-01
       -1   -1    0    0    0  501  0.00000000000E+00  0.00000000000E+00  0.11406318718E+04  0.11406318718E+04  0.50400001928E-02 0.  1.
        1   -1    0    0  501    0  0.00000000000E+00  0.00000000000E+00 -0.12711154427E+04  0.12711154427E+04  0.50400001928E-02 0. -1.
    10030    2    1    2    0    0  0.00000000000E+00  0.00000000000E+00 -0.13048357083E+03  0.24117473145E+04  0.24082149295E+04 0.  0.
        3    1    3    3  502    0 -0.24794233932E+03 -0.92024460489E+03  0.67173792999E+03  0.11660005974E+04  0.10100000352E+00 0.  1.
       -3    1    3    3    0  502  0.24794233932E+03  0.92024460489E+03 -0.80222150083E+03  0.12457467171E+04  0.10100000352E+00 0. -1.
</event>
<event>
 5   0  0.4664127E-05  0.2320229E+04  0.7818609E-02  0.8469988E-01
       -2   -1    0    0    0  501  0.00000000000E+00  0.00000000000E+00  0.61842002898E+03  0.61842002898E+03  0.25500000920E-02 0. -1.
        2   -1    0    0  501    0  0.00000000000E+00  0.00000000000E+00 -0.21762968652E+04  0.21762968652E+04  0.25500000920E-02 0.  1.
    10030    2    1    2    0    0  0.00000000000E+00  0.00000000000E+00 -0.15578768362E+04  0.27947168941E+04  0.23202289287E+04 0.  0.
        4    1    3    3  502    0  0.78296411691E+03  0.84685688280E+03 -0.62818533220E+03  0.13133231943E+04  0.12699999809E+01 0. -1.
       -4    1    3    3    0  502 -0.78296411691E+03 -0.84685688280E+03 -0.92969150397E+03  0.14813936998E+04  0.12699999809E+01 0.  1.
</event>
<event>
 5   0  0.4756705E-05  0.2398209E+04  0.7818609E-02  0.8440174E-01
        2   -1    0    0  501    0  0.00000000000E+00  0.00000000000E+00  0.10803498045E+04  0.10803498045E+04  0.25500000920E-02 0.  1.
       -2   -1    0    0    0  501  0.00000000000E+00  0.00000000000E+00 -0.13309134200E+04  0.13309134201E+04  0.25500000920E-02 0. -1.
    10030    2    1    2    0    0  0.00000000000E+00  0.00000000000E+00 -0.25056361556E+03  0.24112632245E+04  0.23982093763E+04 0.  0.
        3    1    3    3  502    0  0.33557822528E+03  0.10222044226E+04 -0.65763278906E+03  0.12609502458E+04  0.10100000352E+00 0. -1.
       -3    1    3    3    0  502 -0.33557822528E+03 -0.10222044226E+04  0.40706917350E+03  0.11503129788E+04  0.10100000352E+00 0.  1.
</event>
<event>
 5   0  0.4856882E-05  0.2434301E+04  0.7818609E-02  0.8426772E-01
       -2   -1    0    0    0  501  0.00000000000E+00  0.00000000000E+00  0.70867356501E+03  0.70867356501E+03  0.25500000920E-02 0.  1.
        2   -1    0    0  501    0  0.00000000000E+00  0.00000000000E+00 -0.20904625520E+04  0.20904625520E+04  0.25500000920E-02 0. -1.
    10030    2    1    2    0    0  0.00000000000E+00  0.00000000000E+00 -0.13817889870E+04  0.27991361170E+04  0.24343011722E+04 0.  0.
        1    1    3    3  502    0  0.87371777436E+03  0.15991446845E+03 -0.16477792796E+04  0.18719326753E+04  0.50400001928E-02 0. -1.
       -1    1    3    3    0  502 -0.87371777436E+03 -0.15991446845E+03  0.26599029267E+03  0.92720344169E+03  0.50400001928E-02 0.  1.
</event>
<event>
 5   0  0.4664127E-05  0.2391373E+04  0.7818609E-02  0.8442741E-01
        2   -1    0    0  501    0  0.00000000000E+00  0.00000000000E+00  0.22409630597E+04  0.22409630597E+04  0.25500000920E-02 0.  1.
       -2   -1    0    0    0  501  0.00000000000E+00  0.00000000000E+00 -0.63796930841E+03  0.63796930841E+03  0.25500000920E-02 0. -1.
    10030    2    1    2    0    0  0.00000000000E+00  0.00000000000E+00  0.16029937512E+04  0.28789323681E+04  0.23913725376E+04 0.  0.
        4    1    3    3  502    0 -0.12910985091E+03  0.26421545558E+03 -0.59375341677E+03  0.66258878152E+03  0.12699999809E+01 0. -1.
       -4    1    3    3    0  502  0.12910985091E+03 -0.26421545558E+03  0.21967471680E+04  0.22163435866E+04  0.12699999809E+01 0.  1.
</event>
<event>
 5   0  0.2065692E-05  0.2390698E+04  0.7818609E-02  0.8442994E-01
        1   -1    0    0  501    0  0.00000000000E+00  0.00000000000E+00  0.96156212856E+03  0.96156212857E+03  0.50400001928E-02 0. -1.
       -1   -1    0    0    0  501  0.00000000000E+00  0.00000000000E+00 -0.14859765302E+04  0.14859765302E+04  0.50400001928E-02 0.  1.
    10030    2    1    2    0    0  0.00000000000E+00  0.00000000000E+00 -0.52441440160E+03  0.24475386587E+04  0.23906976014E+04 0.  0.
        3    1    3    3  502    0  0.75184002722E+03  0.75553235659E+03  0.29173616441E+03  0.11050803447E+04  0.10100000352E+00 0. -1.
       -3    1    3    3    0  502 -0.75184002722E+03 -0.75553235659E+03 -0.81615056601E+03  0.13424583141E+04  0.10100000352E+00 0.  1.
</event>
<event>
 5   0  0.4756705E-05  0.2449743E+04  0.7818609E-02  0.8421112E-01
        2   -1    0    0  501    0  0.00000000000E+00  0.00000000000E+00  0.15812809327E+04  0.15812809327E+04  0.25500000920E-02 0.  1.
       -2   -1    0    0    0  501  0.00000000000E+00  0.00000000000E+00 -0.94879390549E+03  0.94879390550E+03  0.25500000920E-02 0. -1.
    10030    2    1    2    0    0  0.00000000000E+00  0.00000000000E+00  0.63248702723E+03  0.25300748382E+04  0.24497426084E+04 0.  0.
        3    1    3    3  502    0 -0.11285691677E+03  0.46038386329E+03 -0.85022635049E+03  0.97343455995E+03  0.10100000352E+00 0. -1.
       -3    1    3    3    0  502  0.11285691677E+03 -0.46038386329E+03  0.14827133777E+04  0.15566402783E+04  0.10100000352E+00 0.  1.
</event>
<event>
 5   0  0.2065692E-05  0.2413203E+04  0.7818609E-02  0.8434577E-01
        1   -1    0    0  501    0  0.00000000000E+00  0.00000000000E+00  0.11929939200E+04  0.11929939200E+04  0.50400001928E-02 0. -1.
       -1   -1    0    0    0  501  0.00000000000E+00  0.00000000000E+00 -0.12203643112E+04  0.12203643112E+04  0.50400001928E-02 0.  1.
    10030    2    1    2    0    0  0.00000000000E+00  0.00000000000E+00 -0.27370391215E+02  0.24133582313E+04  0.24132030197E+04 0.  0.
        3    1    3    3  502    0 -0.36059448626E+03  0.10729686961E+04  0.40418972247E+03  0.12019399104E+04  0.10100000352E+00 0.  1.
       -3    1    3    3    0  502  0.36059448626E+03 -0.10729686961E+04 -0.43156011368E+03  0.12114183209E+04  0.10100000352E+00 0. -1.
</event>
<event>
 5   0  0.4664127E-05  0.1875863E+04  0.7818609E-02  0.8666965E-01
        2   -1    0    0  501    0  0.00000000000E+00  0.00000000000E+00  0.13517041164E+04  0.13517041164E+04  0.25500000920E-02 0.  1.
       -2   -1    0    0    0  501  0.00000000000E+00  0.00000000000E+00 -0.65081974025E+03  0.65081974026E+03  0.25500000920E-02 0. -1.
    10030    2    1    2    0    0  0.00000000000E+00  0.00000000000E+00  0.70088437618E+03  0.20025238567E+04  0.18758632381E+04 0.  0.
        4    1    3    3  502    0  0.65946820485E+02  0.43753387081E+03  0.12332824100E+04  0.13102564585E+04  0.12699999809E+01 0.  1.
       -4    1    3    3    0  502 -0.65946820485E+02 -0.43753387081E+03 -0.53239803386E+03  0.69226739819E+03  0.12699999809E+01 0. -1.
</event>
<event>
 5   0  0.4914005E-05  0.2182838E+04  0.7818609E-02  0.8525605E-01
        2   -1    0    0  501    0  0.00000000000E+00  0.00000000000E+00  0.11495061918E+04  0.11495061918E+04  0.25500000920E-02 0. -1.
       -2   -1    0    0    0  501  0.00000000000E+00  0.00000000000E+00 -0.10362669266E+04  0.10362669266E+04  0.25500000920E-02 0.  1.
    10030    2    1    2    0    0  0.00000000000E+00  0.00000000000E+00  0.11323926519E+03  0.21857731184E+04  0.21828378304E+04 0.  0.
        2    1    3    3  502    0 -0.68575303892E+03 -0.67135264338E+03 -0.46390979096E+03  0.10659192729E+04  0.25500000920E-02 0.  1.
       -2    1    3    3    0  502  0.68575303892E+03  0.67135264338E+03  0.57714905615E+03  0.11198538455E+04  0.25500000920E-02 0. -1.
</event>
<event>
 5   0  0.4856882E-05  0.2389421E+04  0.7818609E-02  0.8443475E-01
       -2   -1    0    0    0  501  0.00000000000E+00  0.00000000000E+00  0.98656266548E+03  0.98656266548E+03  0.25500000920E-02 0. -1.
        2   -1    0    0  501    0  0.00000000000E+00  0.00000000000E+00 -0.14467735558E+04  0.14467735558E+04  0.25500000920E-02 0.  1.
    10030    2    1    2    0    0  0.00000000000E+00  0.00000000000E+00 -0.46021089033E+03  0.24333362213E+04  0.23894206625E+04 0.  0.
        1    1    3    3  502    0  0.10737393964E+04  0.39127960425E+03 -0.58481255950E+03  0.12837529941E+04  0.50400001928E-02 0.  1.
       -1    1    3    3    0  502 -0.10737393964E+04 -0.39127960425E+03  0.12460166918E+03  0.11495832272E+04  0.50400001928E-02 0. -1.
</event>
<event>
 5   0  0.4756705E-05  0.2541579E+04  0.7818609E-02  0.8388321E-01
       -2   -1    0    0    0  501  0.00000000000E+00  0.00000000000E+00  0.72101045928E+03  0.72101045929E+03  0.25500000920E-02 0. -1.
        2   -1    0    0  501    0  0.00000000000E+00  0.00000000000E+00 -0.22397818288E+04  0.22397818288E+04  0.25500000920E-02 0.  1.
    10030    2    1    2    0    0  0.00000000000E+00  0.00000000000E+00 -0.15187713695E+04  0.29607922881E+04  0.25415791352E+04 0.  0.
        3    1    3    3  502    0  0.52740399810E+03  0.58575960112E+01  0.58747914287E+03  0.78950683477E+03  0.10100000352E+00 0. -1.
       -3    1    3    3    0  502 -0.52740399810E+03 -0.58575960112E+01 -0.21062505124E+04  0.21712854533E+04  0.10100000352E+00 0.  1.
</event>
<event>
 5   0  0.4914005E-05  0.2388073E+04  0.7818609E-02  0.8443982E-01
        2   -1    0    0  501    0  0.00000000000E+00  0.00000000000E+00  0.19416764487E+04  0.19416764487E+04  0.25500000920E-02 0.  1.
       -2   -1    0    0    0  501  0.00000000000E+00  0.00000000000E+00 -0.73427440823E+03  0.73427440824E+03  0.25500000920E-02 0. -1.
    10030    2    1    2    0    0  0.00000000000E+00  0.00000000000E+00  0.12074020404E+04  0.26759508569E+04  0.23880731357E+04 0.  0.
        2    1    3    3  502    0 -0.41872612915E+03  0.85601754470E+03 -0.20249088469E+03  0.97421772025E+03  0.25500000920E-02 0. -1.
       -2    1    3    3    0  502  0.41872612915E+03 -0.85601754470E+03  0.14098929251E+04  0.17017331367E+04  0.25500000920E-02 0.  1.
</event>
<event>
 5   0  0.2139556E-05  0.2285498E+04  0.7818609E-02  0.8483661E-01
        1   -1    0    0  501    0  0.00000000000E+00  0.00000000000E+00  0.69212993363E+03  0.69212993364E+03  0.50400001928E-02 0. -1.
       -1   -1    0    0    0  501  0.00000000000E+00  0.00000000000E+00 -0.18867493432E+04  0.18867493432E+04  0.50400001928E-02 0.  1.
    10030    2    1    2    0    0  0.00000000000E+00  0.00000000000E+00 -0.11946194096E+04  0.25788792769E+04  0.22854983682E+04 0.  0.
        2    1    3    3  502    0 -0.78273750077E+03  0.43398543745E+03  0.20442954425E+03  0.91804836125E+03  0.25500000920E-02 0. -1.
       -2    1    3    3    0  502  0.78273750077E+03 -0.43398543745E+03 -0.13990489538E+04  0.16608309156E+04  0.25500000920E-02 0.  1.
</event>
<event>
 5   0  0.2139556E-05  0.2328405E+04  0.7818609E-02  0.8466805E-01
       -1   -1    0    0    0  501  0.00000000000E+00  0.00000000000E+00  0.11165130973E+04  0.11165130974E+04  0.50400001928E-02 0.  1.
        1   -1    0    0  501    0  0.00000000000E+00  0.00000000000E+00 -0.12139290402E+04  0.12139290402E+04  0.50400001928E-02 0. -1.
    10030    2    1    2    0    0  0.00000000000E+00  0.00000000000E+00 -0.97415942881E+02  0.23304421376E+04  0.23284051818E+04 0.  0.
        2    1    3    3  502    0  0.24337167042E+03 -0.11293674059E+04  0.95178586248E+02  0.11592063970E+04  0.25500000920E-02 0.  1.
       -2    1    3    3    0  502 -0.24337167042E+03  0.11293674059E+04 -0.19259452913E+03  0.11712357406E+04  0.25500000920E-02 0. -1.
</event>
<event>
 5   0  0.2057599E-05  0.2399958E+04  0.7818609E-02  0.8439519E-01
        1   -1    0    0  501    0  0.00000000000E+00  0.00000000000E+00  0.11170127347E+04  0.11170127347E+04  0.50400001928E-02 0. -1.
       -1   -1    0    0    0  501  0.00000000000E+00  0.00000000000E+00 -0.12891079571E+04  0.12891079571E+04  0.50400001928E-02 0.  1.
    10030    2    1    2    0    0  0.00000000000E+00  0.00000000000E+00 -0.17209522234E+03  0.24061206918E+04  0.23999583367E+04 0.  0.
        4    1    3    3  502    0 -0.44163225939E+03  0.10589547280E+04 -0.43841018290E+03  0.12282627039E+04  0.12699999809E+01 0.  1.
       -4    1    3    3    0  502  0.44163225939E+03 -0.10589547280E+04  0.26631496056E+03  0.11778579879E+04  0.12699999809E+01 0. -1.
</event>
<event>
 5   0  0.2149920E-05  0.2384054E+04  0.7818609E-02  0.8445498E-01
        1   -1    0    0  501    0  0.00000000000E+00  0.00000000000E+00  0.15619436487E+04  0.15619436487E+04  0.50400001928E-02 0.  1.
       -1   -1    0    0    0  501  0.00000000000E+00  0.00000000000E+00 -0.90971822133E+03  0.90971822134E+03  0.50400001928E-02 0. -1.
    10030    2    1    2    0    0  0.00000000000E+00  0.00000000000E+00  0.65222542733E+03  0.24716618700E+04  0.23840541923E+04 0.  0.
        5    1    3    3  502    0 -0.77744314757E+03 -0.19538114298E+03 -0.58852814533E+03  0.99447428653E+03  0.46999998093E+01 0. -1.
       -5    1    3    3    0  502  0.77744314757E+03  0.19538114298E+03  0.12407535727E+04  0.14771875835E+04  0.46999998093E+01 0.  1.
</event>
<event>
 5   0  0.2149920E-05  0.2409415E+04  0.7818609E-02  0.8435987E-01
        1   -1    0    0  501    0  0.00000000000E+00  0.00000000000E+00  0.11750765030E+04  0.11750765031E+04  0.50400001928E-02 0.  1.
       -1   -1    0    0    0  501  0.00000000000E+00  0.00000000000E+00 -0.12350860420E+04  0.12350860420E+04  0.50400001928E-02 0. -1.
    10030    2    1    2    0    0  0.00000000000E+00  0.00000000000E+00 -0.60009538967E+02  0.24101625451E+04  0.24094153542E+04 0.  0.
        5    1    3    3  502    0 -0.11675273790E+04  0.25852541777E+03  0.11613271495E+03  0.12014426619E+04  0.46999998093E+01 0.  1.
       -5    1    3    3    0  502  0.11675273790E+04 -0.25852541777E+03 -0.17614225391E+03  0.12087198832E+04  0.46999998093E+01 0. -1.
</event>
<event>
 5   0  0.4756705E-05  0.2586075E+04  0.7818609E-02  0.8372947E-01
        2   -1    0    0  501    0  0.00000000000E+00  0.00000000000E+00  0.15497016992E+04  0.15497016992E+04  0.25500000920E-02 0.  1.
       -2   -1    0    0    0  501  0.00000000000E+00  0.00000000000E+00 -0.10788823571E+04  0.10788823571E+04  0.25500000920E-02 0. -1.
    10030    2    1    2    0    0  0.00000000000E+00  0.00000000000E+00  0.47081934215E+03  0.26285840563E+04  0.25860748806E+04 0.  0.
        3    1    3    3  502    0 -0.71112273912E+03 -0.38856301007E+03 -0.78875866990E+03  0.11308479175E+04  0.10100000352E+00 0. -1.
       -3    1    3    3    0  502  0.71112273912E+03  0.38856301007E+03  0.12595780120E+04  0.14977361388E+04  0.10100000352E+00 0.  1.
</event>
<event>
 5   0  0.4756705E-05  0.2441424E+04  0.7818609E-02  0.8424156E-01
        2   -1    0    0  501    0  0.00000000000E+00  0.00000000000E+00  0.92093392963E+03  0.92093392963E+03  0.25500000920E-02 0.  1.
       -2   -1    0    0    0  501  0.00000000000E+00  0.00000000000E+00 -0.16180718792E+04  0.16180718792E+04  0.25500000920E-02 0. -1.
    10030    2    1    2    0    0  0.00000000000E+00  0.00000000000E+00 -0.69713794952E+03  0.25390058088E+04  0.24414235963E+04 0.  0.
        3    1    3    3  502    0  0.41804275926E+03  0.56595910065E+03 -0.13859705429E+04  0.15543435296E+04  0.10100000352E+00 0. -1.
       -3    1    3    3    0  502 -0.41804275926E+03 -0.56595910065E+03  0.68883259334E+03  0.98466227917E+03  0.10100000352E+00 0.  1.
</event>
<event>
 5   0  0.2149920E-05  0.2376470E+04  0.7818609E-02  0.8448366E-01
        1   -1    0    0  501    0  0.00000000000E+00  0.00000000000E+00  0.21614829383E+04  0.21614829383E+04  0.50400001928E-02 0. -1.
       -1   -1    0    0    0  501  0.00000000000E+00  0.00000000000E+00 -0.65320990011E+03  0.65320990013E+03  0.50400001928E-02 0.  1.
    10030    2    1    2    0    0  0.00000000000E+00  0.00000000000E+00  0.15082730382E+04  0.28146928384E+04  0.23764696962E+04 0.  0.
        5    1    3    3  502    0  0.49568041528E+03  0.89163935490E+03  0.32564973808E+02  0.10206872101E+04  0.46999998093E+01 0.  1.
       -5    1    3    3    0  502 -0.49568041528E+03 -0.89163935490E+03  0.14757080644E+04  0.17940056284E+04  0.46999998093E+01 0. -1.
</event>
<event>
 5   0  0.4856882E-05  0.2435837E+04  0.7818609E-02  0.8426207E-01
       -2   -1    0    0    0  501  0.00000000000E+00  0.00000000000E+00  0.99041865610E+03  0.99041865610E+03  0.25500000920E-02 0. -1.
        2   -1    0    0  501    0  0.00000000000E+00  0.00000000000E+00 -0.14976753042E+04  0.14976753042E+04  0.25500000920E-02 0.  1.
    10030    2    1    2    0    0  0.00000000000E+00  0.00000000000E+00 -0.50725664809E+03  0.24880939603E+04  0.24358370734E+04 0.  0.
        1    1    3    3  502    0 -0.11037339753E+04  0.39735890514E+03  0.80814246731E+02  0.11758629726E+04  0.50400001928E-02 0. -1.
       -1    1    3    3    0  502  0.11037339753E+04 -0.39735890514E+03 -0.58807089482E+03  0.13122309877E+04  0.50400001928E-02 0.  1.
</event>
<event>
 5   0  0.2139556E-05  0.2375124E+04  0.7818609E-02  0.8448876E-01
       -1   -1    0    0    0  501  0.00000000000E+00  0.00000000000E+00  0.11821392128E+04  0.11821392128E+04  0.50400001928E-02 0.  1.
        1   -1    0    0  501    0  0.00000000000E+00  0.00000000000E+00 -0.11930098560E+04  0.11930098560E+04  0.50400001928E-02 0. -1.
    10030    2    1    2    0    0  0.00000000000E+00  0.00000000000E+00 -0.10870643225E+02  0.23751490688E+04  0.23751241922E+04 0.  0.
        2    1    3    3  502    0 -0.11766677575E+04 -0.88454258235E+02 -0.13934925033E+03  0.11881874351E+04  0.25500000920E-02 0.  1.
       -2    1    3    3    0  502  0.11766677575E+04  0.88454258235E+02  0.12847860710E+03  0.11869616337E+04  0.25500000920E-02 0. -1.
</event>
<event>
 5   0  0.4756705E-05  0.2496423E+04  0.7818609E-02  0.8404261E-01
        2   -1    0    0  501    0  0.00000000000E+00  0.00000000000E+00  0.16372120614E+04  0.16372120614E+04  0.25500000920E-02 0. -1.
       -2   -1    0    0    0  501  0.00000000000E+00  0.00000000000E+00 -0.95163754717E+03  0.95163754717E+03  0.25500000920E-02 0.  1.
    10030    2    1    2    0    0  0.00000000000E+00  0.00000000000E+00  0.68557451426E+03  0.25888496086E+04  0.24964234179E+04 0.  0.
        3    1    3    3  502    0  0.11117457378E+04  0.55483721522E+03  0.21917015135E+03  0.12616887439E+04  0.10100000352E+00 0.  1.
       -3    1    3    3    0  502 -0.11117457378E+04 -0.55483721522E+03  0.46640436291E+03  0.13271608647E+04  0.10100000352E+00 0. -1.
</event>
<event>
 5   0  0.4664127E-05  0.2396830E+04  0.7818609E-02  0.8440691E-01
        2   -1    0    0  501    0  0.00000000000E+00  0.00000000000E+00  0.13782396735E+04  0.13782396735E+04  0.25500000920E-02 0.  1.
       -2   -1    0    0    0  501  0.00000000000E+00  0.00000000000E+00 -0.10420526618E+04  0.10420526618E+04  0.25500000920E-02 0. -1.
    10030    2    1    2    0    0  0.00000000000E+00  0.00000000000E+00  0.33618701170E+03  0.24202923354E+04  0.23968298400E+04 0.  0.
        4    1    3    3  502    0  0.10682674437E+04 -0.23765225288E+03 -0.32507525225E+03  0.11416433143E+04  0.12699999809E+01 0.  1.
       -4    1    3    3    0  502 -0.10682674437E+04  0.23765225288E+03  0.66126226394E+03  0.12786490211E+04  0.12699999809E+01 0. -1.
</event>
<event>
 5   0  0.4713971E-05  0.2369202E+04  0.7818609E-02  0.8451125E-01
        2   -1    0    0  501    0  0.00000000000E+00  0.00000000000E+00  0.15214712025E+04  0.15214712025E+04  0.25500000920E-02 0. -1.
       -2   -1    0    0    0  501  0.00000000000E+00  0.00000000000E+00 -0.92231725371E+03  0.92231725372E+03  0.25500000920E-02 0.  1.
    10030    2    1    2    0    0  0.00000000000E+00  0.00000000000E+00  0.59915394876E+03  0.24437884562E+04  0.23692016724E+04 0.  0.
        5    1    3    3  502    0  0.20089199915E+03  0.10988213910E+04 -0.10716052644E+03  0.11221726752E+04  0.46999998093E+01 0.  1.
       -5    1    3    3    0  502 -0.20089199915E+03 -0.10988213910E+04  0.70631447520E+03  0.13216157810E+04  0.46999998093E+01 0. -1.
</event>
<event>
 5   0  0.2090039E-05  0.2402930E+04  0.7818609E-02  0.8438408E-01
        1   -1    0    0  501    0  0.00000000000E+00  0.00000000000E+00  0.89405964244E+03  0.89405964245E+03  0.50400001928E-02 0.  1.
       -1   -1    0    0    0  501  0.00000000000E+00  0.00000000000E+00 -0.16145654700E+04  0.16145654701E+04  0.50400001928E-02 0. -1.
    10030    2    1    2    0    0  0.00000000000E+00  0.00000000000E+00 -0.72050582761E+03  0.25086251125E+04  0.24029297342E+04 0.  0.
        1    1    3    3  502    0 -0.21181801002E+03 -0.34390493475E+03 -0.15415637689E+04  0.15935985465E+04  0.50400001928E-02 0. -1.
       -1    1    3    3    0  502  0.21181801002E+03  0.34390493475E+03  0.82105794134E+03  0.91502656605E+03  0.50400001928E-02 0.  1.
</event>
<event>
 5   0  0.2065692E-05  0.1853493E+04  0.7818609E-02  0.8678358E-01
       -1   -1    0    0    0  501  0.00000000000E+00  0.00000000000E+00  0.10459344968E+04  0.10459344968E+04  0.50400001928E-02 0. -1.
        1   -1    0    0  501    0  0.00000000000E+00  0.00000000000E+00 -0.82114066114E+03  0.82114066115E+03  0.50400001928E-02 0.  1.
    10030    2    1    2    0    0  0.00000000000E+00  0.00000000000E+00  0.22479383569E+03  0.18670751580E+04  0.18534932903E+04 0.  0.
        3    1    3    3  502    0 -0.35102082938E+03 -0.68268364015E+03 -0.41062520738E+03  0.87056627911E+03  0.10100000352E+00 0.  1.
       -3    1    3    3    0  502  0.35102082938E+03  0.68268364015E+03  0.63541904308E+03  0.99650887888E+03  0.10100000352E+00 0. -1.
</event>
<event>
 5   0  0.2057599E-05  0.2424480E+04  0.7818609E-02  0.8430395E-01
       -1   -1    0    0    0  501  0.00000000000E+00  0.00000000000E+00  0.75212002039E+03  0.75212002040E+03  0.50400001928E-02 0. -1.
        1   -1    0    0  501    0  0.00000000000E+00  0.00000000000E+00 -0.19538443811E+04  0.19538443811E+04  0.50400001928E-02 0.  1.
    10030    2    1    2    0    0  0.00000000000E+00  0.00000000000E+00 -0.12017243607E+04  0.27059644015E+04  0.24244797180E+04 0.  0.
        4    1    3    3  502    0  0.96730290389E+03 -0.40246102031E+03  0.79752761458E+02  0.10507197041E+04  0.12699999809E+01 0. -1.
       -4    1    3    3    0  502 -0.96730290389E+03  0.40246102031E+03 -0.12814771222E+04  0.16552446974E+04  0.12699999809E+01 0.  1.
</event>
<event>
 5   0  0.2149920E-05  0.2377240E+04  0.7818609E-02  0.8448074E-01
        1   -1    0    0  501    0  0.00000000000E+00  0.00000000000E+00  0.18320579014E+04  0.18320579014E+04  0.50400001928E-02 0. -1.
       -1   -1    0    0    0  501  0.00000000000E+00  0.00000000000E+00 -0.77116447377E+03  0.77116447379E+03  0.50400001928E-02 0.  1.
    10030    2    1    2    0    0  0.00000000000E+00  0.00000000000E+00  0.10608934276E+04  0.26032223752E+04  0.23772403896E+04 0.  0.
        5    1    3    3  502    0  0.61769422990E+02 -0.98425711300E+02  0.18258126343E+04  0.18295127624E+04  0.46999998093E+01 0. -1.
       -5    1    3    3    0  502 -0.61769422990E+02  0.98425711300E+02 -0.76491920664E+03  0.77370961281E+03  0.46999998093E+01 0.  1.
</event>
<event>
 5   0  0.4756705E-05  0.2522199E+04  0.7818609E-02  0.8395120E-01
       -2   -1    0    0    0  501  0.00000000000E+00  0.00000000000E+00  0.94024434618E+03  0.94024434618E+03  0.25500000920E-02 0.  1.
        2   -1    0    0  501    0  0.00000000000E+00  0.00000000000E+00 -0.16914452029E+04  0.16914452029E+04  0.25500000920E-02 0. -1.
    10030    2    1    2    0    0  0.00000000000E+00  0.00000000000E+00 -0.75120085669E+03  0.26316895490E+04  0.25221988731E+04 0.  0.
        3    1    3    3  502    0 -0.74952208017E+03 -0.22589003630E+03 -0.14072388565E+04  0.16103201131E+04  0.10100000352E+00 0. -1.
       -3    1    3    3    0  502  0.74952208017E+03  0.22589003630E+03  0.65603799986E+03  0.10213694359E+04  0.10100000352E+00 0.  1.
</event>
<event>
 5   0  0.2139556E-05  0.1807081E+04  0.7818609E-02  0.8702543E-01
       -1   -1    0    0    0  501  0.00000000000E+00  0.00000000000E+00  0.60453385867E+03  0.60453385869E+03  0.50400001928E-02 0.  1.
        1   -1    0    0  501    0  0.00000000000E+00  0.00000000000E+00 -0.13504382975E+04  0.13504382975E+04  0.50400001928E-02 0. -1.
    10030    2    1    2    0    0  0.00000000000E+00  0.00000000000E+00 -0.74590443885E+03  0.19549721562E+04  0.18070812654E+04 0.  0.
        2    1    3    3  502    0 -0.34188357620E+03 -0.11119946313E+03 -0.12697287545E+04  0.13196441984E+04  0.25500000920E-02 0. -1.
       -2    1    3    3    0  502  0.34188357620E+03  0.11119946313E+03  0.52382431569E+03  0.63532795782E+03  0.25500000920E-02 0.  1.
</event>
<event>
 5   0  0.2057599E-05  0.2408187E+04  0.7818609E-02  0.8436445E-01
       -1   -1    0    0    0  501  0.00000000000E+00  0.00000000000E+00  0.10255500187E+04  0.10255500187E+04  0.50400001928E-02 0. -1.
        1   -1    0    0  501    0  0.00000000000E+00  0.00000000000E+00 -0.14137210380E+04  0.14137210380E+04  0.50400001928E-02 0.  1.
    10030    2    1    2    0    0  0.00000000000E+00  0.00000000000E+00 -0.38817101929E+03  0.24392710566E+04  0.24081873988E+04 0.  0.
        4    1    3    3  502    0 -0.35463308781E+03  0.22192039151E+03  0.94957036397E+03  0.10376409669E+04  0.12699999809E+01 0. -1.
       -4    1    3    3    0  502  0.35463308781E+03 -0.22192039151E+03 -0.13377413833E+04  0.14016300898E+04  0.12699999809E+01 0.  1.
</event>
<event>
 5   0  0.2065692E-05  0.2314151E+04  0.7818609E-02  0.8472363E-01
        1   -1    0    0  501    0  0.00000000000E+00  0.00000000000E+00  0.19303810048E+04  0.19303810048E+04  0.50400001928E-02 0. -1.
       -1   -1    0    0    0  501  0.00000000000E+00  0.00000000000E+00 -0.69355391197E+03  0.69355391199E+03  0.50400001928E-02 0.  1.
    10030    2    1    2    0    0  0.00000000000E+00  0.00000000000E+00  0.12368270928E+04  0.26239349168E+04  0.23141506412E+04 0.  0.
        3    1    3    3  502    0 -0.48410628341E+03 -0.10349716801E+04  0.82531836526E+03  0.14094948338E+04  0.10100000352E+00 0.  1.
       -3    1    3    3    0  502  0.48410628341E+03  0.10349716801E+04  0.41150872756E+03  0.12144400830E+04  0.10100000352E+00 0. -1.
</event>
<event>
 5   0  0.2057599E-05  0.2402450E+04  0.7818609E-02  0.8438587E-01
        1   -1    0    0  501    0  0.00000000000E+00  0.00000000000E+00  0.10682194840E+04  0.10682194840E+04  0.50400001928E-02 0.  1.
       -1   -1    0    0    0  501  0.00000000000E+00  0.00000000000E+00 -0.13507917785E+04  0.13507917785E+04  0.50400001928E-02 0. -1.
    10030    2    1    2    0    0  0.00000000000E+00  0.00000000000E+00 -0.28257229448E+03  0.24190112626E+04  0.24024504962E+04 0.  0.
        4    1    3    3  502    0 -0.64441158772E+03  0.88399826951E+03 -0.64091350158E+03  0.12678686700E+04  0.12699999809E+01 0. -1.
       -4    1    3    3    0  502  0.64441158772E+03 -0.88399826951E+03  0.35834120711E+03  0.11511425926E+04  0.12699999809E+01 0.  1.
</event>
<event>
 5   0  0.4914005E-05  0.2418280E+04  0.7818609E-02  0.8432691E-01
        2   -1    0    0  501    0  0.00000000000E+00  0.00000000000E+00  0.13196049672E+04  0.13196049672E+04  0.25500000920E-02 0. -1.
       -2   -1    0    0    0  501  0.00000000000E+00  0.00000000000E+00 -0.11079219286E+04  0.11079219286E+04  0.25500000920E-02 0.  1.
    10030    2    1    2    0    0  0.00000000000E+00  0.00000000000E+00  0.21168303866E+03  0.24275268958E+04  0.24182797855E+04 0.  0.
        2    1    3    3  502    0 -0.27312201683E+03  0.52920899544E+02 -0.10753580475E+04  0.11107615352E+04  0.25500000920E-02 0.  1.
       -2    1    3    3    0  502  0.27312201683E+03 -0.52920899544E+02  0.12870410861E+04  0.13167653607E+04  0.25500000920E-02 0. -1.
</event>
<event>
 5   0  0.4713971E-05  0.2408601E+04  0.7818609E-02  0.8436291E-01
        2   -1    0    0  501    0  0.00000000000E+00  0.00000000000E+00  0.12788890447E+04  0.12788890447E+04  0.25500000920E-02 0.  1.
       -2   -1    0    0    0  501  0.00000000000E+00  0.00000000000E+00 -0.11340618629E+04  0.11340618629E+04  0.25500000920E-02 0. -1.
    10030    2    1    2    0    0  0.00000000000E+00  0.00000000000E+00  0.14482718187E+03  0.24129509076E+04  0.24086006663E+04 0.  0.
        5    1    3    3  502    0  0.61132804785E+03 -0.79196115626E+03  0.74399198174E+03  0.12467841088E+04  0.46999998093E+01 0.  1.
       -5    1    3    3    0  502 -0.61132804785E+03  0.79196115626E+03 -0.59916479987E+03  0.11661667988E+04  0.46999998093E+01 0. -1.
</event>
<event>
 5   0  0.4756705E-05  0.2374733E+04  0.7818609E-02  0.8449024E-01
       -2   -1    0    0    0  501  0.00000000000E+00  0.00000000000E+00  0.85672251285E+03  0.85672251285E+03  0.25500000920E-02 0.  1.
        2   -1    0    0  501    0  0.00000000000E+00  0.00000000000E+00 -0.16456195524E+04  0.16456195524E+04  0.25500000920E-02 0. -1.
    10030    2    1    2    0    0  0.00000000000E+00  0.00000000000E+00 -0.78889703952E+03  0.25023420652E+04  0.23747330950E+04 0.  0.
        3    1    3    3  502    0  0.63114604474E+02 -0.10850344124E+04  0.10931690265E+03  0.10923521981E+04  0.10100000352E+00 0.  1.
       -3    1    3    3    0  502 -0.63114604474E+02  0.10850344124E+04 -0.89821394217E+03  0.14099898671E+04  0.10100000352E+00 0. -1.
</event>
<event>
 5   0  0.4713971E-05  0.2333226E+04  0.7818609E-02  0.8464935E-01
        2   -1    0    0  501    0  0.00000000000E+00  0.00000000000E+00  0.17203400085E+04  0.17203400085E+04  0.25500000920E-02 0. -1.
       -2   -1    0    0    0  501  0.00000000000E+00  0.00000000000E+00 -0.79111464658E+03  0.79111464658E+03  0.25500000920E-02 0.  1.
    10030    2    1    2    0    0  0.00000000000E+00  0.00000000000E+00  0.92922536197E+03  0.25114546551E+04  0.23332262452E+04 0.  0.
        5    1    3    3  502    0 -0.11452254576E+04  0.11790786020E+03  0.66747803096E+03  0.13307864682E+04  0.46999998093E+01 0. -1.
       -5    1    3    3    0  502  0.11452254576E+04 -0.11790786020E+03  0.26174733100E+03  0.11806681869E+04  0.46999998093E+01 0.  1.
</event>
<event>
 5   0  0.2057599E-05  0.2420087E+04  0.7818609E-02  0.8432022E-01
        1   -1    0    0  501    0  0.00000000000E+00  0.00000000000E+00  0.10136571073E+04  0.10136571073E+04  0.50400001928E-02 0.  1.
       -1   -1    0    0    0  501  0.00000000000E+00  0.00000000000E+00 -0.14444773900E+04  0.14444773900E+04  0.50400001928E-02 0. -1.
    10030    2    1    2    0    0  0.00000000000E+00  0.00000000000E+00 -0.43082028264E+03  0.24581344973E+04  0.24200865875E+04 0.  0.
        4    1    3    3  502    0 -0.10297529243E+03  0.75638060286E+03 -0.11690466052E+04  0.13962045356E+04  0.12699999809E+01 0. -1.
       -4    1    3    3    0  502  0.10297529243E+03 -0.75638060286E+03  0.73822632259E+03  0.10619299617E+04  0.12699999809E+01 0.  1.
</event>
<event>
 5   0  0.2065692E-05  0.2399002E+04  0.7818609E-02  0.8439877E-01
       -1   -1    0    0    0  501  0.00000000000E+00  0.00000000000E+00  0.54481066945E+03  0.54481066947E+03  0.50400001928E-02 0.  1.
        1   -1    0    0  501    0  0.00000000000E+00  0.00000000000E+00 -0.26409218009E+04  0.26409218009E+04  0.50400001928E-02 0. -1.
    10030    2    1    2    0    0  0.00000000000E+00  0.00000000000E+00 -0.20961111315E+04  0.31857324704E+04  0.23990017710E+04 0.  0.
        3    1    3    3  502    0  0.11030291479E+04  0.47092012686E+03 -0.10227445435E+04  0.15762123837E+04  0.10100000352E+00 0.  1.
       -3    1    3    3    0  502 -0.11030291479E+04 -0.47092012686E+03 -0.10733665879E+04  0.16095200867E+04  0.10100000352E+00 0. -1.
</event>
<event>
 5   0  0.2065692E-05  0.2401848E+04  0.7818609E-02  0.8438812E-01
       -1   -1    0    0    0  501  0.00000000000E+00  0.00000000000E+00  0.92729272595E+03  0.92729272596E+03  0.50400001928E-02 0.  1.
        1   -1    0    0  501    0  0.00000000000E+00  0.00000000000E+00 -0.15553001629E+04  0.15553001629E+04  0.50400001928E-02 0. -1.
    10030    2    1    2    0    0  0.00000000000E+00  0.00000000000E+00 -0.62800743693E+03  0.24825928888E+04  0.24018480616E+04 0.  0.
        3    1    3    3  502    0 -0.45412913954E+03 -0.96796404989E+03 -0.87922429895E+03  0.13842770876E+04  0.10100000352E+00 0. -1.
       -3    1    3    3    0  502  0.45412913954E+03  0.96796404989E+03  0.25121686202E+03  0.10983158012E+04  0.10100000352E+00 0.  1.
</event>
<event>
 5   0  0.2149920E-05  0.2387402E+04  0.7818609E-02  0.8444235E-01
        1   -1    0    0  501    0  0.00000000000E+00  0.00000000000E+00  0.22444689220E+04  0.22444689220E+04  0.50400001928E-02 0. -1.
       -1   -1    0    0    0  501  0.00000000000E+00  0.00000000000E+00 -0.63485929374E+03  0.63485929376E+03  0.50400001928E-02 0.  1.
    10030    2    1    2    0    0  0.00000000000E+00  0.00000000000E+00  0.16096096283E+04  0.28793282158E+04  0.23874018972E+04 0.  0.
        5    1    3    3  502    0  0.75664771313E+03  0.61123168882E+03 -0.29709143504E+02  0.97315192155E+03  0.46999998093E+01 0.  1.
       -5    1    3    3    0  502 -0.75664771313E+03 -0.61123168882E+03  0.16393187718E+04  0.19061762942E+04  0.46999998093E+01 0. -1.
</event>
<event>
 5   0  0.4914005E-05  0.2164262E+04  0.7818609E-02  0.8533452E-01
       -2   -1    0    0    0  501  0.00000000000E+00  0.00000000000E+00  0.61841839700E+03  0.61841839700E+03  0.25500000920E-02 0. -1.
        2   -1    0    0  501    0  0.00000000000E+00  0.00000000000E+00 -0.18935516232E+04  0.18935516232E+04  0.25500000920E-02 0.  1.
    10030    2    1    2    0    0  0.00000000000E+00  0.00000000000E+00 -0.12751332262E+04  0.25119700202E+04  0.21642616843E+04 0.  0.
        2    1    3    3  502    0  0.10255953478E+02 -0.25657253801E+03 -0.18576796521E+04  0.18753421932E+04  0.25500000920E-02 0.  1.
       -2    1    3    3    0  502 -0.10255953478E+02  0.25657253801E+03  0.58254642586E+03  0.63662782702E+03  0.25500000920E-02 0. -1.
</event>
<event>
 5   0  0.4756705E-05  0.2289180E+04  0.7818609E-02  0.8482200E-01
        2   -1    0    0  501    0  0.00000000000E+00  0.00000000000E+00  0.16293477279E+04  0.16293477280E+04  0.25500000920E-02 0. -1.
       -2   -1    0    0    0  501  0.00000000000E+00  0.00000000000E+00 -0.80405546110E+03  0.80405546110E+03  0.25500000920E-02 0.  1.
    10030    2    1    2    0    0  0.00000000000E+00  0.00000000000E+00  0.82529226685E+03  0.24334031891E+04  0.22891797122E+04 0.  0.
        3    1    3    3  502    0  0.38708496102E+03 -0.79025839886E+03 -0.36541257163E+03  0.95282184155E+03  0.10100000352E+00 0.  1.
       -3    1    3    3    0  502 -0.38708496102E+03  0.79025839886E+03  0.11907048385E+04  0.14805813475E+04  0.10100000352E+00 0. -1.
</event>
<event>
 5   0  0.4756705E-05  0.2419013E+04  0.7818609E-02  0.8432420E-01
       -2   -1    0    0    0  501  0.00000000000E+00  0.00000000000E+00  0.92803114327E+03  0.92803114327E+03  0.25500000920E-02 0. -1.
        2   -1    0    0  501    0  0.00000000000E+00  0.00000000000E+00 -0.15763542200E+04  0.15763542200E+04  0.25500000920E-02 0.  1.
    10030    2    1    2    0    0  0.00000000000E+00  0.00000000000E+00 -0.64832307674E+03  0.25043853633E+04  0.24190128640E+04 0.  0.
        3    1    3    3  502    0  0.43841521857E+03 -0.11187121696E+04 -0.18077831647E+03  0.12150743320E+04  0.10100000352E+00 0. -1.
       -3    1    3    3    0  502 -0.43841521857E+03  0.11187121696E+04 -0.46754476027E+03  0.12893110313E+04  0.10100000352E+00 0.  1.
</event>
<event>
 5   0  0.2139556E-05  0.2400639E+04  0.7818609E-02  0.8439264E-01
       -1   -1    0    0    0  501  0.00000000000E+00  0.00000000000E+00  0.15046155908E+04  0.15046155908E+04  0.50400001928E-02 0. -1.
        1   -1    0    0  501    0  0.00000000000E+00  0.00000000000E+00 -0.95756517353E+03  0.95756517354E+03  0.50400001928E-02 0.  1.
    10030    2    1    2    0    0  0.00000000000E+00  0.00000000000E+00  0.54705041727E+03  0.24621807643E+04  0.24006394892E+04 0.  0.
        2    1    3    3  502    0 -0.76012542553E+03  0.39865503431E+03  0.11341127315E+04  0.14222967998E+04  0.25500000920E-02 0. -1.
       -2    1    3    3    0  502  0.76012542553E+03 -0.39865503431E+03 -0.58706231424E+03  0.10398839646E+04  0.25500000920E-02 0.  1.
</event>
<event>
 5   0  0.4664127E-05  0.2428920E+04  0.7818609E-02  0.8428755E-01
       -2   -1    0    0    0  501  0.00000000000E+00  0.00000000000E+00  0.14870030796E+04  0.14870030796E+04  0.25500000920E-02 0. -1.
        2   -1    0    0  501    0  0.00000000000E+00  0.00000000000E+00 -0.99186989592E+03  0.99186989592E+03  0.25500000920E-02 0.  1.
    10030    2    1    2    0    0  0.00000000000E+00  0.00000000000E+00  0.49513318366E+03  0.24788729755E+04  0.24289204102E+04 0.  0.
        4    1    3    3  502    0 -0.24982804223E+03  0.81586215260E+03  0.11295544112E+04  0.14156058362E+04  0.12699999809E+01 0.  1.
       -4    1    3    3    0  502  0.24982804223E+03 -0.81586215260E+03 -0.63442122752E+03  0.10632671393E+04  0.12699999809E+01 0. -1.
</event>
<event>
 5   0  0.4756705E-05  0.1974780E+04  0.7818609E-02  0.8618504E-01
       -2   -1    0    0    0  501  0.00000000000E+00  0.00000000000E+00  0.50524520028E+03  0.50524520029E+03  0.25500000920E-02 0. -1.
        2   -1    0    0  501    0  0.00000000000E+00  0.00000000000E+00 -0.19296349508E+04  0.19296349508E+04  0.25500000920E-02 0.  1.
    10030    2    1    2    0    0  0.00000000000E+00  0.00000000000E+00 -0.14243897506E+04  0.24348801511E+04  0.19747797824E+04 0.  0.
        3    1    3    3  502    0  0.94217511787E+03 -0.99764423208E+02 -0.10549830980E+04  0.14179690547E+04  0.10100000352E+00 0.  1.
       -3    1    3    3    0  502 -0.94217511787E+03  0.99764423208E+02 -0.36940665260E+03  0.10169110964E+04  0.10100000352E+00 0. -1.
</event>
<event>
 5   0  0.4756705E-05  0.2398446E+04  0.7818609E-02  0.8440086E-01
        2   -1    0    0  501    0  0.00000000000E+00  0.00000000000E+00  0.91769903577E+03  0.91769903578E+03  0.25500000920E-02 0.  1.
       -2   -1    0    0    0  501  0.00000000000E+00  0.00000000000E+00 -0.15671099616E+04  0.15671099616E+04  0.25500000920E-02 0. -1.
    10030    2    1    2    0    0  0.00000000000E+00  0.00000000000E+00 -0.64941092579E+03  0.24848089973E+04  0.23984455805E+04 0.  0.
        3    1    3    3  502    0 -0.87682110135E+03 -0.27221645117E+03  0.47457879851E+03  0.10335095966E+04  0.10100000352E+00 0.  1.
       -3    1    3    3    0  502  0.87682110135E+03  0.27221645117E+03 -0.11239897243E+04  0.14512994007E+04  0.10100000352E+00 0. -1.
</event>
<event>
 5   0  0.4756705E-05  0.2419670E+04  0.7818609E-02  0.8432176E-01
        2   -1    0    0  501    0  0.00000000000E+00  0.00000000000E+00  0.17738082983E+04  0.17738082983E+04  0.25500000920E-02 0.  1.
       -2   -1    0    0    0  501  0.00000000000E+00  0.00000000000E+00 -0.82517435119E+03  0.82517435119E+03  0.25500000920E-02 0. -1.
    10030    2    1    2    0    0  0.00000000000E+00  0.00000000000E+00  0.94863394711E+03  0.25989826495E+04  0.24196703178E+04 0.  0.
        3    1    3    3  502    0 -0.36673827484E+03  0.10544594521E+04  0.97503869893E+03  0.14822557718E+04  0.10100000352E+00 0.  1.
       -3    1    3    3    0  502  0.36673827484E+03 -0.10544594521E+04 -0.26404751817E+02  0.11167268777E+04  0.10100000352E+00 0. -1.
</event>
<event>
 5   0  0.4713971E-05  0.2390742E+04  0.7818609E-02  0.8442978E-01
        2   -1    0    0  501    0  0.00000000000E+00  0.00000000000E+00  0.20801410016E+04  0.20801410016E+04  0.25500000920E-02 0.  1.
       -2   -1    0    0    0  501  0.00000000000E+00  0.00000000000E+00 -0.68693051785E+03  0.68693051785E+03  0.25500000920E-02 0. -1.
    10030    2    1    2    0    0  0.00000000000E+00  0.00000000000E+00  0.13932104837E+04  0.27670715194E+04  0.23907424248E+04 0.  0.
        5    1    3    3  502    0  0.70911768800E+03  0.58161025615E+03  0.15839491886E+04  0.18303102216E+04  0.46999998093E+01 0.  1.
       -5    1    3    3    0  502 -0.70911768800E+03 -0.58161025615E+03 -0.19073870484E+03  0.93676129778E+03  0.46999998093E+01 0. -1.
</event>
<event>
 5   0  0.2065692E-05  0.2410385E+04  0.7818609E-02  0.8435626E-01
        1   -1    0    0  501    0  0.00000000000E+00  0.00000000000E+00  0.16055282746E+04  0.16055282746E+04  0.50400001928E-02 0.  1.
       -1   -1    0    0    0  501  0.00000000000E+00  0.00000000000E+00 -0.90468010651E+03  0.90468010652E+03  0.50400001928E-02 0. -1.
    10030    2    1    2    0    0  0.00000000000E+00  0.00000000000E+00  0.70084816806E+03  0.25102083811E+04  0.24103854384E+04 0.  0.
        3    1    3    3  502    0 -0.52106810819E+03 -0.30619452329E+03 -0.73545753098E+03  0.95192691397E+03  0.10100000352E+00 0. -1.
       -3    1    3    3    0  502  0.52106810819E+03  0.30619452329E+03  0.14363056990E+04  0.15582814671E+04  0.10100000352E+00 0.  1.
</event>
<event>
 5   0  0.2139556E-05  0.2374208E+04  0.7818609E-02  0.8449223E-01
        1   -1    0    0  501    0  0.00000000000E+00  0.00000000000E+00  0.45227779278E+03  0.45227779281E+03  0.50400001928E-02 0.  1.
       -1   -1    0    0    0  501  0.00000000000E+00  0.00000000000E+00 -0.31158206555E+04  0.31158206555E+04  0.50400001928E-02 0. -1.
    10030    2    1    2    0    0  0.00000000000E+00  0.00000000000E+00 -0.26635428627E+04  0.35680984483E+04  0.23742084903E+04 0.  0.
        2    1    3    3  502    0 -0.45625263378E+03 -0.72340173338E+03 -0.25689988035E+04  0.27076246760E+04  0.25500000920E-02 0. -1.
       -2    1    3    3    0  502  0.45625263378E+03  0.72340173338E+03 -0.94544059215E+02  0.86047377231E+03  0.25500000920E-02 0.  1.
</event>
<event>
 5   0  0.2057599E-05  0.2403313E+04  0.7818609E-02  0.8438264E-01
        1   -1    0    0  501    0  0.00000000000E+00  0.00000000000E+00  0.21898442849E+04  0.21898442849E+04  0.50400001928E-02 0.  1.
       -1   -1    0    0    0  501  0.00000000000E+00  0.00000000000E+00 -0.65939783332E+03  0.65939783334E+03  0.50400001928E-02 0. -1.
    10030    2    1    2    0    0  0.00000000000E+00  0.00000000000E+00  0.15304464515E+04  0.28492421182E+04  0.24033131937E+04 0.  0.
        4    1    3    3  502    0  0.36749645646E+03 -0.49205775862E+03 -0.45928298811E+03  0.76688784017E+03  0.12699999809E+01 0. -1.
       -4    1    3    3    0  502 -0.36749645646E+03  0.49205775862E+03  0.19897294396E+04  0.20823542780E+04  0.12699999809E+01 0.  1.
</event>
<event>
 5   0  0.4756705E-05  0.2350946E+04  0.7818609E-02  0.8458100E-01
        2   -1    0    0  501    0  0.00000000000E+00  0.00000000000E+00  0.15176426672E+04  0.15176426672E+04  0.25500000920E-02 0. -1.
       -2   -1    0    0    0  501  0.00000000000E+00  0.00000000000E+00 -0.91044930376E+03  0.91044930377E+03  0.25500000920E-02 0.  1.
    10030    2    1    2    0    0  0.00000000000E+00  0.00000000000E+00  0.60719336342E+03  0.24280919709E+04  0.23509459455E+04 0.  0.
        3    1    3    3  502    0 -0.50399403997E+03  0.26575518858E+03  0.13654895591E+04  0.14795937141E+04  0.10100000352E+00 0. -1.
       -3    1    3    3    0  502  0.50399403997E+03 -0.26575518858E+03 -0.75829619571E+03  0.94849825683E+03  0.10100000352E+00 0.  1.
</event>
<event>
 5   0  0.4756705E-05  0.2289105E+04  0.7818609E-02  0.8482229E-01
       -2   -1    0    0    0  501  0.00000000000E+00  0.00000000000E+00  0.93069975231E+03  0.93069975232E+03  0.25500000920E-02 0.  1.
        2   -1    0    0  501    0  0.00000000000E+00  0.00000000000E+00 -0.14075436191E+04  0.14075436191E+04  0.25500000920E-02 0. -1.
    10030    2    1    2    0    0  0.00000000000E+00  0.00000000000E+00 -0.47684386679E+03  0.23382433714E+04  0.22891050633E+04 0.  0.
        3    1    3    3  502    0  0.50847033754E+03 -0.10254049860E+04 -0.24019647397E+03  0.11694835722E+04  0.10100000352E+00 0. -1.
       -3    1    3    3    0  502 -0.50847033754E+03  0.10254049860E+04 -0.23664739282E+03  0.11687597992E+04  0.10100000352E+00 0.  1.
</event>
<event>
 5   0  0.4856882E-05  0.2411904E+04  0.7818609E-02  0.8435060E-01
        2   -1    0    0  501    0  0.00000000000E+00  0.00000000000E+00  0.18736706502E+04  0.18736706502E+04  0.25500000920E-02 0.  1.
       -2   -1    0    0    0  501  0.00000000000E+00  0.00000000000E+00 -0.77618776963E+03  0.77618776964E+03  0.25500000920E-02 0. -1.
    10030    2    1    2    0    0  0.00000000000E+00  0.00000000000E+00  0.10974828806E+04  0.26498584199E+04  0.24119040139E+04 0.  0.
        1    1    3    3  502    0  0.98673942831E+02  0.89064186391E+03 -0.33793829019E+03  0.95769607118E+03  0.50400001928E-02 0. -1.
       -1    1    3    3    0  502 -0.98673942831E+02 -0.89064186391E+03  0.14354211708E+04  0.16921623487E+04  0.50400001928E-02 0.  1.
</event>
<event>
 5   0  0.2090039E-05  0.2369275E+04  0.7818609E-02  0.8451097E-01
       -1   -1    0    0    0  501  0.00000000000E+00  0.00000000000E+00  0.10153009049E+04  0.10153009049E+04  0.50400001928E-02 0. -1.
        1   -1    0    0  501    0  0.00000000000E+00  0.00000000000E+00 -0.13822174162E+04  0.13822174162E+04  0.50400001928E-02 0.  1.
    10030    2    1    2    0    0  0.00000000000E+00  0.00000000000E+00 -0.36691651127E+03  0.23975183211E+04  0.23692754955E+04 0.  0.
        1    1    3    3  502    0  0.27342049645E+03 -0.10545394420E+04  0.28744302211E+03  0.11266923686E+04  0.50400001928E-02 0. -1.
       -1    1    3    3    0  502 -0.27342049645E+03  0.10545394420E+04 -0.65435953339E+03  0.12708259525E+04  0.50400001928E-02 0.  1.
</event>
<event>
 5   0  0.4914005E-05  0.2282535E+04  0.7818609E-02  0.8484839E-01
       -2   -1    0    0    0  501  0.00000000000E+00  0.00000000000E+00  0.11363037353E+04  0.11363037353E+04  0.25500000920E-02 0.  1.
        2   -1    0    0  501    0  0.00000000000E+00  0.00000000000E+00 -0.11462531158E+04  0.11462531158E+04  0.25500000920E-02 0. -1.
    10030    2    1    2    0    0  0.00000000000E+00  0.00000000000E+00 -0.99493805061E+01  0.22825568511E+04  0.22825351669E+04 0.  0.
        2    1    3    3  502    0  0.49172381674E+03 -0.74672096138E+02  0.10222270965E+04  0.11368009811E+04  0.25500000920E-02 0.  1.
       -2    1    3    3    0  502 -0.49172381674E+03  0.74672096138E+02 -0.10321764770E+04  0.11457558700E+04  0.25500000920E-02 0. -1.
</event>
<event>
 5   0  0.4756705E-05  0.2408568E+04  0.7818609E-02  0.8436303E-01
        2   -1    0    0  501    0  0.00000000000E+00  0.00000000000E+00  0.15313522888E+04  0.15313522888E+04  0.25500000920E-02 0. -1.
       -2   -1    0    0    0  501  0.00000000000E+00  0.00000000000E+00 -0.94707130472E+03  0.94707130473E+03  0.25500000920E-02 0.  1.
    10030    2    1    2    0    0  0.00000000000E+00  0.00000000000E+00  0.58428098406E+03  0.24784235935E+04  0.24085678817E+04 0.  0.
        3    1    3    3  502    0  0.20112406574E+03  0.46838122370E+03  0.14148709277E+04  0.15038921547E+04  0.10100000352E+00 0. -1.
       -3    1    3    3    0  502 -0.20112406574E+03 -0.46838122370E+03 -0.83058994368E+03  0.97453143883E+03  0.10100000352E+00 0.  1.
</event>
<event>
 5   0  0.2090039E-05  0.2411904E+04  0.7818609E-02  0.8435060E-01
       -1   -1    0    0    0  501  0.00000000000E+00  0.00000000000E+00  0.10969025065E+04  0.10969025065E+04  0.50400001928E-02 0. -1.
        1   -1    0    0  501    0  0.00000000000E+00  0.00000000000E+00 -0.13258423643E+04  0.13258423643E+04  0.50400001928E-02 0.  1.
    10030    2    1    2    0    0  0.00000000000E+00  0.00000000000E+00 -0.22893985781E+03  0.24227448707E+04  0.24119036569E+04 0.  0.
        1    1    3    3  502    0 -0.61278499841E+03  0.62365208701E+03  0.71984904862E+03  0.11325325747E+04  0.50400001928E-02 0. -1.
       -1    1    3    3    0  502  0.61278499841E+03 -0.62365208701E+03 -0.94878890644E+03  0.12902122961E+04  0.50400001928E-02 0.  1.
</event>
<event>
 5   0  0.4664127E-05  0.2403520E+04  0.7818609E-02  0.8438187E-01
        2   -1    0    0  501    0  0.00000000000E+00  0.00000000000E+00  0.13194389098E+04  0.13194389098E+04  0.25500000920E-02 0.  1.
       -2   -1    0    0    0  501  0.00000000000E+00  0.00000000000E+00 -0.10945771494E+04  0.10945771494E+04  0.25500000920E-02 0. -1.
    10030    2    1    2    0    0  0.00000000000E+00  0.00000000000E+00  0.22486176037E+03  0.24140160592E+04  0.24035204853E+04 0.  0.
        4    1    3    3  502    0  0.85872988858E+03  0.83687941007E+03  0.19304280540E+03  0.12145169024E+04  0.12699999809E+01 0. -1.
       -4    1    3    3    0  502 -0.85872988858E+03 -0.83687941007E+03  0.31818954970E+02  0.11994991569E+04  0.12699999809E+01 0.  1.
</event>
<event>
 5   0  0.2149920E-05  0.2148749E+04  0.7818609E-02  0.8540068E-01
       -1   -1    0    0    0  501  0.00000000000E+00  0.00000000000E+00  0.18408165396E+04  0.18408165396E+04  0.50400001928E-02 0.  1.
        1   -1    0    0  501    0  0.00000000000E+00  0.00000000000E+00 -0.62704829992E+03  0.62704829994E+03  0.50400001928E-02 0. -1.
    10030    2    1    2    0    0  0.00000000000E+00  0.00000000000E+00  0.12137682397E+04  0.24678648395E+04  0.21487492936E+04 0.  0.
        5    1    3    3  502    0 -0.59727993273E+03  0.64738901964E+03 -0.99617024028E+02  0.88645445583E+03  0.46999998093E+01 0.  1.
       -5    1    3    3    0  502  0.59727993273E+03 -0.64738901964E+03  0.13133852637E+04  0.15814103837E+04  0.46999998093E+01 0. -1.
</event>
<event>
 5   0  0.4713971E-05  0.2442870E+04  0.7818609E-02  0.8423626E-01
       -2   -1    0    0    0  501  0.00000000000E+00  0.00000000000E+00  0.12044697577E+04  0.12044697577E+04  0.25500000920E-02 0.  1.
        2   -1    0    0  501    0  0.00000000000E+00  0.00000000000E+00 -0.12386387389E+04  0.12386387389E+04  0.25500000920E-02 0. -1.
    10030    2    1    2    0    0  0.00000000000E+00  0.00000000000E+00 -0.34168981186E+02  0.24431084966E+04  0.24428695436E+04 0.  0.
        5    1    3    3  502    0 -0.60912056082E+03  0.25277133600E+03 -0.10452704622E+04  0.12359343166E+04  0.46999998093E+01 0. -1.
       -5    1    3    3    0  502  0.60912056082E+03 -0.25277133600E+03  0.10111014810E+04  0.12071741800E+04  0.46999998093E+01 0.  1.
</event>
<event>
 5   0  0.4664127E-05  0.2410585E+04  0.7818609E-02  0.8435551E-01
       -2   -1    0    0    0  501  0.00000000000E+00  0.00000000000E+00  0.77288936819E+03  0.77288936819E+03  0.25500000920E-02 0. -1.
        2   -1    0    0  501    0  0.00000000000E+00  0.00000000000E+00 -0.18796099296E+04  0.18796099296E+04  0.25500000920E-02 0.  1.
    10030    2    1    2    0    0  0.00000000000E+00  0.00000000000E+00 -0.11067205614E+04  0.26524992978E+04  0.24105854317E+04 0.  0.
        4    1    3    3  502    0 -0.89965505305E+03 -0.30622344160E+03 -0.13690913200E+04  0.16666027319E+04  0.12699999809E+01 0.  1.
       -4    1    3    3    0  502  0.89965505305E+03  0.30622344160E+03  0.26237075862E+03  0.98589656584E+03  0.12699999809E+01 0. -1.
</event>
<event>
 5   0  0.4756705E-05  0.2367814E+04  0.7818609E-02  0.8451653E-01
        2   -1    0    0  501    0  0.00000000000E+00  0.00000000000E+00  0.11114310840E+04  0.11114310840E+04  0.25500000920E-02 0.  1.
       -2   -1    0    0    0  501  0.00000000000E+00  0.00000000000E+00 -0.12611085471E+04  0.12611085471E+04  0.25500000920E-02 0. -1.
    10030    2    1    2    0    0  0.00000000000E+00  0.00000000000E+00 -0.14967746309E+03  0.23725396312E+04  0.23678135396E+04 0.  0.
        3    1    3    3  502    0 -0.11484945814E+04 -0.22650924514E+03  0.10240126477E+03  0.11750881971E+04  0.10100000352E+00 0.  1.
       -3    1    3    3    0  502  0.11484945814E+04  0.22650924514E+03 -0.25207872786E+03  0.11974514341E+04  0.10100000352E+00 0. -1.
</event>
<event>
 5   0  0.4756705E-05  0.2389541E+04  0.7818609E-02  0.8443429E-01
       -2   -1    0    0    0  501  0.00000000000E+00  0.00000000000E+00  0.58995394271E+03  0.58995394271E+03  0.25500000920E-02 0. -1.
        2   -1    0    0  501    0  0.00000000000E+00  0.00000000000E+00 -0.24196416116E+04  0.24196416116E+04  0.25500000920E-02 0.  1.
    10030    2    1    2    0    0  0.00000000000E+00  0.00000000000E+00 -0.18296876689E+04  0.30095955543E+04  0.23895414696E+04 0.  0.
        3    1    3    3  502    0  0.84996069268E+03 -0.75792883710E+03 -0.13699836855E+04  0.17815006623E+04  0.10100000352E+00 0.  1.
       -3    1    3    3    0  502 -0.84996069268E+03  0.75792883710E+03 -0.45970398344E+03  0.12280948920E+04  0.10100000352E+00 0. -1.
</event>
<event>
 5   0  0.4664127E-05  0.2389030E+04  0.7818609E-02  0.8443622E-01
       -2   -1    0    0    0  501  0.00000000000E+00  0.00000000000E+00  0.90291913864E+03  0.90291913864E+03  0.25500000920E-02 0. -1.
        2   -1    0    0  501    0  0.00000000000E+00  0.00000000000E+00 -0.15802811969E+04  0.15802811969E+04  0.25500000920E-02 0.  1.
    10030    2    1    2    0    0  0.00000000000E+00  0.00000000000E+00 -0.67736205830E+03  0.24832003356E+04  0.23890300435E+04 0.  0.
        4    1    3    3  502    0 -0.21259915444E+03  0.46341949541E+03 -0.14614969130E+04  0.15478794749E+04  0.12699999809E+01 0.  1.
       -4    1    3    3    0  502  0.21259915444E+03 -0.46341949541E+03  0.78413485469E+03  0.93532086069E+03  0.12699999809E+01 0. -1.
</event>
<event>
 5   0  0.4756705E-05  0.2269365E+04  0.7818609E-02  0.8490099E-01
       -2   -1    0    0    0  501  0.00000000000E+00  0.00000000000E+00  0.98527055550E+03  0.98527055550E+03  0.25500000920E-02 0.  1.
        2   -1    0    0  501    0  0.00000000000E+00  0.00000000000E+00 -0.13067526625E+04  0.13067526625E+04  0.25500000920E-02 0. -1.
    10030    2    1    2    0    0  0.00000000000E+00  0.00000000000E+00 -0.32148210704E+03  0.22920232180E+04  0.22693654811E+04 0.  0.
        3    1    3    3  502    0 -0.80850743946E+03 -0.56233920803E+03  0.40844148103E+03  0.10661773390E+04  0.10100000352E+00 0.  1.
       -3    1    3    3    0  502  0.80850743946E+03  0.56233920803E+03 -0.72992358807E+03  0.12258458790E+04  0.10100000352E+00 0. -1.
</event>
<event>
 5   0  0.2149920E-05  0.2405997E+04  0.7818609E-02  0.8437262E-01
       -1   -1    0    0    0  501  0.00000000000E+00  0.00000000000E+00  0.85997861971E+03  0.85997861972E+03  0.50400001928E-02 0. -1.
        1   -1    0    0  501    0  0.00000000000E+00  0.00000000000E+00 -0.16828391975E+04  0.16828391975E+04  0.50400001928E-02 0.  1.
    10030    2    1    2    0    0  0.00000000000E+00  0.00000000000E+00 -0.82286057780E+03  0.25428178172E+04  0.24059972820E+04 0.  0.
        5    1    3    3  502    0  0.87671717122E+03 -0.50666945992E+03  0.27499344928E+03  0.10492809095E+04  0.46999998093E+01 0. -1.
       -5    1    3    3    0  502 -0.87671717122E+03  0.50666945992E+03 -0.10978540271E+04  0.14935369077E+04  0.46999998093E+01 0.  1.
</event>
<event>
 5   0  0.4856882E-05  0.2425774E+04  0.7818609E-02  0.8429917E-01
        2   -1    0    0  501    0  0.00000000000E+00  0.00000000000E+00  0.24677721419E+04  0.24677721419E+04  0.25500000920E-02 0.  1.
       -2   -1    0    0    0  501  0.00000000000E+00  0.00000000000E+00 -0.59612283100E+03  0.59612283101E+03  0.25500000920E-02 0. -1.
    10030    2    1    2    0    0  0.00000000000E+00  0.00000000000E+00  0.18716493109E+04  0.30638949729E+04  0.24257743634E+04 0.  0.
        1    1    3    3  502    0 -0.14487556016E+03 -0.25897171022E+03  0.24212158634E+04  0.24393321897E+04  0.50400001928E-02 0.  1.
       -1    1    3    3    0  502  0.14487556016E+03  0.25897171022E+03 -0.54956655244E+03  0.62456278324E+03  0.50400001928E-02 0. -1.
</event>
<event>
 5   0  0.2065692E-05  0.2431522E+04  0.7818609E-02  0.8427796E-01
        1   -1    0    0  501    0  0.00000000000E+00  0.00000000000E+00  0.18410189716E+04  0.18410189716E+04  0.50400001928E-02 0.  1.
       -1   -1    0    0    0  501  0.00000000000E+00  0.00000000000E+00 -0.80285669506E+03  0.80285669507E+03  0.50400001928E-02 0. -1.
    10030    2    1    2    0    0  0.00000000000E+00  0.00000000000E+00  0.10381622765E+04  0.26438756667E+04  0.24315216693E+04 0.  0.
        3    1    3    3  502    0  0.88421323990E+03 -0.45467314235E+02 -0.38685393978E+03  0.96620717820E+03  0.10100000352E+00 0. -1.
       -3    1    3    3    0  502 -0.88421323990E+03  0.45467314235E+02  0.14250162163E+04  0.16776684885E+04  0.10100000352E+00 0.  1.
</event>
<event>
 5   0  0.4664127E-05  0.2386245E+04  0.7818609E-02  0.8444671E-01
       -2   -1    0    0    0  501  0.00000000000E+00  0.00000000000E+00  0.80233612693E+03  0.80233612693E+03  0.25500000920E-02 0.  1.
        2   -1    0    0  501    0  0.00000000000E+00  0.00000000000E+00 -0.17742455924E+04  0.17742455924E+04  0.25500000920E-02 0. -1.
    10030    2    1    2    0    0  0.00000000000E+00  0.00000000000E+00 -0.97190946543E+03  0.25765817193E+04  0.23862450308E+04 0.  0.
        4    1    3    3  502    0  0.12662086770E+03 -0.58267369400E+03 -0.16018261513E+04  0.17092074507E+04  0.12699999809E+01 0. -1.
       -4    1    3    3    0  502 -0.12662086770E+03  0.58267369400E+03  0.62991668583E+03  0.86737426858E+03  0.12699999809E+01 0.  1.
</event>
<event>
 5   0  0.4664127E-05  0.2346022E+04  0.7818609E-02  0.8459993E-01
        2   -1    0    0  501    0  0.00000000000E+00  0.00000000000E+00  0.24084129126E+04  0.24084129126E+04  0.25500000920E-02 0.  1.
       -2   -1    0    0    0  501  0.00000000000E+00  0.00000000000E+00 -0.57131196200E+03  0.57131196201E+03  0.25500000920E-02 0. -1.
    10030    2    1    2    0    0  0.00000000000E+00  0.00000000000E+00  0.18371009506E+04  0.29797248747E+04  0.23460222560E+04 0.  0.
        4    1    3    3  502    0 -0.59228908606E+03 -0.25905807555E+02  0.22041181319E+04  0.22824582854E+04  0.12699999809E+01 0.  1.
       -4    1    3    3    0  502  0.59228908606E+03  0.25905807555E+02 -0.36701718122E+03  0.69726658929E+03  0.12699999809E+01 0. -1.
</event>
<event>
 5   0  0.1672125E-05  0.2462386E+04  0.7818609E-02  0.8416509E-01
       -3   -1    0    0    0  501  0.00000000000E+00  0.00000000000E+00  0.71978304814E+03  0.71978305523E+03  0.10100000352E+00 0.  1.
        3   -1    0    0  501    0  0.00000000000E+00  0.00000000000E+00 -0.21059629357E+04  0.21059629381E+04  0.10100000352E+00 0. -1.
    10030    2    1    2    0    0  0.00000000000E+00  0.00000000000E+00 -0.13861798875E+04  0.28257459933E+04  0.24623861879E+04 0.  0.
        3    1    3    3  502    0 -0.96676843527E+02 -0.14393436693E+03 -0.20918820471E+04  0.20990555074E+04  0.10100000352E+00 0. -1.
       -3    1    3    3    0  502  0.96676843527E+02  0.14393436693E+03  0.70570215958E+03  0.72669048590E+03  0.10100000352E+00 0.  1.
</event>
<event>
 5   0  0.4664127E-05  0.2435968E+04  0.7818609E-02  0.8426159E-01
       -2   -1    0    0    0  501  0.00000000000E+00  0.00000000000E+00  0.93958367050E+03  0.93958367050E+03  0.25500000920E-02 0.  1.
        2   -1    0    0  501    0  0.00000000000E+00  0.00000000000E+00 -0.15788743871E+04  0.15788743871E+04  0.25500000920E-02 0. -1.
    10030    2    1    2    0    0  0.00000000000E+00  0.00000000000E+00 -0.63929071658E+03  0.25184580576E+04  0.24359676450E+04 0.  0.
        4    1    3    3  502    0 -0.10488441904E+03 -0.11612608555E+04 -0.68364088213E+03  0.13516264219E+04  0.12699999809E+01 0.  1.
       -4    1    3    3    0  502  0.10488441904E+03  0.11612608555E+04  0.44350165553E+02  0.11668316356E+04  0.12699999809E+01 0. -1.
</event>
<event>
 5   0  0.4856882E-05  0.2353208E+04  0.7818609E-02  0.8457233E-01
        2   -1    0    0  501    0  0.00000000000E+00  0.00000000000E+00  0.10595253032E+04  0.10595253032E+04  0.25500000920E-02 0. -1.
       -2   -1    0    0    0  501  0.00000000000E+00  0.00000000000E+00 -0.13066196865E+04  0.13066196865E+04  0.25500000920E-02 0.  1.
    10030    2    1    2    0    0  0.00000000000E+00  0.00000000000E+00 -0.24709438324E+03  0.23661449897E+04  0.23532076997E+04 0.  0.
        1    1    3    3  502    0 -0.18467278035E+03 -0.10371956284E+04  0.40327778545E+03  0.11280566385E+04  0.50400001928E-02 0. -1.
       -1    1    3    3    0  502  0.18467278035E+03  0.10371956284E+04 -0.65037216869E+03  0.12380883512E+04  0.50400001928E-02 0.  1.
</event>
<event>
 5   0  0.2057599E-05  0.2446593E+04  0.7818609E-02  0.8422263E-01
        1   -1    0    0  501    0  0.00000000000E+00  0.00000000000E+00  0.16348151535E+04  0.16348151535E+04  0.50400001928E-02 0. -1.
       -1   -1    0    0    0  501  0.00000000000E+00  0.00000000000E+00 -0.91536595840E+03  0.91536595842E+03  0.50400001928E-02 0.  1.
    10030    2    1    2    0    0  0.00000000000E+00  0.00000000000E+00  0.71944919505E+03  0.25501811119E+04  0.24465928470E+04 0.  0.
        4    1    3    3  502    0  0.11142791534E+04 -0.50115784046E+03  0.42291579148E+03  0.12929178598E+04  0.12699999809E+01 0.  1.
       -4    1    3    3    0  502 -0.11142791534E+04  0.50115784046E+03  0.29653340357E+03  0.12572632521E+04  0.12699999809E+01 0. -1.
</event>
<event>
 5   0  0.1672125E-05  0.2382892E+04  0.7818609E-02  0.8445936E-01
       -3   -1    0    0    0  501  0.00000000000E+00  0.00000000000E+00  0.89112106307E+03  0.89112106880E+03  0.10100000352E+00 0. -1.
        3   -1    0    0  501    0  0.00000000000E+00  0.00000000000E+00 -0.15929859162E+04  0.15929859194E+04  0.10100000352E+00 0.  1.
    10030    2    1    2    0    0  0.00000000000E+00  0.00000000000E+00 -0.70186485310E+03  0.24841069882E+04  0.23828917845E+04 0.  0.
        5    1    3    3  502    0  0.14863967552E+03 -0.10174004497E+03  0.87683518715E+03  0.89515743046E+03  0.46999998093E+01 0. -1.
       -5    1    3    3    0  502 -0.14863967552E+03  0.10174004497E+03 -0.15787000402E+04  0.15889495577E+04  0.46999998093E+01 0.  1.
</event>
<event>
 5   0  0.2149920E-05  0.2391357E+04  0.7818609E-02  0.8442746E-01
        1   -1    0    0  501    0  0.00000000000E+00  0.00000000000E+00  0.16597239332E+04  0.16597239332E+04  0.50400001928E-02 0. -1.
       -1   -1    0    0    0  501  0.00000000000E+00  0.00000000000E+00 -0.86137648396E+03  0.86137648398E+03  0.50400001928E-02 0.  1.
    10030    2    1    2    0    0  0.00000000000E+00  0.00000000000E+00  0.79834744921E+03  0.25211004172E+04  0.23913570757E+04 0.  0.
        5    1    3    3  502    0  0.38752148878E+03  0.88652940546E+03  0.11397965947E+04  0.14950804856E+04  0.46999998093E+01 0. -1.
       -5    1    3    3    0  502 -0.38752148878E+03 -0.88652940546E+03 -0.34144914551E+03  0.10260199316E+04  0.46999998093E+01 0.  1.
</event>
<event>
 5   0  0.4664127E-05  0.2406314E+04  0.7818609E-02  0.8437143E-01
        2   -1    0    0  501    0  0.00000000000E+00  0.00000000000E+00  0.17078399139E+04  0.17078399139E+04  0.25500000920E-02 0. -1.
       -2   -1    0    0    0  501  0.00000000000E+00  0.00000000000E+00 -0.84761277711E+03  0.84761277712E+03  0.25500000920E-02 0.  1.
    10030    2    1    2    0    0  0.00000000000E+00  0.00000000000E+00  0.86022713677E+03  0.25554526910E+04  0.24063141377E+04 0.  0.
        4    1    3    3  502    0  0.58127268002E+03 -0.25901232619E+03 -0.65425906736E+03  0.91270030885E+03  0.12699999809E+01 0.  1.
       -4    1    3    3    0  502 -0.58127268002E+03  0.25901232619E+03  0.15144862041E+04  0.16427523822E+04  0.12699999809E+01 0. -1.
</event>
<event>
 5   0  0.4856882E-05  0.2409153E+04  0.7818609E-02  0.8436085E-01
        2   -1    0    0  501    0  0.00000000000E+00  0.00000000000E+00  0.13698620938E+04  0.13698620938E+04  0.25500000920E-02 0. -1.
       -2   -1    0    0    0  501  0.00000000000E+00  0.00000000000E+00 -0.10592343431E+04  0.10592343431E+04  0.25500000920E-02 0.  1.
    10030    2    1    2    0    0  0.00000000000E+00  0.00000000000E+00  0.31062775075E+03  0.24290964369E+04  0.24091533575E+04 0.  0.
        1    1    3    3  502    0  0.95337825693E+03  0.66638975898E+03 -0.16032637617E+03  0.11741848060E+04  0.50400001928E-02 0.  1.
       -1    1    3    3    0  502 -0.95337825693E+03 -0.66638975898E+03  0.47095412692E+03  0.12549116309E+04  0.50400001928E-02 0. -1.
</event>
<event>
 5   0  0.4914005E-05  0.2408729E+04  0.7818609E-02  0.8436243E-01
        2   -1    0    0  501    0  0.00000000000E+00  0.00000000000E+00  0.21347821655E+04  0.21347821655E+04  0.25500000920E-02 0.  1.
       -2   -1    0    0    0  501  0.00000000000E+00  0.00000000000E+00 -0.67945736135E+03  0.67945736136E+03  0.25500000920E-02 0. -1.
    10030    2    1    2    0    0  0.00000000000E+00  0.00000000000E+00  0.14553248041E+04  0.28142395268E+04  0.24087286748E+04 0.  0.
        2    1    3    3  502    0 -0.10342736385E+04  0.59773115429E+03  0.54859970708E+03  0.13145212554E+04  0.25500000920E-02 0. -1.
       -2    1    3    3    0  502  0.10342736385E+04 -0.59773115429E+03  0.90672509705E+03  0.14997182715E+04  0.25500000920E-02 0.  1.
</event>
<event>
 5   0  0.4713971E-05  0.2408140E+04  0.7818609E-02  0.8436462E-01
       -2   -1    0    0    0  501  0.00000000000E+00  0.00000000000E+00  0.66711331104E+03  0.66711331104E+03  0.25500000920E-02 0.  1.
        2   -1    0    0  501    0  0.00000000000E+00  0.00000000000E+00 -0.21732211878E+04  0.21732211878E+04  0.25500000920E-02 0. -1.
    10030    2    1    2    0    0  0.00000000000E+00  0.00000000000E+00 -0.15061078768E+04  0.28403344989E+04  0.24081401805E+04 0.  0.
        5    1    3    3  502    0  0.30944740741E+03  0.90074943541E+03 -0.16219139482E+04  0.18808865433E+04  0.46999998093E+01 0. -1.
       -5    1    3    3    0  502 -0.30944740741E+03 -0.90074943541E+03  0.11580607139E+03  0.95944795561E+03  0.46999998093E+01 0.  1.
</event>
<event>
 5   0  0.4914005E-05  0.2519973E+04  0.7818609E-02  0.8395904E-01
        2   -1    0    0  501    0  0.00000000000E+00  0.00000000000E+00  0.21019459975E+04  0.21019459975E+04  0.25500000920E-02 0.  1.
       -2   -1    0    0    0  501  0.00000000000E+00  0.00000000000E+00 -0.75528393961E+03  0.75528393961E+03  0.25500000920E-02 0. -1.
    10030    2    1    2    0    0  0.00000000000E+00  0.00000000000E+00  0.13466620579E+04  0.28572299371E+04  0.25199730585E+04 0.  0.
        2    1    3    3  502    0 -0.88069602755E+02  0.93577320595E+03 -0.27810212241E+03  0.98018801176E+03  0.25500000920E-02 0. -1.
       -2    1    3    3    0  502  0.88069602755E+02 -0.93577320595E+03  0.16247641803E+04  0.18770419253E+04  0.25500000920E-02 0.  1.
</event>
<event>
 5   0  0.2065692E-05  0.2397625E+04  0.7818609E-02  0.8440393E-01
       -1   -1    0    0    0  501  0.00000000000E+00  0.00000000000E+00  0.94390422456E+03  0.94390422457E+03  0.50400001928E-02 0.  1.
        1   -1    0    0  501    0  0.00000000000E+00  0.00000000000E+00 -0.15225609048E+04  0.15225609048E+04  0.50400001928E-02 0. -1.
    10030    2    1    2    0    0  0.00000000000E+00  0.00000000000E+00 -0.57865668024E+03  0.24664651294E+04  0.23976252169E+04 0.  0.
        3    1    3    3  502    0  0.24190689225E+03 -0.19917150279E+03 -0.14796875589E+04  0.15125024013E+04  0.10100000352E+00 0. -1.
       -3    1    3    3    0  502 -0.24190689225E+03  0.19917150279E+03  0.90103087862E+03  0.95396272803E+03  0.10100000352E+00 0.  1.
</event>
<event>
 5   0  0.4856882E-05  0.2418847E+04  0.7818609E-02  0.8432481E-01
        2   -1    0    0  501    0  0.00000000000E+00  0.00000000000E+00  0.65134982550E+03  0.65134982551E+03  0.25500000920E-02 0.  1.
       -2   -1    0    0    0  501  0.00000000000E+00  0.00000000000E+00 -0.22456515229E+04  0.22456515229E+04  0.25500000920E-02 0. -1.
    10030    2    1    2    0    0  0.00000000000E+00  0.00000000000E+00 -0.15943016974E+04  0.28970013484E+04  0.24188466075E+04 0.  0.
        1    1    3    3  502    0  0.65813662126E+03  0.44153766080E+03  0.29700948599E+03  0.84635332630E+03  0.50400001928E-02 0.  1.
       -1    1    3    3    0  502 -0.65813662126E+03 -0.44153766080E+03 -0.18913111834E+04  0.20506480221E+04  0.50400001928E-02 0. -1.
</event>
<event>
 5   0  0.2139556E-05  0.2399258E+04  0.7818609E-02  0.8439782E-01
        1   -1    0    0  501    0  0.00000000000E+00  0.00000000000E+00  0.14401241209E+04  0.14401241209E+04  0.50400001928E-02 0. -1.
       -1   -1    0    0    0  501  0.00000000000E+00  0.00000000000E+00 -0.99929537876E+03  0.99929537877E+03  0.50400001928E-02 0.  1.
    10030    2    1    2    0    0  0.00000000000E+00  0.00000000000E+00  0.44082874212E+03  0.24394194997E+04  0.23992577009E+04 0.  0.
        2    1    3    3  502    0  0.50238228695E+03 -0.87471963206E+03  0.88058042597E+03  0.13390086944E+04  0.25500000920E-02 0. -1.
       -2    1    3    3    0  502 -0.50238228695E+03  0.87471963206E+03 -0.43975168385E+03  0.11004108053E+04  0.25500000920E-02 0.  1.
</event>
<event>
 5   0  0.2057599E-05  0.2399536E+04  0.7818609E-02  0.8439677E-01
       -1   -1    0    0    0  501  0.00000000000E+00  0.00000000000E+00  0.91729207726E+03  0.91729207728E+03  0.50400001928E-02 0.  1.
        1   -1    0    0  501    0  0.00000000000E+00  0.00000000000E+00 -0.15692311972E+04  0.15692311972E+04  0.50400001928E-02 0. -1.
    10030    2    1    2    0    0  0.00000000000E+00  0.00000000000E+00 -0.65193911997E+03  0.24865232745E+04  0.23995360757E+04 0.  0.
        4    1    3    3  502    0 -0.35393396957E+03 -0.15700224416E+03  0.85076837165E+03  0.93473386298E+03  0.12699999809E+01 0.  1.
       -4    1    3    3    0  502  0.35393396957E+03  0.15700224416E+03 -0.15027074916E+04  0.15517894115E+04  0.12699999809E+01 0. -1.
</event>
<event>
 5   0  0.4756705E-05  0.2248416E+04  0.7818609E-02  0.8498542E-01
       -2   -1    0    0    0  501  0.00000000000E+00  0.00000000000E+00  0.12628187363E+04  0.12628187363E+04  0.25500000920E-02 0.  1.
        2   -1    0    0  501    0  0.00000000000E+00  0.00000000000E+00 -0.10008111732E+04  0.10008111732E+04  0.25500000920E-02 0. -1.
    10030    2    1    2    0    0  0.00000000000E+00  0.00000000000E+00  0.26200756311E+03  0.22636299094E+04  0.22484155318E+04 0.  0.
        3    1    3    3  502    0  0.18081257537E+03  0.15391306298E+02  0.12479764031E+04  0.12611007860E+04  0.10100000352E+00 0.  1.
       -3    1    3    3    0  502 -0.18081257537E+03 -0.15391306298E+02 -0.98596883996E+03  0.10025291234E+04  0.10100000352E+00 0. -1.
</event>
<event>
 5   0  0.4713971E-05  0.2291282E+04  0.7818609E-02  0.8481367E-01
       -2   -1    0    0    0  501  0.00000000000E+00  0.00000000000E+00  0.89910797748E+03  0.89910797748E+03  0.25500000920E-02 0.  1.
        2   -1    0    0  501    0  0.00000000000E+00  0.00000000000E+00 -0.14597724578E+04  0.14597724578E+04  0.25500000920E-02 0. -1.
    10030    2    1    2    0    0  0.00000000000E+00  0.00000000000E+00 -0.56066448031E+03  0.23588804353E+04  0.22912817916E+04 0.  0.
        5    1    3    3  502    0  0.65501760281E+03 -0.34333912636E+03 -0.11810976414E+04  0.13935363448E+04  0.46999998093E+01 0. -1.
       -5    1    3    3    0  502 -0.65501760281E+03  0.34333912636E+03  0.62043316109E+03  0.96534409050E+03  0.46999998093E+01 0.  1.
</event>
<event>
 5   0  0.1672125E-05  0.2417214E+04  0.7818609E-02  0.8433087E-01
        3   -1    0    0  501    0  0.00000000000E+00  0.00000000000E+00  0.14714566742E+04  0.14714566777E+04  0.10100000352E+00 0.  1.
       -3   -1    0    0    0  501  0.00000000000E+00  0.00000000000E+00 -0.99271069726E+03  0.99271070240E+03  0.10100000352E+00 0. -1.
    10030    2    1    2    0    0  0.00000000000E+00  0.00000000000E+00  0.47874597695E+03  0.24641673801E+04  0.24172139265E+04 0.  0.
        5    1    3    3  502    0  0.10307558139E+04 -0.41832831164E+03  0.72104715788E+03  0.13256648212E+04  0.46999998093E+01 0.  1.
       -5    1    3    3    0  502 -0.10307558139E+04  0.41832831164E+03 -0.24230118093E+03  0.11385025589E+04  0.46999998093E+01 0. -1.
</event>
<event>
 5   0  0.4713971E-05  0.2409498E+04  0.7818609E-02  0.8435956E-01
        2   -1    0    0  501    0  0.00000000000E+00  0.00000000000E+00  0.24957751172E+04  0.24957751172E+04  0.25500000920E-02 0.  1.
       -2   -1    0    0    0  501  0.00000000000E+00  0.00000000000E+00 -0.58155106300E+03  0.58155106301E+03  0.25500000920E-02 0. -1.
    10030    2    1    2    0    0  0.00000000000E+00  0.00000000000E+00  0.19142240542E+04  0.30773261802E+04  0.24094984312E+04 0.  0.
        5    1    3    3  502    0  0.28155335872E+03 -0.78452025643E+03 -0.15384081236E+03  0.84760451398E+03  0.46999998093E+01 0. -1.
       -5    1    3    3    0  502 -0.28155335872E+03  0.78452025643E+03  0.20680648666E+04  0.22297216662E+04  0.46999998093E+01 0.  1.
</event>
<event>
 5   0  0.4856882E-05  0.2376081E+04  0.7818609E-02  0.8448513E-01
       -2   -1    0    0    0  501  0.00000000000E+00  0.00000000000E+00  0.11494348980E+04  0.11494348980E+04  0.25500000920E-02 0. -1.
        2   -1    0    0  501    0  0.00000000000E+00  0.00000000000E+00 -0.12279426210E+04  0.12279426210E+04  0.25500000920E-02 0.  1.
    10030    2    1    2    0    0  0.00000000000E+00  0.00000000000E+00 -0.78507723005E+02  0.23773775190E+04  0.23760808920E+04 0.  0.
        1    1    3    3  502    0 -0.29905998409E+03 -0.52280644339E+03  0.98535410628E+03  0.11548533094E+04  0.50400001928E-02 0. -1.
       -1    1    3    3    0  502  0.29905998409E+03  0.52280644339E+03 -0.10638618293E+04  0.12225242096E+04  0.50400001928E-02 0.  1.
</event>
<event>
 5   0  0.2057599E-05  0.2400448E+04  0.7818609E-02  0.8439336E-01
       -1   -1    0    0    0  501  0.00000000000E+00  0.00000000000E+00  0.60993557754E+03  0.60993557756E+03  0.50400001928E-02 0.  1.
        1   -1    0    0  501    0  0.00000000000E+00  0.00000000000E+00 -0.23617867010E+04  0.23617867010E+04  0.50400001928E-02 0. -1.
    10030    2    1    2    0    0  0.00000000000E+00  0.00000000000E+00 -0.17518511235E+04  0.29717222786E+04  0.24004480711E+04 0.  0.
        4    1    3    3  502    0 -0.47022562339E+03 -0.96467444627E+03 -0.15412522562E+04  0.18780758915E+04  0.12699999809E+01 0. -1.
       -4    1    3    3    0  502  0.47022562339E+03  0.96467444627E+03 -0.21059886731E+03  0.10936463871E+04  0.12699999809E+01 0.  1.
</event>
<event>
 5   0  0.2149920E-05  0.2436468E+04  0.7818609E-02  0.8425975E-01
       -1   -1    0    0    0  501  0.00000000000E+00  0.00000000000E+00  0.10145644544E+04  0.10145644544E+04  0.50400001928E-02 0.  1.
        1   -1    0    0  501    0  0.00000000000E+00  0.00000000000E+00 -0.14627890412E+04  0.14627890412E+04  0.50400001928E-02 0. -1.
    10030    2    1    2    0    0  0.00000000000E+00  0.00000000000E+00 -0.44822458682E+03  0.24773534956E+04  0.24364677429E+04 0.  0.
        5    1    3    3  502    0 -0.71876045011E+03  0.40241430707E+03  0.68845498025E+03  0.10735670491E+04  0.46999998093E+01 0.  1.
       -5    1    3    3    0  502  0.71876045011E+03 -0.40241430707E+03 -0.11366795671E+04  0.14037864465E+04  0.46999998093E+01 0. -1.
</event>
<event>
 5   0  0.4713971E-05  0.2456807E+04  0.7818609E-02  0.8418537E-01
        2   -1    0    0  501    0  0.00000000000E+00  0.00000000000E+00  0.13139276331E+04  0.13139276331E+04  0.25500000920E-02 0. -1.
       -2   -1    0    0    0  501  0.00000000000E+00  0.00000000000E+00 -0.11484463195E+04  0.11484463195E+04  0.25500000920E-02 0.  1.
    10030    2    1    2    0    0  0.00000000000E+00  0.00000000000E+00  0.16548131360E+03  0.24623739526E+04  0.24568071592E+04 0.  0.
        5    1    3    3  502    0  0.12240683368E+04 -0.47702408166E+02 -0.87594175974E+01  0.12250378077E+04  0.46999998093E+01 0.  1.
       -5    1    3    3    0  502 -0.12240683368E+04  0.47702408166E+02  0.17424073119E+03  0.12373361449E+04  0.46999998093E+01 0. -1.
</event>
<event>
 5   0  0.4914005E-05  0.2422027E+04  0.7818609E-02  0.8431303E-01
       -2   -1    0    0    0  501  0.00000000000E+00  0.00000000000E+00  0.99739370941E+03  0.99739370941E+03  0.25500000920E-02 0. -1.
        2   -1    0    0  501    0  0.00000000000E+00  0.00000000000E+00 -0.14703862805E+04  0.14703862805E+04  0.25500000920E-02 0.  1.
    10030    2    1    2    0    0  0.00000000000E+00  0.00000000000E+00 -0.47299257108E+03  0.24677799899E+04  0.24220272720E+04 0.  0.
        2    1    3    3  502    0 -0.89374745346E+03 -0.65835502120E+03  0.25673309389E+03  0.11393540828E+04  0.25500000920E-02 0. -1.
       -2    1    3    3    0  502  0.89374745346E+03  0.65835502120E+03 -0.72972566497E+03  0.13284259071E+04  0.25500000920E-02 0.  1.
</event>
<event>
 5   0  0.4756705E-05  0.2399128E+04  0.7818609E-02  0.8439830E-01
       -2   -1    0    0    0  501  0.00000000000E+00  0.00000000000E+00  0.11999917640E+04  0.11999917640E+04  0.25500000920E-02 0. -1.
        2   -1    0    0  501    0  0.00000000000E+00  0.00000000000E+00 -0.11991361894E+04  0.11991361894E+04  0.25500000920E-02 0.  1.
    10030    2    1    2    0    0  0.00000000000E+00  0.00000000000E+00  0.85557464249E+00  0.23991279534E+04  0.23991278008E+04 0.  0.
        3    1    3    3  502    0 -0.10182757241E+04 -0.63223572850E+03 -0.48008507285E+02  0.11995467034E+04  0.10100000352E+00 0.  1.
       -3    1    3    3    0  502  0.10182757241E+04  0.63223572850E+03  0.48864081927E+02  0.11995812500E+04  0.10100000352E+00 0. -1.
</event>
<event>
 5   0  0.2090039E-05  0.2422742E+04  0.7818609E-02  0.8431038E-01
        1   -1    0    0  501    0  0.00000000000E+00  0.00000000000E+00  0.21169349308E+04  0.21169349308E+04  0.50400001928E-02 0. -1.
       -1   -1    0    0    0  501  0.00000000000E+00  0.00000000000E+00 -0.69318146451E+03  0.69318146453E+03  0.50400001928E-02 0.  1.
    10030    2    1    2    0    0  0.00000000000E+00  0.00000000000E+00  0.14237534663E+04  0.28101163953E+04  0.24227422939E+04 0.  0.
        1    1    3    3  502    0 -0.82275943642E+03  0.88583512447E+03  0.80008257535E+03  0.14497479386E+04  0.50400001928E-02 0.  1.
       -1    1    3    3    0  502  0.82275943642E+03 -0.88583512447E+03  0.62367089095E+03  0.13603684568E+04  0.50400001928E-02 0. -1.
</event>
<event>
 5   0  0.4756705E-05  0.2401035E+04  0.7818609E-02  0.8439116E-01
        2   -1    0    0  501    0  0.00000000000E+00  0.00000000000E+00  0.20668559603E+04  0.20668559603E+04  0.25500000920E-02 0.  1.
       -2   -1    0    0    0  501  0.00000000000E+00  0.00000000000E+00 -0.69731126472E+03  0.69731126472E+03  0.25500000920E-02 0. -1.
    10030    2    1    2    0    0  0.00000000000E+00  0.00000000000E+00  0.13695446956E+04  0.27641672250E+04  0.24010347300E+04 0.  0.
        3    1    3    3  502    0  0.11003541988E+04  0.12514815793E+03  0.12183326680E+04  0.16464434167E+04  0.10100000352E+00 0.  1.
       -3    1    3    3    0  502 -0.11003541988E+04 -0.12514815793E+03  0.15121202754E+03  0.11177238083E+04  0.10100000352E+00 0. -1.
</event>
<event>
 5   0  0.4713971E-05  0.2174371E+04  0.7818609E-02  0.8529172E-01
        2   -1    0    0  501    0  0.00000000000E+00  0.00000000000E+00  0.20689581316E+04  0.20689581316E+04  0.25500000920E-02 0.  1.
       -2   -1    0    0    0  501  0.00000000000E+00  0.00000000000E+00 -0.57128852826E+03  0.57128852826E+03  0.25500000920E-02 0. -1.
    10030    2    1    2    0    0  0.00000000000E+00  0.00000000000E+00  0.14976696033E+04  0.26402466598E+04  0.21743707559E+04 0.  0.
        5    1    3    3  502    0  0.85150058259E+03  0.11458878434E+03 -0.60052423761E+02  0.86128521133E+03  0.46999998093E+01 0. -1.
       -5    1    3    3    0  502 -0.85150058259E+03 -0.11458878434E+03  0.15577220271E+04  0.17789614485E+04  0.46999998093E+01 0.  1.
</event>
<event>
 5   0  0.2090039E-05  0.2398429E+04  0.7818609E-02  0.8440092E-01
        1   -1    0    0  501    0  0.00000000000E+00  0.00000000000E+00  0.27490614363E+04  0.27490614363E+04  0.50400001928E-02 0. -1.
       -1   -1    0    0    0  501  0.00000000000E+00  0.00000000000E+00 -0.52312946586E+03  0.52312946588E+03  0.50400001928E-02 0.  1.
    10030    2    1    2    0    0  0.00000000000E+00  0.00000000000E+00  0.22259319704E+04  0.32721909022E+04  0.23984286863E+04 0.  0.
        1    1    3    3  502    0 -0.11087175140E+04  0.45683449107E+03  0.11303716006E+04  0.16479357492E+04  0.50400001928E-02 0. -1.
       -1    1    3    3    0  502  0.11087175140E+04 -0.45683449107E+03  0.10955603698E+04  0.16242551530E+04  0.50400001928E-02 0.  1.
</event>
<event>
 5   0  0.2139556E-05  0.2495926E+04  0.7818609E-02  0.8404438E-01
        1   -1    0    0  501    0  0.00000000000E+00  0.00000000000E+00  0.19587448624E+04  0.19587448624E+04  0.50400001928E-02 0. -1.
       -1   -1    0    0    0  501  0.00000000000E+00  0.00000000000E+00 -0.79510693314E+03  0.79510693316E+03  0.50400001928E-02 0.  1.
    10030    2    1    2    0    0  0.00000000000E+00  0.00000000000E+00  0.11636379293E+04  0.27538517956E+04  0.24959259768E+04 0.  0.
        2    1    3    3  502    0 -0.23839975461E+03  0.67866767510E+03  0.17070012713E+04  0.18523708043E+04  0.25500000920E-02 0. -1.
       -2    1    3    3    0  502  0.23839975461E+03 -0.67866767510E+03 -0.54336334204E+03  0.90148099132E+03  0.25500000920E-02 0.  1.
</event>
<event>
 5   0  0.4664127E-05  0.1760835E+04  0.7818609E-02  0.8727409E-01
       -2   -1    0    0    0  501  0.00000000000E+00  0.00000000000E+00  0.12234078307E+04  0.12234078307E+04  0.25500000920E-02 0. -1.
        2   -1    0    0  501    0  0.00000000000E+00  0.00000000000E+00 -0.63358654056E+03  0.63358654057E+03  0.25500000920E-02 0.  1.
    10030    2    1    2    0    0  0.00000000000E+00  0.00000000000E+00  0.58982129013E+03  0.18569943713E+04  0.17608347284E+04 0.  0.
        4    1    3    3  502    0 -0.21160085801E+03  0.85448179827E+03  0.31051943179E+03  0.93345487149E+03  0.12699999809E+01 0. -1.
       -4    1    3    3    0  502  0.21160085801E+03 -0.85448179827E+03  0.27930185834E+03  0.92353949978E+03  0.12699999809E+01 0.  1.
</event>
<event>
 5   0  0.4664127E-05  0.2402876E+04  0.7818609E-02  0.8438427E-01
        2   -1    0    0  501    0  0.00000000000E+00  0.00000000000E+00  0.11142556130E+04  0.11142556130E+04  0.25500000920E-02 0. -1.
       -2   -1    0    0    0  501  0.00000000000E+00  0.00000000000E+00 -0.12954422334E+04  0.12954422334E+04  0.25500000920E-02 0.  1.
    10030    2    1    2    0    0  0.00000000000E+00  0.00000000000E+00 -0.18118662039E+03  0.24096978463E+04  0.24028764261E+04 0.  0.
        4    1    3    3  502    0  0.29907803570E+03 -0.10084928406E+04 -0.67271227362E+03  0.12486187957E+04  0.12699999809E+01 0.  1.
       -4    1    3    3    0  502 -0.29907803570E+03  0.10084928406E+04  0.49152565323E+03  0.11610790506E+04  0.12699999809E+01 0. -1.
</event>
<event>
 5   0  0.4914005E-05  0.2415760E+04  0.7818609E-02  0.8433627E-01
       -2   -1    0    0    0  501  0.00000000000E+00  0.00000000000E+00  0.12633575299E+04  0.12633575299E+04  0.25500000920E-02 0. -1.
        2   -1    0    0  501    0  0.00000000000E+00  0.00000000000E+00 -0.11548383412E+04  0.11548383412E+04  0.25500000920E-02 0.  1.
    10030    2    1    2    0    0  0.00000000000E+00  0.00000000000E+00  0.10851918874E+03  0.24181958712E+04  0.24157596853E+04 0.  0.
        2    1    3    3  502    0 -0.90450043174E+03 -0.79839322331E+03 -0.42882270849E+01  0.12064705380E+04  0.25500000920E-02 0. -1.
       -2    1    3    3    0  502  0.90450043174E+03  0.79839322331E+03  0.11280741582E+03  0.12117253332E+04  0.25500000920E-02 0.  1.
</event>
<event>
 5   0  0.4856882E-05  0.2283714E+04  0.7818609E-02  0.8484370E-01
        2   -1    0    0  501    0  0.00000000000E+00  0.00000000000E+00  0.15547427494E+04  0.15547427494E+04  0.25500000920E-02 0. -1.
       -2   -1    0    0    0  501  0.00000000000E+00  0.00000000000E+00 -0.83861966944E+03  0.83861966944E+03  0.25500000920E-02 0.  1.
    10030    2    1    2    0    0  0.00000000000E+00  0.00000000000E+00  0.71612307992E+03  0.23933624188E+04  0.22837143872E+04 0.  0.
        1    1    3    3  502    0 -0.24233401342E+03  0.17545689351E+03 -0.79681217562E+03  0.85112897894E+03  0.50400001928E-02 0.  1.
       -1    1    3    3    0  502  0.24233401342E+03 -0.17545689351E+03  0.15129352555E+04  0.15422334399E+04  0.50400001928E-02 0. -1.
</event>
<event>
 5   0  0.4664127E-05  0.2347494E+04  0.7818609E-02  0.8459427E-01
        2   -1    0    0  501    0  0.00000000000E+00  0.00000000000E+00  0.13234248669E+04  0.13234248669E+04  0.25500000920E-02 0.  1.
       -2   -1    0    0    0  501  0.00000000000E+00  0.00000000000E+00 -0.10409971141E+04  0.10409971141E+04  0.25500000920E-02 0. -1.
    10030    2    1    2    0    0  0.00000000000E+00  0.00000000000E+00  0.28242775279E+03  0.23644219810E+04  0.23474935290E+04 0.  0.
        4    1    3    3  502    0  0.10496193770E+04 -0.52082057235E+03  0.21044783333E+03  0.11904809148E+04  0.12699999809E+01 0.  1.
       -4    1    3    3    0  502 -0.10496193770E+04  0.52082057235E+03  0.71979919460E+02  0.11739410661E+04  0.12699999809E+01 0. -1.
</event>
<event>
 5   0  0.4756705E-05  0.2155432E+04  0.7818609E-02  0.8537211E-01
       -2   -1    0    0    0  501  0.00000000000E+00  0.00000000000E+00  0.90383673995E+03  0.90383673995E+03  0.25500000920E-02 0. -1.
        2   -1    0    0  501    0  0.00000000000E+00  0.00000000000E+00 -0.12850456615E+04  0.12850456615E+04  0.25500000920E-02 0.  1.
    10030    2    1    2    0    0  0.00000000000E+00  0.00000000000E+00 -0.38120892151E+03  0.21888824014E+04  0.21554317260E+04 0.  0.
        3    1    3    3  502    0 -0.76234298544E+03  0.62934321894E+02  0.58035051304E+03  0.96017409074E+03  0.10100000352E+00 0. -1.
       -3    1    3    3    0  502  0.76234298544E+03 -0.62934321894E+02 -0.96155943455E+03  0.12287083107E+04  0.10100000352E+00 0.  1.
</event>
<event>
 5   0  0.2065692E-05  0.2352547E+04  0.7818609E-02  0.8457486E-01
       -1   -1    0    0    0  501  0.00000000000E+00  0.00000000000E+00  0.76220762291E+03  0.76220762293E+03  0.50400001928E-02 0. -1.
        1   -1    0    0  501    0  0.00000000000E+00  0.00000000000E+00 -0.18152783423E+04  0.18152783423E+04  0.50400001928E-02 0.  1.
    10030    2    1    2    0    0  0.00000000000E+00  0.00000000000E+00 -0.10530707194E+04  0.25774859652E+04  0.23525466969E+04 0.  0.
        3    1    3    3  502    0 -0.31637860326E+03 -0.35574237768E+02  0.71410461568E+03  0.78186083118E+03  0.10100000352E+00 0. -1.
       -3    1    3    3    0  502  0.31637860326E+03  0.35574237768E+02 -0.17671753351E+04  0.17956251340E+04  0.10100000352E+00 0.  1.
</event>
<event>
 5   0  0.2065692E-05  0.2445042E+04  0.7818609E-02  0.8422831E-01
       -1   -1    0    0    0  501  0.00000000000E+00  0.00000000000E+00  0.85094956123E+03  0.85094956125E+03  0.50400001928E-02 0.  1.
        1   -1    0    0  501    0  0.00000000000E+00  0.00000000000E+00 -0.17563405720E+04  0.17563405720E+04  0.50400001928E-02 0. -1.
    10030    2    1    2    0    0  0.00000000000E+00  0.00000000000E+00 -0.90539101076E+03  0.26072901332E+04  0.24450417086E+04 0.  0.
        3    1    3    3  502    0  0.68228955617E+03 -0.67598151472E+02 -0.15320209915E+04  0.16784447793E+04  0.10100000352E+00 0. -1.
       -3    1    3    3    0  502 -0.68228955617E+03  0.67598151472E+02  0.62662998075E+03  0.92884535394E+03  0.10100000352E+00 0.  1.
</event>
<event>
 5   0  0.2057599E-05  0.2406177E+04  0.7818609E-02  0.8437194E-01
        1   -1    0    0  501    0  0.00000000000E+00  0.00000000000E+00  0.15899047464E+04  0.15899047464E+04  0.50400001928E-02 0. -1.
       -1   -1    0    0    0  501  0.00000000000E+00  0.00000000000E+00 -0.91038308303E+03  0.91038308304E+03  0.50400001928E-02 0.  1.
    10030    2    1    2    0    0  0.00000000000E+00  0.00000000000E+00  0.67952166333E+03  0.25002878294E+04  0.24061773706E+04 0.  0.
        4    1    3    3  502    0 -0.81542389341E+03 -0.36460354529E+03 -0.49772020284E+03  0.10225355174E+04  0.12699999809E+01 0.  1.
       -4    1    3    3    0  502  0.81542389341E+03  0.36460354529E+03  0.11772418662E+04  0.14777523120E+04  0.12699999809E+01 0. -1.
</event>
<event>
 5   0  0.2090039E-05  0.2399208E+04  0.7818609E-02  0.8439800E-01
       -1   -1    0    0    0  501  0.00000000000E+00  0.00000000000E+00  0.13952832720E+04  0.13952832720E+04  0.50400001928E-02 0. -1.
        1   -1    0    0  501    0  0.00000000000E+00  0.00000000000E+00 -0.10313678258E+04  0.10313678258E+04  0.50400001928E-02 0.  1.
    10030    2    1    2    0    0  0.00000000000E+00  0.00000000000E+00  0.36391544618E+03  0.24266510978E+04  0.23992084317E+04 0.  0.
        1    1    3    3  502    0  0.98896260260E+03 -0.57688938965E+03  0.54410610727E+03  0.12676355364E+04  0.50400001928E-02 0. -1.
       -1    1    3    3    0  502 -0.98896260260E+03  0.57688938965E+03 -0.18019066109E+03  0.11590155614E+04  0.50400001928E-02 0.  1.
</event>
<event>
 5   0  0.4856882E-05  0.2406953E+04  0.7818609E-02  0.8436905E-01
       -2   -1    0    0    0  501  0.00000000000E+00  0.00000000000E+00  0.11517741633E+04  0.11517741633E+04  0.25500000920E-02 0. -1.
        2   -1    0    0  501    0  0.00000000000E+00  0.00000000000E+00 -0.12574999920E+04  0.12574999920E+04  0.25500000920E-02 0.  1.
    10030    2    1    2    0    0  0.00000000000E+00  0.00000000000E+00 -0.10572582874E+03  0.24092741553E+04  0.24069532618E+04 0.  0.
        1    1    3    3  502    0 -0.60387960216E+03  0.95787941541E+03 -0.46087398127E+03  0.12225417682E+04  0.50400001928E-02 0.  1.
       -1    1    3    3    0  502  0.60387960216E+03 -0.95787941541E+03  0.35514815253E+03  0.11867323871E+04  0.50400001928E-02 0. -1.
</event>
<event>
 5   0  0.4664127E-05  0.2383107E+04  0.7818609E-02  0.8445855E-01
        2   -1    0    0  501    0  0.00000000000E+00  0.00000000000E+00  0.12723207349E+04  0.12723207349E+04  0.25500000920E-02 0. -1.
       -2   -1    0    0    0  501  0.00000000000E+00  0.00000000000E+00 -0.11159130057E+04  0.11159130057E+04  0.25500000920E-02 0.  1.
    10030    2    1    2    0    0  0.00000000000E+00  0.00000000000E+00  0.15640772922E+03  0.23882337406E+04  0.23831065905E+04 0.  0.
        4    1    3    3  502    0 -0.11894314535E+04 -0.13096766108E+01  0.69964739807E+01  0.11894534296E+04  0.12699999809E+01 0.  1.
       -4    1    3    3    0  502  0.11894314535E+04  0.13096766108E+01  0.14941125524E+03  0.11987803109E+04  0.12699999809E+01 0. -1.
</event>
<event>
 5   0  0.4914005E-05  0.2372136E+04  0.7818609E-02  0.8450010E-01
        2   -1    0    0  501    0  0.00000000000E+00  0.00000000000E+00  0.14525769887E+04  0.14525769887E+04  0.25500000920E-02 0.  1.
       -2   -1    0    0    0  501  0.00000000000E+00  0.00000000000E+00 -0.96845619183E+03  0.96845619183E+03  0.25500000920E-02 0. -1.
    10030    2    1    2    0    0  0.00000000000E+00  0.00000000000E+00  0.48412079685E+03  0.24210331805E+04  0.23721358973E+04 0.  0.
        2    1    3    3  502    0 -0.44592739487E+03  0.51803264835E+03 -0.74722292480E+03  0.10126950013E+04  0.25500000920E-02 0. -1.
       -2    1    3    3    0  502  0.44592739487E+03 -0.51803264835E+03  0.12313437217E+04  0.14083381792E+04  0.25500000920E-02 0.  1.
</event>
<event>
 5   0  0.2149920E-05  0.2407665E+04  0.7818609E-02  0.8436640E-01
       -1   -1    0    0    0  501  0.00000000000E+00  0.00000000000E+00  0.15041086694E+04  0.15041086695E+04  0.50400001928E-02 0. -1.
        1   -1    0    0  501    0  0.00000000000E+00  0.00000000000E+00 -0.96350256864E+03  0.96350256865E+03  0.50400001928E-02 0.  1.
    10030    2    1    2    0    0  0.00000000000E+00  0.00000000000E+00  0.54060610081E+03  0.24676112381E+04  0.24076648991E+04 0.  0.
        5    1    3    3  502    0 -0.18901952074E+03  0.11490803265E+04  0.58298349564E+03  0.13023078830E+04  0.46999998093E+01 0. -1.
       -5    1    3    3    0  502  0.18901952074E+03 -0.11490803265E+04 -0.42377394828E+02  0.11653033551E+04  0.46999998093E+01 0.  1.
</event>
<event>
 5   0  0.2065692E-05  0.2422761E+04  0.7818609E-02  0.8431031E-01
       -1   -1    0    0    0  501  0.00000000000E+00  0.00000000000E+00  0.90959532552E+03  0.90959532553E+03  0.50400001928E-02 0.  1.
        1   -1    0    0  501    0  0.00000000000E+00  0.00000000000E+00 -0.16132922708E+04  0.16132922708E+04  0.50400001928E-02 0. -1.
    10030    2    1    2    0    0  0.00000000000E+00  0.00000000000E+00 -0.70369694530E+03  0.25228875964E+04  0.24227613240E+04 0.  0.
        3    1    3    3  502    0 -0.47857553560E+03  0.36122622636E+03  0.74423161364E+03  0.95571943311E+03  0.10100000352E+00 0.  1.
       -3    1    3    3    0  502  0.47857553560E+03 -0.36122622636E+03 -0.14479285589E+04  0.15671681632E+04  0.10100000352E+00 0. -1.
</event>
<event>
 5   0  0.4856882E-05  0.2406108E+04  0.7818609E-02  0.8437220E-01
       -2   -1    0    0    0  501  0.00000000000E+00  0.00000000000E+00  0.64681426168E+03  0.64681426169E+03  0.25500000920E-02 0. -1.
        2   -1    0    0  501    0  0.00000000000E+00  0.00000000000E+00 -0.22376431751E+04  0.22376431751E+04  0.25500000920E-02 0.  1.
    10030    2    1    2    0    0  0.00000000000E+00  0.00000000000E+00 -0.15908289134E+04  0.28844574368E+04  0.24061084915E+04 0.  0.
        1    1    3    3  502    0 -0.73456550068E+03  0.58684828524E+03  0.10437884387E+03  0.94597691714E+03  0.50400001928E-02 0. -1.
       -1    1    3    3    0  502  0.73456550068E+03 -0.58684828524E+03 -0.16952077573E+04  0.19384805196E+04  0.50400001928E-02 0.  1.
</event>
<event>
 5   0  0.2057599E-05  0.2320569E+04  0.7818609E-02  0.8469855E-01
       -1   -1    0    0    0  501  0.00000000000E+00  0.00000000000E+00  0.91581615167E+03  0.91581615168E+03  0.50400001928E-02 0.  1.
        1   -1    0    0  501    0  0.00000000000E+00  0.00000000000E+00 -0.14700116707E+04  0.14700116707E+04  0.50400001928E-02 0. -1.
    10030    2    1    2    0    0  0.00000000000E+00  0.00000000000E+00 -0.55419551903E+03  0.23858278224E+04  0.23205692674E+04 0.  0.
        4    1    3    3  502    0  0.67574685558E+03 -0.20888558181E+03 -0.12227417003E+04  0.14125742025E+04  0.12699999809E+01 0. -1.
       -4    1    3    3    0  502 -0.67574685558E+03  0.20888558181E+03  0.66854618129E+03  0.97325361984E+03  0.12699999809E+01 0.  1.
</event>
<event>
 5   0  0.2065692E-05  0.1982847E+04  0.7818609E-02  0.8614682E-01
       -1   -1    0    0    0  501  0.00000000000E+00  0.00000000000E+00  0.50628604626E+03  0.50628604628E+03  0.50400001928E-02 0. -1.
        1   -1    0    0  501    0  0.00000000000E+00  0.00000000000E+00 -0.19414333641E+04  0.19414333641E+04  0.50400001928E-02 0.  1.
    10030    2    1    2    0    0  0.00000000000E+00  0.00000000000E+00 -0.14351473178E+04  0.24477194104E+04  0.19828470662E+04 0.  0.
        3    1    3    3  502    0 -0.10339668593E+03 -0.46528006179E+03  0.35557484517E+03  0.59465106683E+03  0.10100000352E+00 0. -1.
       -3    1    3    3    0  502  0.10339668593E+03  0.46528006179E+03 -0.17907221630E+04  0.18530683435E+04  0.10100000352E+00 0.  1.
</event>
<event>
 5   0  0.2090039E-05  0.2106896E+04  0.7818609E-02  0.8558212E-01
       -1   -1    0    0    0  501  0.00000000000E+00  0.00000000000E+00  0.65725630219E+03  0.65725630221E+03  0.50400001928E-02 0. -1.
        1   -1    0    0  501    0  0.00000000000E+00  0.00000000000E+00 -0.16884628159E+04  0.16884628160E+04  0.50400001928E-02 0.  1.
    10030    2    1    2    0    0  0.00000000000E+00  0.00000000000E+00 -0.10312065138E+04  0.23457191182E+04  0.21068961311E+04 0.  0.
        1    1    3    3  502    0 -0.41679932056E+03 -0.91074431732E+03 -0.15213836196E+03  0.10130759924E+04  0.50400001928E-02 0.  1.
       -1    1    3    3    0  502  0.41679932056E+03  0.91074431732E+03 -0.87906815180E+03  0.13326431258E+04  0.50400001928E-02 0. -1.
</event>
<event>
 5   0  0.2149920E-05  0.2374429E+04  0.7818609E-02  0.8449139E-01
        1   -1    0    0  501    0  0.00000000000E+00  0.00000000000E+00  0.14474968197E+04  0.14474968197E+04  0.50400001928E-02 0.  1.
       -1   -1    0    0    0  501  0.00000000000E+00  0.00000000000E+00 -0.97373520294E+03  0.97373520296E+03  0.50400001928E-02 0. -1.
    10030    2    1    2    0    0  0.00000000000E+00  0.00000000000E+00  0.47376161673E+03  0.24212320226E+04  0.23744292868E+04 0.  0.
        5    1    3    3  502    0 -0.51398229799E+03  0.62154711229E+02  0.13263101134E+04  0.14237842596E+04  0.46999998093E+01 0.  1.
       -5    1    3    3    0  502  0.51398229799E+03 -0.62154711229E+02 -0.85254849672E+03  0.99744776306E+03  0.46999998093E+01 0. -1.
</event>
<event>
 5   0  0.2065692E-05  0.1886847E+04  0.7818609E-02  0.8661431E-01
        1   -1    0    0  501    0  0.00000000000E+00  0.00000000000E+00  0.24658655145E+04  0.24658655145E+04  0.50400001928E-02 0. -1.
       -1   -1    0    0    0  501  0.00000000000E+00  0.00000000000E+00 -0.36094742915E+03  0.36094742919E+03  0.50400001928E-02 0.  1.
    10030    2    1    2    0    0  0.00000000000E+00  0.00000000000E+00  0.21049180853E+04  0.28268129437E+04  0.18868469129E+04 0.  0.
        3    1    3    3  502    0  0.29847261954E+03 -0.31814508584E+03 -0.20077013093E+03  0.48021959137E+03  0.10100000352E+00 0.  1.
       -3    1    3    3    0  502 -0.29847261954E+03  0.31814508584E+03  0.23056882163E+04  0.23465933523E+04  0.10100000352E+00 0. -1.
</event>
<event>
 5   0  0.4664127E-05  0.2393917E+04  0.7818609E-02  0.8441784E-01
       -2   -1    0    0    0  501  0.00000000000E+00  0.00000000000E+00  0.10143714903E+04  0.10143714903E+04  0.25500000920E-02 0. -1.
        2   -1    0    0  501    0  0.00000000000E+00  0.00000000000E+00 -0.14124111925E+04  0.14124111925E+04  0.25500000920E-02 0.  1.
    10030    2    1    2    0    0  0.00000000000E+00  0.00000000000E+00 -0.39803970221E+03  0.24267826828E+04  0.23939169963E+04 0.  0.
        4    1    3    3  502    0  0.42007511333E+03  0.10340605078E+04 -0.63734921054E+03  0.12852859074E+04  0.12699999809E+01 0.  1.
       -4    1    3    3    0  502 -0.42007511333E+03 -0.10340605078E+04  0.23930950832E+03  0.11414967754E+04  0.12699999809E+01 0. -1.
</event>
<event>
 5   0  0.4856882E-05  0.2297831E+04  0.7818609E-02  0.8478777E-01
        2   -1    0    0  501    0  0.00000000000E+00  0.00000000000E+00  0.14577758135E+04  0.14577758135E+04  0.25500000920E-02 0. -1.
       -2   -1    0    0    0  501  0.00000000000E+00  0.00000000000E+00 -0.90549338076E+03  0.90549338077E+03  0.25500000920E-02 0.  1.
    10030    2    1    2    0    0  0.00000000000E+00  0.00000000000E+00  0.55228243273E+03  0.23632691943E+04  0.22978305854E+04 0.  0.
        1    1    3    3  502    0  0.11801046267E+03 -0.33343639450E+03 -0.84810381774E+03  0.91890499192E+03  0.50400001928E-02 0.  1.
       -1    1    3    3    0  502 -0.11801046267E+03  0.33343639450E+03  0.14003862505E+04  0.14443642023E+04  0.50400001928E-02 0. -1.
</event>
<event>
 5   0  0.2057599E-05  0.2429483E+04  0.7818609E-02  0.8428547E-01
        1   -1    0    0  501    0  0.00000000000E+00  0.00000000000E+00  0.31832052213E+04  0.31832052213E+04  0.50400001928E-02 0.  1.
       -1   -1    0    0    0  501  0.00000000000E+00  0.00000000000E+00 -0.46355709565E+03  0.46355709568E+03  0.50400001928E-02 0. -1.
    10030    2    1    2    0    0  0.00000000000E+00  0.00000000000E+00  0.27196481256E+04  0.36467623170E+04  0.24294833750E+04 0.  0.
        4    1    3    3  502    0 -0.39214182771E+03 -0.14342330651E+03 -0.35245263985E+03  0.54641553248E+03  0.12699999809E+01 0. -1.
       -4    1    3    3    0  502  0.39214182771E+03  0.14342330651E+03  0.30721007655E+04  0.31003467845E+04  0.12699999809E+01 0.  1.
</event>
<event>
 5   0  0.4713971E-05  0.2415302E+04  0.7818609E-02  0.8433797E-01
        2   -1    0    0  501    0  0.00000000000E+00  0.00000000000E+00  0.21218435053E+04  0.21218435053E+04  0.25500000920E-02 0. -1.
       -2   -1    0    0    0  501  0.00000000000E+00  0.00000000000E+00 -0.68733696404E+03  0.68733696404E+03  0.25500000920E-02 0.  1.
    10030    2    1    2    0    0  0.00000000000E+00  0.00000000000E+00  0.14345065413E+04  0.28091804693E+04  0.24153024433E+04 0.  0.
        5    1    3    3  502    0  0.24395632363E+03 -0.52757771389E+03  0.19484375228E+04  0.20332938308E+04  0.46999998093E+01 0. -1.
       -5    1    3    3    0  502 -0.24395632363E+03  0.52757771389E+03 -0.51393098157E+03  0.77588663853E+03  0.46999998093E+01 0.  1.
</event>
<event>
 5   0  0.2057599E-05  0.2413187E+04  0.7818609E-02  0.8434583E-01
        1   -1    0    0  501    0  0.00000000000E+00  0.00000000000E+00  0.13027197274E+04  0.13027197274E+04  0.50400001928E-02 0.  1.
       -1   -1    0    0    0  501  0.00000000000E+00  0.00000000000E+00 -0.11175607752E+04  0.11175607752E+04  0.50400001928E-02 0. -1.
    10030    2    1    2    0    0  0.00000000000E+00  0.00000000000E+00  0.18515895220E+03  0.24202805026E+04  0.24131874924E+04 0.  0.
        4    1    3    3  502    0  0.11358122709E+04 -0.39335774258E+03 -0.12929673572E+02  0.12020684747E+04  0.12699999809E+01 0. -1.
       -4    1    3    3    0  502 -0.11358122709E+04  0.39335774258E+03  0.19808862578E+03  0.12182120279E+04  0.12699999809E+01 0.  1.
</event>
<event>
 5   0  0.2090039E-05  0.2442329E+04  0.7818609E-02  0.8423824E-01
       -1   -1    0    0    0  501  0.00000000000E+00  0.00000000000E+00  0.89264725620E+03  0.89264725622E+03  0.50400001928E-02 0.  1.
        1   -1    0    0  501    0  0.00000000000E+00  0.00000000000E+00 -0.16705845923E+04  0.16705845923E+04  0.50400001928E-02 0. -1.
    10030    2    1    2    0    0  0.00000000000E+00  0.00000000000E+00 -0.77793733609E+03  0.25632318485E+04  0.24423290135E+04 0.  0.
        1    1    3    3  502    0 -0.35121461658E+03 -0.48441216475E+03  0.72826466378E+03  0.94253714664E+03  0.50400001928E-02 0.  1.
       -1    1    3    3    0  502  0.35121461658E+03  0.48441216475E+03 -0.15062019999E+04  0.16206947019E+04  0.50400001928E-02 0. -1.
</event>
<event>
 5   0  0.2090039E-05  0.2346232E+04  0.7818609E-02  0.8459912E-01
       -1   -1    0    0    0  501  0.00000000000E+00  0.00000000000E+00  0.72519716834E+03  0.72519716836E+03  0.50400001928E-02 0. -1.
        1   -1    0    0  501    0  0.00000000000E+00  0.00000000000E+00 -0.18976923246E+04  0.18976923246E+04  0.50400001928E-02 0.  1.
    10030    2    1    2    0    0  0.00000000000E+00  0.00000000000E+00 -0.11724951562E+04  0.26228894929E+04  0.23462319580E+04 0.  0.
        1    1    3    3  502    0  0.19021031857E+03  0.84755079087E+02  0.70437031972E+03  0.73450727433E+03  0.50400001928E-02 0. -1.
       -1    1    3    3    0  502 -0.19021031857E+03 -0.84755079087E+02 -0.18768654759E+04  0.18883822186E+04  0.50400001928E-02 0.  1.
</event>
<event>
 5   0  0.2065692E-05  0.2188689E+04  0.7818609E-02  0.8523151E-01
        1   -1    0    0  501    0  0.00000000000E+00  0.00000000000E+00  0.19634385378E+04  0.19634385378E+04  0.50400001928E-02 0. -1.
       -1   -1    0    0    0  501  0.00000000000E+00  0.00000000000E+00 -0.60994541798E+03  0.60994541800E+03  0.50400001928E-02 0.  1.
    10030    2    1    2    0    0  0.00000000000E+00  0.00000000000E+00  0.13534931198E+04  0.25733839558E+04  0.21886894158E+04 0.  0.
        3    1    3    3  502    0  0.31199588894E+03  0.39512517819E+03 -0.46569816679E+03  0.68581348332E+03  0.10100000352E+00 0.  1.
       -3    1    3    3    0  502 -0.31199588894E+03 -0.39512517819E+03  0.18191912866E+04  0.18875704725E+04  0.10100000352E+00 0. -1.
</event>
<event>
 5   0  0.4713971E-05  0.2418616E+04  0.7818609E-02  0.8432567E-01
        2   -1    0    0  501    0  0.00000000000E+00  0.00000000000E+00  0.14344986630E+04  0.14344986630E+04  0.25500000920E-02 0.  1.
       -2   -1    0    0    0  501  0.00000000000E+00  0.00000000000E+00 -0.10194682540E+04  0.10194682540E+04  0.25500000920E-02 0. -1.
    10030    2    1    2    0    0  0.00000000000E+00  0.00000000000E+00  0.41503040908E+03  0.24539669170E+04  0.24186160070E+04 0.  0.
        5    1    3    3  502    0  0.65931873483E+03 -0.64260536384E+03 -0.58801175675E+03  0.10924389062E+04  0.46999998093E+01 0. -1.
       -5    1    3    3    0  502 -0.65931873483E+03  0.64260536384E+03  0.10030421658E+04  0.13615280108E+04  0.46999998093E+01 0.  1.
</event>
<event>
 5   0  0.4856882E-05  0.2380020E+04  0.7818609E-02  0.8447022E-01
        2   -1    0    0  501    0  0.00000000000E+00  0.00000000000E+00  0.24554067723E+04  0.24554067723E+04  0.25500000920E-02 0.  1.
       -2   -1    0    0    0  501  0.00000000000E+00  0.00000000000E+00 -0.57673673650E+03  0.57673673650E+03  0.25500000920E-02 0. -1.
    10030    2    1    2    0    0  0.00000000000E+00  0.00000000000E+00  0.18786700358E+04  0.30321435088E+04  0.23800195702E+04 0.  0.
        1    1    3    3  502    0  0.10589316720E+04 -0.51859117292E+03  0.73450143518E+03  0.13891599796E+04  0.50400001928E-02 0. -1.
       -1    1    3    3    0  502 -0.10589316720E+04  0.51859117292E+03  0.11441686006E+04  0.16429835292E+04  0.50400001928E-02 0.  1.
</event>
<event>
 5   0  0.2057599E-05  0.2402183E+04  0.7818609E-02  0.8438687E-01
        1   -1    0    0  501    0  0.00000000000E+00  0.00000000000E+00  0.20088278641E+04  0.20088278641E+04  0.50400001928E-02 0. -1.
       -1   -1    0    0    0  501  0.00000000000E+00  0.00000000000E+00 -0.71814060882E+03  0.71814060884E+03  0.50400001928E-02 0.  1.
    10030    2    1    2    0    0  0.00000000000E+00  0.00000000000E+00  0.12906872553E+04  0.27269684730E+04  0.24021830616E+04 0.  0.
        4    1    3    3  502    0  0.59587120846E+03 -0.47009600371E+03  0.17021002189E+04  0.18636521988E+04  0.12699999809E+01 0. -1.
       -4    1    3    3    0  502 -0.59587120846E+03  0.47009600371E+03 -0.41141296362E+03  0.86331627421E+03  0.12699999809E+01 0.  1.
</event>
<event>
 5   0  0.2065692E-05  0.2369724E+04  0.7818609E-02  0.8450926E-01
       -1   -1    0    0    0  501  0.00000000000E+00  0.00000000000E+00  0.14924467255E+04  0.14924467255E+04  0.50400001928E-02 0. -1.
        1   -1    0    0  501    0  0.00000000000E+00  0.00000000000E+00 -0.94066865363E+03  0.94066865364E+03  0.50400001928E-02 0.  1.
    10030    2    1    2    0    0  0.00000000000E+00  0.00000000000E+00  0.55177807190E+03  0.24331153792E+04  0.23697239096E+04 0.  0.
        3    1    3    3  502    0 -0.83160981563E+03 -0.38786536749E+02  0.11415430220E+04  0.14128693366E+04  0.10100000352E+00 0. -1.
       -3    1    3    3    0  502  0.83160981563E+03  0.38786536749E+02 -0.58976495011E+03  0.10202460426E+04  0.10100000352E+00 0.  1.
</event>
<event>
 5   0  0.4713971E-05  0.2332449E+04  0.7818609E-02  0.8465236E-01
        2   -1    0    0  501    0  0.00000000000E+00  0.00000000000E+00  0.12125222844E+04  0.12125222845E+04  0.25500000920E-02 0.  1.
       -2   -1    0    0    0  501  0.00000000000E+00  0.00000000000E+00 -0.11216944880E+04  0.11216944880E+04  0.25500000920E-02 0. -1.
    10030    2    1    2    0    0  0.00000000000E+00  0.00000000000E+00  0.90827796421E+02  0.23342167725E+04  0.23324489817E+04 0.  0.
        5    1    3    3  502    0  0.26550775437E+03  0.10474113203E+04 -0.39365844999E+03  0.11500234375E+04  0.46999998093E+01 0. -1.
       -5    1    3    3    0  502 -0.26550775437E+03 -0.10474113203E+04  0.48448624641E+03  0.11841933350E+04  0.46999998093E+01 0.  1.
</event>
<event>
 5   0  0.2065692E-05  0.2025422E+04  0.7818609E-02  0.8594827E-01
        1   -1    0    0  501    0  0.00000000000E+00  0.00000000000E+00  0.13573537461E+04  0.13573537461E+04  0.50400001928E-02 0. -1.
       -1   -1    0    0    0  501  0.00000000000E+00  0.00000000000E+00 -0.75557556583E+03  0.75557556584E+03  0.50400001928E-02 0.  1.
    10030    2    1    2    0    0  0.00000000000E+00  0.00000000000E+00  0.60177818031E+03  0.21129293120E+04  0.20254217583E+04 0.  0.
        3    1    3    3  502    0  0.70696650869E+03  0.72229404532E+03  0.36746632558E+03  0.10754263540E+04  0.10100000352E+00 0.  1.
       -3    1    3    3    0  502 -0.70696650869E+03 -0.72229404532E+03  0.23431185473E+03  0.10375029580E+04  0.10100000352E+00 0. -1.
</event>
<event>
 5   0  0.2065692E-05  0.2506670E+04  0.7818609E-02  0.8400613E-01
        1   -1    0    0  501    0  0.00000000000E+00  0.00000000000E+00  0.25267226316E+04  0.25267226316E+04  0.50400001928E-02 0. -1.
       -1   -1    0    0    0  501  0.00000000000E+00  0.00000000000E+00 -0.62169409901E+03  0.62169409903E+03  0.50400001928E-02 0.  1.
    10030    2    1    2    0    0  0.00000000000E+00  0.00000000000E+00  0.19050285326E+04  0.31484167307E+04  0.25066699423E+04 0.  0.
        3    1    3    3  502    0 -0.10627833835E+04 -0.62432079049E+03  0.66730308484E+03  0.14016341844E+04  0.10100000352E+00 0. -1.
       -3    1    3    3    0  502  0.10627833835E+04  0.62432079049E+03  0.12377254478E+04  0.17467825462E+04  0.10100000352E+00 0.  1.
</event>
<event>
 5   0  0.4664127E-05  0.2455513E+04  0.7818609E-02  0.8419008E-01
        2   -1    0    0  501    0  0.00000000000E+00  0.00000000000E+00  0.16147319433E+04  0.16147319433E+04  0.25500000920E-02 0. -1.
       -2   -1    0    0    0  501  0.00000000000E+00  0.00000000000E+00 -0.93352091598E+03  0.93352091598E+03  0.25500000920E-02 0.  1.
    10030    2    1    2    0    0  0.00000000000E+00  0.00000000000E+00  0.68121102728E+03  0.25482528592E+04  0.24555130158E+04 0.  0.
        4    1    3    3  502    0  0.10469071574E+04 -0.30856347289E+03  0.92412135890E+03  0.14301146499E+04  0.12699999809E+01 0. -1.
       -4    1    3    3    0  502 -0.10469071574E+04  0.30856347289E+03 -0.24291033162E+03  0.11181382093E+04  0.12699999809E+01 0.  1.
</event>
<event>
 5   0  0.4914005E-05  0.2354059E+04  0.7818609E-02  0.8456906E-01
        2   -1    0    0  501    0  0.00000000000E+00  0.00000000000E+00  0.14084947152E+04  0.14084947152E+04  0.25500000920E-02 0.  1.
       -2   -1    0    0    0  501  0.00000000000E+00  0.00000000000E+00 -0.98360220929E+03  0.98360220929E+03  0.25500000920E-02 0. -1.
    10030    2    1    2    0    0  0.00000000000E+00  0.00000000000E+00  0.42489250592E+03  0.23920969245E+04  0.23540590593E+04 0.  0.
        2    1    3    3  502    0  0.59516261845E+03 -0.18972464815E+03 -0.80126256972E+03  0.10159900050E+04  0.25500000920E-02 0. -1.
       -2    1    3    3    0  502 -0.59516261845E+03  0.18972464815E+03  0.12261550756E+04  0.13761069196E+04  0.25500000920E-02 0.  1.
</event>
<event>
 5   0  0.2139556E-05  0.2426725E+04  0.7818609E-02  0.8429565E-01
       -1   -1    0    0    0  501  0.00000000000E+00  0.00000000000E+00  0.14094363093E+04  0.14094363093E+04  0.50400001928E-02 0.  1.
        1   -1    0    0  501    0  0.00000000000E+00  0.00000000000E+00 -0.10445656401E+04  0.10445656401E+04  0.50400001928E-02 0. -1.
    10030    2    1    2    0    0  0.00000000000E+00  0.00000000000E+00  0.36487066923E+03  0.24540019495E+04  0.24267251519E+04 0.  0.
        2    1    3    3  502    0 -0.75056642276E+03 -0.50409467281E+03 -0.63584940335E+03  0.11053351790E+04  0.25500000920E-02 0.  1.
       -2    1    3    3    0  502  0.75056642276E+03  0.50409467281E+03  0.10007200726E+04  0.13486667705E+04  0.25500000920E-02 0. -1.
</event>
<event>
 5   0  0.4914005E-05  0.2603239E+04  0.7818609E-02  0.8367102E-01
       -2   -1    0    0    0  501  0.00000000000E+00  0.00000000000E+00  0.15821780767E+04  0.15821780767E+04  0.25500000920E-02 0. -1.
        2   -1    0    0  501    0  0.00000000000E+00  0.00000000000E+00 -0.10708107544E+04  0.10708107544E+04  0.25500000920E-02 0.  1.
    10030    2    1    2    0    0  0.00000000000E+00  0.00000000000E+00  0.51136732226E+03  0.26529888311E+04  0.26032389824E+04 0.  0.
        2    1    3    3  502    0 -0.53727244605E+03  0.11452697180E+04  0.56798564277E+03  0.13866910610E+04  0.25500000920E-02 0.  1.
       -2    1    3    3    0  502  0.53727244605E+03 -0.11452697180E+04 -0.56618320519E+02  0.12662977701E+04  0.25500000920E-02 0. -1.
</event>
<event>
 5   0  0.2139556E-05  0.2244358E+04  0.7818609E-02  0.8500189E-01
       -1   -1    0    0    0  501  0.00000000000E+00  0.00000000000E+00  0.92573926946E+03  0.92573926947E+03  0.50400001928E-02 0. -1.
        1   -1    0    0  501    0  0.00000000000E+00  0.00000000000E+00 -0.13603031769E+04  0.13603031769E+04  0.50400001928E-02 0.  1.
    10030    2    1    2    0    0  0.00000000000E+00  0.00000000000E+00 -0.43456390748E+03  0.22860424464E+04  0.22443583219E+04 0.  0.
        2    1    3    3  502    0  0.10152445046E+04  0.40103379646E+03  0.47814342941E+02  0.10926278971E+04  0.25500000920E-02 0. -1.
       -2    1    3    3    0  502 -0.10152445046E+04 -0.40103379646E+03 -0.48237825042E+03  0.11934145493E+04  0.25500000920E-02 0.  1.
</event>
<event>
 5   0  0.1672125E-05  0.2291561E+04  0.7818609E-02  0.8481256E-01
        3   -1    0    0  501    0  0.00000000000E+00  0.00000000000E+00  0.88408687856E+03  0.88408688433E+03  0.10100000352E+00 0.  1.
       -3   -1    0    0    0  501  0.00000000000E+00  0.00000000000E+00 -0.14849366821E+04  0.14849366856E+04  0.10100000352E+00 0. -1.
    10030    2    1    2    0    0  0.00000000000E+00  0.00000000000E+00 -0.60084980357E+03  0.23690235699E+04  0.22915610811E+04 0.  0.
        3    1    3    3  502    0 -0.86085162581E+03  0.70644637293E+03 -0.57913230351E+03  0.12551996792E+04  0.10100000352E+00 0. -1.
       -3    1    3    3    0  502  0.86085162581E+03 -0.70644637293E+03 -0.21717500054E+02  0.11138238907E+04  0.10100000352E+00 0.  1.
</event>
<event>
 5   0  0.2090039E-05  0.2360953E+04  0.7818609E-02  0.8454269E-01
        1   -1    0    0  501    0  0.00000000000E+00  0.00000000000E+00  0.16293931032E+04  0.16293931032E+04  0.50400001928E-02 0.  1.
       -1   -1    0    0    0  501  0.00000000000E+00  0.00000000000E+00 -0.85524138338E+03  0.85524138340E+03  0.50400001928E-02 0. -1.
    10030    2    1    2    0    0  0.00000000000E+00  0.00000000000E+00  0.77415171977E+03  0.24846344866E+04  0.23609526989E+04 0.  0.
        1    1    3    3  502    0 -0.78746610523E+03  0.86286245637E+03  0.20820135760E+03  0.11865842957E+04  0.50400001928E-02 0. -1.
       -1    1    3    3    0  502  0.78746610523E+03 -0.86286245637E+03  0.56595036218E+03  0.12980501909E+04  0.50400001928E-02 0.  1.
</event>
<event>
 5   0  0.4914005E-05  0.2413615E+04  0.7818609E-02  0.8434424E-01
       -2   -1    0    0    0  501  0.00000000000E+00  0.00000000000E+00  0.13570275774E+04  0.13570275774E+04  0.25500000920E-02 0. -1.
        2   -1    0    0  501    0  0.00000000000E+00  0.00000000000E+00 -0.10732162016E+04  0.10732162016E+04  0.25500000920E-02 0.  1.
    10030    2    1    2    0    0  0.00000000000E+00  0.00000000000E+00  0.28381137580E+03  0.24302437790E+04  0.24136147017E+04 0.  0.
        2    1    3    3  502    0 -0.11176771878E+04  0.84808208150E+02 -0.30837697673E+03  0.11625364889E+04  0.25500000920E-02 0. -1.
       -2    1    3    3    0  502  0.11176771878E+04 -0.84808208150E+02  0.59218835253E+03  0.12677072900E+04  0.25500000920E-02 0.  1.
</event>
<event>
 5   0  0.4664127E-05  0.2367368E+04  0.7818609E-02  0.8451822E-01
       -2   -1    0    0    0  501  0.00000000000E+00  0.00000000000E+00  0.84122728358E+03  0.84122728358E+03  0.25500000920E-02 0.  1.
        2   -1    0    0  501    0  0.00000000000E+00  0.00000000000E+00 -0.16655519805E+04  0.16655519805E+04  0.25500000920E-02 0. -1.
    10030    2    1    2    0    0  0.00000000000E+00  0.00000000000E+00 -0.82432469692E+03  0.25067792641E+04  0.23673679631E+04 0.  0.
        4    1    3    3  502    0  0.62063776445E+03  0.39853131656E+03  0.56814658736E+03  0.93102663902E+03  0.12699999809E+01 0.  1.
       -4    1    3    3    0  502 -0.62063776445E+03 -0.39853131656E+03 -0.13924712843E+04  0.15757526251E+04  0.12699999809E+01 0. -1.
</event>
<event>
 5   0  0.4856882E-05  0.2396591E+04  0.7818609E-02  0.8440781E-01
        2   -1    0    0  501    0  0.00000000000E+00  0.00000000000E+00  0.21114456054E+04  0.21114456054E+04  0.25500000920E-02 0. -1.
       -2   -1    0    0    0  501  0.00000000000E+00  0.00000000000E+00 -0.68006109906E+03  0.68006109907E+03  0.25500000920E-02 0.  1.
    10030    2    1    2    0    0  0.00000000000E+00  0.00000000000E+00  0.14313845063E+04  0.27915067044E+04  0.23965909280E+04 0.  0.
        1    1    3    3  502    0 -0.47776957598E+03 -0.10863084000E+04  0.52224610226E+03  0.12965611050E+04  0.50400001928E-02 0. -1.
       -1    1    3    3    0  502  0.47776957598E+03  0.10863084000E+04  0.90913840404E+03  0.14949455995E+04  0.50400001928E-02 0.  1.
</event>
<event>
 5   0  0.4856882E-05  0.2404908E+04  0.7818609E-02  0.8437668E-01
       -2   -1    0    0    0  501  0.00000000000E+00  0.00000000000E+00  0.15995024119E+04  0.15995024119E+04  0.25500000920E-02 0. -1.
        2   -1    0    0  501    0  0.00000000000E+00  0.00000000000E+00 -0.90396578252E+03  0.90396578252E+03  0.25500000920E-02 0.  1.
    10030    2    1    2    0    0  0.00000000000E+00  0.00000000000E+00  0.69553662934E+03  0.25034681944E+04  0.24049078563E+04 0.  0.
        1    1    3    3  502    0 -0.17998752969E+03  0.51809704267E+03 -0.76616881001E+03  0.94224980866E+03  0.50400001928E-02 0.  1.
       -1    1    3    3    0  502  0.17998752969E+03 -0.51809704267E+03  0.14617054393E+04  0.15612183857E+04  0.50400001928E-02 0. -1.
</event>
<event>
 5   0  0.2139556E-05  0.2358612E+04  0.7818609E-02  0.8455163E-01
        1   -1    0    0  501    0  0.00000000000E+00  0.00000000000E+00  0.22222239267E+04  0.22222239267E+04  0.50400001928E-02 0.  1.
       -1   -1    0    0    0  501  0.00000000000E+00  0.00000000000E+00 -0.62584268539E+03  0.62584268541E+03  0.50400001928E-02 0. -1.
    10030    2    1    2    0    0  0.00000000000E+00  0.00000000000E+00  0.15963812413E+04  0.28480666121E+04  0.23586119561E+04 0.  0.
        2    1    3    3  502    0 -0.53732909267E+03 -0.45736756984E+03  0.19391865639E+04  0.20635775191E+04  0.25500000920E-02 0.  1.
       -2    1    3    3    0  502  0.53732909267E+03  0.45736756984E+03 -0.34280532262E+03  0.78448909297E+03  0.25500000920E-02 0. -1.
</event>
<event>
 5   0  0.1672125E-05  0.2428204E+04  0.7818609E-02  0.8429019E-01
        4   -1    0    0  501    0  0.00000000000E+00  0.00000000000E+00  0.12263392429E+04  0.12263399005E+04  0.12699999809E+01 0.  1.
       -4   -1    0    0    0  501  0.00000000000E+00  0.00000000000E+00 -0.12019857395E+04  0.12019864105E+04  0.12699999809E+01 0. -1.
    10030    2    1    2    0    0  0.00000000000E+00  0.00000000000E+00  0.24353503380E+02  0.24283263110E+04  0.24282041882E+04 0.  0.
        2    1    3    3  502    0 -0.93209657959E+03 -0.67006201076E+03 -0.38313639087E+03  0.12101985895E+04  0.25500000920E-02 0. -1.
       -2    1    3    3    0  502  0.93209657959E+03  0.67006201076E+03  0.40748989425E+03  0.12181277215E+04  0.25500000920E-02 0.  1.
</event>
<event>
 5   0  0.4856882E-05  0.2402000E+04  0.7818609E-02  0.8438755E-01
       -2   -1    0    0    0  501  0.00000000000E+00  0.00000000000E+00  0.65713532872E+03  0.65713532872E+03  0.25500000920E-02 0.  1.
        2   -1    0    0  501    0  0.00000000000E+00  0.00000000000E+00 -0.21949824503E+04  0.21949824503E+04  0.25500000920E-02 0. -1.
    10030    2    1    2    0    0  0.00000000000E+00  0.00000000000E+00 -0.15378471216E+04  0.28521177790E+04  0.24019995953E+04 0.  0.
        1    1    3    3  502    0 -0.53368002338E+03 -0.51366186606E+03 -0.18914576766E+04  0.20313234657E+04  0.50400001928E-02 0. -1.
       -1    1    3    3    0  502  0.53368002338E+03  0.51366186606E+03  0.35361055506E+03  0.82079431326E+03  0.50400001928E-02 0.  1.
</event>
<event>
 5   0  0.4713971E-05  0.2583832E+04  0.7818609E-02  0.8373714E-01
        2   -1    0    0  501    0  0.00000000000E+00  0.00000000000E+00  0.98959586257E+03  0.98959586257E+03  0.25500000920E-02 0.  1.
       -2   -1    0    0    0  501  0.00000000000E+00  0.00000000000E+00 -0.16865951189E+04  0.16865951189E+04  0.25500000920E-02 0. -1.
    10030    2    1    2    0    0  0.00000000000E+00  0.00000000000E+00 -0.69699925636E+03  0.26761909815E+04  0.25838324648E+04 0.  0.
        5    1    3    3  502    0 -0.77982621742E+03 -0.10299303451E+04 -0.33624381055E+03  0.13349035303E+04  0.46999998093E+01 0. -1.
       -5    1    3    3    0  502  0.77982621742E+03  0.10299303451E+04 -0.36075544580E+03  0.13412874512E+04  0.46999998093E+01 0.  1.
</event>
<event>
 5   0  0.4664127E-05  0.2396483E+04  0.7818609E-02  0.8440821E-01
       -2   -1    0    0    0  501  0.00000000000E+00  0.00000000000E+00  0.81415351176E+03  0.81415351176E+03  0.25500000920E-02 0.  1.
        2   -1    0    0  501    0  0.00000000000E+00  0.00000000000E+00 -0.17635279985E+04  0.17635279985E+04  0.25500000920E-02 0. -1.
    10030    2    1    2    0    0  0.00000000000E+00  0.00000000000E+00 -0.94937448672E+03  0.25776815102E+04  0.23964828504E+04 0.  0.
        4    1    3    3  502    0 -0.35499629190E+03  0.46710329205E+03  0.64909284491E+03  0.87494627659E+03  0.12699999809E+01 0.  1.
       -4    1    3    3    0  502  0.35499629190E+03 -0.46710329205E+03 -0.15984673316E+04  0.17027352336E+04  0.12699999809E+01 0. -1.
</event>
<event>
 5   0  0.2090039E-05  0.2447450E+04  0.7818609E-02  0.8421950E-01
       -1   -1    0    0    0  501  0.00000000000E+00  0.00000000000E+00  0.12698478588E+04  0.12698478588E+04  0.50400001928E-02 0. -1.
        1   -1    0    0  501    0  0.00000000000E+00  0.00000000000E+00 -0.11792771392E+04  0.11792771392E+04  0.50400001928E-02 0.  1.
    10030    2    1    2    0    0  0.00000000000E+00  0.00000000000E+00  0.90570719596E+02  0.24491249980E+04  0.24474497341E+04 0.  0.
        1    1    3    3  502    0 -0.14791848703E+03  0.12013127996E+04  0.22560367644E+03  0.12312308233E+04  0.50400001928E-02 0. -1.
       -1    1    3    3    0  502  0.14791848703E+03 -0.12013127996E+04 -0.13503295685E+03  0.12178941747E+04  0.50400001928E-02 0.  1.
</event>
<event>
 5   0  0.4756705E-05  0.2112024E+04  0.7818609E-02  0.8555965E-01
        2   -1    0    0  501    0  0.00000000000E+00  0.00000000000E+00  0.12342520454E+04  0.12342520454E+04  0.25500000920E-02 0. -1.
       -2   -1    0    0    0  501  0.00000000000E+00  0.00000000000E+00 -0.90351165402E+03  0.90351165402E+03  0.25500000920E-02 0.  1.
    10030    2    1    2    0    0  0.00000000000E+00  0.00000000000E+00  0.33074039141E+03  0.21377636994E+04  0.21120237755E+04 0.  0.
        3    1    3    3  502    0 -0.39199536038E+03  0.59555148382E+03 -0.62310954580E+03  0.94689357834E+03  0.10100000352E+00 0.  1.
       -3    1    3    3    0  502  0.39199536038E+03 -0.59555148382E+03  0.95384993720E+03  0.11908701211E+04  0.10100000352E+00 0. -1.
</event>
<event>
 5   0  0.4856882E-05  0.2160645E+04  0.7818609E-02  0.8534989E-01
        2   -1    0    0  501    0  0.00000000000E+00  0.00000000000E+00  0.87697459224E+03  0.87697459224E+03  0.25500000920E-02 0. -1.
       -2   -1    0    0    0  501  0.00000000000E+00  0.00000000000E+00 -0.13308218959E+04  0.13308218959E+04  0.25500000920E-02 0.  1.
    10030    2    1    2    0    0  0.00000000000E+00  0.00000000000E+00 -0.45384730366E+03  0.22077964881E+04  0.21606452643E+04 0.  0.
        1    1    3    3  502    0 -0.15139681136E+03 -0.50514705190E+03  0.73652161452E+03  0.90584691158E+03  0.50400001928E-02 0. -1.
       -1    1    3    3    0  502  0.15139681136E+03  0.50514705190E+03 -0.11903689182E+04  0.13019495766E+04  0.50400001928E-02 0.  1.
</event>
<event>
 5   0  0.2057599E-05  0.2434690E+04  0.7818609E-02  0.8426629E-01
       -1   -1    0    0    0  501  0.00000000000E+00  0.00000000000E+00  0.13208733751E+04  0.13208733751E+04  0.50400001928E-02 0. -1.
        1   -1    0    0  501    0  0.00000000000E+00  0.00000000000E+00 -0.11219310441E+04  0.11219310441E+04  0.50400001928E-02 0.  1.
    10030    2    1    2    0    0  0.00000000000E+00  0.00000000000E+00  0.19894233099E+03  0.24428044192E+04  0.24346899965E+04 0.  0.
        4    1    3    3  502    0 -0.54108802667E+03 -0.10898972725E+04  0.63646216008E+02  0.12184846207E+04  0.12699999809E+01 0.  1.
       -4    1    3    3    0  502  0.54108802667E+03  0.10898972725E+04  0.13529611499E+03  0.12243197984E+04  0.12699999809E+01 0. -1.
</event>
<event>
 5   0  0.4756705E-05  0.2573988E+04  0.7818609E-02  0.8377091E-01
       -2   -1    0    0    0  501  0.00000000000E+00  0.00000000000E+00  0.13986787528E+04  0.13986787528E+04  0.25500000920E-02 0.  1.
        2   -1    0    0  501    0  0.00000000000E+00  0.00000000000E+00 -0.11842274856E+04  0.11842274856E+04  0.25500000920E-02 0. -1.
    10030    2    1    2    0    0  0.00000000000E+00  0.00000000000E+00  0.21445126723E+03  0.25829062385E+04  0.25739882072E+04 0.  0.
        3    1    3    3  502    0  0.93155726370E+03 -0.44884473036E+03 -0.66164919797E+03  0.12276156560E+04  0.10100000352E+00 0. -1.
       -3    1    3    3    0  502 -0.93155726370E+03  0.44884473036E+03  0.87610046520E+03  0.13552905824E+04  0.10100000352E+00 0.  1.
</event>
<event>
 5   0  0.4856882E-05  0.2425212E+04  0.7818609E-02  0.8430125E-01
        2   -1    0    0  501    0  0.00000000000E+00  0.00000000000E+00  0.17289168435E+04  0.17289168435E+04  0.25500000920E-02 0. -1.
       -2   -1    0    0    0  501  0.00000000000E+00  0.00000000000E+00 -0.85048205900E+03  0.85048205900E+03  0.25500000920E-02 0.  1.
    10030    2    1    2    0    0  0.00000000000E+00  0.00000000000E+00  0.87843478447E+03  0.25793989025E+04  0.24252115428E+04 0.  0.
        1    1    3    3  502    0  0.21131162295E+03 -0.23960691251E+02 -0.83049297015E+03  0.85728950199E+03  0.50400001928E-02 0.  1.
       -1    1    3    3    0  502 -0.21131162295E+03  0.23960691251E+02  0.17089277546E+04  0.17221094005E+04  0.50400001928E-02 0. -1.
</event>
<event>
 5   0  0.2139556E-05  0.2384896E+04  0.7818609E-02  0.8445180E-01
        1   -1    0    0  501    0  0.00000000000E+00  0.00000000000E+00  0.18680609070E+04  0.18680609071E+04  0.50400001928E-02 0. -1.
       -1   -1    0    0    0  501  0.00000000000E+00  0.00000000000E+00 -0.76118076706E+03  0.76118076708E+03  0.50400001928E-02 0.  1.
    10030    2    1    2    0    0  0.00000000000E+00  0.00000000000E+00  0.11068801400E+04  0.26292416741E+04  0.23848958335E+04 0.  0.
        2    1    3    3  502    0 -0.97602507493E+03 -0.65099500724E+03  0.31824573471E+03  0.12156067596E+04  0.25500000920E-02 0.  1.
       -2    1    3    3    0  502  0.97602507493E+03  0.65099500724E+03  0.78863440528E+03  0.14136349145E+04  0.25500000920E-02 0. -1.
</event>
<event>
 5   0  0.4713971E-05  0.2369350E+04  0.7818609E-02  0.8451069E-01
        2   -1    0    0  501    0  0.00000000000E+00  0.00000000000E+00  0.95179429294E+03  0.95179429294E+03  0.25500000920E-02 0. -1.
       -2   -1    0    0    0  501  0.00000000000E+00  0.00000000000E+00 -0.14745355070E+04  0.14745355070E+04  0.25500000920E-02 0.  1.
    10030    2    1    2    0    0  0.00000000000E+00  0.00000000000E+00 -0.52274121406E+03  0.24263297999E+04  0.23693496832E+04 0.  0.
        5    1    3    3  502    0 -0.11476099050E+03  0.16744332486E+03  0.93384182051E+03  0.95566206773E+03  0.46999998093E+01 0. -1.
       -5    1    3    3    0  502  0.11476099050E+03 -0.16744332486E+03 -0.14565830346E+04  0.14706677322E+04  0.46999998093E+01 0.  1.
</event>
<event>
 5   0  0.2090039E-05  0.2395869E+04  0.7818609E-02  0.8441052E-01
        1   -1    0    0  501    0  0.00000000000E+00  0.00000000000E+00  0.16880262616E+04  0.16880262616E+04  0.50400001928E-02 0. -1.
       -1   -1    0    0    0  501  0.00000000000E+00  0.00000000000E+00 -0.85013284072E+03  0.85013284073E+03  0.50400001928E-02 0.  1.
    10030    2    1    2    0    0  0.00000000000E+00  0.00000000000E+00  0.83789342088E+03  0.25381591023E+04  0.23958685782E+04 0.  0.
        1    1    3    3  502    0 -0.11408547490E+04 -0.55910452144E+02  0.36433544045E+02  0.11428048566E+04  0.50400001928E-02 0.  1.
       -1    1    3    3    0  502  0.11408547490E+04  0.55910452144E+02  0.80145987683E+03  0.13953542458E+04  0.50400001928E-02 0. -1.
</event>
<event>
 5   0  0.4856882E-05  0.2375385E+04  0.7818609E-02  0.8448777E-01
       -2   -1    0    0    0  501  0.00000000000E+00  0.00000000000E+00  0.93184578913E+03  0.93184578914E+03  0.25500000920E-02 0. -1.
        2   -1    0    0  501    0  0.00000000000E+00  0.00000000000E+00 -0.15137844074E+04  0.15137844074E+04  0.25500000920E-02 0.  1.
    10030    2    1    2    0    0  0.00000000000E+00  0.00000000000E+00 -0.58193861823E+03  0.24456301965E+04  0.23753851272E+04 0.  0.
        1    1    3    3  502    0  0.47111962551E+03 -0.11896975634E+03 -0.14067642742E+04  0.14883189267E+04  0.50400001928E-02 0. -1.
       -1    1    3    3    0  502 -0.47111962551E+03  0.11896975634E+03  0.82482565597E+03  0.95731126978E+03  0.50400001928E-02 0.  1.
</event>
<event>
 5   0  0.4914005E-05  0.2369736E+04  0.7818609E-02  0.8450921E-01
       -2   -1    0    0    0  501  0.00000000000E+00  0.00000000000E+00  0.16920433009E+04  0.16920433009E+04  0.25500000920E-02 0.  1.
        2   -1    0    0  501    0  0.00000000000E+00  0.00000000000E+00 -0.82971434134E+03  0.82971434134E+03  0.25500000920E-02 0. -1.
    10030    2    1    2    0    0  0.00000000000E+00  0.00000000000E+00  0.86232895952E+03  0.25217576422E+04  0.23697363506E+04 0.  0.
        2    1    3    3  502    0  0.55086815390E+03  0.10490247770E+04  0.42906638884E+03  0.12601613673E+04  0.25500000920E-02 0. -1.
       -2    1    3    3    0  502 -0.55086815390E+03 -0.10490247770E+04  0.43326257068E+03  0.12615962749E+04  0.25500000920E-02 0.  1.
</event>
<event>
 5   0  0.2149920E-05  0.2422580E+04  0.7818609E-02  0.8431098E-01
       -1   -1    0    0    0  501  0.00000000000E+00  0.00000000000E+00  0.55008218240E+03  0.55008218242E+03  0.50400001928E-02 0.  1.
        1   -1    0    0  501    0  0.00000000000E+00  0.00000000000E+00 -0.26672809933E+04  0.26672809933E+04  0.50400001928E-02 0. -1.
    10030    2    1    2    0    0  0.00000000000E+00  0.00000000000E+00 -0.21171988109E+04  0.32173631758E+04  0.24225802360E+04 0.  0.
        5    1    3    3  502    0 -0.44246831252E+03  0.48510655887E+02  0.43751475932E+03  0.62415762908E+03  0.46999998093E+01 0.  1.
       -5    1    3    3    0  502  0.44246831252E+03 -0.48510655887E+02 -0.25547135702E+04  0.25932055467E+04  0.46999998093E+01 0. -1.
</event>
<event>
 5   0  0.2065692E-05  0.2386109E+04  0.7818609E-02  0.8444722E-01
       -1   -1    0    0    0  501  0.00000000000E+00  0.00000000000E+00  0.16581598113E+04  0.16581598113E+04  0.50400001928E-02 0. -1.
        1   -1    0    0  501    0  0.00000000000E+00  0.00000000000E+00 -0.85840905466E+03  0.85840905467E+03  0.50400001928E-02 0.  1.
    10030    2    1    2    0    0  0.00000000000E+00  0.00000000000E+00  0.79975075662E+03  0.25165688660E+04  0.23861092985E+04 0.  0.
        3    1    3    3  502    0  0.85467507704E+03 -0.34668535871E+03  0.11980342452E+04  0.15119346177E+04  0.10100000352E+00 0. -1.
       -3    1    3    3    0  502 -0.85467507704E+03  0.34668535871E+03 -0.39828348861E+03  0.10046342483E+04  0.10100000352E+00 0.  1.
</event>
<event>
 5   0  0.4756705E-05  0.2431787E+04  0.7818609E-02  0.8427698E-01
        2   -1    0    0  501    0  0.00000000000E+00  0.00000000000E+00  0.13318229275E+04  0.13318229275E+04  0.25500000920E-02 0.  1.
       -2   -1    0    0    0  501  0.00000000000E+00  0.00000000000E+00 -0.11100549603E+04  0.11100549603E+04  0.25500000920E-02 0. -1.
    10030    2    1    2    0    0  0.00000000000E+00  0.00000000000E+00  0.22176796725E+03  0.24418778878E+04  0.24317867068E+04 0.  0.
        3    1    3    3  502    0  0.87378339742E+02 -0.10990019592E+04  0.62580462153E+03  0.12677033230E+04  0.10100000352E+00 0.  1.
       -3    1    3    3    0  502 -0.87378339742E+02  0.10990019592E+04 -0.40403665427E+03  0.11741745648E+04  0.10100000352E+00 0. -1.
</event>
<event>
 5   0  0.4713971E-05  0.2336007E+04  0.7818609E-02  0.8463858E-01
        2   -1    0    0  501    0  0.00000000000E+00  0.00000000000E+00  0.13367057901E+04  0.13367057901E+04  0.25500000920E-02 0.  1.
       -2   -1    0    0    0  501  0.00000000000E+00  0.00000000000E+00 -0.10205923450E+04  0.10205923450E+04  0.25500000920E-02 0. -1.
    10030    2    1    2    0    0  0.00000000000E+00  0.00000000000E+00  0.31611344514E+03  0.23572981351E+04  0.23360065897E+04 0.  0.
        5    1    3    3  502    0  0.81008568501E+03 -0.83795535775E+03  0.81194197591E+02  0.11683418106E+04  0.46999998093E+01 0. -1.
       -5    1    3    3    0  502 -0.81008568501E+03  0.83795535775E+03  0.23491924754E+03  0.11889563245E+04  0.46999998093E+01 0.  1.
</event>
<event>
 5   0  0.2149920E-05  0.2373247E+04  0.7818609E-02  0.8449588E-01
       -1   -1    0    0    0  501  0.00000000000E+00  0.00000000000E+00  0.22064764452E+04  0.22064764452E+04  0.50400001928E-02 0. -1.
        1   -1    0    0  501    0  0.00000000000E+00  0.00000000000E+00 -0.63815546886E+03  0.63815546888E+03  0.50400001928E-02 0.  1.
    10030    2    1    2    0    0  0.00000000000E+00  0.00000000000E+00  0.15683209763E+04  0.28446319141E+04  0.23732467301E+04 0.  0.
        5    1    3    3  502    0  0.11459037474E+04 -0.69499846720E+02  0.11440020734E+04  0.16207061612E+04  0.46999998093E+01 0. -1.
       -5    1    3    3    0  502 -0.11459037474E+04  0.69499846720E+02  0.42431890292E+03  0.12239257528E+04  0.46999998093E+01 0.  1.
</event>
<event>
 5   0  0.4856882E-05  0.2459093E+04  0.7818609E-02  0.8417706E-01
        2   -1    0    0  501    0  0.00000000000E+00  0.00000000000E+00  0.22677835418E+04  0.22677835418E+04  0.25500000920E-02 0. -1.
       -2   -1    0    0    0  501  0.00000000000E+00  0.00000000000E+00 -0.66663512006E+03  0.66663512007E+03  0.25500000920E-02 0.  1.
    10030    2    1    2    0    0  0.00000000000E+00  0.00000000000E+00  0.16011484218E+04  0.29344186619E+04  0.24590926405E+04 0.  0.
        1    1    3    3  502    0  0.22326109728E+03  0.31963752595E+02  0.22428886475E+04  0.22541997880E+04  0.50400001928E-02 0. -1.
       -1    1    3    3    0  502 -0.22326109728E+03 -0.31963752595E+02 -0.64174022575E+03  0.68021887390E+03  0.50400001928E-02 0.  1.
</event>
<event>
 5   0  0.2090039E-05  0.2401693E+04  0.7818609E-02  0.8438870E-01
        1   -1    0    0  501    0  0.00000000000E+00  0.00000000000E+00  0.18553749934E+04  0.18553749934E+04  0.50400001928E-02 0. -1.
       -1   -1    0    0    0  501  0.00000000000E+00  0.00000000000E+00 -0.77721910825E+03  0.77721910827E+03  0.50400001928E-02 0.  1.
    10030    2    1    2    0    0  0.00000000000E+00  0.00000000000E+00  0.10781558852E+04  0.26325941017E+04  0.24016934841E+04 0.  0.
        1    1    3    3  502    0  0.15569849001E+03 -0.73318857462E+03  0.15674807900E+04  0.17374704408E+04  0.50400001928E-02 0. -1.
       -1    1    3    3    0  502 -0.15569849001E+03  0.73318857462E+03 -0.48932490482E+03  0.89512366087E+03  0.50400001928E-02 0.  1.
</event>
<event>
 5   0  0.4756705E-05  0.2395391E+04  0.7818609E-02  0.8441231E-01
        2   -1    0    0  501    0  0.00000000000E+00  0.00000000000E+00  0.11557325696E+04  0.11557325696E+04  0.25500000920E-02 0.  1.
       -2   -1    0    0    0  501  0.00000000000E+00  0.00000000000E+00 -0.12411817489E+04  0.12411817489E+04  0.25500000920E-02 0. -1.
    10030    2    1    2    0    0  0.00000000000E+00  0.00000000000E+00 -0.85449179286E+02  0.23969143184E+04  0.23953907171E+04 0.  0.
        3    1    3    3  502    0 -0.58776031937E+03  0.34350186752E+03  0.94330485802E+03  0.11633055452E+04  0.10100000352E+00 0.  1.
       -3    1    3    3    0  502  0.58776031937E+03 -0.34350186752E+03 -0.10287540373E+04  0.12336087733E+04  0.10100000352E+00 0. -1.
</event>
<event>
 5   0  0.4664127E-05  0.2412176E+04  0.7818609E-02  0.8434959E-01
        2   -1    0    0  501    0  0.00000000000E+00  0.00000000000E+00  0.13660159398E+04  0.13660159398E+04  0.25500000920E-02 0.  1.
       -2   -1    0    0    0  501  0.00000000000E+00  0.00000000000E+00 -0.10648838878E+04  0.10648838878E+04  0.25500000920E-02 0. -1.
    10030    2    1    2    0    0  0.00000000000E+00  0.00000000000E+00  0.30113205196E+03  0.24308998277E+04  0.24121760838E+04 0.  0.
        4    1    3    3  502    0 -0.62829739418E+02  0.52037557974E+03 -0.94410143272E+03  0.10798460299E+04  0.12699999809E+01 0. -1.
       -4    1    3    3    0  502  0.62829739418E+02 -0.52037557974E+03  0.12452334847E+04  0.13510537977E+04  0.12699999809E+01 0.  1.
</event>
<event>
 5   0  0.4914005E-05  0.2305920E+04  0.7818609E-02  0.8475591E-01
        2   -1    0    0  501    0  0.00000000000E+00  0.00000000000E+00  0.22189747501E+04  0.22189747501E+04  0.25500000920E-02 0. -1.
       -2   -1    0    0    0  501  0.00000000000E+00  0.00000000000E+00 -0.59906778718E+03  0.59906778718E+03  0.25500000920E-02 0.  1.
    10030    2    1    2    0    0  0.00000000000E+00  0.00000000000E+00  0.16199069629E+04  0.28180425372E+04  0.23059195939E+04 0.  0.
        2    1    3    3  502    0 -0.28172361168E+02 -0.11151433811E+04  0.11662046166E+04  0.16138065715E+04  0.25500000920E-02 0.  1.
       -2    1    3    3    0  502  0.28172361168E+02  0.11151433811E+04  0.45370234625E+03  0.12042359658E+04  0.25500000920E-02 0. -1.
</event>
<event>
 5   0  0.4914005E-05  0.2429289E+04  0.7818609E-02  0.8428619E-01
       -2   -1    0    0    0  501  0.00000000000E+00  0.00000000000E+00  0.59944059036E+03  0.59944059037E+03  0.25500000920E-02 0.  1.
        2   -1    0    0  501    0  0.00000000000E+00  0.00000000000E+00 -0.24612306781E+04  0.24612306781E+04  0.25500000920E-02 0. -1.
    10030    2    1    2    0    0  0.00000000000E+00  0.00000000000E+00 -0.18617900877E+04  0.30606712685E+04  0.24292892547E+04 0.  0.
        2    1    3    3  502    0 -0.10076000646E+03 -0.10159698730E+04 -0.17599599485E+04  0.20346514154E+04  0.25500000920E-02 0. -1.
       -2    1    3    3    0  502  0.10076000646E+03  0.10159698730E+04 -0.10183013923E+03  0.10260198531E+04  0.25500000920E-02 0.  1.
</event>
<event>
 5   0  0.4856882E-05  0.2369791E+04  0.7818609E-02  0.8450901E-01
       -2   -1    0    0    0  501  0.00000000000E+00  0.00000000000E+00  0.89794202828E+03  0.89794202829E+03  0.25500000920E-02 0.  1.
        2   -1    0    0  501    0  0.00000000000E+00  0.00000000000E+00 -0.15635501511E+04  0.15635501511E+04  0.25500000920E-02 0. -1.
    10030    2    1    2    0    0  0.00000000000E+00  0.00000000000E+00 -0.66560812280E+03  0.24614921794E+04  0.23697910406E+04 0.  0.
        1    1    3    3  502    0  0.88716088410E+02  0.87078338079E+03 -0.11623593877E+04  0.14550648050E+04  0.50400001928E-02 0. -1.
       -1    1    3    3    0  502 -0.88716088410E+02 -0.87078338079E+03  0.49675126492E+03  0.10064273743E+04  0.50400001928E-02 0.  1.
</event>
<event>
 5   0  0.2149920E-05  0.1773251E+04  0.7818609E-02  0.8720655E-01
       -1   -1    0    0    0  501  0.00000000000E+00  0.00000000000E+00  0.34872313911E+03  0.34872313915E+03  0.50400001928E-02 0.  1.
        1   -1    0    0  501    0  0.00000000000E+00  0.00000000000E+00 -0.22542375400E+04  0.22542375401E+04  0.50400001928E-02 0. -1.
    10030    2    1    2    0    0  0.00000000000E+00  0.00000000000E+00 -0.19055144009E+04  0.26029606792E+04  0.17732510159E+04 0.  0.
        5    1    3    3  502    0  0.51301466812E+03  0.57989840256E+03 -0.31863580938E+03  0.83726762509E+03  0.46999998093E+01 0.  1.
       -5    1    3    3    0  502 -0.51301466812E+03 -0.57989840256E+03 -0.15868785916E+04  0.17656930541E+04  0.46999998093E+01 0. -1.
</event>
<event>
 5   0  0.2090039E-05  0.2427499E+04  0.7818609E-02  0.8429280E-01
        1   -1    0    0  501    0  0.00000000000E+00  0.00000000000E+00  0.10595096864E+04  0.10595096864E+04  0.50400001928E-02 0. -1.
       -1   -1    0    0    0  501  0.00000000000E+00  0.00000000000E+00 -0.13904429322E+04  0.13904429323E+04  0.50400001928E-02 0.  1.
    10030    2    1    2    0    0  0.00000000000E+00  0.00000000000E+00 -0.33093324589E+03  0.24499526186E+04  0.24274989228E+04 0.  0.
        1    1    3    3  502    0 -0.32015418633E+03 -0.67552092999E+03 -0.11305334191E+04  0.13553350293E+04  0.50400001928E-02 0.  1.
       -1    1    3    3    0  502  0.32015418633E+03  0.67552092999E+03  0.79960017321E+03  0.10946175893E+04  0.50400001928E-02 0. -1.
</event>
<event>
 5   0  0.4856882E-05  0.2373273E+04  0.7818609E-02  0.8449578E-01
        2   -1    0    0  501    0  0.00000000000E+00  0.00000000000E+00  0.10129162371E+04  0.10129162371E+04  0.25500000920E-02 0.  1.
       -2   -1    0    0    0  501  0.00000000000E+00  0.00000000000E+00 -0.13901510135E+04  0.13901510135E+04  0.25500000920E-02 0. -1.
    10030    2    1    2    0    0  0.00000000000E+00  0.00000000000E+00 -0.37723477642E+03  0.24030672506E+04  0.23732732953E+04 0.  0.
        1    1    3    3  502    0 -0.15300755188E+03 -0.99210700244E+03  0.45211321316E+03  0.11009513944E+04  0.50400001928E-02 0.  1.
       -1    1    3    3    0  502  0.15300755188E+03  0.99210700244E+03 -0.82934798958E+03  0.13021158562E+04  0.50400001928E-02 0. -1.
</event>
<event>
 5   0  0.2139556E-05  0.2411040E+04  0.7818609E-02  0.8435382E-01
        1   -1    0    0  501    0  0.00000000000E+00  0.00000000000E+00  0.12390356501E+04  0.12390356501E+04  0.50400001928E-02 0.  1.
       -1   -1    0    0    0  501  0.00000000000E+00  0.00000000000E+00 -0.11729111397E+04  0.11729111397E+04  0.50400001928E-02 0. -1.
    10030    2    1    2    0    0  0.00000000000E+00  0.00000000000E+00  0.66124510393E+02  0.24119467898E+04  0.24110402042E+04 0.  0.
        2    1    3    3  502    0 -0.23211955172E+03  0.49213639415E+03  0.11091995195E+04  0.12354761393E+04  0.25500000920E-02 0.  1.
       -2    1    3    3    0  502  0.23211955172E+03 -0.49213639415E+03 -0.10430750091E+04  0.11764706505E+04  0.25500000920E-02 0. -1.
</event>
<event>
 5   0  0.2065692E-05  0.2400728E+04  0.7818609E-02  0.8439231E-01
       -1   -1    0    0    0  501  0.00000000000E+00  0.00000000000E+00  0.14140261454E+04  0.14140261454E+04  0.50400001928E-02 0. -1.
        1   -1    0    0  501    0  0.00000000000E+00  0.00000000000E+00 -0.10189865140E+04  0.10189865140E+04  0.50400001928E-02 0.  1.
    10030    2    1    2    0    0  0.00000000000E+00  0.00000000000E+00  0.39503963139E+03  0.24330126595E+04  0.24007278669E+04 0.  0.
        3    1    3    3  502    0  0.67965612563E+03  0.89164504297E+03  0.63213448393E+03  0.12870731711E+04  0.10100000352E+00 0. -1.
       -3    1    3    3    0  502 -0.67965612563E+03 -0.89164504297E+03 -0.23709485254E+03  0.11459394884E+04  0.10100000352E+00 0.  1.
</event>
<event>
 5   0  0.2057599E-05  0.2406596E+04  0.7818609E-02  0.8437038E-01
       -1   -1    0    0    0  501  0.00000000000E+00  0.00000000000E+00  0.12874316913E+04  0.12874316913E+04  0.50400001928E-02 0. -1.
        1   -1    0    0  501    0  0.00000000000E+00  0.00000000000E+00 -0.11246623809E+04  0.11246623809E+04  0.50400001928E-02 0.  1.
    10030    2    1    2    0    0  0.00000000000E+00  0.00000000000E+00  0.16276931040E+03  0.24120940722E+04  0.24065959288E+04 0.  0.
        4    1    3    3  502    0  0.11206630227E+04 -0.35567634830E+03  0.33796384520E+03  0.12233611277E+04  0.12699999809E+01 0. -1.
       -4    1    3    3    0  502 -0.11206630227E+04  0.35567634830E+03 -0.17519453480E+03  0.11887329444E+04  0.12699999809E+01 0.  1.
</event>
<event>
 5   0  0.4856882E-05  0.2425403E+04  0.7818609E-02  0.8430054E-01
        2   -1    0    0  501    0  0.00000000000E+00  0.00000000000E+00  0.24910598519E+04  0.24910598519E+04  0.25500000920E-02 0. -1.
       -2   -1    0    0    0  501  0.00000000000E+00  0.00000000000E+00 -0.59036917646E+03  0.59036917646E+03  0.25500000920E-02 0.  1.
    10030    2    1    2    0    0  0.00000000000E+00  0.00000000000E+00  0.19006906754E+04  0.30814290283E+04  0.24254030208E+04 0.  0.
        1    1    3    3  502    0  0.11765320975E+04 -0.29350196472E+03  0.97136684694E+03  0.15536810262E+04  0.50400001928E-02 0.  1.
       -1    1    3    3    0  502 -0.11765320975E+04  0.29350196472E+03  0.92932382849E+03  0.15277480021E+04  0.50400001928E-02 0. -1.
</event>
<event>
 5   0  0.2139556E-05  0.2404555E+04  0.7818609E-02  0.8437800E-01
        1   -1    0    0  501    0  0.00000000000E+00  0.00000000000E+00  0.75806396799E+03  0.75806396801E+03  0.50400001928E-02 0.  1.
       -1   -1    0    0    0  501  0.00000000000E+00  0.00000000000E+00 -0.19067935827E+04  0.19067935827E+04  0.50400001928E-02 0. -1.
    10030    2    1    2    0    0  0.00000000000E+00  0.00000000000E+00 -0.11487296147E+04  0.26648575507E+04  0.24045552682E+04 0.  0.
        2    1    3    3  502    0  0.63367842152E+03  0.94987746256E+03 -0.15724896783E+03  0.11526242986E+04  0.25500000920E-02 0.  1.
       -2    1    3    3    0  502 -0.63367842152E+03 -0.94987746256E+03 -0.99148064691E+03  0.15122332522E+04  0.25500000920E-02 0. -1.
</event>
<event>
 5   0  0.2065692E-05  0.2379614E+04  0.7818609E-02  0.8447175E-01
        1   -1    0    0  501    0  0.00000000000E+00  0.00000000000E+00  0.10109043785E+04  0.10109043785E+04  0.50400001928E-02 0.  1.
       -1   -1    0    0    0  501  0.00000000000E+00  0.00000000000E+00 -0.14003709014E+04  0.14003709014E+04  0.50400001928E-02 0. -1.
    10030    2    1    2    0    0  0.00000000000E+00  0.00000000000E+00 -0.38946652290E+03  0.24112752799E+04  0.23796143181E+04 0.  0.
        3    1    3    3  502    0 -0.14690654606E+03  0.31919369379E+03 -0.13465963827E+04  0.13916853005E+04  0.10100000352E+00 0. -1.
       -3    1    3    3    0  502  0.14690654606E+03 -0.31919369379E+03  0.95712985980E+03  0.10195899794E+04  0.10100000352E+00 0.  1.
</event>
<event>
 5   0  0.2149920E-05  0.1773239E+04  0.7818609E-02  0.8720662E-01
        1   -1    0    0  501    0  0.00000000000E+00  0.00000000000E+00  0.14628310654E+04  0.14628310655E+04  0.50400001928E-02 0.  1.
       -1   -1    0    0    0  501  0.00000000000E+00  0.00000000000E+00 -0.53737850188E+03  0.53737850191E+03  0.50400001928E-02 0. -1.
    10030    2    1    2    0    0  0.00000000000E+00  0.00000000000E+00  0.92545256356E+03  0.20002095674E+04  0.17732388068E+04 0.  0.
        5    1    3    3  502    0 -0.59239518366E+03  0.57576064888E+03  0.99588928729E+02  0.83208919182E+03  0.46999998093E+01 0. -1.
       -5    1    3    3    0  502  0.59239518366E+03 -0.57576064888E+03  0.82586363483E+03  0.11681203755E+04  0.46999998093E+01 0.  1.
</event>
<event>
 5   0  0.4856882E-05  0.2533923E+04  0.7818609E-02  0.8390999E-01
       -2   -1    0    0    0  501  0.00000000000E+00  0.00000000000E+00  0.87463232977E+03  0.87463232977E+03  0.25500000920E-02 0.  1.
        2   -1    0    0  501    0  0.00000000000E+00  0.00000000000E+00 -0.18352761465E+04  0.18352761465E+04  0.25500000920E-02 0. -1.
    10030    2    1    2    0    0  0.00000000000E+00  0.00000000000E+00 -0.96064381671E+03  0.27099084763E+04  0.25339233230E+04 0.  0.
        1    1    3    3  502    0  0.11022427448E+04  0.58847245072E+03 -0.25611178938E+03  0.12754733013E+04  0.50400001928E-02 0.  1.
       -1    1    3    3    0  502 -0.11022427448E+04 -0.58847245072E+03 -0.70453202733E+03  0.14344351750E+04  0.50400001928E-02 0. -1.
</event>
<event>
 5   0  0.2149920E-05  0.2387725E+04  0.7818609E-02  0.8444113E-01
        1   -1    0    0  501    0  0.00000000000E+00  0.00000000000E+00  0.12220331175E+04  0.12220331175E+04  0.50400001928E-02 0.  1.
       -1   -1    0    0    0  501  0.00000000000E+00  0.00000000000E+00 -0.11663415422E+04  0.11663415422E+04  0.50400001928E-02 0. -1.
    10030    2    1    2    0    0  0.00000000000E+00  0.00000000000E+00  0.55691575269E+02  0.23883746597E+04  0.23877252697E+04 0.  0.
        5    1    3    3  502    0 -0.39834194554E+02 -0.11719164634E+04 -0.19651622013E+03  0.11889557077E+04  0.46999998093E+01 0. -1.
       -5    1    3    3    0  502  0.39834194554E+02  0.11719164634E+04  0.25220779540E+03  0.11994189519E+04  0.46999998093E+01 0.  1.
</event>
<event>
 5   0  0.4914005E-05  0.2371677E+04  0.7818609E-02  0.8450184E-01
        2   -1    0    0  501    0  0.00000000000E+00  0.00000000000E+00  0.10217976888E+04  0.10217976888E+04  0.25500000920E-02 0.  1.
       -2   -1    0    0    0  501  0.00000000000E+00  0.00000000000E+00 -0.13762148137E+04  0.13762148137E+04  0.25500000920E-02 0. -1.
    10030    2    1    2    0    0  0.00000000000E+00  0.00000000000E+00 -0.35441712486E+03  0.23980125025E+04  0.23716771416E+04 0.  0.
        2    1    3    3  502    0  0.11849125668E+04 -0.27791314073E+02 -0.21534968214E+03  0.12046433637E+04  0.25500000920E-02 0.  1.
       -2    1    3    3    0  502 -0.11849125668E+04  0.27791314073E+02 -0.13906744272E+03  0.11933691389E+04  0.25500000920E-02 0. -1.
</event>
<event>
 5   0  0.2139556E-05  0.2436676E+04  0.7818609E-02  0.8425899E-01
        1   -1    0    0  501    0  0.00000000000E+00  0.00000000000E+00  0.19168850798E+04  0.19168850798E+04  0.50400001928E-02 0.  1.
       -1   -1    0    0    0  501  0.00000000000E+00  0.00000000000E+00 -0.77435399978E+03  0.77435399980E+03  0.50400001928E-02 0. -1.
    10030    2    1    2    0    0  0.00000000000E+00  0.00000000000E+00  0.11425310800E+04  0.26912390796E+04  0.24366761202E+04 0.  0.
        2    1    3    3  502    0  0.58736704809E+03 -0.57067081501E+03 -0.42501565877E+03  0.92266111791E+03  0.25500000920E-02 0. -1.
       -2    1    3    3    0  502 -0.58736704809E+03  0.57067081501E+03  0.15675467387E+04  0.17685779617E+04  0.25500000920E-02 0.  1.
</event>
<event>
 5   0  0.4713971E-05  0.1765140E+04  0.7818609E-02  0.8725060E-01
        2   -1    0    0  501    0  0.00000000000E+00  0.00000000000E+00  0.20772584299E+04  0.20772584299E+04  0.25500000920E-02 0.  1.
       -2   -1    0    0    0  501  0.00000000000E+00  0.00000000000E+00 -0.37497972023E+03  0.37497972024E+03  0.25500000920E-02 0. -1.
    10030    2    1    2    0    0  0.00000000000E+00  0.00000000000E+00  0.17022787097E+04  0.24522381501E+04  0.17651399773E+04 0.  0.
        5    1    3    3  502    0  0.17548492255E+03  0.14943773849E+03 -0.33240985703E+03  0.40453059065E+03  0.46999998093E+01 0. -1.
       -5    1    3    3    0  502 -0.17548492255E+03 -0.14943773849E+03  0.20346885667E+04  0.20477075595E+04  0.46999998093E+01 0.  1.
</event>
<event>
 5   0  0.4664127E-05  0.2381042E+04  0.7818609E-02  0.8446636E-01
        2   -1    0    0  501    0  0.00000000000E+00  0.00000000000E+00  0.19059300843E+04  0.19059300843E+04  0.25500000920E-02 0. -1.
       -2   -1    0    0    0  501  0.00000000000E+00  0.00000000000E+00 -0.74364739089E+03  0.74364739089E+03  0.25500000920E-02 0.  1.
    10030    2    1    2    0    0  0.00000000000E+00  0.00000000000E+00  0.11622826935E+04  0.26495774752E+04  0.23810417337E+04 0.  0.
        4    1    3    3  502    0  0.49939704381E+02  0.83919214555E+03 -0.35690109643E+03  0.91330029933E+03  0.12699999809E+01 0.  1.
       -4    1    3    3    0  502 -0.49939704381E+02 -0.83919214555E+03  0.15191837899E+04  0.17362771759E+04  0.12699999809E+01 0. -1.
</event>
<event>
 5   0  0.4664127E-05  0.2536038E+04  0.7818609E-02  0.8390258E-01
       -2   -1    0    0    0  501  0.00000000000E+00  0.00000000000E+00  0.92258544007E+03  0.92258544008E+03  0.25500000920E-02 0. -1.
        2   -1    0    0  501    0  0.00000000000E+00  0.00000000000E+00 -0.17427890361E+04  0.17427890361E+04  0.25500000920E-02 0.  1.
    10030    2    1    2    0    0  0.00000000000E+00  0.00000000000E+00 -0.82020359606E+03  0.26653744762E+04  0.25360376889E+04 0.  0.
        4    1    3    3  502    0  0.60636971965E+03 -0.10678582129E+04 -0.77971343393E+02  0.12304822400E+04  0.12699999809E+01 0. -1.
       -4    1    3    3    0  502 -0.60636971965E+03  0.10678582129E+04 -0.74223225266E+03  0.14348922362E+04  0.12699999809E+01 0.  1.
</event>
<event>
 5   0  0.2149920E-05  0.2367786E+04  0.7818609E-02  0.8451663E-01
       -1   -1    0    0    0  501  0.00000000000E+00  0.00000000000E+00  0.92887281406E+03  0.92887281407E+03  0.50400001928E-02 0. -1.
        1   -1    0    0  501    0  0.00000000000E+00  0.00000000000E+00 -0.15089285681E+04  0.15089285681E+04  0.50400001928E-02 0.  1.
    10030    2    1    2    0    0  0.00000000000E+00  0.00000000000E+00 -0.58005575402E+03  0.24378013822E+04  0.23677860759E+04 0.  0.
        5    1    3    3  502    0  0.59308452221E+03 -0.54232448772E+03 -0.11850525994E+04  0.14318648169E+04  0.46999998093E+01 0.  1.
       -5    1    3    3    0  502 -0.59308452221E+03  0.54232448772E+03  0.60499684538E+03  0.10059365653E+04  0.46999998093E+01 0. -1.
</event>
<event>
 5   0  0.1672125E-05  0.1882372E+04  0.7818609E-02  0.8663681E-01
        3   -1    0    0  501    0  0.00000000000E+00  0.00000000000E+00  0.49426677934E+03  0.49426678966E+03  0.10100000352E+00 0.  1.
       -3   -1    0    0    0  501  0.00000000000E+00  0.00000000000E+00 -0.17922131556E+04  0.17922131585E+04  0.10100000352E+00 0. -1.
    10030    2    1    2    0    0  0.00000000000E+00  0.00000000000E+00 -0.12979463763E+04  0.22864799482E+04  0.18823723748E+04 0.  0.
        2    1    3    3  502    0 -0.31407542574E+03 -0.51492999680E+03 -0.15266037446E+04  0.16414369521E+04  0.25500000920E-02 0. -1.
       -2    1    3    3    0  502  0.31407542574E+03  0.51492999680E+03  0.22865736831E+03  0.64504299604E+03  0.25500000920E-02 0.  1.
</event>
<event>
 5   0  0.2149920E-05  0.2398734E+04  0.7818609E-02  0.8439978E-01
       -1   -1    0    0    0  501  0.00000000000E+00  0.00000000000E+00  0.10768305100E+04  0.10768305100E+04  0.50400001928E-02 0. -1.
        1   -1    0    0  501    0  0.00000000000E+00  0.00000000000E+00 -0.13358474821E+04  0.13358474821E+04  0.50400001928E-02 0.  1.
    10030    2    1    2    0    0  0.00000000000E+00  0.00000000000E+00 -0.25901697206E+03  0.24126779922E+04  0.23987341041E+04 0.  0.
        5    1    3    3  502    0 -0.84023442491E+03 -0.50024488546E+03 -0.82796607906E+03  0.12813230476E+04  0.46999998093E+01 0.  1.
       -5    1    3    3    0  502  0.84023442491E+03  0.50024488546E+03  0.56894910700E+03  0.11313549446E+04  0.46999998093E+01 0. -1.
</event>
<event>
 5   0  0.4664127E-05  0.2285840E+04  0.7818609E-02  0.8483525E-01
        2   -1    0    0  501    0  0.00000000000E+00  0.00000000000E+00  0.10421790733E+04  0.10421790733E+04  0.25500000920E-02 0. -1.
       -2   -1    0    0    0  501  0.00000000000E+00  0.00000000000E+00 -0.12533993062E+04  0.12533993062E+04  0.25500000920E-02 0.  1.
    10030    2    1    2    0    0  0.00000000000E+00  0.00000000000E+00 -0.21122023299E+03  0.22955783795E+04  0.22858403509E+04 0.  0.
        4    1    3    3  502    0 -0.10204949112E+03 -0.90178086221E+02 -0.12452213905E+04  0.12526468417E+04  0.12699999809E+01 0.  1.
       -4    1    3    3    0  502  0.10204949112E+03  0.90178086221E+02  0.10340011575E+04  0.10429315378E+04  0.12699999809E+01 0. -1.
</event>
<event>
 5   0  0.4713971E-05  0.2242420E+04  0.7818609E-02  0.8500976E-01
        2   -1    0    0  501    0  0.00000000000E+00  0.00000000000E+00  0.10628252748E+04  0.10628252748E+04  0.25500000920E-02 0.  1.
       -2   -1    0    0    0  501  0.00000000000E+00  0.00000000000E+00 -0.11828023195E+04  0.11828023195E+04  0.25500000920E-02 0. -1.
    10030    2    1    2    0    0  0.00000000000E+00  0.00000000000E+00 -0.11997704474E+03  0.22456275943E+04  0.22424202998E+04 0.  0.
        5    1    3    3  502    0  0.32583682181E+03  0.10091570853E+04 -0.42454553198E+03  0.11422909681E+04  0.46999998093E+01 0.  1.
       -5    1    3    3    0  502 -0.32583682181E+03 -0.10091570853E+04  0.30456848724E+03  0.11033366261E+04  0.46999998093E+01 0. -1.
</event>
<event>
 5   0  0.2065692E-05  0.2396634E+04  0.7818609E-02  0.8440765E-01
       -1   -1    0    0    0  501  0.00000000000E+00  0.00000000000E+00  0.60468516411E+03  0.60468516414E+03  0.50400001928E-02 0.  1.
        1   -1    0    0  501    0  0.00000000000E+00  0.00000000000E+00 -0.23747296017E+04  0.23747296017E+04  0.50400001928E-02 0. -1.
    10030    2    1    2    0    0  0.00000000000E+00  0.00000000000E+00 -0.17700444375E+04  0.29794147658E+04  0.23966341055E+04 0.  0.
        3    1    3    3  502    0  0.10094648240E+04  0.55951226278E+03 -0.12857202826E+04  0.17277586227E+04  0.10100000352E+00 0. -1.
       -3    1    3    3    0  502 -0.10094648240E+04 -0.55951226278E+03 -0.48432415495E+03  0.12516561431E+04  0.10100000352E+00 0.  1.
</event>
<event>
 5   0  0.4664127E-05  0.2305372E+04  0.7818609E-02  0.8475806E-01
        2   -1    0    0  501    0  0.00000000000E+00  0.00000000000E+00  0.12445229474E+04  0.12445229474E+04  0.25500000920E-02 0.  1.
       -2   -1    0    0    0  501  0.00000000000E+00  0.00000000000E+00 -0.10676255187E+04  0.10676255187E+04  0.25500000920E-02 0. -1.
    10030    2    1    2    0    0  0.00000000000E+00  0.00000000000E+00  0.17689742870E+03  0.23121484661E+04  0.23053715165E+04 0.  0.
        4    1    3    3  502    0 -0.70961336828E+03 -0.30325010972E+03 -0.77032245921E+03  0.10903715264E+04  0.12699999809E+01 0. -1.
       -4    1    3    3    0  502  0.70961336828E+03  0.30325010972E+03  0.94721988791E+03  0.12217769397E+04  0.12699999809E+01 0.  1.
</event>
<event>
 5   0  0.4856882E-05  0.2380470E+04  0.7818609E-02  0.8446852E-01
        2   -1    0    0  501    0  0.00000000000E+00  0.00000000000E+00  0.14355438813E+04  0.14355438813E+04  0.25500000920E-02 0.  1.
       -2   -1    0    0    0  501  0.00000000000E+00  0.00000000000E+00 -0.98684509633E+03  0.98684509633E+03  0.25500000920E-02 0. -1.
    10030    2    1    2    0    0  0.00000000000E+00  0.00000000000E+00  0.44869878495E+03  0.24223889776E+04  0.23804700711E+04 0.  0.
        1    1    3    3  502    0  0.63365686499E+02  0.74805611454E+03  0.11642241767E+04  0.13852873688E+04  0.50400001928E-02 0.  1.
       -1    1    3    3    0  502 -0.63365686499E+02 -0.74805611454E+03 -0.71552539170E+03  0.10371016088E+04  0.50400001928E-02 0. -1.
</event>
<event>
 5   0  0.2065692E-05  0.2406330E+04  0.7818609E-02  0.8437137E-01
        1   -1    0    0  501    0  0.00000000000E+00  0.00000000000E+00  0.11308296662E+04  0.11308296662E+04  0.50400001928E-02 0. -1.
       -1   -1    0    0    0  501  0.00000000000E+00  0.00000000000E+00 -0.12801275236E+04  0.12801275237E+04  0.50400001928E-02 0.  1.
    10030    2    1    2    0    0  0.00000000000E+00  0.00000000000E+00 -0.14929785750E+03  0.24109571898E+04  0.24063301355E+04 0.  0.
        3    1    3    3  502    0 -0.80508963588E+03  0.20855651664E+03  0.79647159775E+03  0.11515346971E+04  0.10100000352E+00 0.  1.
       -3    1    3    3    0  502  0.80508963588E+03 -0.20855651664E+03 -0.94576945525E+03  0.12594224927E+04  0.10100000352E+00 0. -1.
</event>
<event>
 5   0  0.4756705E-05  0.2416160E+04  0.7818609E-02  0.8433478E-01
        2   -1    0    0  501    0  0.00000000000E+00  0.00000000000E+00  0.96138430978E+03  0.96138430979E+03  0.25500000920E-02 0. -1.
       -2   -1    0    0    0  501  0.00000000000E+00  0.00000000000E+00 -0.15180786546E+04  0.15180786546E+04  0.25500000920E-02 0.  1.
    10030    2    1    2    0    0  0.00000000000E+00  0.00000000000E+00 -0.55669434477E+03  0.24794629643E+04  0.24161597625E+04 0.  0.
        3    1    3    3  502    0  0.58243252556E+03 -0.10484727306E+04 -0.12986956980E+03  0.12063949723E+04  0.10100000352E+00 0. -1.
       -3    1    3    3    0  502 -0.58243252556E+03  0.10484727306E+04 -0.42682477497E+03  0.12730679921E+04  0.10100000352E+00 0.  1.
</event>
<event>
 5   0  0.2065692E-05  0.2454115E+04  0.7818609E-02  0.8419517E-01
       -1   -1    0    0    0  501  0.00000000000E+00  0.00000000000E+00  0.69532271598E+03  0.69532271599E+03  0.50400001928E-02 0. -1.
        1   -1    0    0  501    0  0.00000000000E+00  0.00000000000E+00 -0.21654271859E+04  0.21654271860E+04  0.50400001928E-02 0.  1.
    10030    2    1    2    0    0  0.00000000000E+00  0.00000000000E+00 -0.14701044700E+04  0.28607499019E+04  0.24541154922E+04 0.  0.
        3    1    3    3  502    0 -0.40332312834E+03  0.10157660750E+04 -0.13853600135E+04  0.17645601838E+04  0.10100000352E+00 0.  1.
       -3    1    3    3    0  502  0.40332312834E+03 -0.10157660750E+04 -0.84744456450E+02  0.10961897181E+04  0.10100000352E+00 0. -1.
</event>
<event>
 5   0  0.2149920E-05  0.2229590E+04  0.7818609E-02  0.8506212E-01
        1   -1    0    0  501    0  0.00000000000E+00  0.00000000000E+00  0.30375342170E+04  0.30375342170E+04  0.50400001928E-02 0. -1.
       -1   -1    0    0    0  501  0.00000000000E+00  0.00000000000E+00 -0.40913715916E+03  0.40913715919E+03  0.50400001928E-02 0.  1.
    10030    2    1    2    0    0  0.00000000000E+00  0.00000000000E+00  0.26283970578E+04  0.34466713762E+04  0.22295902049E+04 0.  0.
        5    1    3    3  502    0 -0.11038760230E+03  0.12776817414E+03  0.30176366595E+04  0.30223605390E+04  0.46999998093E+01 0. -1.
       -5    1    3    3    0  502  0.11038760230E+03 -0.12776817414E+03 -0.38923960165E+03  0.42431083719E+03  0.46999998093E+01 0.  1.
</event>
<event>
 5   0  0.2090039E-05  0.2407721E+04  0.7818609E-02  0.8436618E-01
        1   -1    0    0  501    0  0.00000000000E+00  0.00000000000E+00  0.19329872904E+04  0.19329872904E+04  0.50400001928E-02 0. -1.
       -1   -1    0    0    0  501  0.00000000000E+00  0.00000000000E+00 -0.74976206461E+03  0.74976206463E+03  0.50400001928E-02 0.  1.
    10030    2    1    2    0    0  0.00000000000E+00  0.00000000000E+00  0.11832252257E+04  0.26827493550E+04  0.24077213640E+04 0.  0.
        1    1    3    3  502    0 -0.25470048401E+02  0.10835798385E+04  0.11753727143E+04  0.15988417705E+04  0.50400001928E-02 0. -1.
       -1    1    3    3    0  502  0.25470048401E+02 -0.10835798385E+04  0.78525114479E+01  0.10839075845E+04  0.50400001928E-02 0.  1.
</event>
<event>
 5   0  0.2090039E-05  0.2281533E+04  0.7818609E-02  0.8485238E-01
       -1   -1    0    0    0  501  0.00000000000E+00  0.00000000000E+00  0.81991070773E+03  0.81991070775E+03  0.50400001928E-02 0.  1.
        1   -1    0    0  501    0  0.00000000000E+00  0.00000000000E+00 -0.15871829817E+04  0.15871829817E+04  0.50400001928E-02 0. -1.
    10030    2    1    2    0    0  0.00000000000E+00  0.00000000000E+00 -0.76727227393E+03  0.24070936894E+04  0.22815331002E+04 0.  0.
        1    1    3    3  502    0  0.88014589885E+03 -0.20953574434E+03 -0.11167031629E+04  0.14372153581E+04  0.50400001928E-02 0. -1.
       -1    1    3    3    0  502 -0.88014589885E+03  0.20953574434E+03  0.34943088897E+03  0.96987833135E+03  0.50400001928E-02 0.  1.
</event>
<event>
 5   0  0.4756705E-05  0.2451842E+04  0.7818609E-02  0.8420346E-01
        2   -1    0    0  501    0  0.00000000000E+00  0.00000000000E+00  0.16615023100E+04  0.16615023100E+04  0.25500000920E-02 0. -1.
       -2   -1    0    0    0  501  0.00000000000E+00  0.00000000000E+00 -0.90453246864E+03  0.90453246864E+03  0.25500000920E-02 0.  1.
    10030    2    1    2    0    0  0.00000000000E+00  0.00000000000E+00  0.75696984140E+03  0.25660347787E+04  0.24518423980E+04 0.  0.
        3    1    3    3  502    0 -0.44350458093E+03  0.94989166709E+03 -0.28663930364E+03  0.10868084436E+04  0.10100000352E+00 0.  1.
       -3    1    3    3    0  502  0.44350458093E+03 -0.94989166709E+03  0.10436091450E+04  0.14792263351E+04  0.10100000352E+00 0. -1.
</event>
<event>
 5   0  0.2090039E-05  0.2370108E+04  0.7818609E-02  0.8450780E-01
        1   -1    0    0  501    0  0.00000000000E+00  0.00000000000E+00  0.11593654723E+04  0.11593654723E+04  0.50400001928E-02 0.  1.
       -1   -1    0    0    0  501  0.00000000000E+00  0.00000000000E+00 -0.12113114620E+04  0.12113114620E+04  0.50400001928E-02 0. -1.
    10030    2    1    2    0    0  0.00000000000E+00  0.00000000000E+00 -0.51945989731E+02  0.23706769343E+04  0.23701077489E+04 0.  0.
        1    1    3    3  502    0 -0.52859110936E+03 -0.71723729941E+03  0.75556910143E+03  0.11682134101E+04  0.50400001928E-02 0.  1.
       -1    1    3    3    0  502  0.52859110936E+03  0.71723729941E+03 -0.80751509116E+03  0.12024635242E+04  0.50400001928E-02 0. -1.
</event>
<event>
 5   0  0.2139556E-05  0.2196496E+04  0.7818609E-02  0.8519888E-01
        1   -1    0    0  501    0  0.00000000000E+00  0.00000000000E+00  0.17663042435E+04  0.17663042435E+04  0.50400001928E-02 0. -1.
       -1   -1    0    0    0  501  0.00000000000E+00  0.00000000000E+00 -0.68286557135E+03  0.68286557137E+03  0.50400001928E-02 0.  1.
    10030    2    1    2    0    0  0.00000000000E+00  0.00000000000E+00  0.10834386721E+04  0.24491698148E+04  0.21964957149E+04 0.  0.
        2    1    3    3  502    0 -0.92565188069E+03  0.50663484547E+03  0.20234161924E+03  0.10744544670E+04  0.25500000920E-02 0. -1.
       -2    1    3    3    0  502  0.92565188069E+03 -0.50663484547E+03  0.88109705286E+03  0.13747153478E+04  0.25500000920E-02 0.  1.
</event>
<event>
 5   0  0.2149920E-05  0.2402157E+04  0.7818609E-02  0.8438696E-01
       -1   -1    0    0    0  501  0.00000000000E+00  0.00000000000E+00  0.99672559756E+03  0.99672559757E+03  0.50400001928E-02 0.  1.
        1   -1    0    0  501    0  0.00000000000E+00  0.00000000000E+00 -0.14473288746E+04  0.14473288746E+04  0.50400001928E-02 0. -1.
    10030    2    1    2    0    0  0.00000000000E+00  0.00000000000E+00 -0.45060327705E+03  0.24440544722E+04  0.24021571451E+04 0.  0.
        5    1    3    3  502    0  0.70737086642E+03 -0.96501517557E+03 -0.33171948577E+03  0.12416471878E+04  0.46999998093E+01 0. -1.
       -5    1    3    3    0  502 -0.70737086642E+03  0.96501517557E+03 -0.11888379128E+03  0.12024072844E+04  0.46999998093E+01 0.  1.
</event>
<event>
 5   0  0.4664127E-05  0.2234827E+04  0.7818609E-02  0.8504070E-01
        2   -1    0    0  501    0  0.00000000000E+00  0.00000000000E+00  0.12705657272E+04  0.12705657272E+04  0.25500000920E-02 0.  1.
       -2   -1    0    0    0  501  0.00000000000E+00  0.00000000000E+00 -0.98272238191E+03  0.98272238192E+03  0.25500000920E-02 0. -1.
    10030    2    1    2    0    0  0.00000000000E+00  0.00000000000E+00  0.28784334533E+03  0.22532881092E+04  0.22348274008E+04 0.  0.
        4    1    3    3  502    0 -0.54483084853E+03  0.81917099682E+03 -0.39029463587E+03  0.10584012903E+04  0.12699999809E+01 0. -1.
       -4    1    3    3    0  502  0.54483084853E+03 -0.81917099682E+03  0.67813798121E+03  0.11948868189E+04  0.12699999809E+01 0.  1.
</event>
<event>
 5   0  0.4756705E-05  0.2375487E+04  0.7818609E-02  0.8448738E-01
       -2   -1    0    0    0  501  0.00000000000E+00  0.00000000000E+00  0.80363278353E+03  0.80363278354E+03  0.25500000920E-02 0. -1.
        2   -1    0    0  501    0  0.00000000000E+00  0.00000000000E+00 -0.17554472185E+04  0.17554472185E+04  0.25500000920E-02 0.  1.
    10030    2    1    2    0    0  0.00000000000E+00  0.00000000000E+00 -0.95181443494E+03  0.25590800020E+04  0.23754872633E+04 0.  0.
        3    1    3    3  502    0  0.19119468174E+03  0.23403133817E+03  0.76152338828E+03  0.81929479106E+03  0.10100000352E+00 0. -1.
       -3    1    3    3    0  502 -0.19119468174E+03 -0.23403133817E+03 -0.17133378232E+04  0.17397852110E+04  0.10100000352E+00 0.  1.
</event>
<event>
 5   0  0.2057599E-05  0.2244787E+04  0.7818609E-02  0.8500015E-01
        1   -1    0    0  501    0  0.00000000000E+00  0.00000000000E+00  0.27849290365E+04  0.27849290365E+04  0.50400001928E-02 0. -1.
       -1   -1    0    0    0  501  0.00000000000E+00  0.00000000000E+00 -0.45235168941E+03  0.45235168943E+03  0.50400001928E-02 0.  1.
    10030    2    1    2    0    0  0.00000000000E+00  0.00000000000E+00  0.23325773471E+04  0.32372807260E+04  0.22447871655E+04 0.  0.
        4    1    3    3  502    0 -0.38272612127E+03  0.27332925831E+03 -0.30339767895E+03  0.55967841824E+03  0.12699999809E+01 0.  1.
       -4    1    3    3    0  502  0.38272612127E+03 -0.27332925831E+03  0.26359750261E+04  0.26776023077E+04  0.12699999809E+01 0. -1.
</event>
<event>
 5   0  0.2139556E-05  0.2392103E+04  0.7818609E-02  0.8442466E-01
        1   -1    0    0  501    0  0.00000000000E+00  0.00000000000E+00  0.95507798476E+03  0.95507798477E+03  0.50400001928E-02 0.  1.
       -1   -1    0    0    0  501  0.00000000000E+00  0.00000000000E+00 -0.14978249242E+04  0.14978249242E+04  0.50400001928E-02 0. -1.
    10030    2    1    2    0    0  0.00000000000E+00  0.00000000000E+00 -0.54274693947E+03  0.24529029090E+04  0.23921033508E+04 0.  0.
        2    1    3    3  502    0  0.75640381817E+01 -0.10365977030E+04  0.34040396188E+03  0.10910851799E+04  0.25500000920E-02 0.  1.
       -2    1    3    3    0  502 -0.75640381817E+01  0.10365977030E+04 -0.88315090135E+03  0.13618177291E+04  0.25500000920E-02 0. -1.
</event>
<event>
 5   0  0.2057599E-05  0.1921265E+04  0.7818609E-02  0.8644343E-01
        1   -1    0    0  501    0  0.00000000000E+00  0.00000000000E+00  0.63320442425E+03  0.63320442427E+03  0.50400001928E-02 0.  1.
       -1   -1    0    0    0  501  0.00000000000E+00  0.00000000000E+00 -0.14573727255E+04  0.14573727255E+04  0.50400001928E-02 0. -1.
    10030    2    1    2    0    0  0.00000000000E+00  0.00000000000E+00 -0.82416830124E+03  0.20905771498E+04  0.19212650599E+04 0.  0.
        4    1    3    3  502    0  0.19285177398E+02 -0.11379707861E+03 -0.14497995200E+04  0.14543871404E+04  0.12699999809E+01 0. -1.
       -4    1    3    3    0  502 -0.19285177398E+02  0.11379707861E+03  0.62563121877E+03  0.63619000933E+03  0.12699999809E+01 0.  1.
</event>
<event>
 5   0  0.2090039E-05  0.2444661E+04  0.7818609E-02  0.8422970E-01
       -1   -1    0    0    0  501  0.00000000000E+00  0.00000000000E+00  0.13904200858E+04  0.13904200858E+04  0.50400001928E-02 0. -1.
        1   -1    0    0  501    0  0.00000000000E+00  0.00000000000E+00 -0.10745613645E+04  0.10745613645E+04  0.50400001928E-02 0.  1.
    10030    2    1    2    0    0  0.00000000000E+00  0.00000000000E+00  0.31585872132E+03  0.24649814503E+04  0.24446608801E+04 0.  0.
        1    1    3    3  502    0  0.48870469035E+03 -0.87686677566E+03  0.86112437449E+03  0.13225969927E+04  0.50400001928E-02 0. -1.
       -1    1    3    3    0  502 -0.48870469035E+03  0.87686677566E+03 -0.54526565316E+03  0.11423844577E+04  0.50400001928E-02 0.  1.
</event>
<event>
 5   0  0.1672125E-05  0.2371649E+04  0.7818609E-02  0.8450194E-01
        3   -1    0    0  501    0  0.00000000000E+00  0.00000000000E+00  0.10847289063E+04  0.10847289110E+04  0.10100000352E+00 0. -1.
       -3   -1    0    0    0  501  0.00000000000E+00  0.00000000000E+00 -0.12963425890E+04  0.12963425929E+04  0.10100000352E+00 0.  1.
    10030    2    1    2    0    0  0.00000000000E+00  0.00000000000E+00 -0.21161368265E+03  0.23810715039E+04  0.23716494589E+04 0.  0.
        3    1    3    3  502    0  0.56403264628E+03  0.98113624413E+03  0.24974572610E+03  0.11589366219E+04  0.10100000352E+00 0.  1.
       -3    1    3    3    0  502 -0.56403264628E+03 -0.98113624413E+03 -0.46135940874E+03  0.12221348820E+04  0.10100000352E+00 0. -1.
</event>
<event>
 5   0  0.2057599E-05  0.2424519E+04  0.7818609E-02  0.8430381E-01
        1   -1    0    0  501    0  0.00000000000E+00  0.00000000000E+00  0.10682914394E+04  0.10682914394E+04  0.50400001928E-02 0. -1.
       -1   -1    0    0    0  501  0.00000000000E+00  0.00000000000E+00 -0.13756290687E+04  0.13756290687E+04  0.50400001928E-02 0.  1.
    10030    2    1    2    0    0  0.00000000000E+00  0.00000000000E+00 -0.30733762930E+03  0.24439205081E+04  0.24245187216E+04 0.  0.
        4    1    3    3  502    0 -0.23869887690E+03  0.12065703998E+02  0.10443063943E+04  0.10713077023E+04  0.12699999809E+01 0. -1.
       -4    1    3    3    0  502  0.23869887690E+03 -0.12065703998E+02 -0.13516440236E+04  0.13726128057E+04  0.12699999809E+01 0.  1.
</event>
<event>
 5   0  0.4664127E-05  0.2293821E+04  0.7818609E-02  0.8480361E-01
        2   -1    0    0  501    0  0.00000000000E+00  0.00000000000E+00  0.26229740307E+04  0.26229740307E+04  0.25500000920E-02 0.  1.
       -2   -1    0    0    0  501  0.00000000000E+00  0.00000000000E+00 -0.50149327432E+03  0.50149327432E+03  0.25500000920E-02 0. -1.
    10030    2    1    2    0    0  0.00000000000E+00  0.00000000000E+00  0.21214807563E+04  0.31244673050E+04  0.22938211221E+04 0.  0.
        4    1    3    3  502    0 -0.59294261624E+03  0.43974168171E+03 -0.13486607994E+03  0.75042932059E+03  0.12699999809E+01 0. -1.
       -4    1    3    3    0  502  0.59294261624E+03 -0.43974168171E+03  0.22563468363E+04  0.23740379844E+04  0.12699999809E+01 0.  1.
</event>
<event>
 5   0  0.4664127E-05  0.2406595E+04  0.7818609E-02  0.8437039E-01
       -2   -1    0    0    0  501  0.00000000000E+00  0.00000000000E+00  0.82876238486E+03  0.82876238486E+03  0.25500000920E-02 0. -1.
        2   -1    0    0  501    0  0.00000000000E+00  0.00000000000E+00 -0.17470928766E+04  0.17470928766E+04  0.25500000920E-02 0.  1.
    10030    2    1    2    0    0  0.00000000000E+00  0.00000000000E+00 -0.91833049173E+03  0.25758552615E+04  0.24065949879E+04 0.  0.
        4    1    3    3  502    0  0.10491852802E+04 -0.57447703441E+03 -0.59916870580E+03  0.13378409345E+04  0.12699999809E+01 0. -1.
       -4    1    3    3    0  502 -0.10491852802E+04  0.57447703441E+03 -0.31916178593E+03  0.12380143269E+04  0.12699999809E+01 0.  1.
</event>
<event>
 5   0  0.2090039E-05  0.2342228E+04  0.7818609E-02  0.8461455E-01
        1   -1    0    0  501    0  0.00000000000E+00  0.00000000000E+00  0.16681062991E+04  0.16681062991E+04  0.50400001928E-02 0. -1.
       -1   -1    0    0    0  501  0.00000000000E+00  0.00000000000E+00 -0.82219431808E+03  0.82219431809E+03  0.50400001928E-02 0.  1.
    10030    2    1    2    0    0  0.00000000000E+00  0.00000000000E+00  0.84591198100E+03  0.24903006172E+04  0.23422275902E+04 0.  0.
        1    1    3    3  502    0  0.23044653579E+03 -0.10691125047E+03  0.16384583575E+04  0.16580354069E+04  0.50400001928E-02 0. -1.
       -1    1    3    3    0  502 -0.23044653579E+03  0.10691125047E+03 -0.79254637648E+03  0.83226521027E+03  0.50400001928E-02 0.  1.
</event>
<event>
 5   0  0.2057599E-05  0.2159258E+04  0.7818609E-02  0.8535580E-01
        1   -1    0    0  501    0  0.00000000000E+00  0.00000000000E+00  0.29014229678E+04  0.29014229678E+04  0.50400001928E-02 0.  1.
       -1   -1    0    0    0  501  0.00000000000E+00  0.00000000000E+00 -0.40173344752E+03  0.40173344755E+03  0.50400001928E-02 0. -1.
    10030    2    1    2    0    0  0.00000000000E+00  0.00000000000E+00  0.24996895203E+04  0.33031564153E+04  0.21592578833E+04 0.  0.
        4    1    3    3  502    0  0.85306438906E+03 -0.31920934215E+03  0.36313057927E+03  0.98055029779E+03  0.12699999809E+01 0. -1.
       -4    1    3    3    0  502 -0.85306438906E+03  0.31920934215E+03  0.21365589410E+04  0.23226061176E+04  0.12699999809E+01 0.  1.
</event>
<event>
 5   0  0.4664127E-05  0.1835350E+04  0.7818609E-02  0.8687723E-01
       -2   -1    0    0    0  501  0.00000000000E+00  0.00000000000E+00  0.73917473702E+03  0.73917473702E+03  0.25500000920E-02 0. -1.
        2   -1    0    0  501    0  0.00000000000E+00  0.00000000000E+00 -0.11392807510E+04  0.11392807510E+04  0.25500000920E-02 0.  1.
    10030    2    1    2    0    0  0.00000000000E+00  0.00000000000E+00 -0.40010601399E+03  0.18784554880E+04  0.18353501568E+04 0.  0.
        4    1    3    3  502    0  0.20898831205E+03  0.43849788567E+03  0.59680141887E+03  0.76949987445E+03  0.12699999809E+01 0. -1.
       -4    1    3    3    0  502 -0.20898831205E+03 -0.43849788567E+03 -0.99690743286E+03  0.11089556136E+04  0.12699999809E+01 0.  1.
</event>
<event>
 5   0  0.4664127E-05  0.2411277E+04  0.7818609E-02  0.8435294E-01
       -2   -1    0    0    0  501  0.00000000000E+00  0.00000000000E+00  0.55404457597E+03  0.55404457598E+03  0.25500000920E-02 0. -1.
        2   -1    0    0  501    0  0.00000000000E+00  0.00000000000E+00 -0.26235506509E+04  0.26235506509E+04  0.25500000920E-02 0.  1.
    10030    2    1    2    0    0  0.00000000000E+00  0.00000000000E+00 -0.20695060750E+04  0.31775952269E+04  0.24112768468E+04 0.  0.
        4    1    3    3  502    0 -0.61919275652E+03  0.80190232206E+03 -0.17351320220E+03  0.10278888306E+04  0.12699999809E+01 0. -1.
       -4    1    3    3    0  502  0.61919275652E+03 -0.80190232206E+03 -0.18959928728E+04  0.21497063963E+04  0.12699999809E+01 0.  1.
</event>
<event>
 5   0  0.4713971E-05  0.2409580E+04  0.7818609E-02  0.8435926E-01
        2   -1    0    0  501    0  0.00000000000E+00  0.00000000000E+00  0.11845251559E+04  0.11845251559E+04  0.25500000920E-02 0.  1.
       -2   -1    0    0    0  501  0.00000000000E+00  0.00000000000E+00 -0.12254011844E+04  0.12254011844E+04  0.25500000920E-02 0. -1.
    10030    2    1    2    0    0  0.00000000000E+00  0.00000000000E+00 -0.40876028576E+02  0.24099263403E+04  0.24095796554E+04 0.  0.
        5    1    3    3  502    0 -0.90776723138E+03 -0.74721857668E+03  0.24250567210E+03  0.12005032439E+04  0.46999998093E+01 0.  1.
       -5    1    3    3    0  502  0.90776723138E+03  0.74721857668E+03 -0.28338170067E+03  0.12094230963E+04  0.46999998093E+01 0. -1.
</event>
<event>
 5   0  0.4856882E-05  0.2399807E+04  0.7818609E-02  0.8439576E-01
        2   -1    0    0  501    0  0.00000000000E+00  0.00000000000E+00  0.13198393424E+04  0.13198393424E+04  0.25500000920E-02 0.  1.
       -2   -1    0    0    0  501  0.00000000000E+00  0.00000000000E+00 -0.10908664461E+04  0.10908664461E+04  0.25500000920E-02 0. -1.
    10030    2    1    2    0    0  0.00000000000E+00  0.00000000000E+00  0.22897289622E+03  0.24107057885E+04  0.23998070363E+04 0.  0.
        1    1    3    3  502    0 -0.67929196383E+03  0.93770888223E+03  0.43061062304E+03  0.12353789008E+04  0.50400001928E-02 0. -1.
       -1    1    3    3    0  502  0.67929196383E+03 -0.93770888223E+03 -0.20163772681E+03  0.11753268877E+04  0.50400001928E-02 0.  1.
</event>
<event>
 5   0  0.2149920E-05  0.2328022E+04  0.7818609E-02  0.8466954E-01
       -1   -1    0    0    0  501  0.00000000000E+00  0.00000000000E+00  0.90525259267E+03  0.90525259268E+03  0.50400001928E-02 0. -1.
        1   -1    0    0  501    0  0.00000000000E+00  0.00000000000E+00 -0.14967336004E+04  0.14967336004E+04  0.50400001928E-02 0.  1.
    10030    2    1    2    0    0  0.00000000000E+00  0.00000000000E+00 -0.59148100773E+03  0.24019861931E+04  0.23280223129E+04 0.  0.
        5    1    3    3  502    0  0.79416839640E+03 -0.62838300787E+03 -0.88784700592E+03  0.13467973279E+04  0.46999998093E+01 0.  1.
       -5    1    3    3    0  502 -0.79416839640E+03  0.62838300787E+03  0.29636599819E+03  0.10551888652E+04  0.46999998093E+01 0. -1.
</event>
<event>
 5   0  0.4713971E-05  0.2404325E+04  0.7818609E-02  0.8437886E-01
        2   -1    0    0  501    0  0.00000000000E+00  0.00000000000E+00  0.28048857376E+04  0.28048857376E+04  0.25500000920E-02 0.  1.
       -2   -1    0    0    0  501  0.00000000000E+00  0.00000000000E+00 -0.51524175289E+03  0.51524175290E+03  0.25500000920E-02 0. -1.
    10030    2    1    2    0    0  0.00000000000E+00  0.00000000000E+00  0.22896439848E+04  0.33201274905E+04  0.24043246404E+04 0.  0.
        5    1    3    3  502    0 -0.62880726202E+02 -0.50623101822E+03  0.26480032737E+04  0.26966956182E+04  0.46999998093E+01 0.  1.
       -5    1    3    3    0  502  0.62880726202E+02  0.50623101822E+03 -0.35835928894E+03  0.62343187238E+03  0.46999998093E+01 0. -1.
</event>
<event>
 5   0  0.2139556E-05  0.2357536E+04  0.7818609E-02  0.8455575E-01
       -1   -1    0    0    0  501  0.00000000000E+00  0.00000000000E+00  0.10085247553E+04  0.10085247553E+04  0.50400001928E-02 0. -1.
        1   -1    0    0  501    0  0.00000000000E+00  0.00000000000E+00 -0.13777492656E+04  0.13777492656E+04  0.50400001928E-02 0.  1.
    10030    2    1    2    0    0  0.00000000000E+00  0.00000000000E+00 -0.36922451025E+03  0.23862740209E+04  0.23575362063E+04 0.  0.
        2    1    3    3  502    0 -0.21686841048E+02  0.10328898136E+03  0.10037327183E+04  0.10092662198E+04  0.25500000920E-02 0. -1.
       -2    1    3    3    0  502  0.21686841048E+02 -0.10328898136E+03 -0.13729572285E+04  0.13770078011E+04  0.25500000920E-02 0.  1.
</event>
<event>
 5   0  0.4713971E-05  0.2381027E+04  0.7818609E-02  0.8446641E-01
        2   -1    0    0  501    0  0.00000000000E+00  0.00000000000E+00  0.15291256756E+04  0.15291256756E+04  0.25500000920E-02 0. -1.
       -2   -1    0    0    0  501  0.00000000000E+00  0.00000000000E+00 -0.92688401226E+03  0.92688401226E+03  0.25500000920E-02 0.  1.
    10030    2    1    2    0    0  0.00000000000E+00  0.00000000000E+00  0.60224166331E+03  0.24560096878E+04  0.23810267881E+04 0.  0.
        5    1    3    3  502    0  0.23086906134E+03 -0.96170887807E+03 -0.38240543473E+03  0.10603963863E+04  0.46999998093E+01 0.  1.
       -5    1    3    3    0  502 -0.23086906134E+03  0.96170887807E+03  0.98464709804E+03  0.13956133015E+04  0.46999998093E+01 0. -1.
</event>
<event>
 5   0  0.2065692E-05  0.2417127E+04  0.7818609E-02  0.8433119E-01
        1   -1    0    0  501    0  0.00000000000E+00  0.00000000000E+00  0.10232842783E+04  0.10232842783E+04  0.50400001928E-02 0. -1.
       -1   -1    0    0    0  501  0.00000000000E+00  0.00000000000E+00 -0.14273903951E+04  0.14273903951E+04  0.50400001928E-02 0.  1.
    10030    2    1    2    0    0  0.00000000000E+00  0.00000000000E+00 -0.40410611687E+03  0.24506746734E+04  0.24171273448E+04 0.  0.
        3    1    3    3  502    0 -0.72233566292E+03  0.79926697117E+03 -0.75740489283E+03  0.13169125571E+04  0.10100000352E+00 0.  1.
       -3    1    3    3    0  502  0.72233566292E+03 -0.79926697117E+03  0.35329877596E+03  0.11337621163E+04  0.10100000352E+00 0. -1.
</event>
<event>
 5   0  0.2057599E-05  0.1780571E+04  0.7818609E-02  0.8716700E-01
        1   -1    0    0  501    0  0.00000000000E+00  0.00000000000E+00  0.10099835884E+04  0.10099835884E+04  0.50400001928E-02 0.  1.
       -1   -1    0    0    0  501  0.00000000000E+00  0.00000000000E+00 -0.78477366346E+03  0.78477366348E+03  0.50400001928E-02 0. -1.
    10030    2    1    2    0    0  0.00000000000E+00  0.00000000000E+00  0.22520992494E+03  0.17947572519E+04  0.17805712799E+04 0.  0.
        4    1    3    3  502    0  0.77999834079E+02  0.13245833026E+03 -0.77129523818E+03  0.78646496470E+03  0.12699999809E+01 0. -1.
       -4    1    3    3    0  502 -0.77999834079E+02 -0.13245833026E+03  0.99650516312E+03  0.10082922872E+04  0.12699999809E+01 0.  1.
</event>
<event>
 5   0  0.2065692E-05  0.2081238E+04  0.7818609E-02  0.8569553E-01
       -1   -1    0    0    0  501  0.00000000000E+00  0.00000000000E+00  0.11804952743E+04  0.11804952743E+04  0.50400001928E-02 0.  1.
        1   -1    0    0  501    0  0.00000000000E+00  0.00000000000E+00 -0.91731677520E+03  0.91731677522E+03  0.50400001928E-02 0. -1.
    10030    2    1    2    0    0  0.00000000000E+00  0.00000000000E+00  0.26317849905E+03  0.20978120495E+04  0.20812382066E+04 0.  0.
        3    1    3    3  502    0 -0.26330304792E+03 -0.80556917077E+02 -0.87993117714E+03  0.92200694066E+03  0.10100000352E+00 0. -1.
       -3    1    3    3    0  502  0.26330304792E+03  0.80556917077E+02  0.11431096762E+04  0.11758051088E+04  0.10100000352E+00 0.  1.
</event>
<event>
 5   0  0.2065692E-05  0.2430620E+04  0.7818609E-02  0.8428128E-01
        1   -1    0    0  501    0  0.00000000000E+00  0.00000000000E+00  0.19389220336E+04  0.19389220336E+04  0.50400001928E-02 0. -1.
       -1   -1    0    0    0  501  0.00000000000E+00  0.00000000000E+00 -0.76175242724E+03  0.76175242726E+03  0.50400001928E-02 0.  1.
    10030    2    1    2    0    0  0.00000000000E+00  0.00000000000E+00  0.11771696064E+04  0.27006744609E+04  0.24306201393E+04 0.  0.
        3    1    3    3  502    0 -0.11313545982E+04  0.14802225906E+03  0.10535324944E+04  0.15529985651E+04  0.10100000352E+00 0. -1.
       -3    1    3    3    0  502  0.11313545982E+04 -0.14802225906E+03  0.12363711196E+03  0.11476758958E+04  0.10100000352E+00 0.  1.
</event>
<event>
 5   0  0.4914005E-05  0.2324232E+04  0.7818609E-02  0.8468428E-01
       -2   -1    0    0    0  501  0.00000000000E+00  0.00000000000E+00  0.12874571665E+04  0.12874571665E+04  0.25500000920E-02 0.  1.
        2   -1    0    0  501    0  0.00000000000E+00  0.00000000000E+00 -0.10489770774E+04  0.10489770774E+04  0.25500000920E-02 0. -1.
    10030    2    1    2    0    0  0.00000000000E+00  0.00000000000E+00  0.23848008917E+03  0.23364342439E+04  0.23242315339E+04 0.  0.
        2    1    3    3  502    0  0.77206245936E+03 -0.18848286079E+03 -0.73309525905E+03  0.10812191678E+04  0.25500000920E-02 0. -1.
       -2    1    3    3    0  502 -0.77206245936E+03  0.18848286079E+03  0.97157534822E+03  0.12552150761E+04  0.25500000920E-02 0.  1.
</event>
<event>
 5   0  0.2149920E-05  0.2404300E+04  0.7818609E-02  0.8437895E-01
        1   -1    0    0  501    0  0.00000000000E+00  0.00000000000E+00  0.13433569469E+04  0.13433569469E+04  0.50400001928E-02 0.  1.
       -1   -1    0    0    0  501  0.00000000000E+00  0.00000000000E+00 -0.10757861989E+04  0.10757861989E+04  0.50400001928E-02 0. -1.
    10030    2    1    2    0    0  0.00000000000E+00  0.00000000000E+00  0.26757074802E+03  0.24191431459E+04  0.24043002007E+04 0.  0.
        5    1    3    3  502    0 -0.50141299470E+03 -0.49018541210E+01 -0.96552709614E+03  0.10879814717E+04  0.46999998093E+01 0. -1.
       -5    1    3    3    0  502  0.50141299470E+03  0.49018541210E+01  0.12330978442E+04  0.13311616741E+04  0.46999998093E+01 0.  1.
</event>
<event>
 5   0  0.2139556E-05  0.2414797E+04  0.7818609E-02  0.8433985E-01
       -1   -1    0    0    0  501  0.00000000000E+00  0.00000000000E+00  0.83868246731E+03  0.83868246733E+03  0.50400001928E-02 0. -1.
        1   -1    0    0  501    0  0.00000000000E+00  0.00000000000E+00 -0.17382152589E+04  0.17382152589E+04  0.50400001928E-02 0.  1.
    10030    2    1    2    0    0  0.00000000000E+00  0.00000000000E+00 -0.89953279159E+03  0.25768977262E+04  0.24147966060E+04 0.  0.
        2    1    3    3  502    0  0.43511579022E+02  0.10357037178E+04  0.21084997097E+03  0.10578436363E+04  0.25500000920E-02 0. -1.
       -2    1    3    3    0  502 -0.43511579022E+02 -0.10357037178E+04 -0.11103827626E+04  0.15190540899E+04  0.25500000920E-02 0.  1.
</event>
<event>
 5   0  0.2065692E-05  0.2241638E+04  0.7818609E-02  0.8501295E-01
       -1   -1    0    0    0  501  0.00000000000E+00  0.00000000000E+00  0.46140921167E+03  0.46140921170E+03  0.50400001928E-02 0. -1.
        1   -1    0    0  501    0  0.00000000000E+00  0.00000000000E+00 -0.27226050493E+04  0.27226050493E+04  0.50400001928E-02 0.  1.
    10030    2    1    2    0    0  0.00000000000E+00  0.00000000000E+00 -0.22611958376E+04  0.31840142610E+04  0.22416378383E+04 0.  0.
        3    1    3    3  502    0 -0.93877188158E+03 -0.43869701043E+03 -0.17373704474E+04  0.20229196214E+04  0.10100000352E+00 0.  1.
       -3    1    3    3    0  502  0.93877188158E+03  0.43869701043E+03 -0.52382539018E+03  0.11610946396E+04  0.10100000352E+00 0. -1.
</event>
<event>
 5   0  0.4856882E-05  0.2391168E+04  0.7818609E-02  0.8442818E-01
        2   -1    0    0  501    0  0.00000000000E+00  0.00000000000E+00  0.14635532110E+04  0.14635532110E+04  0.25500000920E-02 0. -1.
       -2   -1    0    0    0  501  0.00000000000E+00  0.00000000000E+00 -0.97667857208E+03  0.97667857208E+03  0.25500000920E-02 0.  1.
    10030    2    1    2    0    0  0.00000000000E+00  0.00000000000E+00  0.48687463890E+03  0.24402317831E+04  0.23911679659E+04 0.  0.
        1    1    3    3  502    0 -0.81485239828E+03  0.85817659398E+03  0.69740460135E+02  0.11854599231E+04  0.50400001928E-02 0.  1.
       -1    1    3    3    0  502  0.81485239828E+03 -0.85817659398E+03  0.41713417876E+03  0.12547718600E+04  0.50400001928E-02 0. -1.
</event>
<event>
 5   0  0.4914005E-05  0.2389598E+04  0.7818609E-02  0.8443408E-01
        2   -1    0    0  501    0  0.00000000000E+00  0.00000000000E+00  0.17704048897E+04  0.17704048897E+04  0.25500000920E-02 0.  1.
       -2   -1    0    0    0  501  0.00000000000E+00  0.00000000000E+00 -0.80633791594E+03  0.80633791595E+03  0.25500000920E-02 0. -1.
    10030    2    1    2    0    0  0.00000000000E+00  0.00000000000E+00  0.96406697377E+03  0.25767428057E+04  0.23895979487E+04 0.  0.
        2    1    3    3  502    0 -0.94973455906E+03  0.76779519445E+02  0.12593596281E+04  0.15792015388E+04  0.25500000920E-02 0.  1.
       -2    1    3    3    0  502  0.94973455906E+03 -0.76779519445E+02 -0.29529265437E+03  0.99754126682E+03  0.25500000920E-02 0. -1.
</event>
<event>
 5   0  0.2065692E-05  0.2425067E+04  0.7818609E-02  0.8430178E-01
        1   -1    0    0  501    0  0.00000000000E+00  0.00000000000E+00  0.19022262827E+04  0.19022262827E+04  0.50400001928E-02 0.  1.
       -1   -1    0    0    0  501  0.00000000000E+00  0.00000000000E+00 -0.77290337810E+03  0.77290337811E+03  0.50400001928E-02 0. -1.
    10030    2    1    2    0    0  0.00000000000E+00  0.00000000000E+00  0.11293229046E+04  0.26751296608E+04  0.24250666958E+04 0.  0.
        3    1    3    3  502    0 -0.10338952524E+03 -0.85140991996E+03 -0.38083750658E+03  0.93841646531E+03  0.10100000352E+00 0. -1.
       -3    1    3    3    0  502  0.10338952524E+03  0.85140991996E+03  0.15101604112E+04  0.17367131955E+04  0.10100000352E+00 0.  1.
</event>
<event>
 5   0  0.4856882E-05  0.2396638E+04  0.7818609E-02  0.8440763E-01
        2   -1    0    0  501    0  0.00000000000E+00  0.00000000000E+00  0.15049339856E+04  0.15049339856E+04  0.25500000920E-02 0. -1.
       -2   -1    0    0    0  501  0.00000000000E+00  0.00000000000E+00 -0.95417407974E+03  0.95417407975E+03  0.25500000920E-02 0.  1.
    10030    2    1    2    0    0  0.00000000000E+00  0.00000000000E+00  0.55075990586E+03  0.24591080654E+04  0.23966384799E+04 0.  0.
        1    1    3    3  502    0  0.36281050696E+03 -0.96319319060E+03 -0.35429029984E+03  0.10885284576E+04  0.50400001928E-02 0.  1.
       -1    1    3    3    0  502 -0.36281050696E+03  0.96319319060E+03  0.90505020569E+03  0.13705796078E+04  0.50400001928E-02 0. -1.
</event>
<event>
 5   0  0.2090039E-05  0.2285613E+04  0.7818609E-02  0.8483615E-01
       -1   -1    0    0    0  501  0.00000000000E+00  0.00000000000E+00  0.57855682699E+03  0.57855682701E+03  0.50400001928E-02 0. -1.
        1   -1    0    0  501    0  0.00000000000E+00  0.00000000000E+00 -0.22573526452E+04  0.22573526453E+04  0.50400001928E-02 0.  1.
    10030    2    1    2    0    0  0.00000000000E+00  0.00000000000E+00 -0.16787958183E+04  0.28359094723E+04  0.22856130765E+04 0.  0.
        1    1    3    3  502    0  0.46169996954E+03 -0.15286297276E+03  0.44374352696E+03  0.65836332526E+03  0.50400001928E-02 0. -1.
       -1    1    3    3    0  502 -0.46169996954E+03  0.15286297276E+03 -0.21225393452E+04  0.21775461470E+04  0.50400001928E-02 0.  1.
</event>
<event>
 5   0  0.2065692E-05  0.2333768E+04  0.7818609E-02  0.8464725E-01
        1   -1    0    0  501    0  0.00000000000E+00  0.00000000000E+00  0.13890711848E+04  0.13890711848E+04  0.50400001928E-02 0.  1.
       -1   -1    0    0    0  501  0.00000000000E+00  0.00000000000E+00 -0.98023657559E+03  0.98023657560E+03  0.50400001928E-02 0. -1.
    10030    2    1    2    0    0  0.00000000000E+00  0.00000000000E+00  0.40883460923E+03  0.23693077604E+04  0.23337680960E+04 0.  0.
        3    1    3    3  502    0  0.72124918545E+03 -0.84892020752E+03 -0.14836905185E+03  0.11237790228E+04  0.10100000352E+00 0. -1.
       -3    1    3    3    0  502 -0.72124918545E+03  0.84892020752E+03  0.55720366108E+03  0.12455287377E+04  0.10100000352E+00 0.  1.
</event>
<event>
 5   0  0.4664127E-05  0.2408908E+04  0.7818609E-02  0.8436176E-01
       -2   -1    0    0    0  501  0.00000000000E+00  0.00000000000E+00  0.63231574005E+03  0.63231574005E+03  0.25500000920E-02 0.  1.
        2   -1    0    0  501    0  0.00000000000E+00  0.00000000000E+00 -0.22942808583E+04  0.22942808583E+04  0.25500000920E-02 0. -1.
    10030    2    1    2    0    0  0.00000000000E+00  0.00000000000E+00 -0.16619651182E+04  0.29265965983E+04  0.24089083825E+04 0.  0.
        4    1    3    3  502    0 -0.65236438266E+03 -0.14433889983E+03  0.38652955590E+03  0.77189359128E+03  0.12699999809E+01 0.  1.
       -4    1    3    3    0  502  0.65236438266E+03  0.14433889983E+03 -0.20484946741E+04  0.21547030071E+04  0.12699999809E+01 0. -1.
</event>
<event>
 5   0  0.4713971E-05  0.2538113E+04  0.7818609E-02  0.8389532E-01
        2   -1    0    0  501    0  0.00000000000E+00  0.00000000000E+00  0.14809715132E+04  0.14809715132E+04  0.25500000920E-02 0.  1.
       -2   -1    0    0    0  501  0.00000000000E+00  0.00000000000E+00 -0.10874651300E+04  0.10874651300E+04  0.25500000920E-02 0. -1.
    10030    2    1    2    0    0  0.00000000000E+00  0.00000000000E+00  0.39350638320E+03  0.25684366431E+04  0.25381133773E+04 0.  0.
        5    1    3    3  502    0 -0.40425331253E+03  0.82778920346E+03  0.10800080664E+04  0.14195404959E+04  0.46999998093E+01 0.  1.
       -5    1    3    3    0  502  0.40425331253E+03 -0.82778920346E+03 -0.68650168319E+03  0.11488961472E+04  0.46999998093E+01 0. -1.
</event>
<event>
 5   0  0.4856882E-05  0.2463754E+04  0.7818609E-02  0.8416013E-01
        2   -1    0    0  501    0  0.00000000000E+00  0.00000000000E+00  0.17159337129E+04  0.17159337129E+04  0.25500000920E-02 0.  1.
       -2   -1    0    0    0  501  0.00000000000E+00  0.00000000000E+00 -0.88437059979E+03  0.88437059980E+03  0.25500000920E-02 0. -1.
    10030    2    1    2    0    0  0.00000000000E+00  0.00000000000E+00  0.83156311312E+03  0.26003043127E+04  0.24637543115E+04 0.  0.
        1    1    3    3  502    0  0.97165858775E+03 -0.55311836208E+03 -0.13004794546E+03  0.11255988636E+04  0.50400001928E-02 0. -1.
       -1    1    3    3    0  502 -0.97165858775E+03  0.55311836208E+03  0.96161105858E+03  0.14747054491E+04  0.50400001928E-02 0.  1.
</event>
<event>
 5   0  0.4713971E-05  0.2400778E+04  0.7818609E-02  0.8439212E-01
        2   -1    0    0  501    0  0.00000000000E+00  0.00000000000E+00  0.13172257567E+04  0.13172257567E+04  0.25500000920E-02 0.  1.
       -2   -1    0    0    0  501  0.00000000000E+00  0.00000000000E+00 -0.10939153598E+04  0.10939153598E+04  0.25500000920E-02 0. -1.
    10030    2    1    2    0    0  0.00000000000E+00  0.00000000000E+00  0.22331039687E+03  0.24111411165E+04  0.24007777803E+04 0.  0.
        5    1    3    3  502    0  0.12177771190E+03 -0.64528326770E+03 -0.89751618785E+03  0.11121050778E+04  0.46999998093E+01 0. -1.
       -5    1    3    3    0  502 -0.12177771190E+03  0.64528326770E+03  0.11208265847E+04  0.12990360386E+04  0.46999998093E+01 0.  1.
</event>
<event>
 5   0  0.4664127E-05  0.2404815E+04  0.7818609E-02  0.8437703E-01
        2   -1    0    0  501    0  0.00000000000E+00  0.00000000000E+00  0.14608998265E+04  0.14608998265E+04  0.25500000920E-02 0.  1.
       -2   -1    0    0    0  501  0.00000000000E+00  0.00000000000E+00 -0.98965327429E+03  0.98965327429E+03  0.25500000920E-02 0. -1.
    10030    2    1    2    0    0  0.00000000000E+00  0.00000000000E+00  0.47124655225E+03  0.24505531008E+04  0.24048154164E+04 0.  0.
        4    1    3    3  502    0 -0.72637057705E+03 -0.65588988112E+02  0.12097686259E+04  0.14126067647E+04  0.12699999809E+01 0.  1.
       -4    1    3    3    0  502  0.72637057705E+03  0.65588988112E+02 -0.73852207364E+03  0.10379463361E+04  0.12699999809E+01 0. -1.
</event>
<event>
 5   0  0.2065692E-05  0.2373044E+04  0.7818609E-02  0.8449665E-01
        1   -1    0    0  501    0  0.00000000000E+00  0.00000000000E+00  0.10197986256E+04  0.10197986256E+04  0.50400001928E-02 0.  1.
       -1   -1    0    0    0  501  0.00000000000E+00  0.00000000000E+00 -0.13805020095E+04  0.13805020096E+04  0.50400001928E-02 0. -1.
    10030    2    1    2    0    0  0.00000000000E+00  0.00000000000E+00 -0.36070338398E+03  0.24003006351E+04  0.23730436591E+04 0.  0.
        3    1    3    3  502    0 -0.84638308078E+03 -0.61011218164E+03  0.39114496979E+03  0.11142690838E+04  0.10100000352E+00 0.  1.
       -3    1    3    3    0  502  0.84638308078E+03  0.61011218164E+03 -0.75184835377E+03  0.12860315513E+04  0.10100000352E+00 0. -1.
</event>
<event>
 5   0  0.2065692E-05  0.2394025E+04  0.7818609E-02  0.8441744E-01
       -1   -1    0    0    0  501  0.00000000000E+00  0.00000000000E+00  0.19168818531E+04  0.19168818532E+04  0.50400001928E-02 0.  1.
        1   -1    0    0  501    0  0.00000000000E+00  0.00000000000E+00 -0.74748441429E+03  0.74748441431E+03  0.50400001928E-02 0. -1.
    10030    2    1    2    0    0  0.00000000000E+00  0.00000000000E+00  0.11693974389E+04  0.26643662675E+04  0.23940253209E+04 0.  0.
        3    1    3    3  502    0  0.67382027081E+03  0.17598406246E+03 -0.49880795905E+03  0.85662917170E+03  0.10100000352E+00 0. -1.
       -3    1    3    3    0  502 -0.67382027081E+03 -0.17598406246E+03  0.16682053979E+04  0.18077370958E+04  0.10100000352E+00 0.  1.
</event>
<event>
 5   0  0.4756705E-05  0.2370761E+04  0.7818609E-02  0.8450532E-01
        2   -1    0    0  501    0  0.00000000000E+00  0.00000000000E+00  0.17936606813E+04  0.17936606813E+04  0.25500000920E-02 0. -1.
       -2   -1    0    0    0  501  0.00000000000E+00  0.00000000000E+00 -0.78338498112E+03  0.78338498112E+03  0.25500000920E-02 0.  1.
    10030    2    1    2    0    0  0.00000000000E+00  0.00000000000E+00  0.10102757002E+04  0.25770456624E+04  0.23707609234E+04 0.  0.
        3    1    3    3  502    0  0.18693505724E+03  0.11641872927E+04  0.37267366634E+03  0.12365930777E+04  0.10100000352E+00 0.  1.
       -3    1    3    3    0  502 -0.18693505724E+03 -0.11641872927E+04  0.63760203382E+03  0.13404525847E+04  0.10100000352E+00 0. -1.
</event>
<event>
 5   0  0.4664127E-05  0.2399187E+04  0.7818609E-02  0.8439808E-01
        2   -1    0    0  501    0  0.00000000000E+00  0.00000000000E+00  0.12871867778E+04  0.12871867778E+04  0.25500000920E-02 0. -1.
       -2   -1    0    0    0  501  0.00000000000E+00  0.00000000000E+00 -0.11179607035E+04  0.11179607035E+04  0.25500000920E-02 0.  1.
    10030    2    1    2    0    0  0.00000000000E+00  0.00000000000E+00  0.16922607431E+03  0.24051474813E+04  0.23991867253E+04 0.  0.
        4    1    3    3  502    0  0.37472129548E+03 -0.99746991481E+03 -0.46780989797E+03  0.11637052865E+04  0.12699999809E+01 0.  1.
       -4    1    3    3    0  502 -0.37472129548E+03  0.99746991481E+03  0.63703597228E+03  0.12414421948E+04  0.12699999809E+01 0. -1.
</event>
<event>
 5   0  0.2139556E-05  0.2391081E+04  0.7818609E-02  0.8442850E-01
        1   -1    0    0  501    0  0.00000000000E+00  0.00000000000E+00  0.11412401617E+04  0.11412401617E+04  0.50400001928E-02 0. -1.
       -1   -1    0    0    0  501  0.00000000000E+00  0.00000000000E+00 -0.12524242196E+04  0.12524242196E+04  0.50400001928E-02 0.  1.
    10030    2    1    2    0    0  0.00000000000E+00  0.00000000000E+00 -0.11118405790E+03  0.23936643813E+04  0.23910807756E+04 0.  0.
        2    1    3    3  502    0 -0.55658034127E+03  0.20359506545E+02 -0.11146200737E+04  0.12460233122E+04  0.25500000920E-02 0.  1.
       -2    1    3    3    0  502  0.55658034127E+03 -0.20359506545E+02  0.10034360158E+04  0.11476410691E+04  0.25500000920E-02 0. -1.
</event>
<event>
 5   0  0.2090039E-05  0.2296423E+04  0.7818609E-02  0.8479333E-01
        1   -1    0    0  501    0  0.00000000000E+00  0.00000000000E+00  0.19931197253E+04  0.19931197253E+04  0.50400001928E-02 0. -1.
       -1   -1    0    0    0  501  0.00000000000E+00  0.00000000000E+00 -0.66147011131E+03  0.66147011133E+03  0.50400001928E-02 0.  1.
    10030    2    1    2    0    0  0.00000000000E+00  0.00000000000E+00  0.13316496140E+04  0.26545898366E+04  0.22964225452E+04 0.  0.
        1    1    3    3  502    0 -0.11081938731E+04 -0.29436706877E+03  0.73560058951E+03  0.13622972726E+04  0.50400001928E-02 0. -1.
       -1    1    3    3    0  502  0.11081938731E+04  0.29436706877E+03  0.59604902446E+03  0.12922925641E+04  0.50400001928E-02 0.  1.
</event>
<event>
 5   0  0.2139556E-05  0.2409957E+04  0.7818609E-02  0.8435785E-01
       -1   -1    0    0    0  501  0.00000000000E+00  0.00000000000E+00  0.12653093058E+04  0.12653093059E+04  0.50400001928E-02 0. -1.
        1   -1    0    0  501    0  0.00000000000E+00  0.00000000000E+00 -0.11475245231E+04  0.11475245231E+04  0.50400001928E-02 0.  1.
    10030    2    1    2    0    0  0.00000000000E+00  0.00000000000E+00  0.11778478279E+03  0.24128338289E+04  0.24099572260E+04 0.  0.
        2    1    3    3  502    0  0.11233522889E+04 -0.29784790939E+03 -0.25982658326E+03  0.11908583440E+04  0.25500000920E-02 0. -1.
       -2    1    3    3    0  502 -0.11233522889E+04  0.29784790939E+03  0.37761136605E+03  0.12219754849E+04  0.25500000920E-02 0.  1.
</event>
<event>
 5   0  0.4664127E-05  0.2185515E+04  0.7818609E-02  0.8524481E-01
       -2   -1    0    0    0  501  0.00000000000E+00  0.00000000000E+00  0.11081008965E+04  0.11081008965E+04  0.25500000920E-02 0.  1.
        2   -1    0    0  501    0  0.00000000000E+00  0.00000000000E+00 -0.10776268518E+04  0.10776268518E+04  0.25500000920E-02 0. -1.
    10030    2    1    2    0    0  0.00000000000E+00  0.00000000000E+00  0.30474044624E+02  0.21857277483E+04  0.21855152990E+04 0.  0.
        4    1    3    3  502    0 -0.28653975629E+03  0.70120897975E+03  0.80291665772E+03  0.11038459301E+04  0.12699999809E+01 0.  1.
       -4    1    3    3    0  502  0.28653975629E+03 -0.70120897975E+03 -0.77244261309E+03  0.10818818182E+04  0.12699999809E+01 0. -1.
</event>
<event>
 5   0  0.4664127E-05  0.2414379E+04  0.7818609E-02  0.8434140E-01
       -2   -1    0    0    0  501  0.00000000000E+00  0.00000000000E+00  0.51395015217E+03  0.51395015217E+03  0.25500000920E-02 0. -1.
        2   -1    0    0  501    0  0.00000000000E+00  0.00000000000E+00 -0.28355005990E+04  0.28355005990E+04  0.25500000920E-02 0.  1.
    10030    2    1    2    0    0  0.00000000000E+00  0.00000000000E+00 -0.23215504469E+04  0.33494507512E+04  0.24143785655E+04 0.  0.
        4    1    3    3  502    0 -0.56671077148E+03 -0.29536125188E+03 -0.25815862017E+04  0.26595090332E+04  0.12699999809E+01 0.  1.
       -4    1    3    3    0  502  0.56671077148E+03  0.29536125188E+03  0.26003575484E+03  0.68994171806E+03  0.12699999809E+01 0. -1.
</event>
<event>
 5   0  0.4713971E-05  0.2411233E+04  0.7818609E-02  0.8435310E-01
        2   -1    0    0  501    0  0.00000000000E+00  0.00000000000E+00  0.21069150052E+04  0.21069150052E+04  0.25500000920E-02 0.  1.
       -2   -1    0    0    0  501  0.00000000000E+00  0.00000000000E+00 -0.68987622916E+03  0.68987622917E+03  0.25500000920E-02 0. -1.
    10030    2    1    2    0    0  0.00000000000E+00  0.00000000000E+00  0.14170387761E+04  0.27967912344E+04  0.24112325304E+04 0.  0.
        5    1    3    3  502    0  0.78920494295E+03 -0.93429435575E+01 -0.34855515331E+03  0.86281198269E+03  0.46999998093E+01 0. -1.
       -5    1    3    3    0  502 -0.78920494295E+03  0.93429435575E+01  0.17655939294E+04  0.19339792517E+04  0.46999998093E+01 0.  1.
</event>
<event>
 5   0  0.2065692E-05  0.2383749E+04  0.7818609E-02  0.8445613E-01
        1   -1    0    0  501    0  0.00000000000E+00  0.00000000000E+00  0.10605975771E+04  0.10605975772E+04  0.50400001928E-02 0.  1.
       -1   -1    0    0    0  501  0.00000000000E+00  0.00000000000E+00 -0.13394007018E+04  0.13394007018E+04  0.50400001928E-02 0. -1.
    10030    2    1    2    0    0  0.00000000000E+00  0.00000000000E+00 -0.27880312462E+03  0.23999982789E+04  0.23837492646E+04 0.  0.
        3    1    3    3  502    0  0.10340115145E+04 -0.59047959676E+03 -0.86900517132E+02  0.11939001953E+04  0.10100000352E+00 0. -1.
       -3    1    3    3    0  502 -0.10340115145E+04  0.59047959676E+03 -0.19190260748E+03  0.12060980836E+04  0.10100000352E+00 0.  1.
</event>
<event>
 5   0  0.2139556E-05  0.2139026E+04  0.7818609E-02  0.8544244E-01
       -1   -1    0    0    0  501  0.00000000000E+00  0.00000000000E+00  0.82027861994E+03  0.82027861995E+03  0.50400001928E-02 0.  1.
        1   -1    0    0  501    0  0.00000000000E+00  0.00000000000E+00 -0.13944755625E+04  0.13944755625E+04  0.50400001928E-02 0. -1.
    10030    2    1    2    0    0  0.00000000000E+00  0.00000000000E+00 -0.57419694258E+03  0.22147541825E+04  0.21390264047E+04 0.  0.
        2    1    3    3  502    0  0.51911068950E+03 -0.18731780344E+03  0.66146545640E+03  0.86145250447E+03  0.25500000920E-02 0.  1.
       -2    1    3    3    0  502 -0.51911068950E+03  0.18731780344E+03 -0.12356623990E+04  0.13533016780E+04  0.25500000920E-02 0. -1.
</event>
<event>
 5   0  0.4856882E-05  0.2406536E+04  0.7818609E-02  0.8437061E-01
       -2   -1    0    0    0  501  0.00000000000E+00  0.00000000000E+00  0.14617444295E+04  0.14617444295E+04  0.25500000920E-02 0. -1.
        2   -1    0    0  501    0  0.00000000000E+00  0.00000000000E+00 -0.99049692819E+03  0.99049692820E+03  0.25500000920E-02 0.  1.
    10030    2    1    2    0    0  0.00000000000E+00  0.00000000000E+00  0.47124750128E+03  0.24522413577E+04  0.24065355740E+04 0.  0.
        1    1    3    3  502    0  0.83877160877E+03  0.57566720440E+03 -0.41917127551E+03  0.11002886440E+04  0.50400001928E-02 0.  1.
       -1    1    3    3    0  502 -0.83877160877E+03 -0.57566720440E+03  0.89041877679E+03  0.13519527137E+04  0.50400001928E-02 0. -1.
</event>
<event>
 5   0  0.2057599E-05  0.2025563E+04  0.7818609E-02  0.8594761E-01
        1   -1    0    0  501    0  0.00000000000E+00  0.00000000000E+00  0.97772384686E+03  0.97772384687E+03  0.50400001928E-02 0.  1.
       -1   -1    0    0    0  501  0.00000000000E+00  0.00000000000E+00 -0.10490966467E+04  0.10490966467E+04  0.50400001928E-02 0. -1.
    10030    2    1    2    0    0  0.00000000000E+00  0.00000000000E+00 -0.71372799871E+02  0.20268204936E+04  0.20255634369E+04 0.  0.
        4    1    3    3  502    0  0.53400791776E+03  0.24825559625E+03 -0.86016977936E+03  0.10424437441E+04  0.12699999809E+01 0. -1.
       -4    1    3    3    0  502 -0.53400791776E+03 -0.24825559625E+03  0.78879697949E+03  0.98437674955E+03  0.12699999809E+01 0.  1.
</event>
<event>
 5   0  0.4664127E-05  0.2426718E+04  0.7818609E-02  0.8429568E-01
        2   -1    0    0  501    0  0.00000000000E+00  0.00000000000E+00  0.54760657243E+03  0.54760657244E+03  0.25500000920E-02 0.  1.
       -2   -1    0    0    0  501  0.00000000000E+00  0.00000000000E+00 -0.26884991225E+04  0.26884991225E+04  0.25500000920E-02 0. -1.
    10030    2    1    2    0    0  0.00000000000E+00  0.00000000000E+00 -0.21408925501E+04  0.32361056949E+04  0.24267177747E+04 0.  0.
        4    1    3    3  502    0  0.19230035001E+03  0.10895598847E+04 -0.17346978164E+04  0.20574980666E+04  0.12699999809E+01 0. -1.
       -4    1    3    3    0  502 -0.19230035001E+03 -0.10895598847E+04 -0.40619473364E+03  0.11786076283E+04  0.12699999809E+01 0.  1.
</event>
<event>
 5   0  0.1672125E-05  0.2386789E+04  0.7818609E-02  0.8444466E-01
        3   -1    0    0  501    0  0.00000000000E+00  0.00000000000E+00  0.11442471614E+04  0.11442471659E+04  0.10100000352E+00 0. -1.
       -3   -1    0    0    0  501  0.00000000000E+00  0.00000000000E+00 -0.12446526634E+04  0.12446526675E+04  0.10100000352E+00 0.  1.
    10030    2    1    2    0    0  0.00000000000E+00  0.00000000000E+00 -0.10040550200E+03  0.23888998334E+04  0.23867888782E+04 0.  0.
        5    1    3    3  502    0 -0.46835904875E+03  0.33862949105E+03  0.99481745346E+03  0.11505276991E+04  0.46999998093E+01 0. -1.
       -5    1    3    3    0  502  0.46835904875E+03 -0.33862949105E+03 -0.10952229555E+04  0.12383721343E+04  0.46999998093E+01 0.  1.
</event>
<event>
 5   0  0.4914005E-05  0.2375705E+04  0.7818609E-02  0.8448656E-01
       -2   -1    0    0    0  501  0.00000000000E+00  0.00000000000E+00  0.73473918784E+03  0.73473918785E+03  0.25500000920E-02 0.  1.
        2   -1    0    0  501    0  0.00000000000E+00  0.00000000000E+00 -0.19204002551E+04  0.19204002551E+04  0.25500000920E-02 0. -1.
    10030    2    1    2    0    0  0.00000000000E+00  0.00000000000E+00 -0.11856610673E+04  0.26551394430E+04  0.23757047997E+04 0.  0.
        2    1    3    3  502    0  0.11252165457E+04 -0.37754384270E+03 -0.64691344985E+03  0.13517206219E+04  0.25500000920E-02 0. -1.
       -2    1    3    3    0  502 -0.11252165457E+04  0.37754384270E+03 -0.53874761743E+03  0.13034188211E+04  0.25500000920E-02 0.  1.
</event>
<event>
 5   0  0.2057599E-05  0.2387366E+04  0.7818609E-02  0.8444249E-01
       -1   -1    0    0    0  501  0.00000000000E+00  0.00000000000E+00  0.65654651169E+03  0.65654651171E+03  0.50400001928E-02 0. -1.
        1   -1    0    0  501    0  0.00000000000E+00  0.00000000000E+00 -0.21702639159E+04  0.21702639159E+04  0.50400001928E-02 0.  1.
    10030    2    1    2    0    0  0.00000000000E+00  0.00000000000E+00 -0.15137174042E+04  0.28268104277E+04  0.23873660829E+04 0.  0.
        4    1    3    3  502    0 -0.97421660871E+03 -0.64205155636E+03 -0.45836624958E+03  0.12535666849E+04  0.12699999809E+01 0. -1.
       -4    1    3    3    0  502  0.97421660871E+03  0.64205155636E+03 -0.10553511547E+04  0.15732437428E+04  0.12699999809E+01 0.  1.
</event>
<event>
 5   0  0.4664127E-05  0.2249057E+04  0.7818609E-02  0.8498283E-01
        2   -1    0    0  501    0  0.00000000000E+00  0.00000000000E+00  0.11321825639E+04  0.11321825639E+04  0.25500000920E-02 0. -1.
       -2   -1    0    0    0  501  0.00000000000E+00  0.00000000000E+00 -0.11169259018E+04  0.11169259018E+04  0.25500000920E-02 0.  1.
    10030    2    1    2    0    0  0.00000000000E+00  0.00000000000E+00  0.15256662136E+02  0.22491084658E+04  0.22490567189E+04 0.  0.
        4    1    3    3  502    0  0.93061496582E+03  0.63128045657E+03  0.94141198744E+01  0.11245663466E+04  0.12699999809E+01 0. -1.
       -4    1    3    3    0  502 -0.93061496582E+03 -0.63128045657E+03  0.58425422618E+01  0.11245421191E+04  0.12699999809E+01 0.  1.
</event>
<event>
 5   0  0.2065692E-05  0.2347765E+04  0.7818609E-02  0.8459323E-01
       -1   -1    0    0    0  501  0.00000000000E+00  0.00000000000E+00  0.20036005195E+04  0.20036005195E+04  0.50400001928E-02 0. -1.
        1   -1    0    0  501    0  0.00000000000E+00  0.00000000000E+00 -0.68776197058E+03  0.68776197060E+03  0.50400001928E-02 0.  1.
    10030    2    1    2    0    0  0.00000000000E+00  0.00000000000E+00  0.13158385489E+04  0.26913624901E+04  0.23477651003E+04 0.  0.
        3    1    3    3  502    0 -0.13475254532E+03 -0.58054081634E+02  0.19930473318E+04  0.19984409428E+04  0.10100000352E+00 0. -1.
       -3    1    3    3    0  502  0.13475254532E+03  0.58054081634E+02 -0.67720878290E+03  0.69292154729E+03  0.10100000352E+00 0.  1.
</event>
<event>
 5   0  0.4713971E-05  0.2403280E+04  0.7818609E-02  0.8438277E-01
       -2   -1    0    0    0  501  0.00000000000E+00  0.00000000000E+00  0.10480913083E+04  0.10480913083E+04  0.25500000920E-02 0.  1.
        2   -1    0    0  501    0  0.00000000000E+00  0.00000000000E+00 -0.13776836383E+04  0.13776836383E+04  0.25500000920E-02 0. -1.
    10030    2    1    2    0    0  0.00000000000E+00  0.00000000000E+00 -0.32959232998E+03  0.24257749467E+04  0.24032796317E+04 0.  0.
        5    1    3    3  502    0  0.54807136262E+03 -0.89830165650E+03  0.42079641017E+03  0.11333224578E+04  0.46999998093E+01 0. -1.
       -5    1    3    3    0  502 -0.54807136262E+03  0.89830165650E+03 -0.75038874015E+03  0.12924524889E+04  0.46999998093E+01 0.  1.
</event>
<event>
 5   0  0.4713971E-05  0.2403883E+04  0.7818609E-02  0.8438051E-01
       -2   -1    0    0    0  501  0.00000000000E+00  0.00000000000E+00  0.94788747512E+03  0.94788747512E+03  0.25500000920E-02 0. -1.
        2   -1    0    0  501    0  0.00000000000E+00  0.00000000000E+00 -0.15240879148E+04  0.15240879148E+04  0.25500000920E-02 0.  1.
    10030    2    1    2    0    0  0.00000000000E+00  0.00000000000E+00 -0.57620043968E+03  0.24719753899E+04  0.24038833960E+04 0.  0.
        5    1    3    3  502    0 -0.66687052886E+03 -0.95906881269E+03  0.29586202741E+01  0.11681438838E+04  0.46999998093E+01 0.  1.
       -5    1    3    3    0  502  0.66687052886E+03  0.95906881269E+03 -0.57915905996E+03  0.13038315062E+04  0.46999998093E+01 0. -1.
</event>
<event>
 5   0  0.4856882E-05  0.2497326E+04  0.7818609E-02  0.8403939E-01
       -2   -1    0    0    0  501  0.00000000000E+00  0.00000000000E+00  0.72619729221E+03  0.72619729221E+03  0.25500000920E-02 0.  1.
        2   -1    0    0  501    0  0.00000000000E+00  0.00000000000E+00 -0.21470191715E+04  0.21470191715E+04  0.25500000920E-02 0. -1.
    10030    2    1    2    0    0  0.00000000000E+00  0.00000000000E+00 -0.14208218793E+04  0.28732164637E+04  0.24973261771E+04 0.  0.
        1    1    3    3  502    0 -0.64525090804E+03 -0.51476329850E+03 -0.17883598249E+04  0.19696600852E+04  0.50400001928E-02 0. -1.
       -1    1    3    3    0  502  0.64525090804E+03  0.51476329850E+03  0.36753794556E+03  0.90355637858E+03  0.50400001928E-02 0.  1.
</event>
<event>
 5   0  0.2139556E-05  0.2400535E+04  0.7818609E-02  0.8439303E-01
        1   -1    0    0  501    0  0.00000000000E+00  0.00000000000E+00  0.11279262162E+04  0.11279262162E+04  0.50400001928E-02 0.  1.
       -1   -1    0    0    0  501  0.00000000000E+00  0.00000000000E+00 -0.12772488797E+04  0.12772488797E+04  0.50400001928E-02 0. -1.
    10030    2    1    2    0    0  0.00000000000E+00  0.00000000000E+00 -0.14932266353E+03  0.24051750959E+04  0.24005353536E+04 0.  0.
        2    1    3    3  502    0 -0.11564966637E+04  0.10818379579E+03 -0.37765983888E+03  0.12213988786E+04  0.25500000920E-02 0.  1.
       -2    1    3    3    0  502  0.11564966637E+04 -0.10818379579E+03  0.22833717535E+03  0.11837762172E+04  0.25500000920E-02 0. -1.
</event>
<event>
 5   0  0.2065692E-05  0.2550940E+04  0.7818609E-02  0.8385059E-01
        1   -1    0    0  501    0  0.00000000000E+00  0.00000000000E+00  0.10154762059E+04  0.10154762059E+04  0.50400001928E-02 0. -1.
       -1   -1    0    0    0  501  0.00000000000E+00  0.00000000000E+00 -0.16020307073E+04  0.16020307073E+04  0.50400001928E-02 0.  1.
    10030    2    1    2    0    0  0.00000000000E+00  0.00000000000E+00 -0.58655450144E+03  0.26175069132E+04  0.25509402693E+04 0.  0.
        3    1    3    3  502    0  0.46333728035E+03  0.24573383014E+03  0.89971313093E+03  0.10414174373E+04  0.10100000352E+00 0. -1.
       -3    1    3    3    0  502 -0.46333728035E+03 -0.24573383014E+03 -0.14862676324E+04  0.15760894758E+04  0.10100000352E+00 0.  1.
</event>
<event>
 5   0  0.2065692E-05  0.2171773E+04  0.7818609E-02  0.8530270E-01
        1   -1    0    0  501    0  0.00000000000E+00  0.00000000000E+00  0.13113619717E+04  0.13113619717E+04  0.50400001928E-02 0. -1.
       -1   -1    0    0    0  501  0.00000000000E+00  0.00000000000E+00 -0.89917902089E+03  0.89917902090E+03  0.50400001928E-02 0.  1.
    10030    2    1    2    0    0  0.00000000000E+00  0.00000000000E+00  0.41218295079E+03  0.22105409926E+04  0.21717727079E+04 0.  0.
        3    1    3    3  502    0  0.98476183217E+03 -0.27675383717E+03  0.57701488091E+03  0.11744337936E+04  0.10100000352E+00 0.  1.
       -3    1    3    3    0  502 -0.98476183217E+03  0.27675383717E+03 -0.16483193011E+03  0.10361071990E+04  0.10100000352E+00 0. -1.
</event>
<event>
 5   0  0.4664127E-05  0.2431515E+04  0.7818609E-02  0.8427798E-01
        2   -1    0    0  501    0  0.00000000000E+00  0.00000000000E+00  0.12119382185E+04  0.12119382185E+04  0.25500000920E-02 0.  1.
       -2   -1    0    0    0  501  0.00000000000E+00  0.00000000000E+00 -0.12195883298E+04  0.12195883298E+04  0.25500000920E-02 0. -1.
    10030    2    1    2    0    0  0.00000000000E+00  0.00000000000E+00 -0.76501112690E+01  0.24315265483E+04  0.24315145138E+04 0.  0.
        4    1    3    3  502    0 -0.99924523588E+02  0.11671655044E+04 -0.32910173320E+03  0.12167866653E+04  0.12699999809E+01 0. -1.
       -4    1    3    3    0  502  0.99924523588E+02 -0.11671655044E+04  0.32145162193E+03  0.12147398830E+04  0.12699999809E+01 0.  1.
</event>
<event>
 5   0  0.2149920E-05  0.2389547E+04  0.7818609E-02  0.8443427E-01
        1   -1    0    0  501    0  0.00000000000E+00  0.00000000000E+00  0.17952908199E+04  0.17952908199E+04  0.50400001928E-02 0.  1.
       -1   -1    0    0    0  501  0.00000000000E+00  0.00000000000E+00 -0.79512677688E+03  0.79512677690E+03  0.50400001928E-02 0. -1.
    10030    2    1    2    0    0  0.00000000000E+00  0.00000000000E+00  0.10001640430E+04  0.25904175968E+04  0.23895470728E+04 0.  0.
        5    1    3    3  502    0 -0.48439804363E+03 -0.97319793469E+03 -0.37273972176E+02  0.10877348591E+04  0.46999998093E+01 0. -1.
       -5    1    3    3    0  502  0.48439804363E+03  0.97319793469E+03  0.10374380152E+04  0.15026827377E+04  0.46999998093E+01 0.  1.
</event>
<event>
 5   0  0.2057599E-05  0.2289854E+04  0.7818609E-02  0.8481932E-01
        1   -1    0    0  501    0  0.00000000000E+00  0.00000000000E+00  0.18515246074E+04  0.18515246074E+04  0.50400001928E-02 0. -1.
       -1   -1    0    0    0  501  0.00000000000E+00  0.00000000000E+00 -0.70798862879E+03  0.70798862881E+03  0.50400001928E-02 0.  1.
    10030    2    1    2    0    0  0.00000000000E+00  0.00000000000E+00  0.11435359786E+04  0.25595132362E+04  0.22898544652E+04 0.  0.
        4    1    3    3  502    0 -0.95018333584E+03  0.48844961180E+03  0.10318536600E+04  0.14853130928E+04  0.12699999809E+01 0. -1.
       -4    1    3    3    0  502  0.95018333584E+03 -0.48844961180E+03  0.11168231857E+03  0.10742001434E+04  0.12699999809E+01 0.  1.
</event>
<event>
 5   0  0.2139556E-05  0.2388306E+04  0.7818609E-02  0.8443895E-01
       -1   -1    0    0    0  501  0.00000000000E+00  0.00000000000E+00  0.11360876804E+04  0.11360876804E+04  0.50400001928E-02 0. -1.
        1   -1    0    0  501    0  0.00000000000E+00  0.00000000000E+00 -0.12551861490E+04  0.12551861490E+04  0.50400001928E-02 0.  1.
    10030    2    1    2    0    0  0.00000000000E+00  0.00000000000E+00 -0.11909846861E+03  0.23912738294E+04  0.23883061114E+04 0.  0.
        2    1    3    3  502    0 -0.85914579105E+03 -0.72773813916E+03  0.33877325090E+03  0.11757982841E+04  0.25500000920E-02 0. -1.
       -2    1    3    3    0  502  0.85914579105E+03  0.72773813916E+03 -0.45787171951E+03  0.12154755452E+04  0.25500000920E-02 0.  1.
</event>
<event>
 5   0  0.4756705E-05  0.2257851E+04  0.7818609E-02  0.8494728E-01
       -2   -1    0    0    0  501  0.00000000000E+00  0.00000000000E+00  0.14778457245E+04  0.14778457245E+04  0.25500000920E-02 0.  1.
        2   -1    0    0  501    0  0.00000000000E+00  0.00000000000E+00 -0.86238520477E+03  0.86238520478E+03  0.25500000920E-02 0. -1.
    10030    2    1    2    0    0  0.00000000000E+00  0.00000000000E+00  0.61546051971E+03  0.23402309293E+04  0.22578505599E+04 0.  0.
        3    1    3    3  502    0 -0.87637631627E+03 -0.41048213251E+02  0.10441111183E+04  0.13637772696E+04  0.10100000352E+00 0.  1.
       -3    1    3    3    0  502  0.87637631627E+03  0.41048213251E+02 -0.42865059861E+03  0.97645365964E+03  0.10100000352E+00 0. -1.
</event>
<event>
 5   0  0.4664127E-05  0.2399890E+04  0.7818609E-02  0.8439545E-01
       -2   -1    0    0    0  501  0.00000000000E+00  0.00000000000E+00  0.11365102615E+04  0.11365102615E+04  0.25500000920E-02 0.  1.
        2   -1    0    0  501    0  0.00000000000E+00  0.00000000000E+00 -0.12669201977E+04  0.12669201977E+04  0.25500000920E-02 0. -1.
    10030    2    1    2    0    0  0.00000000000E+00  0.00000000000E+00 -0.13040993625E+03  0.24034304592E+04  0.23998898352E+04 0.  0.
        4    1    3    3  502    0  0.22697572887E+03  0.31820074506E+03 -0.12013814846E+04  0.12633640726E+04  0.12699999809E+01 0. -1.
       -4    1    3    3    0  502 -0.22697572887E+03 -0.31820074506E+03  0.10709715483E+04  0.11400663866E+04  0.12699999809E+01 0.  1.
</event>
<event>
 5   0  0.4856882E-05  0.2390288E+04  0.7818609E-02  0.8443149E-01
        2   -1    0    0  501    0  0.00000000000E+00  0.00000000000E+00  0.17813585240E+04  0.17813585240E+04  0.25500000920E-02 0.  1.
       -2   -1    0    0    0  501  0.00000000000E+00  0.00000000000E+00 -0.80184246666E+03  0.80184246666E+03  0.25500000920E-02 0. -1.
    10030    2    1    2    0    0  0.00000000000E+00  0.00000000000E+00  0.97951605733E+03  0.25832009906E+04  0.23902877759E+04 0.  0.
        1    1    3    3  502    0  0.11203063208E+03  0.11331206813E+04  0.88218355700E+03  0.14404031273E+04  0.50400001928E-02 0.  1.
       -1    1    3    3    0  502 -0.11203063208E+03 -0.11331206813E+04  0.97332500326E+02  0.11427978634E+04  0.50400001928E-02 0. -1.
</event>
<event>
 5   0  0.4756705E-05  0.2364855E+04  0.7818609E-02  0.8452780E-01
        2   -1    0    0  501    0  0.00000000000E+00  0.00000000000E+00  0.23182885751E+04  0.23182885751E+04  0.25500000920E-02 0. -1.
       -2   -1    0    0    0  501  0.00000000000E+00  0.00000000000E+00 -0.60308894276E+03  0.60308894276E+03  0.25500000920E-02 0.  1.
    10030    2    1    2    0    0  0.00000000000E+00  0.00000000000E+00  0.17151996323E+04  0.29213775178E+04  0.23648545036E+04 0.  0.
        3    1    3    3  502    0 -0.11885739718E+02  0.82497038208E+03  0.19039306555E+04  0.20750106875E+04  0.10100000352E+00 0. -1.
       -3    1    3    3    0  502  0.11885739718E+02 -0.82497038208E+03 -0.18873102322E+03  0.84636683030E+03  0.10100000352E+00 0.  1.
</event>
<event>
 5   0  0.2149920E-05  0.2036532E+04  0.7818609E-02  0.8589729E-01
        1   -1    0    0  501    0  0.00000000000E+00  0.00000000000E+00  0.96496768829E+03  0.96496768830E+03  0.50400001928E-02 0. -1.
       -1   -1    0    0    0  501  0.00000000000E+00  0.00000000000E+00 -0.10745080503E+04  0.10745080503E+04  0.50400001928E-02 0.  1.
    10030    2    1    2    0    0  0.00000000000E+00  0.00000000000E+00 -0.10954036197E+03  0.20394757386E+04  0.20365319043E+04 0.  0.
        5    1    3    3  502    0 -0.64151491409E+03  0.66294197940E+03 -0.48645012755E+03  0.10429234246E+04  0.46999998093E+01 0.  1.
       -5    1    3    3    0  502  0.64151491409E+03 -0.66294197940E+03  0.37690976557E+03  0.99655231395E+03  0.46999998093E+01 0. -1.
</event>
<event>
 5   0  0.2057599E-05  0.2464595E+04  0.7818609E-02  0.8415709E-01
        1   -1    0    0  501    0  0.00000000000E+00  0.00000000000E+00  0.14953930259E+04  0.14953930259E+04  0.50400001928E-02 0. -1.
       -1   -1    0    0    0  501  0.00000000000E+00  0.00000000000E+00 -0.10154900755E+04  0.10154900755E+04  0.50400001928E-02 0.  1.
    10030    2    1    2    0    0  0.00000000000E+00  0.00000000000E+00  0.47990295038E+03  0.25108831015E+04  0.24645947147E+04 0.  0.
        4    1    3    3  502    0 -0.22019905457E+02  0.42443063442E+03  0.14183644142E+04  0.14806706129E+04  0.12699999809E+01 0. -1.
       -4    1    3    3    0  502  0.22019905457E+02 -0.42443063442E+03 -0.93846146379E+03  0.10302124886E+04  0.12699999809E+01 0.  1.
</event>
<event>
 5   0  0.2149920E-05  0.2374356E+04  0.7818609E-02  0.8449167E-01
        1   -1    0    0  501    0  0.00000000000E+00  0.00000000000E+00  0.16704989797E+04  0.16704989797E+04  0.50400001928E-02 0. -1.
       -1   -1    0    0    0  501  0.00000000000E+00  0.00000000000E+00 -0.84369528015E+03  0.84369528017E+03  0.50400001928E-02 0.  1.
    10030    2    1    2    0    0  0.00000000000E+00  0.00000000000E+00  0.82680369955E+03  0.25141942599E+04  0.23743564220E+04 0.  0.
        5    1    3    3  502    0  0.30758443703E+03 -0.35533346636E+02  0.16269802153E+04  0.16561876451E+04  0.46999998093E+01 0. -1.
       -5    1    3    3    0  502 -0.30758443703E+03  0.35533346636E+02 -0.80017651579E+03  0.85800661480E+03  0.46999998093E+01 0.  1.
</event>
<event>
 5   0  0.2090039E-05  0.2428617E+04  0.7818609E-02  0.8428867E-01
        1   -1    0    0  501    0  0.00000000000E+00  0.00000000000E+00  0.17824071793E+04  0.17824071793E+04  0.50400001928E-02 0. -1.
       -1   -1    0    0    0  501  0.00000000000E+00  0.00000000000E+00 -0.82727767934E+03  0.82727767936E+03  0.50400001928E-02 0.  1.
    10030    2    1    2    0    0  0.00000000000E+00  0.00000000000E+00  0.95512949995E+03  0.26096848587E+04  0.24286174462E+04 0.  0.
        1    1    3    3  502    0  0.10706710730E+04 -0.41171176389E+03  0.90564078002E+03  0.14615157698E+04  0.50400001928E-02 0. -1.
       -1    1    3    3    0  502 -0.10706710730E+04  0.41171176389E+03  0.49488719932E+02  0.11481690888E+04  0.50400001928E-02 0.  1.
</event>
<event>
 5   0  0.4664127E-05  0.2466613E+04  0.7818609E-02  0.8414977E-01
       -2   -1    0    0    0  501  0.00000000000E+00  0.00000000000E+00  0.10173818282E+04  0.10173818282E+04  0.25500000920E-02 0.  1.
        2   -1    0    0  501    0  0.00000000000E+00  0.00000000000E+00 -0.14950579861E+04  0.14950579861E+04  0.25500000920E-02 0. -1.
    10030    2    1    2    0    0  0.00000000000E+00  0.00000000000E+00 -0.47767615791E+03  0.25124398144E+04  0.24666129224E+04 0.  0.
        4    1    3    3  502    0 -0.16027524195E+02 -0.59518189675E+03 -0.13389715639E+04  0.14653821459E+04  0.12699999809E+01 0. -1.
       -4    1    3    3    0  502  0.16027524195E+02  0.59518189675E+03  0.86129540601E+03  0.10470576684E+04  0.12699999809E+01 0.  1.
</event>
<event>
 5   0  0.4856882E-05  0.2366722E+04  0.7818609E-02  0.8452068E-01
        2   -1    0    0  501    0  0.00000000000E+00  0.00000000000E+00  0.10625234242E+04  0.10625234242E+04  0.25500000920E-02 0. -1.
       -2   -1    0    0    0  501  0.00000000000E+00  0.00000000000E+00 -0.13179412162E+04  0.13179412162E+04  0.25500000920E-02 0.  1.
    10030    2    1    2    0    0  0.00000000000E+00  0.00000000000E+00 -0.25541779207E+03  0.23804646404E+04  0.23667221332E+04 0.  0.
        1    1    3    3  502    0 -0.70249599537E+03  0.93095996748E+03 -0.32926291691E+03  0.12118585532E+04  0.50400001928E-02 0. -1.
       -1    1    3    3    0  502  0.70249599537E+03 -0.93095996748E+03  0.73845124836E+02  0.11686060872E+04  0.50400001928E-02 0.  1.
</event>
<event>
 5   0  0.4914005E-05  0.2446814E+04  0.7818609E-02  0.8422182E-01
        2   -1    0    0  501    0  0.00000000000E+00  0.00000000000E+00  0.15259485575E+04  0.15259485575E+04  0.25500000920E-02 0.  1.
       -2   -1    0    0    0  501  0.00000000000E+00  0.00000000000E+00 -0.98084834175E+03  0.98084834175E+03  0.25500000920E-02 0. -1.
    10030    2    1    2    0    0  0.00000000000E+00  0.00000000000E+00  0.54510021576E+03  0.25067968993E+04  0.24468135297E+04 0.  0.
        2    1    3    3  502    0  0.69553273096E+03  0.33984842655E+03 -0.69801832008E+03  0.10423494174E+04  0.25500000920E-02 0. -1.
       -2    1    3    3    0  502 -0.69553273096E+03 -0.33984842655E+03  0.12431185358E+04  0.14644474818E+04  0.25500000920E-02 0.  1.
</event>
<event>
 5   0  0.2065692E-05  0.2335115E+04  0.7818609E-02  0.8464203E-01
        1   -1    0    0  501    0  0.00000000000E+00  0.00000000000E+00  0.11787870942E+04  0.11787870942E+04  0.50400001928E-02 0. -1.
       -1   -1    0    0    0  501  0.00000000000E+00  0.00000000000E+00 -0.11564350709E+04  0.11564350709E+04  0.50400001928E-02 0.  1.
    10030    2    1    2    0    0  0.00000000000E+00  0.00000000000E+00  0.22352023263E+02  0.23352221652E+04  0.23351151894E+04 0.  0.
        3    1    3    3  502    0 -0.84313513015E+03  0.51976643266E+03 -0.60704057653E+03  0.11616937049E+04  0.10100000352E+00 0.  1.
       -3    1    3    3    0  502  0.84313513015E+03 -0.51976643266E+03  0.62939259979E+03  0.11735284603E+04  0.10100000352E+00 0. -1.
</event>
<event>
 5   0  0.4756705E-05  0.2362914E+04  0.7818609E-02  0.8453520E-01
       -2   -1    0    0    0  501  0.00000000000E+00  0.00000000000E+00  0.76258202273E+03  0.76258202273E+03  0.25500000920E-02 0.  1.
        2   -1    0    0  501    0  0.00000000000E+00  0.00000000000E+00 -0.18304134091E+04  0.18304134091E+04  0.25500000920E-02 0. -1.
    10030    2    1    2    0    0  0.00000000000E+00  0.00000000000E+00 -0.10678313864E+04  0.25929954318E+04  0.23629137605E+04 0.  0.
        3    1    3    3  502    0  0.30357396783E+03  0.11328697257E+04 -0.37760514988E+03  0.12321268720E+04  0.10100000352E+00 0. -1.
       -3    1    3    3    0  502 -0.30357396783E+03 -0.11328697257E+04 -0.69022623648E+03  0.13608685598E+04  0.10100000352E+00 0.  1.
</event>
<event>
 5   0  0.4713971E-05  0.2388818E+04  0.7818609E-02  0.8443702E-01
        2   -1    0    0  501    0  0.00000000000E+00  0.00000000000E+00  0.23727313026E+04  0.23727313026E+04  0.25500000920E-02 0.  1.
       -2   -1    0    0    0  501  0.00000000000E+00  0.00000000000E+00 -0.60125349792E+03  0.60125349793E+03  0.25500000920E-02 0. -1.
    10030    2    1    2    0    0  0.00000000000E+00  0.00000000000E+00  0.17714778047E+04  0.29739848005E+04  0.23888181139E+04 0.  0.
        5    1    3    3  502    0  0.74407959636E+03  0.56156677331E+03 -0.43888572228E+02  0.93325236853E+03  0.46999998093E+01 0. -1.
       -5    1    3    3    0  502 -0.74407959636E+03 -0.56156677331E+03  0.18153663769E+04  0.20407324320E+04  0.46999998093E+01 0.  1.
</event>
<event>
 5   0  0.4856882E-05  0.2340814E+04  0.7818609E-02  0.8462000E-01
        2   -1    0    0  501    0  0.00000000000E+00  0.00000000000E+00  0.19722555826E+04  0.19722555826E+04  0.25500000920E-02 0.  1.
       -2   -1    0    0    0  501  0.00000000000E+00  0.00000000000E+00 -0.69456146939E+03  0.69456146940E+03  0.25500000920E-02 0. -1.
    10030    2    1    2    0    0  0.00000000000E+00  0.00000000000E+00  0.12776941132E+04  0.26668170520E+04  0.23408141622E+04 0.  0.
        1    1    3    3  502    0  0.46833606179E+03  0.71853377423E+03 -0.26844556299E+03  0.89871712558E+03  0.50400001928E-02 0. -1.
       -1    1    3    3    0  502 -0.46833606179E+03 -0.71853377423E+03  0.15461396762E+04  0.17680999265E+04  0.50400001928E-02 0.  1.
</event>
<event>
 5   0  0.2065692E-05  0.2465379E+04  0.7818609E-02  0.8415424E-01
        1   -1    0    0  501    0  0.00000000000E+00  0.00000000000E+00  0.14332261255E+04  0.14332261255E+04  0.50400001928E-02 0.  1.
       -1   -1    0    0    0  501  0.00000000000E+00  0.00000000000E+00 -0.10602115808E+04  0.10602115808E+04  0.50400001928E-02 0. -1.
    10030    2    1    2    0    0  0.00000000000E+00  0.00000000000E+00  0.37301454463E+03  0.24934377063E+04  0.24653786210E+04 0.  0.
        3    1    3    3  502    0 -0.69635224274E+03  0.10002465238E+04  0.37333479919E+03  0.12746679712E+04  0.10100000352E+00 0. -1.
       -3    1    3    3    0  502  0.69635224274E+03 -0.10002465238E+04 -0.32025456239E+00  0.12187697351E+04  0.10100000352E+00 0.  1.
</event>
<event>
 5   0  0.2057599E-05  0.2415190E+04  0.7818609E-02  0.8433838E-01
       -1   -1    0    0    0  501  0.00000000000E+00  0.00000000000E+00  0.95776873206E+03  0.95776873208E+03  0.50400001928E-02 0.  1.
        1   -1    0    0  501    0  0.00000000000E+00  0.00000000000E+00 -0.15225863462E+04  0.15225863462E+04  0.50400001928E-02 0. -1.
    10030    2    1    2    0    0  0.00000000000E+00  0.00000000000E+00 -0.56481761414E+03  0.24803550783E+04  0.24151899257E+04 0.  0.
        4    1    3    3  502    0  0.26364196384E+03  0.11781692670E+04 -0.30946493270E+03  0.12463386636E+04  0.12699999809E+01 0. -1.
       -4    1    3    3    0  502 -0.26364196384E+03 -0.11781692670E+04 -0.25535268144E+03  0.12340164147E+04  0.12699999809E+01 0.  1.
</event>
<event>
 5   0  0.2065692E-05  0.2292052E+04  0.7818609E-02  0.8481061E-01
       -1   -1    0    0    0  501  0.00000000000E+00  0.00000000000E+00  0.81683040097E+03  0.81683040098E+03  0.50400001928E-02 0. -1.
        1   -1    0    0  501    0  0.00000000000E+00  0.00000000000E+00 -0.16078926201E+04  0.16078926202E+04  0.50400001928E-02 0.  1.
    10030    2    1    2    0    0  0.00000000000E+00  0.00000000000E+00 -0.79106221918E+03  0.24247230211E+04  0.22920519834E+04 0.  0.
        3    1    3    3  502    0  0.39175963384E+03 -0.83405640032E+03 -0.11163291045E+04  0.14475207665E+04  0.10100000352E+00 0.  1.
       -3    1    3    3    0  502 -0.39175963384E+03  0.83405640032E+03  0.32526688533E+03  0.97720225466E+03  0.10100000352E+00 0. -1.
</event>
<event>
 5   0  0.4664127E-05  0.1858475E+04  0.7818609E-02  0.8675806E-01
        2   -1    0    0  501    0  0.00000000000E+00  0.00000000000E+00  0.28289024900E+04  0.28289024900E+04  0.25500000920E-02 0.  1.
       -2   -1    0    0    0  501  0.00000000000E+00  0.00000000000E+00 -0.30523596207E+03  0.30523596208E+03  0.25500000920E-02 0. -1.
    10030    2    1    2    0    0  0.00000000000E+00  0.00000000000E+00  0.25236665279E+04  0.31341384521E+04  0.18584754754E+04 0.  0.
        4    1    3    3  502    0  0.23899918383E+03  0.84513575743E+03  0.75002706169E+03  0.11549533603E+04  0.12699999809E+01 0. -1.
       -4    1    3    3    0  502 -0.23899918383E+03 -0.84513575743E+03  0.17736394663E+04  0.19791850918E+04  0.12699999809E+01 0.  1.
</event>
<event>
 5   0  0.4713971E-05  0.2344765E+04  0.7818609E-02  0.8460477E-01
        2   -1    0    0  501    0  0.00000000000E+00  0.00000000000E+00  0.15436009231E+04  0.15436009231E+04  0.25500000920E-02 0. -1.
       -2   -1    0    0    0  501  0.00000000000E+00  0.00000000000E+00 -0.89043796760E+03  0.89043796760E+03  0.25500000920E-02 0.  1.
    10030    2    1    2    0    0  0.00000000000E+00  0.00000000000E+00  0.65316295549E+03  0.24340388907E+04  0.23447651215E+04 0.  0.
        5    1    3    3  502    0 -0.62373087841E+03  0.18094845763E+03 -0.68663170440E+03  0.94512842539E+03  0.46999998093E+01 0.  1.
       -5    1    3    3    0  502  0.62373087841E+03 -0.18094845763E+03  0.13397946599E+04  0.14889104653E+04  0.46999998093E+01 0. -1.
</event>
<event>
 5   0  0.4914005E-05  0.2493142E+04  0.7818609E-02  0.8405433E-01
        2   -1    0    0  501    0  0.00000000000E+00  0.00000000000E+00  0.10144132110E+04  0.10144132110E+04  0.25500000920E-02 0. -1.
       -2   -1    0    0    0  501  0.00000000000E+00  0.00000000000E+00 -0.15318603010E+04  0.15318603010E+04  0.25500000920E-02 0.  1.
    10030    2    1    2    0    0  0.00000000000E+00  0.00000000000E+00 -0.51744708992E+03  0.25462735120E+04  0.24931420551E+04 0.  0.
        2    1    3    3  502    0 -0.11699475110E+04  0.42996221091E+03 -0.24119249296E+03  0.12695741412E+04  0.25500000920E-02 0. -1.
       -2    1    3    3    0  502  0.11699475110E+04 -0.42996221091E+03 -0.27625459696E+03  0.12766993709E+04  0.25500000920E-02 0.  1.
</event>
<event>
 5   0  0.4756705E-05  0.2369808E+04  0.7818609E-02  0.8450894E-01
        2   -1    0    0  501    0  0.00000000000E+00  0.00000000000E+00  0.18606903152E+04  0.18606903152E+04  0.25500000920E-02 0. -1.
       -2   -1    0    0    0  501  0.00000000000E+00  0.00000000000E+00 -0.75455704568E+03  0.75455704568E+03  0.25500000920E-02 0.  1.
    10030    2    1    2    0    0  0.00000000000E+00  0.00000000000E+00  0.11061332695E+04  0.26152473609E+04  0.23698075763E+04 0.  0.
        3    1    3    3  502    0 -0.41531998118E+03  0.41335126377E+02  0.17768837617E+04  0.18252438720E+04  0.10100000352E+00 0. -1.
       -3    1    3    3    0  502  0.41531998118E+03 -0.41335126377E+02 -0.67075049220E+03  0.79000348887E+03  0.10100000352E+00 0.  1.
</event>
<event>
 5   0  0.4914005E-05  0.2416799E+04  0.7818609E-02  0.8433241E-01
        2   -1    0    0  501    0  0.00000000000E+00  0.00000000000E+00  0.14503589843E+04  0.14503589843E+04  0.25500000920E-02 0. -1.
       -2   -1    0    0    0  501  0.00000000000E+00  0.00000000000E+00 -0.10068056245E+04  0.10068056245E+04  0.25500000920E-02 0.  1.
    10030    2    1    2    0    0  0.00000000000E+00  0.00000000000E+00  0.44355335983E+03  0.24571646088E+04  0.24167991914E+04 0.  0.
        2    1    3    3  502    0 -0.13016712274E+03 -0.11245406111E+04  0.65155974409E+03  0.13061642952E+04  0.25500000920E-02 0. -1.
       -2    1    3    3    0  502  0.13016712274E+03  0.11245406111E+04 -0.20800638426E+03  0.11510003136E+04  0.25500000920E-02 0.  1.
</event>
<event>
 5   0  0.4756705E-05  0.2418621E+04  0.7818609E-02  0.8432565E-01
       -2   -1    0    0    0  501  0.00000000000E+00  0.00000000000E+00  0.86950884183E+03  0.86950884183E+03  0.25500000920E-02 0.  1.
        2   -1    0    0  501    0  0.00000000000E+00  0.00000000000E+00 -0.16819052278E+04  0.16819052278E+04  0.25500000920E-02 0. -1.
    10030    2    1    2    0    0  0.00000000000E+00  0.00000000000E+00 -0.81239638595E+03  0.25514140696E+04  0.24186206537E+04 0.  0.
        3    1    3    3  502    0 -0.10364141613E+04 -0.51023542229E+03 -0.28877002062E+02  0.11555641009E+04  0.10100000352E+00 0. -1.
       -3    1    3    3    0  502  0.10364141613E+04  0.51023542229E+03 -0.78351938388E+03  0.13958499687E+04  0.10100000352E+00 0.  1.
</event>
<event>
 5   0  0.4756705E-05  0.2391926E+04  0.7818609E-02  0.8442532E-01
       -2   -1    0    0    0  501  0.00000000000E+00  0.00000000000E+00  0.61995125240E+03  0.61995125241E+03  0.25500000920E-02 0. -1.
        2   -1    0    0  501    0  0.00000000000E+00  0.00000000000E+00 -0.23071617092E+04  0.23071617092E+04  0.25500000920E-02 0.  1.
    10030    2    1    2    0    0  0.00000000000E+00  0.00000000000E+00 -0.16872104568E+04  0.29271129616E+04  0.23919262456E+04 0.  0.
        3    1    3    3  502    0  0.89785501640E+03 -0.11829129547E+03 -0.17995321910E+04  0.20145601450E+04  0.10100000352E+00 0.  1.
       -3    1    3    3    0  502 -0.89785501640E+03  0.11829129547E+03  0.11232173416E+03  0.91255281668E+03  0.10100000352E+00 0. -1.
</event>
<event>
 5   0  0.4664127E-05  0.1947316E+04  0.7818609E-02  0.8631656E-01
       -2   -1    0    0    0  501  0.00000000000E+00  0.00000000000E+00  0.16631114550E+04  0.16631114550E+04  0.25500000920E-02 0. -1.
        2   -1    0    0  501    0  0.00000000000E+00  0.00000000000E+00 -0.57002178485E+03  0.57002178485E+03  0.25500000920E-02 0.  1.
    10030    2    1    2    0    0  0.00000000000E+00  0.00000000000E+00  0.10930896702E+04  0.22331332399E+04  0.19473158552E+04 0.  0.
        4    1    3    3  502    0 -0.60796162868E+03  0.64140880135E+03  0.77928214414E+02  0.88718488034E+03  0.12699999809E+01 0.  1.
       -4    1    3    3    0  502  0.60796162868E+03 -0.64140880135E+03  0.10151614558E+04  0.13459483595E+04  0.12699999809E+01 0. -1.
</event>
<event>
 5   0  0.2065692E-05  0.1901656E+04  0.7818609E-02  0.8654033E-01
        1   -1    0    0  501    0  0.00000000000E+00  0.00000000000E+00  0.56839546688E+03  0.56839546690E+03  0.50400001928E-02 0. -1.
       -1   -1    0    0    0  501  0.00000000000E+00  0.00000000000E+00 -0.15905714617E+04  0.15905714617E+04  0.50400001928E-02 0.  1.
    10030    2    1    2    0    0  0.00000000000E+00  0.00000000000E+00 -0.10221759948E+04  0.21589669286E+04  0.19016557087E+04 0.  0.
        3    1    3    3  502    0  0.70687646267E+03 -0.12753980191E+03  0.19621305890E+03  0.74460748668E+03  0.10100000352E+00 0. -1.
       -3    1    3    3    0  502 -0.70687646267E+03  0.12753980191E+03 -0.12183890537E+04  0.14143594419E+04  0.10100000352E+00 0.  1.
</event>
<event>
 5   0  0.2139556E-05  0.2439338E+04  0.7818609E-02  0.8424921E-01
       -1   -1    0    0    0  501  0.00000000000E+00  0.00000000000E+00  0.17296439871E+04  0.17296439871E+04  0.50400001928E-02 0. -1.
        1   -1    0    0  501    0  0.00000000000E+00  0.00000000000E+00 -0.86005719368E+03  0.86005719370E+03  0.50400001928E-02 0.  1.
    10030    2    1    2    0    0  0.00000000000E+00  0.00000000000E+00  0.86958679343E+03  0.25897011808E+04  0.24393382329E+04 0.  0.
        2    1    3    3  502    0  0.22201750443E+03  0.97017455878E+03 -0.31369151074E+03  0.10435194347E+04  0.25500000920E-02 0.  1.
       -2    1    3    3    0  502 -0.22201750443E+03 -0.97017455878E+03  0.11832783042E+04  0.15461817461E+04  0.25500000920E-02 0. -1.
</event>
<event>
 5   0  0.2139556E-05  0.2373992E+04  0.7818609E-02  0.8449305E-01
        1   -1    0    0  501    0  0.00000000000E+00  0.00000000000E+00  0.11111342044E+04  0.11111342044E+04  0.50400001928E-02 0.  1.
       -1   -1    0    0    0  501  0.00000000000E+00  0.00000000000E+00 -0.12680368975E+04  0.12680368976E+04  0.50400001928E-02 0. -1.
    10030    2    1    2    0    0  0.00000000000E+00  0.00000000000E+00 -0.15690269315E+03  0.23791711020E+04  0.23739917180E+04 0.  0.
        2    1    3    3  502    0 -0.62913697016E+03  0.43871595120E+03  0.82943577425E+03  0.11297117848E+04  0.25500000920E-02 0.  1.
       -2    1    3    3    0  502  0.62913697016E+03 -0.43871595120E+03 -0.98633846739E+03  0.12494593172E+04  0.25500000920E-02 0. -1.
</event>
<event>
 5   0  0.2065692E-05  0.2408749E+04  0.7818609E-02  0.8436235E-01
       -1   -1    0    0    0  501  0.00000000000E+00  0.00000000000E+00  0.13616957699E+04  0.13616957699E+04  0.50400001928E-02 0. -1.
        1   -1    0    0  501    0  0.00000000000E+00  0.00000000000E+00 -0.10652294415E+04  0.10652294416E+04  0.50400001928E-02 0.  1.
    10030    2    1    2    0    0  0.00000000000E+00  0.00000000000E+00  0.29646632834E+03  0.24269252115E+04  0.24087494054E+04 0.  0.
        3    1    3    3  502    0  0.68336642194E+03  0.98649803486E+03  0.45728692065E+02  0.12009409490E+04  0.10100000352E+00 0. -1.
       -3    1    3    3    0  502 -0.68336642194E+03 -0.98649803486E+03  0.25073763628E+03  0.12259842625E+04  0.10100000352E+00 0.  1.
</event>
<event>
 5   0  0.4856882E-05  0.2377866E+04  0.7818609E-02  0.8447837E-01
        2   -1    0    0  501    0  0.00000000000E+00  0.00000000000E+00  0.89560990400E+03  0.89560990400E+03  0.25500000920E-02 0.  1.
       -2   -1    0    0    0  501  0.00000000000E+00  0.00000000000E+00 -0.15783226944E+04  0.15783226945E+04  0.25500000920E-02 0. -1.
    10030    2    1    2    0    0  0.00000000000E+00  0.00000000000E+00 -0.68271279045E+03  0.24739325985E+04  0.23778657968E+04 0.  0.
        1    1    3    3  502    0  0.48800157995E+02  0.93911995330E+03 -0.10982315800E+04  0.14458355181E+04  0.50400001928E-02 0. -1.
       -1    1    3    3    0  502 -0.48800157995E+02 -0.93911995330E+03  0.41551878955E+03  0.10280970803E+04  0.50400001928E-02 0.  1.
</event>
<event>
 5   0  0.2065692E-05  0.2382712E+04  0.7818609E-02  0.8446004E-01
       -1   -1    0    0    0  501  0.00000000000E+00  0.00000000000E+00  0.93020888370E+03  0.93020888372E+03  0.50400001928E-02 0. -1.
        1   -1    0    0  501    0  0.00000000000E+00  0.00000000000E+00 -0.15258177339E+04  0.15258177339E+04  0.50400001928E-02 0.  1.
    10030    2    1    2    0    0  0.00000000000E+00  0.00000000000E+00 -0.59560885018E+03  0.24560266176E+04  0.23827120774E+04 0.  0.
        3    1    3    3  502    0 -0.89056529127E+03 -0.59357049790E+03 -0.83725905424E+03  0.13588359754E+04  0.10100000352E+00 0.  1.
       -3    1    3    3    0  502  0.89056529127E+03  0.59357049790E+03  0.24165020405E+03  0.10971906422E+04  0.10100000352E+00 0. -1.
</event>
<event>
 5   0  0.4756705E-05  0.2389925E+04  0.7818609E-02  0.8443285E-01
       -2   -1    0    0    0  501  0.00000000000E+00  0.00000000000E+00  0.10665363093E+04  0.10665363093E+04  0.25500000920E-02 0. -1.
        2   -1    0    0  501    0  0.00000000000E+00  0.00000000000E+00 -0.13388525293E+04  0.13388525293E+04  0.25500000920E-02 0.  1.
    10030    2    1    2    0    0  0.00000000000E+00  0.00000000000E+00 -0.27231622004E+03  0.24053888386E+04  0.23899245471E+04 0.  0.
        3    1    3    3  502    0  0.23572973903E+03  0.95306559529E+03 -0.82176504344E+03  0.12803125929E+04  0.10100000352E+00 0.  1.
       -3    1    3    3    0  502 -0.23572973903E+03 -0.95306559529E+03  0.54944882339E+03  0.11250762456E+04  0.10100000352E+00 0. -1.
</event>
<event>
 5   0  0.2090039E-05  0.2311277E+04  0.7818609E-02  0.8473488E-01
       -1   -1    0    0    0  501  0.00000000000E+00  0.00000000000E+00  0.96005676617E+03  0.96005676619E+03  0.50400001928E-02 0. -1.
        1   -1    0    0  501    0  0.00000000000E+00  0.00000000000E+00 -0.13910637813E+04  0.13910637813E+04  0.50400001928E-02 0.  1.
    10030    2    1    2    0    0  0.00000000000E+00  0.00000000000E+00 -0.43100701509E+03  0.23511205475E+04  0.23112768726E+04 0.  0.
        1    1    3    3  502    0 -0.10918628169E+04  0.29327150043E+03 -0.45906288021E+03  0.12202095361E+04  0.50400001928E-02 0.  1.
       -1    1    3    3    0  502  0.10918628169E+04 -0.29327150043E+03  0.28055865122E+02  0.11309110113E+04  0.50400001928E-02 0. -1.
</event>
<event>
 5   0  0.4664127E-05  0.2371708E+04  0.7818609E-02  0.8450172E-01
        2   -1    0    0  501    0  0.00000000000E+00  0.00000000000E+00  0.12915490398E+04  0.12915490398E+04  0.25500000920E-02 0. -1.
       -2   -1    0    0    0  501  0.00000000000E+00  0.00000000000E+00 -0.10888086336E+04  0.10888086336E+04  0.25500000920E-02 0.  1.
    10030    2    1    2    0    0  0.00000000000E+00  0.00000000000E+00  0.20274040620E+03  0.23803576733E+04  0.23717080302E+04 0.  0.
        4    1    3    3  502    0  0.69769101239E+03 -0.96925795315E+02  0.10588309208E+04  0.12717279152E+04  0.12699999809E+01 0. -1.
       -4    1    3    3    0  502 -0.69769101239E+03  0.96925795315E+02 -0.85609051459E+03  0.11086297581E+04  0.12699999809E+01 0.  1.
</event>
<event>
 5   0  0.4664127E-05  0.2413615E+04  0.7818609E-02  0.8434424E-01
       -2   -1    0    0    0  501  0.00000000000E+00  0.00000000000E+00  0.71509891913E+03  0.71509891913E+03  0.25500000920E-02 0.  1.
        2   -1    0    0  501    0  0.00000000000E+00  0.00000000000E+00 -0.20366185802E+04  0.20366185802E+04  0.25500000920E-02 0. -1.
    10030    2    1    2    0    0  0.00000000000E+00  0.00000000000E+00 -0.13215196610E+04  0.27517174993E+04  0.24136145056E+04 0.  0.
        4    1    3    3  502    0 -0.27573310915E+03 -0.90169286085E+03  0.19794443470E+03  0.96346373824E+03  0.12699999809E+01 0.  1.
       -4    1    3    3    0  502  0.27573310915E+03  0.90169286085E+03 -0.15194640957E+04  0.17882537611E+04  0.12699999809E+01 0. -1.
</event>
<event>
 5   0  0.2149920E-05  0.2394573E+04  0.7818609E-02  0.8441538E-01
        1   -1    0    0  501    0  0.00000000000E+00  0.00000000000E+00  0.23585548577E+04  0.23585548577E+04  0.50400001928E-02 0. -1.
       -1   -1    0    0    0  501  0.00000000000E+00  0.00000000000E+00 -0.60778517739E+03  0.60778517741E+03  0.50400001928E-02 0.  1.
    10030    2    1    2    0    0  0.00000000000E+00  0.00000000000E+00  0.17507696803E+04  0.29663400351E+04  0.23945727658E+04 0.  0.
        5    1    3    3  502    0  0.92635258700E+03  0.47977425708E+03  0.16031700278E+04  0.19127176167E+04  0.46999998093E+01 0. -1.
       -5    1    3    3    0  502 -0.92635258700E+03 -0.47977425708E+03  0.14759965251E+03  0.10536224184E+04  0.46999998093E+01 0.  1.
</event>
<event>
 5   0  0.2065692E-05  0.2391028E+04  0.7818609E-02  0.8442870E-01
       -1   -1    0    0    0  501  0.00000000000E+00  0.00000000000E+00  0.12318848652E+04  0.12318848652E+04  0.50400001928E-02 0. -1.
        1   -1    0    0  501    0  0.00000000000E+00  0.00000000000E+00 -0.11602170710E+04  0.11602170710E+04  0.50400001928E-02 0.  1.
    10030    2    1    2    0    0  0.00000000000E+00  0.00000000000E+00  0.71667794222E+02  0.23921019362E+04  0.23910281053E+04 0.  0.
        3    1    3    3  502    0 -0.20188626129E+03  0.35521763867E+03 -0.10881991517E+04  0.11623747405E+04  0.10100000352E+00 0.  1.
       -3    1    3    3    0  502  0.20188626129E+03 -0.35521763867E+03  0.11598669459E+04  0.12297271957E+04  0.10100000352E+00 0. -1.
</event>
<event>
 5   0  0.2139556E-05  0.2397798E+04  0.7818609E-02  0.8440329E-01
       -1   -1    0    0    0  501  0.00000000000E+00  0.00000000000E+00  0.15204432290E+04  0.15204432290E+04  0.50400001928E-02 0.  1.
        1   -1    0    0  501    0  0.00000000000E+00  0.00000000000E+00 -0.94535490050E+03  0.94535490051E+03  0.50400001928E-02 0. -1.
    10030    2    1    2    0    0  0.00000000000E+00  0.00000000000E+00  0.57508832846E+03  0.24657981295E+04  0.23977977041E+04 0.  0.
        2    1    3    3  502    0  0.10684814175E+03  0.11713617499E+04  0.52618913126E+03  0.12885572849E+04  0.25500000920E-02 0. -1.
       -2    1    3    3    0  502 -0.10684814175E+03 -0.11713617499E+04  0.48899197204E+02  0.11772408446E+04  0.25500000920E-02 0.  1.
</event>
<event>
 5   0  0.4664127E-05  0.2396835E+04  0.7818609E-02  0.8440689E-01
       -2   -1    0    0    0  501  0.00000000000E+00  0.00000000000E+00  0.91238824670E+03  0.91238824671E+03  0.25500000920E-02 0.  1.
        2   -1    0    0  501    0  0.00000000000E+00  0.00000000000E+00 -0.15741160409E+04  0.15741160409E+04  0.25500000920E-02 0. -1.
    10030    2    1    2    0    0  0.00000000000E+00  0.00000000000E+00 -0.66172779417E+03  0.24865042876E+04  0.23968353925E+04 0.  0.
        4    1    3    3  502    0 -0.17019985889E+03  0.49268229970E+03  0.78862724247E+03  0.94532448444E+03  0.12699999809E+01 0.  1.
       -4    1    3    3    0  502  0.17019985889E+03 -0.49268229970E+03 -0.14503550366E+04  0.15411798031E+04  0.12699999809E+01 0. -1.
</event>
<event>
 5   0  0.2065692E-05  0.2494747E+04  0.7818609E-02  0.8404859E-01
        1   -1    0    0  501    0  0.00000000000E+00  0.00000000000E+00  0.20217696174E+04  0.20217696174E+04  0.50400001928E-02 0. -1.
       -1   -1    0    0    0  501  0.00000000000E+00  0.00000000000E+00 -0.76959363825E+03  0.76959363827E+03  0.50400001928E-02 0.  1.
    10030    2    1    2    0    0  0.00000000000E+00  0.00000000000E+00  0.12521759791E+04  0.27913632556E+04  0.24947473103E+04 0.  0.
        3    1    3    3  502    0 -0.76587513398E+03  0.95067403628E+03  0.91265471591E+03  0.15242324248E+04  0.10100000352E+00 0. -1.
       -3    1    3    3    0  502  0.76587513398E+03 -0.95067403628E+03  0.33952126320E+03  0.12671308308E+04  0.10100000352E+00 0.  1.
</event>
<event>
 5   0  0.4914005E-05  0.2413517E+04  0.7818609E-02  0.8434460E-01
        2   -1    0    0  501    0  0.00000000000E+00  0.00000000000E+00  0.12873527947E+04  0.12873527947E+04  0.25500000920E-02 0. -1.
       -2   -1    0    0    0  501  0.00000000000E+00  0.00000000000E+00 -0.11312095004E+04  0.11312095004E+04  0.25500000920E-02 0.  1.
    10030    2    1    2    0    0  0.00000000000E+00  0.00000000000E+00  0.15614329424E+03  0.24185622951E+04  0.24135166970E+04 0.  0.
        2    1    3    3  502    0  0.98205529810E+03  0.69547308177E+03  0.16853936888E+03  0.12151217778E+04  0.25500000920E-02 0. -1.
       -2    1    3    3    0  502 -0.98205529810E+03 -0.69547308177E+03 -0.12396074640E+02  0.12034405173E+04  0.25500000920E-02 0.  1.
</event>
<event>
 5   0  0.4664127E-05  0.2413765E+04  0.7818609E-02  0.8434368E-01
       -2   -1    0    0    0  501  0.00000000000E+00  0.00000000000E+00  0.11861597330E+04  0.11861597330E+04  0.25500000920E-02 0.  1.
        2   -1    0    0  501    0  0.00000000000E+00  0.00000000000E+00 -0.12279672432E+04  0.12279672432E+04  0.25500000920E-02 0. -1.
    10030    2    1    2    0    0  0.00000000000E+00  0.00000000000E+00 -0.41807510185E+02  0.24141269763E+04  0.24137649408E+04 0.  0.
        4    1    3    3  502    0  0.23913394403E+02  0.47844657276E+03 -0.11288066539E+04  0.12262499941E+04  0.12699999809E+01 0. -1.
       -4    1    3    3    0  502 -0.23913394403E+02 -0.47844657276E+03  0.10869991437E+04  0.11878769821E+04  0.12699999809E+01 0.  1.
</event>
<event>
 5   0  0.2149920E-05  0.2381992E+04  0.7818609E-02  0.8446276E-01
        1   -1    0    0  501    0  0.00000000000E+00  0.00000000000E+00  0.22688883460E+04  0.22688883460E+04  0.50400001928E-02 0.  1.
       -1   -1    0    0    0  501  0.00000000000E+00  0.00000000000E+00 -0.62518337219E+03  0.62518337221E+03  0.50400001928E-02 0. -1.
    10030    2    1    2    0    0  0.00000000000E+00  0.00000000000E+00  0.16437049738E+04  0.28940717182E+04  0.23819918281E+04 0.  0.
        5    1    3    3  502    0  0.11079399121E+04 -0.38012232700E+03  0.10836385921E+04  0.15957188100E+04  0.46999998093E+01 0.  1.
       -5    1    3    3    0  502 -0.11079399121E+04  0.38012232700E+03  0.56006638166E+03  0.12983529082E+04  0.46999998093E+01 0. -1.
</event>
<event>
 5   0  0.1672125E-05  0.2402270E+04  0.7818609E-02  0.8438654E-01
       -4   -1    0    0    0  501  0.00000000000E+00  0.00000000000E+00  0.90988249584E+03  0.90988338216E+03  0.12699999809E+01 0. -1.
        4   -1    0    0  501    0  0.00000000000E+00  0.00000000000E+00 -0.15856156389E+04  0.15856161475E+04  0.12699999809E+01 0.  1.
    10030    2    1    2    0    0  0.00000000000E+00  0.00000000000E+00 -0.67573314308E+03  0.24954995297E+04  0.24022703058E+04 0.  0.
        5    1    3    3  502    0 -0.49609127024E+03  0.35941686394E+02 -0.14735963839E+04  0.15552834937E+04  0.46999998093E+01 0.  1.
       -5    1    3    3    0  502  0.49609127024E+03 -0.35941686394E+02  0.79786324081E+03  0.94021603595E+03  0.46999998093E+01 0. -1.
</event>
<event>
 5   0  0.4914005E-05  0.2382088E+04  0.7818609E-02  0.8446240E-01
       -2   -1    0    0    0  501  0.00000000000E+00  0.00000000000E+00  0.79079623174E+03  0.79079623174E+03  0.25500000920E-02 0.  1.
        2   -1    0    0  501    0  0.00000000000E+00  0.00000000000E+00 -0.17938703511E+04  0.17938703511E+04  0.25500000920E-02 0. -1.
    10030    2    1    2    0    0  0.00000000000E+00  0.00000000000E+00 -0.10030741193E+04  0.25846665828E+04  0.23820880873E+04 0.  0.
        2    1    3    3  502    0  0.67046452491E+01 -0.15442793202E+03  0.77986676936E+03  0.79503780817E+03  0.25500000920E-02 0.  1.
       -2    1    3    3    0  502 -0.67046452491E+01  0.15442793202E+03 -0.17829408887E+04  0.17896287747E+04  0.25500000920E-02 0. -1.
</event>
<event>
 5   0  0.4756705E-05  0.2086739E+04  0.7818609E-02  0.8567108E-01
        2   -1    0    0  501    0  0.00000000000E+00  0.00000000000E+00  0.17153919346E+04  0.17153919346E+04  0.25500000920E-02 0.  1.
       -2   -1    0    0    0  501  0.00000000000E+00  0.00000000000E+00 -0.63461861531E+03  0.63461861531E+03  0.25500000920E-02 0. -1.
    10030    2    1    2    0    0  0.00000000000E+00  0.00000000000E+00  0.10807733193E+04  0.23500105499E+04  0.20867387515E+04 0.  0.
        3    1    3    3  502    0  0.69163899307E+03  0.21653140333E+03  0.13856622327E+04  0.15637487582E+04  0.10100000352E+00 0.  1.
       -3    1    3    3    0  502 -0.69163899307E+03 -0.21653140333E+03 -0.30488891344E+03  0.78626179171E+03  0.10100000352E+00 0. -1.
</event>
<event>
 5   0  0.4713971E-05  0.2409425E+04  0.7818609E-02  0.8435983E-01
        2   -1    0    0  501    0  0.00000000000E+00  0.00000000000E+00  0.94317568987E+03  0.94317568988E+03  0.25500000920E-02 0. -1.
       -2   -1    0    0    0  501  0.00000000000E+00  0.00000000000E+00 -0.15387717548E+04  0.15387717548E+04  0.25500000920E-02 0.  1.
    10030    2    1    2    0    0  0.00000000000E+00  0.00000000000E+00 -0.59559606494E+03  0.24819474447E+04  0.24094249201E+04 0.  0.
        5    1    3    3  502    0  0.11226144756E+03 -0.72571732851E+03  0.68595603799E+03  0.10049010148E+04  0.46999998093E+01 0. -1.
       -5    1    3    3    0  502 -0.11226144756E+03  0.72571732851E+03 -0.12815521029E+04  0.14770464299E+04  0.46999998093E+01 0.  1.
</event>
<event>
 5   0  0.2139556E-05  0.2352044E+04  0.7818609E-02  0.8457679E-01
        1   -1    0    0  501    0  0.00000000000E+00  0.00000000000E+00  0.18869989586E+04  0.18869989586E+04  0.50400001928E-02 0.  1.
       -1   -1    0    0    0  501  0.00000000000E+00  0.00000000000E+00 -0.73292472584E+03  0.73292472586E+03  0.50400001928E-02 0. -1.
    10030    2    1    2    0    0  0.00000000000E+00  0.00000000000E+00  0.11540742328E+04  0.26199236845E+04  0.23520443826E+04 0.  0.
        2    1    3    3  502    0  0.44562436223E+02  0.11412752713E+04  0.88919162071E+03  0.14474656452E+04  0.25500000920E-02 0. -1.
       -2    1    3    3    0  502 -0.44562436223E+02 -0.11412752713E+04  0.26488261207E+03  0.11724580393E+04  0.25500000920E-02 0.  1.
</event>
<event>
 5   0  0.4914005E-05  0.2378023E+04  0.7818609E-02  0.8447778E-01
       -2   -1    0    0    0  501  0.00000000000E+00  0.00000000000E+00  0.97195704454E+03  0.97195704455E+03  0.25500000920E-02 0.  1.
        2   -1    0    0  501    0  0.00000000000E+00  0.00000000000E+00 -0.14545377699E+04  0.14545377699E+04  0.25500000920E-02 0. -1.
    10030    2    1    2    0    0  0.00000000000E+00  0.00000000000E+00 -0.48258072536E+03  0.24264948145E+04  0.23780229032E+04 0.  0.
        2    1    3    3  502    0 -0.31901162920E+03 -0.56201470113E+03  0.77711108791E+03  0.10107079632E+04  0.25500000920E-02 0.  1.
       -2    1    3    3    0  502  0.31901162920E+03  0.56201470113E+03 -0.12596918133E+04  0.14157868513E+04  0.25500000920E-02 0. -1.
</event>
<event>
 5   0  0.2139556E-05  0.2455446E+04  0.7818609E-02  0.8419032E-01
        1   -1    0    0  501    0  0.00000000000E+00  0.00000000000E+00  0.20740081067E+04  0.20740081067E+04  0.50400001928E-02 0.  1.
       -1   -1    0    0    0  501  0.00000000000E+00  0.00000000000E+00 -0.72675884389E+03  0.72675884390E+03  0.50400001928E-02 0. -1.
    10030    2    1    2    0    0  0.00000000000E+00  0.00000000000E+00  0.13472492628E+04  0.28007669506E+04  0.24554459749E+04 0.  0.
        2    1    3    3  502    0  0.73090469191E+03 -0.46568947078E+03  0.16655279503E+04  0.18775174314E+04  0.25500000920E-02 0.  1.
       -2    1    3    3    0  502 -0.73090469191E+03  0.46568947078E+03 -0.31827868749E+03  0.92324951924E+03  0.25500000920E-02 0. -1.
</event>
<event>
 5   0  0.4713971E-05  0.1884702E+04  0.7818609E-02  0.8662509E-01
        2   -1    0    0  501    0  0.00000000000E+00  0.00000000000E+00  0.92008506466E+03  0.92008506466E+03  0.25500000920E-02 0.  1.
       -2   -1    0    0    0  501  0.00000000000E+00  0.00000000000E+00 -0.96515601005E+03  0.96515601005E+03  0.25500000920E-02 0. -1.
    10030    2    1    2    0    0  0.00000000000E+00  0.00000000000E+00 -0.45070945387E+02  0.18852410747E+04  0.18847022363E+04 0.  0.
        5    1    3    3  502    0 -0.34330319112E+03  0.13398433307E+02 -0.90026394582E+03  0.96360461871E+03  0.46999998093E+01 0. -1.
       -5    1    3    3    0  502  0.34330319112E+03 -0.13398433307E+02  0.85519300044E+03  0.92163645601E+03  0.46999998093E+01 0.  1.
</event>
<event>
 5   0  0.2090039E-05  0.2368269E+04  0.7818609E-02  0.8451479E-01
       -1   -1    0    0    0  501  0.00000000000E+00  0.00000000000E+00  0.82735635104E+03  0.82735635106E+03  0.50400001928E-02 0. -1.
        1   -1    0    0  501    0  0.00000000000E+00  0.00000000000E+00 -0.16947652619E+04  0.16947652619E+04  0.50400001928E-02 0.  1.
    10030    2    1    2    0    0  0.00000000000E+00  0.00000000000E+00 -0.86740891088E+03  0.25221216130E+04  0.23682692440E+04 0.  0.
        1    1    3    3  502    0  0.11765033384E+04 -0.30664959900E+02 -0.57286212233E+03  0.13089199580E+04  0.50400001928E-02 0.  1.
       -1    1    3    3    0  502 -0.11765033384E+04  0.30664959900E+02 -0.29454678855E+03  0.12132016550E+04  0.50400001928E-02 0. -1.
</event>
<event>
 5   0  0.2139556E-05  0.2392514E+04  0.7818609E-02  0.8442311E-01
        1   -1    0    0  501    0  0.00000000000E+00  0.00000000000E+00  0.19407133395E+04  0.19407133395E+04  0.50400001928E-02 0. -1.
       -1   -1    0    0    0  501  0.00000000000E+00  0.00000000000E+00 -0.73737369281E+03  0.73737369283E+03  0.50400001928E-02 0.  1.
    10030    2    1    2    0    0  0.00000000000E+00  0.00000000000E+00  0.12033396467E+04  0.26780870323E+04  0.23925141269E+04 0.  0.
        2    1    3    3  502    0  0.27729169150E+03 -0.27977405034E+03 -0.66269625993E+03  0.77092835876E+03  0.25500000920E-02 0.  1.
       -2    1    3    3    0  502 -0.27729169150E+03  0.27977405034E+03  0.18660359066E+04  0.19071586736E+04  0.25500000920E-02 0. -1.
</event>
<event>
 5   0  0.2090039E-05  0.2147709E+04  0.7818609E-02  0.8540514E-01
        1   -1    0    0  501    0  0.00000000000E+00  0.00000000000E+00  0.13705760334E+04  0.13705760334E+04  0.50400001928E-02 0. -1.
       -1   -1    0    0    0  501  0.00000000000E+00  0.00000000000E+00 -0.84137111352E+03  0.84137111353E+03  0.50400001928E-02 0.  1.
    10030    2    1    2    0    0  0.00000000000E+00  0.00000000000E+00  0.52920491990E+03  0.22119471470E+04  0.21477086240E+04 0.  0.
        1    1    3    3  502    0 -0.84100558576E+02  0.45177899714E+03  0.12641917392E+04  0.13451237562E+04  0.50400001928E-02 0. -1.
       -1    1    3    3    0  502  0.84100558576E+02 -0.45177899714E+03 -0.73498681926E+03  0.86682339073E+03  0.50400001928E-02 0.  1.
</event>
<event>
 5   0  0.4713971E-05  0.2401613E+04  0.7818609E-02  0.8438900E-01
       -2   -1    0    0    0  501  0.00000000000E+00  0.00000000000E+00  0.79806508439E+03  0.79806508439E+03  0.25500000920E-02 0. -1.
        2   -1    0    0  501    0  0.00000000000E+00  0.00000000000E+00 -0.18067897913E+04  0.18067897913E+04  0.25500000920E-02 0.  1.
    10030    2    1    2    0    0  0.00000000000E+00  0.00000000000E+00 -0.10087247069E+04  0.26048548757E+04  0.24016126643E+04 0.  0.
        5    1    3    3  502    0 -0.61159437420E+03 -0.65509666394E+03 -0.13711923561E+04  0.16381055782E+04  0.46999998093E+01 0.  1.
       -5    1    3    3    0  502  0.61159437420E+03  0.65509666394E+03  0.36246764919E+03  0.96674929758E+03  0.46999998093E+01 0. -1.
</event>
<event>
 5   0  0.2149920E-05  0.2413305E+04  0.7818609E-02  0.8434539E-01
        1   -1    0    0  501    0  0.00000000000E+00  0.00000000000E+00  0.89692829819E+03  0.89692829821E+03  0.50400001928E-02 0. -1.
       -1   -1    0    0    0  501  0.00000000000E+00  0.00000000000E+00 -0.16233298279E+04  0.16233298279E+04  0.50400001928E-02 0.  1.
    10030    2    1    2    0    0  0.00000000000E+00  0.00000000000E+00 -0.72640152969E+03  0.25202581261E+04  0.24133051692E+04 0.  0.
        5    1    3    3  502    0  0.67025852804E+03 -0.33743465964E+03 -0.13500010391E+04  0.15445496235E+04  0.46999998093E+01 0.  1.
       -5    1    3    3    0  502 -0.67025852804E+03  0.33743465964E+03  0.62359950938E+03  0.97570850260E+03  0.46999998093E+01 0. -1.
</event>
<event>
 5   0  0.2065692E-05  0.2438875E+04  0.7818609E-02  0.8425091E-01
       -1   -1    0    0    0  501  0.00000000000E+00  0.00000000000E+00  0.97208003414E+03  0.97208003415E+03  0.50400001928E-02 0.  1.
        1   -1    0    0  501    0  0.00000000000E+00  0.00000000000E+00 -0.15297386623E+04  0.15297386623E+04  0.50400001928E-02 0. -1.
    10030    2    1    2    0    0  0.00000000000E+00  0.00000000000E+00 -0.55765862816E+03  0.25018186965E+04  0.24388754877E+04 0.  0.
        3    1    3    3  502    0  0.11364034191E+04 -0.15146532755E+03  0.14743559764E+03  0.11558943472E+04  0.10100000352E+00 0.  1.
       -3    1    3    3    0  502 -0.11364034191E+04  0.15146532755E+03 -0.70509422580E+03  0.13459243492E+04  0.10100000352E+00 0. -1.
</event>
<event>
 5   0  0.4856882E-05  0.2373365E+04  0.7818609E-02  0.8449543E-01
        2   -1    0    0  501    0  0.00000000000E+00  0.00000000000E+00  0.15063238489E+04  0.15063238489E+04  0.25500000920E-02 0.  1.
       -2   -1    0    0    0  501  0.00000000000E+00  0.00000000000E+00 -0.93486898721E+03  0.93486898721E+03  0.25500000920E-02 0. -1.
    10030    2    1    2    0    0  0.00000000000E+00  0.00000000000E+00  0.57145486169E+03  0.24411928361E+04  0.23733650802E+04 0.  0.
        1    1    3    3  502    0  0.91760023804E+03  0.43048877196E+03  0.92054024981E+03  0.13691987187E+04  0.50400001928E-02 0.  1.
       -1    1    3    3    0  502 -0.91760023804E+03 -0.43048877196E+03 -0.34908538812E+03  0.10719941175E+04  0.50400001928E-02 0. -1.
</event>
<event>
 5   0  0.2090039E-05  0.2346164E+04  0.7818609E-02  0.8459939E-01
        1   -1    0    0  501    0  0.00000000000E+00  0.00000000000E+00  0.19856808358E+04  0.19856808358E+04  0.50400001928E-02 0.  1.
       -1   -1    0    0    0  501  0.00000000000E+00  0.00000000000E+00 -0.69302233328E+03  0.69302233330E+03  0.50400001928E-02 0. -1.
    10030    2    1    2    0    0  0.00000000000E+00  0.00000000000E+00  0.12926585025E+04  0.26787031691E+04  0.23461638187E+04 0.  0.
        1    1    3    3  502    0 -0.77921115559E+03  0.87590433684E+03  0.59866620742E+03  0.13163508880E+04  0.50400001928E-02 0. -1.
       -1    1    3    3    0  502  0.77921115559E+03 -0.87590433684E+03  0.69399229509E+03  0.13623522811E+04  0.50400001928E-02 0.  1.
</event>
<event>
 5   0  0.4756705E-05  0.2386344E+04  0.7818609E-02  0.8444634E-01
        2   -1    0    0  501    0  0.00000000000E+00  0.00000000000E+00  0.17035637274E+04  0.17035637274E+04  0.25500000920E-02 0.  1.
       -2   -1    0    0    0  501  0.00000000000E+00  0.00000000000E+00 -0.83569490982E+03  0.83569490983E+03  0.25500000920E-02 0. -1.
    10030    2    1    2    0    0  0.00000000000E+00  0.00000000000E+00  0.86786881755E+03  0.25392586372E+04  0.23863440955E+04 0.  0.
        3    1    3    3  502    0  0.84204638384E+03 -0.23936450700E+02  0.13330934152E+04  0.15769442381E+04  0.10100000352E+00 0.  1.
       -3    1    3    3    0  502 -0.84204638384E+03  0.23936450700E+02 -0.46522459768E+03  0.96231439909E+03  0.10100000352E+00 0. -1.
</event>
<event>
 5   0  0.2090039E-05  0.2403134E+04  0.7818609E-02  0.8438331E-01
       -1   -1    0    0    0  501  0.00000000000E+00  0.00000000000E+00  0.53788604999E+03  0.53788605001E+03  0.50400001928E-02 0.  1.
        1   -1    0    0  501    0  0.00000000000E+00  0.00000000000E+00 -0.26841435729E+04  0.26841435729E+04  0.50400001928E-02 0. -1.
    10030    2    1    2    0    0  0.00000000000E+00  0.00000000000E+00 -0.21462575229E+04  0.32220296229E+04  0.24031341070E+04 0.  0.
        1    1    3    3  502    0  0.93580561715E+03 -0.10922624009E+03 -0.73293832177E+02  0.94500503198E+03  0.50400001928E-02 0.  1.
       -1    1    3    3    0  502 -0.93580561715E+03  0.10922624009E+03 -0.20729636908E+04  0.22770245910E+04  0.50400001928E-02 0. -1.
</event>
<event>
 5   0  0.2090039E-05  0.1740167E+04  0.7818609E-02  0.8738781E-01
       -1   -1    0    0    0  501  0.00000000000E+00  0.00000000000E+00  0.78806373945E+03  0.78806373946E+03  0.50400001928E-02 0.  1.
        1   -1    0    0  501    0  0.00000000000E+00  0.00000000000E+00 -0.96063977986E+03  0.96063977988E+03  0.50400001928E-02 0. -1.
    10030    2    1    2    0    0  0.00000000000E+00  0.00000000000E+00 -0.17257604042E+03  0.17487035193E+04  0.17401670922E+04 0.  0.
        1    1    3    3  502    0  0.91478320207E+02 -0.57062740621E+03 -0.73991047406E+03  0.93885644772E+03  0.50400001928E-02 0. -1.
       -1    1    3    3    0  502 -0.91478320207E+02  0.57062740621E+03  0.56733443364E+03  0.80984707162E+03  0.50400001928E-02 0.  1.
</event>
<event>
 5   0  0.4856882E-05  0.2421594E+04  0.7818609E-02  0.8431463E-01
       -2   -1    0    0    0  501  0.00000000000E+00  0.00000000000E+00  0.77081927609E+03  0.77081927609E+03  0.25500000920E-02 0. -1.
        2   -1    0    0  501    0  0.00000000000E+00  0.00000000000E+00 -0.19019099860E+04  0.19019099860E+04  0.25500000920E-02 0.  1.
    10030    2    1    2    0    0  0.00000000000E+00  0.00000000000E+00 -0.11310907099E+04  0.26727292621E+04  0.24215935899E+04 0.  0.
        1    1    3    3  502    0 -0.53493294822E+03  0.15537804830E+03  0.62099501818E+03  0.83422443600E+03  0.50400001928E-02 0. -1.
       -1    1    3    3    0  502  0.53493294822E+03 -0.15537804830E+03 -0.17520857281E+04  0.18385048261E+04  0.50400001928E-02 0.  1.
</event>
<event>
 5   0  0.2090039E-05  0.2398295E+04  0.7818609E-02  0.8440142E-01
        1   -1    0    0  501    0  0.00000000000E+00  0.00000000000E+00  0.16558472998E+04  0.16558472998E+04  0.50400001928E-02 0.  1.
       -1   -1    0    0    0  501  0.00000000000E+00  0.00000000000E+00 -0.86841055218E+03  0.86841055220E+03  0.50400001928E-02 0. -1.
    10030    2    1    2    0    0  0.00000000000E+00  0.00000000000E+00  0.78743674765E+03  0.25242578520E+04  0.23982954514E+04 0.  0.
        1    1    3    3  502    0 -0.10862466314E+04  0.24929731473E+03 -0.72103460497E+02  0.11168168178E+04  0.50400001928E-02 0.  1.
       -1    1    3    3    0  502  0.10862466314E+04 -0.24929731473E+03  0.85954020815E+03  0.14074410342E+04  0.50400001928E-02 0. -1.
</event>
<event>
 5   0  0.2090039E-05  0.2398694E+04  0.7818609E-02  0.8439993E-01
       -1   -1    0    0    0  501  0.00000000000E+00  0.00000000000E+00  0.11059239789E+04  0.11059239789E+04  0.50400001928E-02 0. -1.
        1   -1    0    0  501    0  0.00000000000E+00  0.00000000000E+00 -0.13006622717E+04  0.13006622717E+04  0.50400001928E-02 0.  1.
    10030    2    1    2    0    0  0.00000000000E+00  0.00000000000E+00 -0.19473829281E+03  0.24065862506E+04  0.23986943071E+04 0.  0.
        1    1    3    3  502    0  0.38642072993E+03  0.10933087991E+04 -0.40462579189E+03  0.12281559926E+04  0.50400001928E-02 0.  1.
       -1    1    3    3    0  502 -0.38642072993E+03 -0.10933087991E+04  0.20988749908E+03  0.11784302580E+04  0.50400001928E-02 0. -1.
</event>
<event>
 5   0  0.4756705E-05  0.2372640E+04  0.7818609E-02  0.8449818E-01
        2   -1    0    0  501    0  0.00000000000E+00  0.00000000000E+00  0.14013261077E+04  0.14013261077E+04  0.25500000920E-02 0.  1.
       -2   -1    0    0    0  501  0.00000000000E+00  0.00000000000E+00 -0.10043027621E+04  0.10043027621E+04  0.25500000920E-02 0. -1.
    10030    2    1    2    0    0  0.00000000000E+00  0.00000000000E+00  0.39702334558E+03  0.24056288698E+04  0.23726404537E+04 0.  0.
        3    1    3    3  502    0 -0.16994854199E+03  0.11678428233E+04  0.75932842352E+02  0.11825841085E+04  0.10100000352E+00 0. -1.
       -3    1    3    3    0  502  0.16994854199E+03 -0.11678428233E+04  0.32109050323E+03  0.12230447614E+04  0.10100000352E+00 0.  1.
</event>
<event>
 5   0  0.4713971E-05  0.2372811E+04  0.7818609E-02  0.8449753E-01
        2   -1    0    0  501    0  0.00000000000E+00  0.00000000000E+00  0.16950035600E+04  0.16950035600E+04  0.25500000920E-02 0. -1.
       -2   -1    0    0    0  501  0.00000000000E+00  0.00000000000E+00 -0.83041585069E+03  0.83041585069E+03  0.25500000920E-02 0.  1.
    10030    2    1    2    0    0  0.00000000000E+00  0.00000000000E+00  0.86458770935E+03  0.25254194107E+04  0.23728108422E+04 0.  0.
        5    1    3    3  502    0  0.22447225755E+03 -0.88984169631E+02 -0.80397620472E+03  0.83946757210E+03  0.46999998093E+01 0.  1.
       -5    1    3    3    0  502 -0.22447225755E+03  0.88984169631E+02  0.16685639141E+04  0.16859518386E+04  0.46999998093E+01 0. -1.
</event>
<event>
 5   0  0.4914005E-05  0.2398953E+04  0.7818609E-02  0.8439896E-01
        2   -1    0    0  501    0  0.00000000000E+00  0.00000000000E+00  0.16210355740E+04  0.16210355740E+04  0.25500000920E-02 0.  1.
       -2   -1    0    0    0  501  0.00000000000E+00  0.00000000000E+00 -0.88754605770E+03  0.88754605771E+03  0.25500000920E-02 0. -1.
    10030    2    1    2    0    0  0.00000000000E+00  0.00000000000E+00  0.73348951634E+03  0.25085816318E+04  0.23989528825E+04 0.  0.
        2    1    3    3  502    0  0.73665626111E+03  0.79615877422E+03 -0.16872285584E+03  0.10977243019E+04  0.25500000920E-02 0. -1.
       -2    1    3    3    0  502 -0.73665626111E+03 -0.79615877422E+03  0.90221237218E+03  0.14108573299E+04  0.25500000920E-02 0.  1.
</event>
<event>
 5   0  0.4914005E-05  0.2439667E+04  0.7818609E-02  0.8424800E-01
       -2   -1    0    0    0  501  0.00000000000E+00  0.00000000000E+00  0.81179562461E+03  0.81179562462E+03  0.25500000920E-02 0. -1.
        2   -1    0    0  501    0  0.00000000000E+00  0.00000000000E+00 -0.18329662691E+04  0.18329662691E+04  0.25500000920E-02 0.  1.
    10030    2    1    2    0    0  0.00000000000E+00  0.00000000000E+00 -0.10211706445E+04  0.26447618937E+04  0.24396671882E+04 0.  0.
        2    1    3    3  502    0 -0.26335184282E+03 -0.65558660046E+03  0.56741856548E+03  0.90615220150E+03  0.25500000920E-02 0. -1.
       -2    1    3    3    0  502  0.26335184282E+03  0.65558660046E+03 -0.15885892100E+04  0.17386096922E+04  0.25500000920E-02 0.  1.
</event>
<event>
 5   0  0.4756705E-05  0.1723364E+04  0.7818609E-02  0.8748150E-01
       -2   -1    0    0    0  501  0.00000000000E+00  0.00000000000E+00  0.11612667010E+04  0.11612667010E+04  0.25500000920E-02 0.  1.
        2   -1    0    0  501    0  0.00000000000E+00  0.00000000000E+00 -0.63938435881E+03  0.63938435882E+03  0.25500000920E-02 0. -1.
    10030    2    1    2    0    0  0.00000000000E+00  0.00000000000E+00  0.52188234220E+03  0.18006510598E+04  0.17233638792E+04 0.  0.
        3    1    3    3  502    0 -0.81687392555E+03 -0.21019009933E+03  0.76879431128E+02  0.84697895206E+03  0.10100000352E+00 0. -1.
       -3    1    3    3    0  502  0.81687392555E+03  0.21019009933E+03  0.44500291108E+03  0.95367210778E+03  0.10100000352E+00 0.  1.
</event>
<event>
 5   0  0.2139556E-05  0.2394587E+04  0.7818609E-02  0.8441533E-01
       -1   -1    0    0    0  501  0.00000000000E+00  0.00000000000E+00  0.67501314467E+03  0.67501314469E+03  0.50400001928E-02 0. -1.
        1   -1    0    0  501    0  0.00000000000E+00  0.00000000000E+00 -0.21236797175E+04  0.21236797175E+04  0.50400001928E-02 0.  1.
    10030    2    1    2    0    0  0.00000000000E+00  0.00000000000E+00 -0.14486665728E+04  0.27986928622E+04  0.23945869994E+04 0.  0.
        2    1    3    3  502    0 -0.60984736574E+03 -0.95833602827E+03 -0.11665966063E+04  0.16282719043E+04  0.25500000920E-02 0.  1.
       -2    1    3    3    0  502  0.60984736574E+03  0.95833602827E+03 -0.28206996654E+03  0.11704209579E+04  0.25500000920E-02 0. -1.
</event>
<event>
 5   0  0.4856882E-05  0.2369676E+04  0.7818609E-02  0.8450944E-01
        2   -1    0    0  501    0  0.00000000000E+00  0.00000000000E+00  0.11755459190E+04  0.11755459190E+04  0.25500000920E-02 0. -1.
       -2   -1    0    0    0  501  0.00000000000E+00  0.00000000000E+00 -0.11942036489E+04  0.11942036489E+04  0.25500000920E-02 0.  1.
    10030    2    1    2    0    0  0.00000000000E+00  0.00000000000E+00 -0.18657729849E+02  0.23697495679E+04  0.23696761179E+04 0.  0.
        1    1    3    3  502    0  0.39183628609E+03  0.35963319444E+03 -0.10681201607E+04  0.11932109568E+04  0.50400001928E-02 0.  1.
       -1    1    3    3    0  502 -0.39183628609E+03 -0.35963319444E+03  0.10494624309E+04  0.11765386111E+04  0.50400001928E-02 0. -1.
</event>
<event>
 5   0  0.2065692E-05  0.2410070E+04  0.7818609E-02  0.8435743E-01
       -1   -1    0    0    0  501  0.00000000000E+00  0.00000000000E+00  0.98499355231E+03  0.98499355232E+03  0.50400001928E-02 0. -1.
        1   -1    0    0  501    0  0.00000000000E+00  0.00000000000E+00 -0.14742324583E+04  0.14742324584E+04  0.50400001928E-02 0.  1.
    10030    2    1    2    0    0  0.00000000000E+00  0.00000000000E+00 -0.48923890604E+03  0.24592260107E+04  0.24100700953E+04 0.  0.
        3    1    3    3  502    0  0.10644384224E+03 -0.98147615008E+03  0.46047623556E+03  0.10893411304E+04  0.10100000352E+00 0. -1.
       -3    1    3    3    0  502 -0.10644384224E+03  0.98147615008E+03 -0.94971514160E+03  0.13698848802E+04  0.10100000352E+00 0.  1.
</event>
<event>
 5   0  0.2065692E-05  0.2384134E+04  0.7818609E-02  0.8445468E-01
       -1   -1    0    0    0  501  0.00000000000E+00  0.00000000000E+00  0.95938517711E+03  0.95938517712E+03  0.50400001928E-02 0. -1.
        1   -1    0    0  501    0  0.00000000000E+00  0.00000000000E+00 -0.14811814388E+04  0.14811814388E+04  0.50400001928E-02 0.  1.
    10030    2    1    2    0    0  0.00000000000E+00  0.00000000000E+00 -0.52179626167E+03  0.24405666159E+04  0.23841338192E+04 0.  0.
        3    1    3    3  502    0 -0.61268285090E+03  0.40982167482E+03 -0.12199243289E+04  0.14253243348E+04  0.10100000352E+00 0.  1.
       -3    1    3    3    0  502  0.61268285090E+03 -0.40982167482E+03  0.69812806722E+03  0.10152422811E+04  0.10100000352E+00 0. -1.
</event>
<event>
 5   0  0.2057599E-05  0.2414875E+04  0.7818609E-02  0.8433956E-01
       -1   -1    0    0    0  501  0.00000000000E+00  0.00000000000E+00  0.11473897841E+04  0.11473897841E+04  0.50400001928E-02 0.  1.
        1   -1    0    0  501    0  0.00000000000E+00  0.00000000000E+00 -0.12706277937E+04  0.12706277937E+04  0.50400001928E-02 0. -1.
    10030    2    1    2    0    0  0.00000000000E+00  0.00000000000E+00 -0.12323800965E+03  0.24180175778E+04  0.24148750278E+04 0.  0.
        4    1    3    3  502    0  0.10403089284E+04 -0.38875153327E+02  0.55085484079E+03  0.11777931111E+04  0.12699999809E+01 0.  1.
       -4    1    3    3    0  502 -0.10403089284E+04  0.38875153327E+02 -0.67409285044E+03  0.12402244668E+04  0.12699999809E+01 0. -1.
</event>
<event>
 5   0  0.4664127E-05  0.2530904E+04  0.7818609E-02  0.8392058E-01
        2   -1    0    0  501    0  0.00000000000E+00  0.00000000000E+00  0.16201069642E+04  0.16201069642E+04  0.25500000920E-02 0. -1.
       -2   -1    0    0    0  501  0.00000000000E+00  0.00000000000E+00 -0.98843364116E+03  0.98843364116E+03  0.25500000920E-02 0.  1.
    10030    2    1    2    0    0  0.00000000000E+00  0.00000000000E+00  0.63167332306E+03  0.26085406054E+04  0.25309035744E+04 0.  0.
        4    1    3    3  502    0  0.74019015660E+03  0.52706169236E+03  0.12235869831E+04  0.15240873379E+04  0.12699999809E+01 0. -1.
       -4    1    3    3    0  502 -0.74019015660E+03 -0.52706169236E+03 -0.59191366004E+03  0.10844532675E+04  0.12699999809E+01 0.  1.
</event>
<event>
 5   0  0.2065692E-05  0.2360598E+04  0.7818609E-02  0.8454404E-01
        1   -1    0    0  501    0  0.00000000000E+00  0.00000000000E+00  0.19641015795E+04  0.19641015795E+04  0.50400001928E-02 0.  1.
       -1   -1    0    0    0  501  0.00000000000E+00  0.00000000000E+00 -0.70928422861E+03  0.70928422863E+03  0.50400001928E-02 0. -1.
    10030    2    1    2    0    0  0.00000000000E+00  0.00000000000E+00  0.12548173509E+04  0.26733858082E+04  0.23605984612E+04 0.  0.
        3    1    3    3  502    0  0.47296943923E+03 -0.38433553205E+03 -0.51731217679E+03  0.79939088692E+03  0.10100000352E+00 0. -1.
       -3    1    3    3    0  502 -0.47296943923E+03  0.38433553205E+03  0.17721295277E+04  0.18739949212E+04  0.10100000352E+00 0.  1.
</event>
<event>
 5   0  0.4713971E-05  0.2393946E+04  0.7818609E-02  0.8441773E-01
        2   -1    0    0  501    0  0.00000000000E+00  0.00000000000E+00  0.26797527318E+04  0.26797527318E+04  0.25500000920E-02 0. -1.
       -2   -1    0    0    0  501  0.00000000000E+00  0.00000000000E+00 -0.53465564849E+03  0.53465564849E+03  0.25500000920E-02 0.  1.
    10030    2    1    2    0    0  0.00000000000E+00  0.00000000000E+00  0.21450970833E+04  0.32144083803E+04  0.23939464778E+04 0.  0.
        5    1    3    3  502    0 -0.40679992877E+03  0.49390174347E+03 -0.28572618720E+03  0.70077575465E+03  0.46999998093E+01 0.  1.
       -5    1    3    3    0  502  0.40679992877E+03 -0.49390174347E+03  0.24308232705E+04  0.25136326256E+04  0.46999998093E+01 0. -1.
</event>
<event>
 5   0  0.2065692E-05  0.2391456E+04  0.7818609E-02  0.8442709E-01
       -1   -1    0    0    0  501  0.00000000000E+00  0.00000000000E+00  0.11029017846E+04  0.11029017846E+04  0.50400001928E-02 0.  1.
        1   -1    0    0  501    0  0.00000000000E+00  0.00000000000E+00 -0.12963674160E+04  0.12963674161E+04  0.50400001928E-02 0. -1.
    10030    2    1    2    0    0  0.00000000000E+00  0.00000000000E+00 -0.19346563147E+03  0.23992692006E+04  0.23914564070E+04 0.  0.
        3    1    3    3  502    0 -0.40786355121E+03 -0.11081721086E+04 -0.28541057248E+03  0.12148486752E+04  0.10100000352E+00 0. -1.
       -3    1    3    3    0  502  0.40786355121E+03  0.11081721086E+04  0.91944941006E+02  0.11844205254E+04  0.10100000352E+00 0.  1.
</event>
<event>
 5   0  0.4856882E-05  0.2407927E+04  0.7818609E-02  0.8436542E-01
        2   -1    0    0  501    0  0.00000000000E+00  0.00000000000E+00  0.19419005276E+04  0.19419005276E+04  0.25500000920E-02 0. -1.
       -2   -1    0    0    0  501  0.00000000000E+00  0.00000000000E+00 -0.74644826537E+03  0.74644826538E+03  0.25500000920E-02 0.  1.
    10030    2    1    2    0    0  0.00000000000E+00  0.00000000000E+00  0.11954522622E+04  0.26883487929E+04  0.24079271420E+04 0.  0.
        1    1    3    3  502    0 -0.18602814181E+03  0.22440869784E+02 -0.73006937099E+03  0.75373161581E+03  0.50400001928E-02 0.  1.
       -1    1    3    3    0  502  0.18602814181E+03 -0.22440869784E+02  0.19255216332E+04  0.19346171771E+04  0.50400001928E-02 0. -1.
</event>
<event>
 5   0  0.2065692E-05  0.2385034E+04  0.7818609E-02  0.8445128E-01
       -1   -1    0    0    0  501  0.00000000000E+00  0.00000000000E+00  0.12755812613E+04  0.12755812613E+04  0.50400001928E-02 0. -1.
        1   -1    0    0  501    0  0.00000000000E+00  0.00000000000E+00 -0.11148618741E+04  0.11148618742E+04  0.50400001928E-02 0.  1.
    10030    2    1    2    0    0  0.00000000000E+00  0.00000000000E+00  0.16071938710E+03  0.23904431354E+04  0.23850341009E+04 0.  0.
        3    1    3    3  502    0  0.39928712458E+03 -0.97217857760E+03  0.64514055879E+03  0.12331941232E+04  0.10100000352E+00 0. -1.
       -3    1    3    3    0  502 -0.39928712458E+03  0.97217857760E+03 -0.48442117169E+03  0.11572490123E+04  0.10100000352E+00 0.  1.
</event>
<event>
 5   0  0.4713971E-05  0.2413878E+04  0.7818609E-02  0.8434326E-01
       -2   -1    0    0    0  501  0.00000000000E+00  0.00000000000E+00  0.13894052904E+04  0.13894052904E+04  0.25500000920E-02 0.  1.
        2   -1    0    0  501    0  0.00000000000E+00  0.00000000000E+00 -0.10484351890E+04  0.10484351890E+04  0.25500000920E-02 0. -1.
    10030    2    1    2    0    0  0.00000000000E+00  0.00000000000E+00  0.34097010141E+03  0.24378404794E+04  0.24138777088E+04 0.  0.
        5    1    3    3  502    0  0.15413823166E+03  0.49714358662E+03  0.12702251483E+04  0.13727360844E+04  0.46999998093E+01 0.  1.
       -5    1    3    3    0  502 -0.15413823166E+03 -0.49714358662E+03 -0.92925504685E+03  0.10651043950E+04  0.46999998093E+01 0. -1.
</event>
<event>
 5   0  0.4756705E-05  0.2416412E+04  0.7818609E-02  0.8433385E-01
        2   -1    0    0  501    0  0.00000000000E+00  0.00000000000E+00  0.13645179074E+04  0.13645179074E+04  0.25500000920E-02 0.  1.
       -2   -1    0    0    0  501  0.00000000000E+00  0.00000000000E+00 -0.10698006003E+04  0.10698006003E+04  0.25500000920E-02 0. -1.
    10030    2    1    2    0    0  0.00000000000E+00  0.00000000000E+00  0.29471730714E+03  0.24343185077E+04  0.24164122798E+04 0.  0.
        3    1    3    3  502    0 -0.10627267368E+04 -0.51387255545E+03  0.40677206745E+03  0.12485658354E+04  0.10100000352E+00 0.  1.
       -3    1    3    3    0  502  0.10627267368E+04  0.51387255545E+03 -0.11205476031E+03  0.11857526723E+04  0.10100000352E+00 0. -1.
</event>
<event>
 5   0  0.4756705E-05  0.2445321E+04  0.7818609E-02  0.8422728E-01
        2   -1    0    0  501    0  0.00000000000E+00  0.00000000000E+00  0.11855539747E+04  0.11855539747E+04  0.25500000920E-02 0. -1.
       -2   -1    0    0    0  501  0.00000000000E+00  0.00000000000E+00 -0.12609288608E+04  0.12609288608E+04  0.25500000920E-02 0.  1.
    10030    2    1    2    0    0  0.00000000000E+00  0.00000000000E+00 -0.75374886092E+02  0.24464828355E+04  0.24453214290E+04 0.  0.
        3    1    3    3  502    0  0.16287182292E+03  0.76939558589E+03  0.89892085686E+03  0.11943849946E+04  0.10100000352E+00 0. -1.
       -3    1    3    3    0  502 -0.16287182292E+03 -0.76939558589E+03 -0.97429574295E+03  0.12520978409E+04  0.10100000352E+00 0.  1.
</event>
<event>
 5   0  0.2090039E-05  0.2428577E+04  0.7818609E-02  0.8428882E-01
        1   -1    0    0  501    0  0.00000000000E+00  0.00000000000E+00  0.12674756263E+04  0.12674756263E+04  0.50400001928E-02 0.  1.
       -1   -1    0    0    0  501  0.00000000000E+00  0.00000000000E+00 -0.11633332578E+04  0.11633332578E+04  0.50400001928E-02 0. -1.
    10030    2    1    2    0    0  0.00000000000E+00  0.00000000000E+00  0.10414236843E+03  0.24308088841E+04  0.24285769904E+04 0.  0.
        1    1    3    3  502    0  0.10244475694E+04 -0.34579204415E+03  0.60523774007E+03  0.12391035801E+04  0.50400001928E-02 0.  1.
       -1    1    3    3    0  502 -0.10244475694E+04  0.34579204415E+03 -0.50109537164E+03  0.11917053040E+04  0.50400001928E-02 0. -1.
</event>
<event>
 5   0  0.2057599E-05  0.2366906E+04  0.7818609E-02  0.8451998E-01
        1   -1    0    0  501    0  0.00000000000E+00  0.00000000000E+00  0.17580801236E+04  0.17580801236E+04  0.50400001928E-02 0. -1.
       -1   -1    0    0    0  501  0.00000000000E+00  0.00000000000E+00 -0.79664261185E+03  0.79664261187E+03  0.50400001928E-02 0.  1.
    10030    2    1    2    0    0  0.00000000000E+00  0.00000000000E+00  0.96143751171E+03  0.25547227354E+04  0.23669064549E+04 0.  0.
        4    1    3    3  502    0 -0.15266452431E+03  0.10522271531E+04 -0.80202695586E+02  0.10662656910E+04  0.12699999809E+01 0.  1.
       -4    1    3    3    0  502  0.15266452431E+03 -0.10522271531E+04  0.10416402073E+04  0.14884570444E+04  0.12699999809E+01 0. -1.
</event>
<event>
 5   0  0.2090039E-05  0.2342703E+04  0.7818609E-02  0.8461272E-01
       -1   -1    0    0    0  501  0.00000000000E+00  0.00000000000E+00  0.12444453773E+04  0.12444453773E+04  0.50400001928E-02 0.  1.
        1   -1    0    0  501    0  0.00000000000E+00  0.00000000000E+00 -0.11025508753E+04  0.11025508754E+04  0.50400001928E-02 0. -1.
    10030    2    1    2    0    0  0.00000000000E+00  0.00000000000E+00  0.14189450195E+03  0.23469962527E+04  0.23427030030E+04 0.  0.
        1    1    3    3  502    0  0.28098255130E+03 -0.11203071713E+04  0.26630457751E+03  0.11853090231E+04  0.50400001928E-02 0.  1.
       -1    1    3    3    0  502 -0.28098255130E+03  0.11203071713E+04 -0.12441007557E+03  0.11616872295E+04  0.50400001928E-02 0. -1.
</event>
<event>
 5   0  0.1672125E-05  0.2388579E+04  0.7818609E-02  0.8443792E-01
       -3   -1    0    0    0  501  0.00000000000E+00  0.00000000000E+00  0.15406550582E+04  0.15406550615E+04  0.10100000352E+00 0. -1.
        3   -1    0    0  501    0  0.00000000000E+00  0.00000000000E+00 -0.92579315467E+03  0.92579316018E+03  0.10100000352E+00 0.  1.
    10030    2    1    2    0    0  0.00000000000E+00  0.00000000000E+00  0.61486190352E+03  0.24664482217E+04  0.23885794251E+04 0.  0.
        2    1    3    3  502    0  0.50261928759E+02  0.11879002590E+04  0.19108739107E+03  0.12042207762E+04  0.25500000920E-02 0.  1.
       -2    1    3    3    0  502 -0.50261928759E+02 -0.11879002590E+04  0.42377451245E+03  0.12622274455E+04  0.25500000920E-02 0. -1.
</event>
<event>
 5   0  0.2065692E-05  0.2530052E+04  0.7818609E-02  0.8392357E-01
        1   -1    0    0  501    0  0.00000000000E+00  0.00000000000E+00  0.21717895633E+04  0.21717895633E+04  0.50400001928E-02 0. -1.
       -1   -1    0    0    0  501  0.00000000000E+00  0.00000000000E+00 -0.73685347526E+03  0.73685347528E+03  0.50400001928E-02 0.  1.
    10030    2    1    2    0    0  0.00000000000E+00  0.00000000000E+00  0.14349360880E+04  0.29086430386E+04  0.25300519262E+04 0.  0.
        3    1    3    3  502    0  0.22578240033E+03  0.30745287951E+03 -0.66916167767E+03  0.77024822394E+03  0.10100000352E+00 0.  1.
       -3    1    3    3    0  502 -0.22578240033E+03 -0.30745287951E+03  0.21040977657E+04  0.21383948146E+04  0.10100000352E+00 0. -1.
</event>
<event>
 5   0  0.2057599E-05  0.2366414E+04  0.7818609E-02  0.8452186E-01
        1   -1    0    0  501    0  0.00000000000E+00  0.00000000000E+00  0.11108957423E+04  0.11108957423E+04  0.50400001928E-02 0. -1.
       -1   -1    0    0    0  501  0.00000000000E+00  0.00000000000E+00 -0.12602255923E+04  0.12602255923E+04  0.50400001928E-02 0.  1.
    10030    2    1    2    0    0  0.00000000000E+00  0.00000000000E+00 -0.14932984993E+03  0.23711213346E+04  0.23664143719E+04 0.  0.
        4    1    3    3  502    0 -0.31383342111E+03  0.23100125915E+03  0.10447522383E+04  0.11150613662E+04  0.12699999809E+01 0. -1.
       -4    1    3    3    0  502  0.31383342111E+03 -0.23100125915E+03 -0.11940820883E+04  0.12560599684E+04  0.12699999809E+01 0.  1.
</event>
<event>
 5   0  0.2139556E-05  0.2412654E+04  0.7818609E-02  0.8434781E-01
       -1   -1    0    0    0  501  0.00000000000E+00  0.00000000000E+00  0.61800843356E+03  0.61800843358E+03  0.50400001928E-02 0. -1.
        1   -1    0    0  501    0  0.00000000000E+00  0.00000000000E+00 -0.23547005620E+04  0.23547005620E+04  0.50400001928E-02 0.  1.
    10030    2    1    2    0    0  0.00000000000E+00  0.00000000000E+00 -0.17366921284E+04  0.29727089955E+04  0.24126539792E+04 0.  0.
        2    1    3    3  502    0 -0.11117674755E+04 -0.34695935643E+03 -0.12556691562E+04  0.17126332778E+04  0.25500000920E-02 0. -1.
       -2    1    3    3    0  502  0.11117674755E+04  0.34695935643E+03 -0.48102297223E+03  0.12600757177E+04  0.25500000920E-02 0.  1.
</event>
<event>
 5   0  0.4914005E-05  0.2416630E+04  0.7818609E-02  0.8433304E-01
        2   -1    0    0  501    0  0.00000000000E+00  0.00000000000E+00  0.13710927195E+04  0.13710927195E+04  0.25500000920E-02 0. -1.
       -2   -1    0    0    0  501  0.00000000000E+00  0.00000000000E+00 -0.10648621797E+04  0.10648621797E+04  0.25500000920E-02 0.  1.
    10030    2    1    2    0    0  0.00000000000E+00  0.00000000000E+00  0.30623053983E+03  0.24359548992E+04  0.24166297043E+04 0.  0.
        2    1    3    3  502    0 -0.61016494264E+03 -0.10155232829E+04 -0.86347054883E+02  0.11878739871E+04  0.25500000920E-02 0.  1.
       -2    1    3    3    0  502  0.61016494264E+03  0.10155232829E+04  0.39257759471E+03  0.12480809121E+04  0.25500000920E-02 0. -1.
</event>
<event>
 5   0  0.2149920E-05  0.2404810E+04  0.7818609E-02  0.8437705E-01
        1   -1    0    0  501    0  0.00000000000E+00  0.00000000000E+00  0.11706639609E+04  0.11706639609E+04  0.50400001928E-02 0.  1.
       -1   -1    0    0    0  501  0.00000000000E+00  0.00000000000E+00 -0.12350063913E+04  0.12350063913E+04  0.50400001928E-02 0. -1.
    10030    2    1    2    0    0  0.00000000000E+00  0.00000000000E+00 -0.64342430368E+02  0.24056703522E+04  0.24048097420E+04 0.  0.
        5    1    3    3  502    0 -0.10308936482E+04 -0.60807250994E+03 -0.14737098094E+03  0.12059163268E+04  0.46999998093E+01 0. -1.
       -5    1    3    3    0  502  0.10308936482E+04  0.60807250994E+03  0.83028550572E+02  0.11997540254E+04  0.46999998093E+01 0.  1.
</event>
<event>
 5   0  0.2065692E-05  0.2428457E+04  0.7818609E-02  0.8428926E-01
       -1   -1    0    0    0  501  0.00000000000E+00  0.00000000000E+00  0.18339114683E+04  0.18339114683E+04  0.50400001928E-02 0.  1.
        1   -1    0    0  501    0  0.00000000000E+00  0.00000000000E+00 -0.80393757673E+03  0.80393757675E+03  0.50400001928E-02 0. -1.
    10030    2    1    2    0    0  0.00000000000E+00  0.00000000000E+00  0.10299738916E+04  0.26378490451E+04  0.24284565813E+04 0.  0.
        3    1    3    3  502    0 -0.29587249702E+03  0.87011942407E+03  0.13769469743E+04  0.16554852240E+04  0.10100000352E+00 0.  1.
       -3    1    3    3    0  502  0.29587249702E+03 -0.87011942407E+03 -0.34697308271E+03  0.98236382108E+03  0.10100000352E+00 0. -1.
</event>
<event>
 5   0  0.4914005E-05  0.2395072E+04  0.7818609E-02  0.8441351E-01
       -2   -1    0    0    0  501  0.00000000000E+00  0.00000000000E+00  0.10576354028E+04  0.10576354028E+04  0.25500000920E-02 0. -1.
        2   -1    0    0  501    0  0.00000000000E+00  0.00000000000E+00 -0.13559423965E+04  0.13559423965E+04  0.25500000920E-02 0.  1.
    10030    2    1    2    0    0  0.00000000000E+00  0.00000000000E+00 -0.29830699369E+03  0.24135777992E+04  0.23950721765E+04 0.  0.
        2    1    3    3  502    0  0.26276971877E+03 -0.11545513244E+04 -0.32957875694E+03  0.12290886229E+04  0.25500000920E-02 0.  1.
       -2    1    3    3    0  502 -0.26276971877E+03  0.11545513244E+04  0.31271763251E+02  0.11844891764E+04  0.25500000920E-02 0. -1.
</event>
<event>
 5   0  0.2139556E-05  0.2472061E+04  0.7818609E-02  0.8413007E-01
        1   -1    0    0  501    0  0.00000000000E+00  0.00000000000E+00  0.18076853139E+04  0.18076853140E+04  0.50400001928E-02 0.  1.
       -1   -1    0    0    0  501  0.00000000000E+00  0.00000000000E+00 -0.84515323185E+03  0.84515323187E+03  0.50400001928E-02 0. -1.
    10030    2    1    2    0    0  0.00000000000E+00  0.00000000000E+00  0.96253208209E+03  0.26528385458E+04  0.24720607479E+04 0.  0.
        2    1    3    3  502    0 -0.10913289682E+04 -0.56481941377E+03  0.33828925885E+03  0.12745428630E+04  0.25500000920E-02 0.  1.
       -2    1    3    3    0  502  0.10913289682E+04  0.56481941377E+03  0.62424282324E+03  0.13782956828E+04  0.25500000920E-02 0. -1.
</event>
<event>
 5   0  0.2149920E-05  0.2433914E+04  0.7818609E-02  0.8426915E-01
        1   -1    0    0  501    0  0.00000000000E+00  0.00000000000E+00  0.11861321061E+04  0.11861321061E+04  0.50400001928E-02 0. -1.
       -1   -1    0    0    0  501  0.00000000000E+00  0.00000000000E+00 -0.12485825755E+04  0.12485825755E+04  0.50400001928E-02 0.  1.
    10030    2    1    2    0    0  0.00000000000E+00  0.00000000000E+00 -0.62450469379E+02  0.24347146816E+04  0.24339136221E+04 0.  0.
        5    1    3    3  502    0  0.40209050499E+03 -0.67718564145E+03 -0.95927225568E+03  0.12411617613E+04  0.46999998093E+01 0.  1.
       -5    1    3    3    0  502 -0.40209050499E+03  0.67718564145E+03  0.89682178630E+03  0.11935529203E+04  0.46999998093E+01 0. -1.
</event>
<event>
 5   0  0.4856882E-05  0.2415569E+04  0.7818609E-02  0.8433698E-01
       -2   -1    0    0    0  501  0.00000000000E+00  0.00000000000E+00  0.10366823857E+04  0.10366823857E+04  0.25500000920E-02 0.  1.
        2   -1    0    0  501    0  0.00000000000E+00  0.00000000000E+00 -0.14071263841E+04  0.14071263841E+04  0.25500000920E-02 0. -1.
    10030    2    1    2    0    0  0.00000000000E+00  0.00000000000E+00 -0.37044399841E+03  0.24438087698E+04  0.24155687834E+04 0.  0.
        1    1    3    3  502    0  0.82048011022E+03  0.59120227482E+03 -0.85327156029E+03  0.13231704715E+04  0.50400001928E-02 0. -1.
       -1    1    3    3    0  502 -0.82048011022E+03 -0.59120227482E+03  0.48282756188E+03  0.11206382983E+04  0.50400001928E-02 0.  1.
</event>
<event>
 5   0  0.4914005E-05  0.2496609E+04  0.7818609E-02  0.8404194E-01
       -2   -1    0    0    0  501  0.00000000000E+00  0.00000000000E+00  0.83769653890E+03  0.83769653891E+03  0.25500000920E-02 0. -1.
        2   -1    0    0  501    0  0.00000000000E+00  0.00000000000E+00 -0.18601778901E+04  0.18601778901E+04  0.25500000920E-02 0.  1.
    10030    2    1    2    0    0  0.00000000000E+00  0.00000000000E+00 -0.10224813512E+04  0.26978744290E+04  0.24966093649E+04 0.  0.
        2    1    3    3  502    0  0.70245254925E+03 -0.10299104162E+04 -0.44196715535E+03  0.13226828856E+04  0.25500000920E-02 0.  1.
       -2    1    3    3    0  502 -0.70245254925E+03  0.10299104162E+04 -0.58051419580E+03  0.13751915434E+04  0.25500000920E-02 0. -1.
</event>
<event>
 5   0  0.4664127E-05  0.2431694E+04  0.7818609E-02  0.8427732E-01
        2   -1    0    0  501    0  0.00000000000E+00  0.00000000000E+00  0.14017398569E+04  0.14017398569E+04  0.25500000920E-02 0.  1.
       -2   -1    0    0    0  501  0.00000000000E+00  0.00000000000E+00 -0.10546068365E+04  0.10546068365E+04  0.25500000920E-02 0. -1.
    10030    2    1    2    0    0  0.00000000000E+00  0.00000000000E+00  0.34713302034E+03  0.24563466934E+04  0.24316944184E+04 0.  0.
        4    1    3    3  502    0  0.64900038543E+03  0.19995755000E+03  0.11923036290E+04  0.13721421496E+04  0.12699999809E+01 0.  1.
       -4    1    3    3    0  502 -0.64900038543E+03 -0.19995755000E+03 -0.84517060870E+03  0.10842045438E+04  0.12699999809E+01 0. -1.
</event>
<event>
 5   0  0.4713971E-05  0.2403998E+04  0.7818609E-02  0.8438008E-01
        2   -1    0    0  501    0  0.00000000000E+00  0.00000000000E+00  0.19333902285E+04  0.19333902285E+04  0.25500000920E-02 0. -1.
       -2   -1    0    0    0  501  0.00000000000E+00  0.00000000000E+00 -0.74728892767E+03  0.74728892768E+03  0.25500000920E-02 0.  1.
    10030    2    1    2    0    0  0.00000000000E+00  0.00000000000E+00  0.11861013008E+04  0.26806791562E+04  0.24039975962E+04 0.  0.
        5    1    3    3  502    0  0.58174168701E+03  0.10038926453E+04  0.94311714962E+03  0.14952310462E+04  0.46999998093E+01 0. -1.
       -5    1    3    3    0  502 -0.58174168701E+03 -0.10038926453E+04  0.24298415123E+03  0.11854481100E+04  0.46999998093E+01 0.  1.
</event>
<event>
 5   0  0.4664127E-05  0.2398228E+04  0.7818609E-02  0.8440167E-01
        2   -1    0    0  501    0  0.00000000000E+00  0.00000000000E+00  0.92033724870E+03  0.92033724870E+03  0.25500000920E-02 0.  1.
       -2   -1    0    0    0  501  0.00000000000E+00  0.00000000000E+00 -0.15623342036E+04  0.15623342036E+04  0.25500000920E-02 0. -1.
    10030    2    1    2    0    0  0.00000000000E+00  0.00000000000E+00 -0.64199695494E+03  0.24826714523E+04  0.23982279813E+04 0.  0.
        4    1    3    3  502    0 -0.43523421535E+03  0.10762800155E+03  0.83030305214E+03  0.94361929836E+03  0.12699999809E+01 0.  1.
       -4    1    3    3    0  502  0.43523421535E+03 -0.10762800155E+03 -0.14723000071E+04  0.15390521540E+04  0.12699999809E+01 0. -1.
</event>
<event>
 5   0  0.4856882E-05  0.2363208E+04  0.7818609E-02  0.8453408E-01
       -2   -1    0    0    0  501  0.00000000000E+00  0.00000000000E+00  0.79688302434E+03  0.79688302435E+03  0.25500000920E-02 0.  1.
        2   -1    0    0  501    0  0.00000000000E+00  0.00000000000E+00 -0.17520614842E+04  0.17520614842E+04  0.25500000920E-02 0. -1.
    10030    2    1    2    0    0  0.00000000000E+00  0.00000000000E+00 -0.95517845988E+03  0.25489445086E+04  0.23632080352E+04 0.  0.
        1    1    3    3  502    0  0.19381187280E+03 -0.12791146535E+03 -0.17272074359E+04  0.17427478050E+04  0.50400001928E-02 0. -1.
       -1    1    3    3    0  502 -0.19381187280E+03  0.12791146535E+03  0.77202897605E+03  0.80619670360E+03  0.50400001928E-02 0.  1.
</event>
<event>
 5   0  0.2139556E-05  0.2073528E+04  0.7818609E-02  0.8572995E-01
       -1   -1    0    0    0  501  0.00000000000E+00  0.00000000000E+00  0.69550231133E+03  0.69550231135E+03  0.50400001928E-02 0.  1.
        1   -1    0    0  501    0  0.00000000000E+00  0.00000000000E+00 -0.15454725181E+04  0.15454725181E+04  0.50400001928E-02 0. -1.
    10030    2    1    2    0    0  0.00000000000E+00  0.00000000000E+00 -0.84997020676E+03  0.22409748294E+04  0.20735281126E+04 0.  0.
        2    1    3    3  502    0  0.21165330778E+03  0.30046315971E+03  0.62273627386E+03  0.72310144504E+03  0.25500000920E-02 0.  1.
       -2    1    3    3    0  502 -0.21165330778E+03 -0.30046315971E+03 -0.14727064806E+04  0.15178733844E+04  0.25500000920E-02 0. -1.
</event>
<event>
 5   0  0.4914005E-05  0.2432042E+04  0.7818609E-02  0.8427604E-01
       -2   -1    0    0    0  501  0.00000000000E+00  0.00000000000E+00  0.79890097898E+03  0.79890097898E+03  0.25500000920E-02 0. -1.
        2   -1    0    0  501    0  0.00000000000E+00  0.00000000000E+00 -0.18509269055E+04  0.18509269055E+04  0.25500000920E-02 0.  1.
    10030    2    1    2    0    0  0.00000000000E+00  0.00000000000E+00 -0.10520259265E+04  0.26498278845E+04  0.24320422010E+04 0.  0.
        2    1    3    3  502    0  0.67059591657E+03  0.50879383774E+02 -0.16298603997E+04  0.17631598105E+04  0.25500000920E-02 0.  1.
       -2    1    3    3    0  502 -0.67059591657E+03 -0.50879383774E+02  0.57783447315E+03  0.88666807396E+03  0.25500000920E-02 0. -1.
</event>
<event>
 5   0  0.4756705E-05  0.2427404E+04  0.7818609E-02  0.8429315E-01
        2   -1    0    0  501    0  0.00000000000E+00  0.00000000000E+00  0.10882759387E+04  0.10882759387E+04  0.25500000920E-02 0.  1.
       -2   -1    0    0    0  501  0.00000000000E+00  0.00000000000E+00 -0.13535831490E+04  0.13535831490E+04  0.25500000920E-02 0. -1.
    10030    2    1    2    0    0  0.00000000000E+00  0.00000000000E+00 -0.26530721035E+03  0.24418590877E+04  0.24274035281E+04 0.  0.
        3    1    3    3  502    0  0.84500807998E+02  0.52480945320E+03  0.96494747505E+03  0.11016755369E+04  0.10100000352E+00 0.  1.
       -3    1    3    3    0  502 -0.84500807998E+02 -0.52480945320E+03 -0.12302546854E+04  0.13401835508E+04  0.10100000352E+00 0. -1.
</event>
<event>
 5   0  0.4713971E-05  0.2377311E+04  0.7818609E-02  0.8448047E-01
       -2   -1    0    0    0  501  0.00000000000E+00  0.00000000000E+00  0.12967001381E+04  0.12967001381E+04  0.25500000920E-02 0. -1.
        2   -1    0    0  501    0  0.00000000000E+00  0.00000000000E+00 -0.10896135921E+04  0.10896135921E+04  0.25500000920E-02 0.  1.
    10030    2    1    2    0    0  0.00000000000E+00  0.00000000000E+00  0.20708654593E+03  0.23863137302E+04  0.23773111663E+04 0.  0.
        5    1    3    3  502    0  0.17577183592E+03  0.27125171529E+03  0.12517310036E+04  0.12927976744E+04  0.46999998093E+01 0. -1.
       -5    1    3    3    0  502 -0.17577183592E+03 -0.27125171529E+03 -0.10446444577E+04  0.10935160558E+04  0.46999998093E+01 0.  1.
</event>
<event>
 5   0  0.4856882E-05  0.2421673E+04  0.7818609E-02  0.8431434E-01
        2   -1    0    0  501    0  0.00000000000E+00  0.00000000000E+00  0.13201146732E+04  0.13201146732E+04  0.25500000920E-02 0. -1.
       -2   -1    0    0    0  501  0.00000000000E+00  0.00000000000E+00 -0.11106041406E+04  0.11106041406E+04  0.25500000920E-02 0.  1.
    10030    2    1    2    0    0  0.00000000000E+00  0.00000000000E+00  0.20951053258E+03  0.24307188138E+04  0.24216728286E+04 0.  0.
        1    1    3    3  502    0  0.48586090178E+03  0.66230715038E+03  0.99769245479E+03  0.12923241899E+04  0.50400001928E-02 0. -1.
       -1    1    3    3    0  502 -0.48586090178E+03 -0.66230715038E+03 -0.78818192221E+03  0.11383946240E+04  0.50400001928E-02 0.  1.
</event>
<event>
 5   0  0.2090039E-05  0.2443046E+04  0.7818609E-02  0.8423561E-01
       -1   -1    0    0    0  501  0.00000000000E+00  0.00000000000E+00  0.10335885118E+04  0.10335885118E+04  0.50400001928E-02 0. -1.
        1   -1    0    0  501    0  0.00000000000E+00  0.00000000000E+00 -0.14436291553E+04  0.14436291553E+04  0.50400001928E-02 0.  1.
    10030    2    1    2    0    0  0.00000000000E+00  0.00000000000E+00 -0.41004064349E+03  0.24772176671E+04  0.24430460578E+04 0.  0.
        1    1    3    3  502    0  0.89230872210E+03  0.61880233921E+03 -0.77229824890E+03  0.13325073267E+04  0.50400001928E-02 0.  1.
       -1    1    3    3    0  502 -0.89230872210E+03 -0.61880233921E+03  0.36225760541E+03  0.11447103403E+04  0.50400001928E-02 0. -1.
</event>
<event>
 5   0  0.4914005E-05  0.2303643E+04  0.7818609E-02  0.8476486E-01
        2   -1    0    0  501    0  0.00000000000E+00  0.00000000000E+00  0.19869882831E+04  0.19869882831E+04  0.25500000920E-02 0. -1.
       -2   -1    0    0    0  501  0.00000000000E+00  0.00000000000E+00 -0.66769002486E+03  0.66769002486E+03  0.25500000920E-02 0.  1.
    10030    2    1    2    0    0  0.00000000000E+00  0.00000000000E+00  0.13192982582E+04  0.26546783079E+04  0.23036425557E+04 0.  0.
        2    1    3    3  502    0  0.21820720955E+03  0.58862642495E+03 -0.45321916443E+03  0.77427583293E+03  0.25500000920E-02 0.  1.
       -2    1    3    3    0  502 -0.21820720955E+03 -0.58862642495E+03  0.17725174227E+04  0.18804024750E+04  0.25500000920E-02 0. -1.
</event>
<event>
 5   0  0.2065692E-05  0.2464642E+04  0.7818609E-02  0.8415691E-01
       -1   -1    0    0    0  501  0.00000000000E+00  0.00000000000E+00  0.14287929890E+04  0.14287929890E+04  0.50400001928E-02 0.  1.
        1   -1    0    0  501    0  0.00000000000E+00  0.00000000000E+00 -0.10628660943E+04  0.10628660943E+04  0.50400001928E-02 0. -1.
    10030    2    1    2    0    0  0.00000000000E+00  0.00000000000E+00  0.36592689470E+03  0.24916590833E+04  0.24646424680E+04 0.  0.
        3    1    3    3  502    0 -0.99624286778E+03  0.72204463061E+03  0.11316085643E+03  0.12355782815E+04  0.10100000352E+00 0.  1.
       -3    1    3    3    0  502  0.99624286778E+03 -0.72204463061E+03  0.25276603828E+03  0.12560808017E+04  0.10100000352E+00 0. -1.
</event>
<event>
 5   0  0.4713971E-05  0.2381561E+04  0.7818609E-02  0.8446439E-01
        2   -1    0    0  501    0  0.00000000000E+00  0.00000000000E+00  0.21404134776E+04  0.21404134776E+04  0.25500000920E-02 0.  1.
       -2   -1    0    0    0  501  0.00000000000E+00  0.00000000000E+00 -0.66246956703E+03  0.66246956704E+03  0.25500000920E-02 0. -1.
    10030    2    1    2    0    0  0.00000000000E+00  0.00000000000E+00  0.14779439106E+04  0.28028830446E+04  0.23815614960E+04 0.  0.
        5    1    3    3  502    0 -0.11717868716E+04 -0.18228635293E+03  0.86585960354E+03  0.14683486405E+04  0.46999998093E+01 0.  1.
       -5    1    3    3    0  502  0.11717868716E+04  0.18228635293E+03  0.61208430702E+03  0.13345344041E+04  0.46999998093E+01 0. -1.
</event>
<event>
 5   0  0.2057599E-05  0.2350181E+04  0.7818609E-02  0.8458394E-01
        1   -1    0    0  501    0  0.00000000000E+00  0.00000000000E+00  0.66590245834E+03  0.66590245836E+03  0.50400001928E-02 0. -1.
       -1   -1    0    0    0  501  0.00000000000E+00  0.00000000000E+00 -0.20736330935E+04  0.20736330935E+04  0.50400001928E-02 0.  1.
    10030    2    1    2    0    0  0.00000000000E+00  0.00000000000E+00 -0.14077306352E+04  0.27395355519E+04  0.23501807375E+04 0.  0.
        4    1    3    3  502    0  0.74189122660E+03 -0.90007076088E+03 -0.53775918056E+03  0.12844129071E+04  0.12699999809E+01 0.  1.
       -4    1    3    3    0  502 -0.74189122660E+03  0.90007076088E+03 -0.86997145462E+03  0.14551226448E+04  0.12699999809E+01 0. -1.
</event>
<event>
 5   0  0.4664127E-05  0.2389123E+04  0.7818609E-02  0.8443587E-01
       -2   -1    0    0    0  501  0.00000000000E+00  0.00000000000E+00  0.95041408897E+03  0.95041408897E+03  0.25500000920E-02 0. -1.
        2   -1    0    0  501    0  0.00000000000E+00  0.00000000000E+00 -0.15014270685E+04  0.15014270685E+04  0.25500000920E-02 0.  1.
    10030    2    1    2    0    0  0.00000000000E+00  0.00000000000E+00 -0.55101297952E+03  0.24518411575E+04  0.23891232195E+04 0.  0.
        4    1    3    3  502    0  0.64803305001E+03 -0.59806232913E+03 -0.11024833401E+04  0.14117707008E+04  0.12699999809E+01 0.  1.
       -4    1    3    3    0  502 -0.64803305001E+03  0.59806232913E+03  0.55147036057E+03  0.10400704567E+04  0.12699999809E+01 0. -1.
</event>
<event>
 5   0  0.2090039E-05  0.2214663E+04  0.7818609E-02  0.8512350E-01
       -1   -1    0    0    0  501  0.00000000000E+00  0.00000000000E+00  0.16607783988E+04  0.16607783988E+04  0.50400001928E-02 0.  1.
        1   -1    0    0  501    0  0.00000000000E+00  0.00000000000E+00 -0.73831809129E+03  0.73831809131E+03  0.50400001928E-02 0. -1.
    10030    2    1    2    0    0  0.00000000000E+00  0.00000000000E+00  0.92246030747E+03  0.23990964901E+04  0.22146627170E+04 0.  0.
        1    1    3    3  502    0  0.20448628616E+03 -0.55249512862E+03  0.14769256263E+04  0.15900864171E+04  0.50400001928E-02 0.  1.
       -1    1    3    3    0  502 -0.20448628616E+03  0.55249512862E+03 -0.55446531879E+03  0.80901007296E+03  0.50400001928E-02 0. -1.
</event>
<event>
 5   0  0.4856882E-05  0.2396070E+04  0.7818609E-02  0.8440976E-01
       -2   -1    0    0    0  501  0.00000000000E+00  0.00000000000E+00  0.70128084946E+03  0.70128084947E+03  0.25500000920E-02 0.  1.
        2   -1    0    0  501    0  0.00000000000E+00  0.00000000000E+00 -0.20466658125E+04  0.20466658125E+04  0.25500000920E-02 0. -1.
    10030    2    1    2    0    0  0.00000000000E+00  0.00000000000E+00 -0.13453849630E+04  0.27479466619E+04  0.23960697315E+04 0.  0.
        1    1    3    3  502    0 -0.11271276092E+04 -0.38550269437E+03 -0.81892701657E+03  0.14455692419E+04  0.50400001928E-02 0.  1.
       -1    1    3    3    0  502  0.11271276092E+04  0.38550269437E+03 -0.52645794644E+03  0.13023774200E+04  0.50400001928E-02 0. -1.
</event>
<event>
 5   0  0.2057599E-05  0.2405305E+04  0.7818609E-02  0.8437520E-01
        1   -1    0    0  501    0  0.00000000000E+00  0.00000000000E+00  0.11474511646E+04  0.11474511646E+04  0.50400001928E-02 0. -1.
       -1   -1    0    0    0  501  0.00000000000E+00  0.00000000000E+00 -0.12605090272E+04  0.12605090273E+04  0.50400001928E-02 0.  1.
    10030    2    1    2    0    0  0.00000000000E+00  0.00000000000E+00 -0.11305786268E+03  0.24079601918E+04  0.24053045972E+04 0.  0.
        4    1    3    3  502    0  0.50943921495E+03  0.90046621475E+02 -0.11434228766E+04  0.12550116316E+04  0.12699999809E+01 0.  1.
       -4    1    3    3    0  502 -0.50943921495E+03 -0.90046621475E+02  0.10303650139E+04  0.11529485602E+04  0.12699999809E+01 0. -1.
</event>
<event>
 5   0  0.4756705E-05  0.2353885E+04  0.7818609E-02  0.8456973E-01
        2   -1    0    0  501    0  0.00000000000E+00  0.00000000000E+00  0.18864329612E+04  0.18864329612E+04  0.25500000920E-02 0. -1.
       -2   -1    0    0    0  501  0.00000000000E+00  0.00000000000E+00 -0.73429230194E+03  0.73429230194E+03  0.25500000920E-02 0.  1.
    10030    2    1    2    0    0  0.00000000000E+00  0.00000000000E+00  0.11521406593E+04  0.26207252632E+04  0.23538846204E+04 0.  0.
        3    1    3    3  502    0  0.25083602868E+03  0.11250369479E+04  0.84086874341E+03  0.14267750703E+04  0.10100000352E+00 0. -1.
       -3    1    3    3    0  502 -0.25083602868E+03 -0.11250369479E+04  0.31127191590E+03  0.11939501929E+04  0.10100000352E+00 0.  1.
</event>
<event>
 5   0  0.2065692E-05  0.2411766E+04  0.7818609E-02  0.8435111E-01
       -1   -1    0    0    0  501  0.00000000000E+00  0.00000000000E+00  0.67219576995E+03  0.67219576997E+03  0.50400001928E-02 0. -1.
        1   -1    0    0  501    0  0.00000000000E+00  0.00000000000E+00 -0.21632899246E+04  0.21632899246E+04  0.50400001928E-02 0.  1.
    10030    2    1    2    0    0  0.00000000000E+00  0.00000000000E+00 -0.14910941547E+04  0.28354856946E+04  0.24117664369E+04 0.  0.
        3    1    3    3  502    0  0.41039871804E+03 -0.57597906996E+02 -0.20769380582E+04  0.21178801511E+04  0.10100000352E+00 0.  1.
       -3    1    3    3    0  502 -0.41039871804E+03  0.57597906996E+02  0.58584390348E+03  0.71760554353E+03  0.10100000352E+00 0. -1.
</event>
<event>
 5   0  0.4856882E-05  0.2367986E+04  0.7818609E-02  0.8451587E-01
       -2   -1    0    0    0  501  0.00000000000E+00  0.00000000000E+00  0.98393079791E+03  0.98393079791E+03  0.25500000920E-02 0. -1.
        2   -1    0    0  501    0  0.00000000000E+00  0.00000000000E+00 -0.14247334282E+04  0.14247334282E+04  0.25500000920E-02 0.  1.
    10030    2    1    2    0    0  0.00000000000E+00  0.00000000000E+00 -0.44080263026E+03  0.24086642261E+04  0.23679857253E+04 0.  0.
        1    1    3    3  502    0  0.50411009487E+03  0.10019696253E+04  0.16528104832E+03  0.11337495061E+04  0.50400001928E-02 0. -1.
       -1    1    3    3    0  502 -0.50411009487E+03 -0.10019696253E+04 -0.60608367858E+03  0.12749147200E+04  0.50400001928E-02 0.  1.
</event>
<event>
 5   0  0.2057599E-05  0.2411363E+04  0.7818609E-02  0.8435262E-01
       -1   -1    0    0    0  501  0.00000000000E+00  0.00000000000E+00  0.99423716881E+03  0.99423716882E+03  0.50400001928E-02 0. -1.
        1   -1    0    0  501    0  0.00000000000E+00  0.00000000000E+00 -0.14620939503E+04  0.14620939503E+04  0.50400001928E-02 0.  1.
    10030    2    1    2    0    0  0.00000000000E+00  0.00000000000E+00 -0.46785678147E+03  0.24563311191E+04  0.24113632241E+04 0.  0.
        4    1    3    3  502    0  0.81945667736E+03  0.69191558930E+03 -0.79502713877E+03  0.13350378995E+04  0.12699999809E+01 0.  1.
       -4    1    3    3    0  502 -0.81945667736E+03 -0.69191558930E+03  0.32717035729E+03  0.11212932196E+04  0.12699999809E+01 0. -1.
</event>
<event>
 5   0  0.4756705E-05  0.2428986E+04  0.7818609E-02  0.8428731E-01
        2   -1    0    0  501    0  0.00000000000E+00  0.00000000000E+00  0.16665061383E+04  0.16665061383E+04  0.25500000920E-02 0.  1.
       -2   -1    0    0    0  501  0.00000000000E+00  0.00000000000E+00 -0.88508128529E+03  0.88508128529E+03  0.25500000920E-02 0. -1.
    10030    2    1    2    0    0  0.00000000000E+00  0.00000000000E+00  0.78142485305E+03  0.25515874236E+04  0.24289861217E+04 0.  0.
        3    1    3    3  502    0 -0.34325187704E+03 -0.48519337150E+02  0.16134290129E+04  0.16502512436E+04  0.10100000352E+00 0.  1.
       -3    1    3    3    0  502  0.34325187704E+03  0.48519337150E+02 -0.83200415986E+03  0.90133618001E+03  0.10100000352E+00 0. -1.
</event>
<event>
 5   0  0.2057599E-05  0.2159721E+04  0.7818609E-02  0.8535383E-01
        1   -1    0    0  501    0  0.00000000000E+00  0.00000000000E+00  0.14532916603E+04  0.14532916603E+04  0.50400001928E-02 0. -1.
       -1   -1    0    0    0  501  0.00000000000E+00  0.00000000000E+00 -0.80238429210E+03  0.80238429211E+03  0.50400001928E-02 0.  1.
    10030    2    1    2    0    0  0.00000000000E+00  0.00000000000E+00  0.65090736817E+03  0.22556759524E+04  0.21597207227E+04 0.  0.
        4    1    3    3  502    0  0.54186286663E+03  0.33260624945E+03 -0.58616902211E+03  0.86477628251E+03  0.12699999809E+01 0.  1.
       -4    1    3    3    0  502 -0.54186286663E+03 -0.33260624945E+03  0.12370763903E+04  0.13908996699E+04  0.12699999809E+01 0. -1.
</event>
<event>
 5   0  0.1672125E-05  0.2439464E+04  0.7818609E-02  0.8424875E-01
        3   -1    0    0  501    0  0.00000000000E+00  0.00000000000E+00  0.27443575699E+04  0.27443575717E+04  0.10100000352E+00 0. -1.
       -3   -1    0    0    0  501  0.00000000000E+00  0.00000000000E+00 -0.54211111058E+03  0.54211111999E+03  0.10100000352E+00 0.  1.
    10030    2    1    2    0    0  0.00000000000E+00  0.00000000000E+00  0.22022464593E+04  0.32864686917E+04  0.24394644892E+04 0.  0.
        2    1    3    3  502    0  0.98769142253E+03 -0.41012345255E+03  0.18912945490E+04  0.21727242493E+04  0.25500000920E-02 0. -1.
       -2    1    3    3    0  502 -0.98769142253E+03  0.41012345255E+03  0.31095191029E+03  0.11137444424E+04  0.25500000920E-02 0.  1.
</event>
<event>
 5   0  0.2057599E-05  0.2401570E+04  0.7818609E-02  0.8438916E-01
        1   -1    0    0  501    0  0.00000000000E+00  0.00000000000E+00  0.17466412716E+04  0.17466412716E+04  0.50400001928E-02 0.  1.
       -1   -1    0    0    0  501  0.00000000000E+00  0.00000000000E+00 -0.82551849385E+03  0.82551849386E+03  0.50400001928E-02 0. -1.
    10030    2    1    2    0    0  0.00000000000E+00  0.00000000000E+00  0.92112277776E+03  0.25721597655E+04  0.24015700463E+04 0.  0.
        4    1    3    3  502    0 -0.45848630348E+03  0.10746815388E+04  0.75724506670E+03  0.13923260410E+04  0.12699999809E+01 0.  1.
       -4    1    3    3    0  502  0.45848630348E+03 -0.10746815388E+04  0.16387771106E+03  0.11798337245E+04  0.12699999809E+01 0. -1.
</event>
<event>
 5   0  0.2149920E-05  0.2339859E+04  0.7818609E-02  0.8462369E-01
        1   -1    0    0  501    0  0.00000000000E+00  0.00000000000E+00  0.16329544817E+04  0.16329544817E+04  0.50400001928E-02 0. -1.
       -1   -1    0    0    0  501  0.00000000000E+00  0.00000000000E+00 -0.83819517444E+03  0.83819517446E+03  0.50400001928E-02 0.  1.
    10030    2    1    2    0    0  0.00000000000E+00  0.00000000000E+00  0.79475930728E+03  0.24711496562E+04  0.23398585997E+04 0.  0.
        5    1    3    3  502    0  0.30710510941E+03  0.43930501741E+03  0.14956383000E+04  0.15887915096E+04  0.46999998093E+01 0. -1.
       -5    1    3    3    0  502 -0.30710510941E+03 -0.43930501741E+03 -0.70087899268E+03  0.88235814663E+03  0.46999998093E+01 0.  1.
</event>
<event>
 5   0  0.4914005E-05  0.2450385E+04  0.7818609E-02  0.8420878E-01
       -2   -1    0    0    0  501  0.00000000000E+00  0.00000000000E+00  0.10052514489E+04  0.10052514489E+04  0.25500000920E-02 0.  1.
        2   -1    0    0  501    0  0.00000000000E+00  0.00000000000E+00 -0.14932546473E+04  0.14932546473E+04  0.25500000920E-02 0. -1.
    10030    2    1    2    0    0  0.00000000000E+00  0.00000000000E+00 -0.48800319838E+03  0.24985060962E+04  0.24503847843E+04 0.  0.
        2    1    3    3  502    0  0.10553908025E+04  0.19301330410E+03  0.35921808573E+03  0.11314333894E+04  0.25500000920E-02 0. -1.
       -2    1    3    3    0  502 -0.10553908025E+04 -0.19301330410E+03 -0.84722128411E+03  0.13670727068E+04  0.25500000920E-02 0.  1.
</event>
<event>
 5   0  0.4664127E-05  0.2342588E+04  0.7818609E-02  0.8461316E-01
        2   -1    0    0  501    0  0.00000000000E+00  0.00000000000E+00  0.68021626792E+03  0.68021626792E+03  0.25500000920E-02 0.  1.
       -2   -1    0    0    0  501  0.00000000000E+00  0.00000000000E+00 -0.20169018554E+04  0.20169018554E+04  0.25500000920E-02 0. -1.
    10030    2    1    2    0    0  0.00000000000E+00  0.00000000000E+00 -0.13366855875E+04  0.26971181233E+04  0.23425878450E+04 0.  0.
        4    1    3    3  502    0 -0.92672828778E+03  0.61984810566E+03 -0.10816901076E+04  0.15534130472E+04  0.12699999809E+01 0. -1.
       -4    1    3    3    0  502  0.92672828778E+03 -0.61984810566E+03 -0.25499547989E+03  0.11437050761E+04  0.12699999809E+01 0.  1.
</event>
<event>
 5   0  0.4713971E-05  0.2369088E+04  0.7818609E-02  0.8451168E-01
        2   -1    0    0  501    0  0.00000000000E+00  0.00000000000E+00  0.15970988470E+04  0.15970988470E+04  0.25500000920E-02 0. -1.
       -2   -1    0    0    0  501  0.00000000000E+00  0.00000000000E+00 -0.87855868784E+03  0.87855868784E+03  0.25500000920E-02 0.  1.
    10030    2    1    2    0    0  0.00000000000E+00  0.00000000000E+00  0.71854015920E+03  0.24756575349E+04  0.23690884892E+04 0.  0.
        5    1    3    3  502    0  0.28239481251E+03 -0.32907462576E+03  0.15111648324E+04  0.15721571741E+04  0.46999998093E+01 0. -1.
       -5    1    3    3    0  502 -0.28239481251E+03  0.32907462576E+03 -0.79262467316E+03  0.90350036080E+03  0.46999998093E+01 0.  1.
</event>
<event>
 5   0  0.4713971E-05  0.2421781E+04  0.7818609E-02  0.8431394E-01
        2   -1    0    0  501    0  0.00000000000E+00  0.00000000000E+00  0.13590361450E+04  0.13590361450E+04  0.25500000920E-02 0.  1.
       -2   -1    0    0    0  501  0.00000000000E+00  0.00000000000E+00 -0.10788943199E+04  0.10788943199E+04  0.25500000920E-02 0. -1.
    10030    2    1    2    0    0  0.00000000000E+00  0.00000000000E+00  0.28014182508E+03  0.24379304649E+04  0.24217814743E+04 0.  0.
        5    1    3    3  502    0 -0.64352290398E+03  0.37469415566E+03 -0.82113481993E+03  0.11085133832E+04  0.46999998093E+01 0. -1.
       -5    1    3    3    0  502  0.64352290398E+03 -0.37469415566E+03  0.11012766450E+04  0.13294170817E+04  0.46999998093E+01 0.  1.
</event>
<event>
 5   0  0.2057599E-05  0.2398083E+04  0.7818609E-02  0.8440222E-01
        1   -1    0    0  501    0  0.00000000000E+00  0.00000000000E+00  0.18676966960E+04  0.18676966960E+04  0.50400001928E-02 0. -1.
       -1   -1    0    0    0  501  0.00000000000E+00  0.00000000000E+00 -0.76977175424E+03  0.76977175426E+03  0.50400001928E-02 0.  1.
    10030    2    1    2    0    0  0.00000000000E+00  0.00000000000E+00  0.10979249417E+04  0.26374684502E+04  0.23980827026E+04 0.  0.
        4    1    3    3  502    0  0.36991871524E+03  0.28573067190E+03  0.17633675191E+04  0.18242665630E+04  0.12699999809E+01 0. -1.
       -4    1    3    3    0  502 -0.36991871524E+03 -0.28573067190E+03 -0.66544257734E+03  0.81320188722E+03  0.12699999809E+01 0.  1.
</event>
<event>
 5   0  0.2090039E-05  0.2011756E+04  0.7818609E-02  0.8601144E-01
       -1   -1    0    0    0  501  0.00000000000E+00  0.00000000000E+00  0.14288089300E+04  0.14288089300E+04  0.50400001928E-02 0. -1.
        1   -1    0    0  501    0  0.00000000000E+00  0.00000000000E+00 -0.70813550934E+03  0.70813550936E+03  0.50400001928E-02 0.  1.
    10030    2    1    2    0    0  0.00000000000E+00  0.00000000000E+00  0.72067342063E+03  0.21369444393E+04  0.20117557898E+04 0.  0.
        1    1    3    3  502    0  0.20106195856E+02 -0.80777897584E+03 -0.27600753169E+03  0.85386842692E+03  0.50400001928E-02 0.  1.
       -1    1    3    3    0  502 -0.20106195856E+02  0.80777897584E+03  0.99668095232E+03  0.12830760124E+04  0.50400001928E-02 0. -1.
</event>
<event>
 5   0  0.4756705E-05  0.2380653E+04  0.7818609E-02  0.8446783E-01
       -2   -1    0    0    0  501  0.00000000000E+00  0.00000000000E+00  0.88556269840E+03  0.88556269840E+03  0.25500000920E-02 0. -1.
        2   -1    0    0  501    0  0.00000000000E+00  0.00000000000E+00 -0.15999734513E+04  0.15999734513E+04  0.25500000920E-02 0.  1.
    10030    2    1    2    0    0  0.00000000000E+00  0.00000000000E+00 -0.71441075288E+03  0.24855361497E+04  0.23806526894E+04 0.  0.
        3    1    3    3  502    0  0.26991041441E+03 -0.60711966196E+03  0.67394568447E+03  0.94638718903E+03  0.10100000352E+00 0. -1.
       -3    1    3    3    0  502 -0.26991041441E+03  0.60711966196E+03 -0.13883564373E+04  0.15391489607E+04  0.10100000352E+00 0.  1.
</event>
<event>
 5   0  0.4856882E-05  0.2371697E+04  0.7818609E-02  0.8450176E-01
        2   -1    0    0  501    0  0.00000000000E+00  0.00000000000E+00  0.17845818191E+04  0.17845818191E+04  0.25500000920E-02 0. -1.
       -2   -1    0    0    0  501  0.00000000000E+00  0.00000000000E+00 -0.78799216794E+03  0.78799216795E+03  0.25500000920E-02 0.  1.
    10030    2    1    2    0    0  0.00000000000E+00  0.00000000000E+00  0.99658965117E+03  0.25725739871E+04  0.23716968580E+04 0.  0.
        1    1    3    3  502    0  0.55996112537E+03  0.14754805264E+03  0.16207916031E+04  0.17211311137E+04  0.50400001928E-02 0. -1.
       -1    1    3    3    0  502 -0.55996112537E+03 -0.14754805264E+03 -0.62420195195E+03  0.85144287337E+03  0.50400001928E-02 0.  1.
</event>
<event>
 5   0  0.4713971E-05  0.2442255E+04  0.7818609E-02  0.8423851E-01
       -2   -1    0    0    0  501  0.00000000000E+00  0.00000000000E+00  0.15799929401E+04  0.15799929401E+04  0.25500000920E-02 0. -1.
        2   -1    0    0  501    0  0.00000000000E+00  0.00000000000E+00 -0.94377120639E+03  0.94377120639E+03  0.25500000920E-02 0.  1.
    10030    2    1    2    0    0  0.00000000000E+00  0.00000000000E+00  0.63622173370E+03  0.25237641465E+04  0.24422545675E+04 0.  0.
        5    1    3    3  502    0 -0.47902107246E+03  0.29970471034E+01  0.14788347783E+04  0.15544917374E+04  0.46999998093E+01 0. -1.
       -5    1    3    3    0  502  0.47902107246E+03 -0.29970471034E+01 -0.84261304457E+03  0.96927240910E+03  0.46999998093E+01 0.  1.
</event>
<event>
 5   0  0.2065692E-05  0.2395366E+04  0.7818609E-02  0.8441240E-01
       -1   -1    0    0    0  501  0.00000000000E+00  0.00000000000E+00  0.28474062822E+04  0.28474062822E+04  0.50400001928E-02 0.  1.
        1   -1    0    0  501    0  0.00000000000E+00  0.00000000000E+00 -0.50377247745E+03  0.50377247748E+03  0.50400001928E-02 0. -1.
    10030    2    1    2    0    0  0.00000000000E+00  0.00000000000E+00  0.23436338047E+04  0.33511787596E+04  0.23953662911E+04 0.  0.
        3    1    3    3  502    0 -0.73521407812E+03  0.44171877401E+03  0.23413133467E+04  0.24934721602E+04  0.10100000352E+00 0.  1.
       -3    1    3    3    0  502  0.73521407812E+03 -0.44171877401E+03  0.23204579801E+01  0.85770659943E+03  0.10100000352E+00 0. -1.
</event>
<event>
 5   0  0.4914005E-05  0.2162919E+04  0.7818609E-02  0.8534023E-01
        2   -1    0    0  501    0  0.00000000000E+00  0.00000000000E+00  0.23564351268E+04  0.23564351268E+04  0.25500000920E-02 0.  1.
       -2   -1    0    0    0  501  0.00000000000E+00  0.00000000000E+00 -0.49632356460E+03  0.49632356461E+03  0.25500000920E-02 0. -1.
    10030    2    1    2    0    0  0.00000000000E+00  0.00000000000E+00  0.18601115622E+04  0.28527586914E+04  0.21629186595E+04 0.  0.
        2    1    3    3  502    0 -0.77767314832E+03 -0.59749695224E+02  0.19181242924E+04  0.20706391170E+04  0.25500000920E-02 0.  1.
       -2    1    3    3    0  502  0.77767314832E+03  0.59749695224E+02 -0.58012730276E+02  0.78211957435E+03  0.25500000920E-02 0. -1.
</event>
<event>
 5   0  0.2090039E-05  0.2403623E+04  0.7818609E-02  0.8438148E-01
        1   -1    0    0  501    0  0.00000000000E+00  0.00000000000E+00  0.24140330263E+04  0.24140330264E+04  0.50400001928E-02 0. -1.
       -1   -1    0    0    0  501  0.00000000000E+00  0.00000000000E+00 -0.59831453714E+03  0.59831453717E+03  0.50400001928E-02 0.  1.
    10030    2    1    2    0    0  0.00000000000E+00  0.00000000000E+00  0.18157184892E+04  0.30123475635E+04  0.24036231426E+04 0.  0.
        1    1    3    3  502    0  0.30240678997E+03  0.11396718514E+03  0.23585570321E+04  0.23805943921E+04  0.50400001928E-02 0. -1.
       -1    1    3    3    0  502 -0.30240678997E+03 -0.11396718514E+03 -0.54283854291E+03  0.63175317142E+03  0.50400001928E-02 0.  1.
</event>
<event>
 5   0  0.4756705E-05  0.2346482E+04  0.7818609E-02  0.8459816E-01
       -2   -1    0    0    0  501  0.00000000000E+00  0.00000000000E+00  0.25616268568E+04  0.25616268568E+04  0.25500000920E-02 0. -1.
        2   -1    0    0  501    0  0.00000000000E+00  0.00000000000E+00 -0.53735149072E+03  0.53735149072E+03  0.25500000920E-02 0.  1.
    10030    2    1    2    0    0  0.00000000000E+00  0.00000000000E+00  0.20242753661E+04  0.30989783475E+04  0.23464816302E+04 0.  0.
        3    1    3    3  502    0 -0.98419140083E+02 -0.96023611154E+03  0.13136983468E+03  0.97416516090E+03  0.10100000352E+00 0.  1.
       -3    1    3    3    0  502  0.98419140083E+02  0.96023611154E+03  0.18929055314E+04  0.21248131866E+04  0.10100000352E+00 0. -1.
</event>
<event>
 5   0  0.4914005E-05  0.2402013E+04  0.7818609E-02  0.8438750E-01
       -2   -1    0    0    0  501  0.00000000000E+00  0.00000000000E+00  0.70227986745E+03  0.70227986745E+03  0.25500000920E-02 0.  1.
        2   -1    0    0  501    0  0.00000000000E+00  0.00000000000E+00 -0.20539062657E+04  0.20539062657E+04  0.25500000920E-02 0. -1.
    10030    2    1    2    0    0  0.00000000000E+00  0.00000000000E+00 -0.13516263982E+04  0.27561861331E+04  0.24020133389E+04 0.  0.
        2    1    3    3  502    0 -0.62399826177E+03 -0.14258072990E+02 -0.18531868046E+04  0.19554739722E+04  0.25500000920E-02 0. -1.
       -2    1    3    3    0  502  0.62399826177E+03  0.14258072990E+02  0.50156040638E+03  0.80071216089E+03  0.25500000920E-02 0.  1.
</event>
<event>
 5   0  0.2090039E-05  0.2235726E+04  0.7818609E-02  0.8503704E-01
        1   -1    0    0  501    0  0.00000000000E+00  0.00000000000E+00  0.18664524066E+04  0.18664524066E+04  0.50400001928E-02 0. -1.
       -1   -1    0    0    0  501  0.00000000000E+00  0.00000000000E+00 -0.66951484785E+03  0.66951484787E+03  0.50400001928E-02 0.  1.
    10030    2    1    2    0    0  0.00000000000E+00  0.00000000000E+00  0.11969375588E+04  0.25359672545E+04  0.22357259216E+04 0.  0.
        1    1    3    3  502    0  0.12728469489E+03  0.77945807019E+03  0.14958234673E+04  0.16915212449E+04  0.50400001928E-02 0. -1.
       -1    1    3    3    0  502 -0.12728469489E+03 -0.77945807019E+03 -0.29888590852E+03  0.84444600956E+03  0.50400001928E-02 0.  1.
</event>
<event>
 5   0  0.4713971E-05  0.2393703E+04  0.7818609E-02  0.8441865E-01
       -2   -1    0    0    0  501  0.00000000000E+00  0.00000000000E+00  0.10885225347E+04  0.10885225347E+04  0.25500000920E-02 0.  1.
        2   -1    0    0  501    0  0.00000000000E+00  0.00000000000E+00 -0.13159615821E+04  0.13159615821E+04  0.25500000920E-02 0. -1.
    10030    2    1    2    0    0  0.00000000000E+00  0.00000000000E+00 -0.22743904740E+03  0.24044841169E+04  0.23937032707E+04 0.  0.
        5    1    3    3  502    0  0.57712511387E+03 -0.39162903297E+03 -0.10907176618E+04  0.12946558632E+04  0.46999998093E+01 0. -1.
       -5    1    3    3    0  502 -0.57712511387E+03  0.39162903297E+03  0.86327861438E+03  0.11098282536E+04  0.46999998093E+01 0.  1.
</event>
<event>
 5   0  0.4914005E-05  0.2385876E+04  0.7818609E-02  0.8444810E-01
        2   -1    0    0  501    0  0.00000000000E+00  0.00000000000E+00  0.15284107971E+04  0.15284107971E+04  0.25500000920E-02 0. -1.
       -2   -1    0    0    0  501  0.00000000000E+00  0.00000000000E+00 -0.93109877287E+03  0.93109877288E+03  0.25500000920E-02 0.  1.
    10030    2    1    2    0    0  0.00000000000E+00  0.00000000000E+00  0.59731202420E+03  0.24595095700E+04  0.23858762898E+04 0.  0.
        2    1    3    3  502    0 -0.64888642984E+03  0.86788548637E+03 -0.21555989645E+03  0.11048732440E+04  0.25500000920E-02 0.  1.
       -2    1    3    3    0  502  0.64888642984E+03 -0.86788548637E+03  0.81287192066E+03  0.13546363260E+04  0.25500000920E-02 0. -1.
</event>
<event>
 5   0  0.4713971E-05  0.2513870E+04  0.7818609E-02  0.8398061E-01
       -2   -1    0    0    0  501  0.00000000000E+00  0.00000000000E+00  0.15538051511E+04  0.15538051511E+04  0.25500000920E-02 0. -1.
        2   -1    0    0  501    0  0.00000000000E+00  0.00000000000E+00 -0.10167849993E+04  0.10167849993E+04  0.25500000920E-02 0.  1.
    10030    2    1    2    0    0  0.00000000000E+00  0.00000000000E+00  0.53702015179E+03  0.25705901504E+04  0.25138701394E+04 0.  0.
        5    1    3    3  502    0 -0.78219970176E+03  0.81053252654E+02  0.12711732985E+04  0.14947607327E+04  0.46999998093E+01 0. -1.
       -5    1    3    3    0  502  0.78219970176E+03 -0.81053252654E+02 -0.73415314670E+03  0.10758294177E+04  0.46999998093E+01 0.  1.
</event>
<event>
 5   0  0.2090039E-05  0.2305679E+04  0.7818609E-02  0.8475685E-01
        1   -1    0    0  501    0  0.00000000000E+00  0.00000000000E+00  0.86286167890E+03  0.86286167891E+03  0.50400001928E-02 0.  1.
       -1   -1    0    0    0  501  0.00000000000E+00  0.00000000000E+00 -0.15402685867E+04  0.15402685867E+04  0.50400001928E-02 0. -1.
    10030    2    1    2    0    0  0.00000000000E+00  0.00000000000E+00 -0.67740690777E+03  0.24031302656E+04  0.23056788490E+04 0.  0.
        1    1    3    3  502    0  0.20422861481E+03 -0.90183813749E+03  0.37888531467E+03  0.99928746366E+03  0.50400001928E-02 0.  1.
       -1    1    3    3    0  502 -0.20422861481E+03  0.90183813749E+03 -0.10562922224E+04  0.14038428019E+04  0.50400001928E-02 0. -1.
</event>
<event>
 5   0  0.4664127E-05  0.1769219E+04  0.7818609E-02  0.8722842E-01
        2   -1    0    0  501    0  0.00000000000E+00  0.00000000000E+00  0.19929396393E+04  0.19929396393E+04  0.25500000920E-02 0.  1.
       -2   -1    0    0    0  501  0.00000000000E+00  0.00000000000E+00 -0.39265292404E+03  0.39265292405E+03  0.25500000920E-02 0. -1.
    10030    2    1    2    0    0  0.00000000000E+00  0.00000000000E+00  0.16002867153E+04  0.23855925634E+04  0.17692185584E+04 0.  0.
        4    1    3    3  502    0 -0.73130711203E+03  0.68256294358E+02  0.13536913883E+03  0.74685703482E+03  0.12699999809E+01 0. -1.
       -4    1    3    3    0  502  0.73130711203E+03 -0.68256294358E+02  0.14649175765E+04  0.16387355286E+04  0.12699999809E+01 0.  1.
</event>
<event>
 5   0  0.4756705E-05  0.2402487E+04  0.7818609E-02  0.8438573E-01
       -2   -1    0    0    0  501  0.00000000000E+00  0.00000000000E+00  0.12226980131E+04  0.12226980131E+04  0.25500000920E-02 0. -1.
        2   -1    0    0  501    0  0.00000000000E+00  0.00000000000E+00 -0.11801654009E+04  0.11801654009E+04  0.25500000920E-02 0.  1.
    10030    2    1    2    0    0  0.00000000000E+00  0.00000000000E+00  0.42532612243E+02  0.24028634140E+04  0.24024869538E+04 0.  0.
        3    1    3    3  502    0  0.11969616646E+04 -0.11272512192E+02  0.12198752148E+03  0.12032145534E+04  0.10100000352E+00 0. -1.
       -3    1    3    3    0  502 -0.11969616646E+04  0.11272512192E+02 -0.79454909239E+02  0.11996488606E+04  0.10100000352E+00 0.  1.
</event>
<event>
 5   0  0.4713971E-05  0.2338022E+04  0.7818609E-02  0.8463079E-01
        2   -1    0    0  501    0  0.00000000000E+00  0.00000000000E+00  0.25054205128E+04  0.25054205128E+04  0.25500000920E-02 0. -1.
       -2   -1    0    0    0  501  0.00000000000E+00  0.00000000000E+00 -0.54545202257E+03  0.54545202258E+03  0.25500000920E-02 0.  1.
    10030    2    1    2    0    0  0.00000000000E+00  0.00000000000E+00  0.19599684903E+04  0.30508725354E+04  0.23380219726E+04 0.  0.
        5    1    3    3  502    0 -0.66077396426E+03 -0.37716970610E+03 -0.17813123457E+03  0.78142948868E+03  0.46999998093E+01 0.  1.
       -5    1    3    3    0  502  0.66077396426E+03  0.37716970610E+03  0.21380997248E+04  0.22694430467E+04  0.46999998093E+01 0. -1.
</event>
<event>
 5   0  0.4756705E-05  0.2293434E+04  0.7818609E-02  0.8480515E-01
        2   -1    0    0  501    0  0.00000000000E+00  0.00000000000E+00  0.16755229257E+04  0.16755229257E+04  0.25500000920E-02 0. -1.
       -2   -1    0    0    0  501  0.00000000000E+00  0.00000000000E+00 -0.78480541288E+03  0.78480541288E+03  0.25500000920E-02 0.  1.
    10030    2    1    2    0    0  0.00000000000E+00  0.00000000000E+00  0.89071751280E+03  0.24603283386E+04  0.22934336367E+04 0.  0.
        3    1    3    3  502    0  0.29625306070E+03 -0.87880427689E+03  0.11688999221E+04  0.14921092022E+04  0.10100000352E+00 0. -1.
       -3    1    3    3    0  502 -0.29625306070E+03  0.87880427689E+03 -0.27818240931E+03  0.96821913641E+03  0.10100000352E+00 0.  1.
</event>
<event>
 5   0  0.2065692E-05  0.2535844E+04  0.7818609E-02  0.8390326E-01
        1   -1    0    0  501    0  0.00000000000E+00  0.00000000000E+00  0.90003232804E+03  0.90003232805E+03  0.50400001928E-02 0. -1.
       -1   -1    0    0    0  501  0.00000000000E+00  0.00000000000E+00 -0.17861871222E+04  0.17861871222E+04  0.50400001928E-02 0.  1.
    10030    2    1    2    0    0  0.00000000000E+00  0.00000000000E+00 -0.88615479412E+03  0.26862194502E+04  0.25358439652E+04 0.  0.
        3    1    3    3  502    0  0.32243189320E+03  0.51137669456E+03 -0.16236897667E+04  0.17325809991E+04  0.10100000352E+00 0.  1.
       -3    1    3    3    0  502 -0.32243189320E+03 -0.51137669456E+03  0.73753497262E+03  0.95363845116E+03  0.10100000352E+00 0. -1.
</event>
<event>
 5   0  0.2065692E-05  0.2369558E+04  0.7818609E-02  0.8450989E-01
        1   -1    0    0  501    0  0.00000000000E+00  0.00000000000E+00  0.96982236590E+03  0.96982236591E+03  0.50400001928E-02 0.  1.
       -1   -1    0    0    0  501  0.00000000000E+00  0.00000000000E+00 -0.14473803098E+04  0.14473803098E+04  0.50400001928E-02 0. -1.
    10030    2    1    2    0    0  0.00000000000E+00  0.00000000000E+00 -0.47755794390E+03  0.24172026757E+04  0.23695584369E+04 0.  0.
        3    1    3    3  502    0  0.10463632517E+04 -0.28242477521E+03  0.24944842481E+03  0.11121440262E+04  0.10100000352E+00 0.  1.
       -3    1    3    3    0  502 -0.10463632517E+04  0.28242477521E+03 -0.72700636870E+03  0.13050586495E+04  0.10100000352E+00 0. -1.
</event>
<event>
 5   0  0.4664127E-05  0.2352237E+04  0.7818609E-02  0.8457605E-01
        2   -1    0    0  501    0  0.00000000000E+00  0.00000000000E+00  0.27296330832E+04  0.27296330832E+04  0.25500000920E-02 0. -1.
       -2   -1    0    0    0  501  0.00000000000E+00  0.00000000000E+00 -0.50675500184E+03  0.50675500184E+03  0.25500000920E-02 0.  1.
    10030    2    1    2    0    0  0.00000000000E+00  0.00000000000E+00  0.22228780813E+04  0.32363880850E+04  0.23522374184E+04 0.  0.
        4    1    3    3  502    0 -0.19369536387E+03 -0.80406107204E+03  0.22619395820E+04  0.24084028706E+04  0.12699999809E+01 0.  1.
       -4    1    3    3    0  502  0.19369536387E+03  0.80406107204E+03 -0.39061500681E+02  0.82798521441E+03  0.12699999809E+01 0. -1.
</event>
<event>
 5   0  0.2149920E-05  0.2335771E+04  0.7818609E-02  0.8463949E-01
       -1   -1    0    0    0  501  0.00000000000E+00  0.00000000000E+00  0.57546991864E+03  0.57546991866E+03  0.50400001928E-02 0. -1.
        1   -1    0    0  501    0  0.00000000000E+00  0.00000000000E+00 -0.23701621464E+04  0.23701621464E+04  0.50400001928E-02 0.  1.
    10030    2    1    2    0    0  0.00000000000E+00  0.00000000000E+00 -0.17946922278E+04  0.29456320651E+04  0.23357714080E+04 0.  0.
        5    1    3    3  502    0 -0.68920345875E+02  0.32438666170E+03 -0.23095249284E+04  0.23332175649E+04  0.46999998093E+01 0.  1.
       -5    1    3    3    0  502  0.68920345875E+02 -0.32438666170E+03  0.51483270063E+03  0.61241450015E+03  0.46999998093E+01 0. -1.
</event>
<event>
 5   0  0.1672125E-05  0.2389020E+04  0.7818609E-02  0.8443626E-01
        3   -1    0    0  501    0  0.00000000000E+00  0.00000000000E+00  0.96409413688E+03  0.96409414217E+03  0.10100000352E+00 0.  1.
       -3   -1    0    0    0  501  0.00000000000E+00  0.00000000000E+00 -0.14799942331E+04  0.14799942365E+04  0.10100000352E+00 0. -1.
    10030    2    1    2    0    0  0.00000000000E+00  0.00000000000E+00 -0.51590009620E+03  0.24440883787E+04  0.23890196930E+04 0.  0.
        5    1    3    3  502    0 -0.10454102944E+02 -0.11630658089E+04  0.20350443230E+02  0.11633003029E+04  0.46999998093E+01 0. -1.
       -5    1    3    3    0  502  0.10454102944E+02  0.11630658089E+04 -0.53625053943E+03  0.12807880758E+04  0.46999998093E+01 0.  1.
</event>
<event>
 5   0  0.2065692E-05  0.2396269E+04  0.7818609E-02  0.8440902E-01
       -1   -1    0    0    0  501  0.00000000000E+00  0.00000000000E+00  0.10820431107E+04  0.10820431107E+04  0.50400001928E-02 0. -1.
        1   -1    0    0  501    0  0.00000000000E+00  0.00000000000E+00 -0.13266812021E+04  0.13266812021E+04  0.50400001928E-02 0.  1.
    10030    2    1    2    0    0  0.00000000000E+00  0.00000000000E+00 -0.24463809134E+03  0.24087243128E+04  0.23962689789E+04 0.  0.
        3    1    3    3  502    0 -0.10227623759E+04  0.37554359086E+03  0.37871975833E+03  0.11534749810E+04  0.10100000352E+00 0. -1.
       -3    1    3    3    0  502  0.10227623759E+04 -0.37554359086E+03 -0.62335784967E+03  0.12552493318E+04  0.10100000352E+00 0.  1.
</event>
<event>
 5   0  0.1672125E-05  0.2089612E+04  0.7818609E-02  0.8565833E-01
        3   -1    0    0  501    0  0.00000000000E+00  0.00000000000E+00  0.11613796378E+04  0.11613796422E+04  0.10100000352E+00 0.  1.
       -3   -1    0    0    0  501  0.00000000000E+00  0.00000000000E+00 -0.93993305273E+03  0.93993305816E+03  0.10100000352E+00 0. -1.
    10030    2    1    2    0    0  0.00000000000E+00  0.00000000000E+00  0.22144658509E+03  0.21013127004E+04  0.20896115607E+04 0.  0.
        4    1    3    3  502    0  0.36777248868E+03 -0.76946818096E+03  0.71765882141E+03  0.11146181776E+04  0.12699999809E+01 0.  1.
       -4    1    3    3    0  502 -0.36777248868E+03  0.76946818096E+03 -0.49621223632E+03  0.98669452279E+03  0.12699999809E+01 0. -1.
</event>
<event>
 5   0  0.2065692E-05  0.2423261E+04  0.7818609E-02  0.8430846E-01
       -1   -1    0    0    0  501  0.00000000000E+00  0.00000000000E+00  0.10911066693E+04  0.10911066693E+04  0.50400001928E-02 0. -1.
        1   -1    0    0  501    0  0.00000000000E+00  0.00000000000E+00 -0.13454676176E+04  0.13454676176E+04  0.50400001928E-02 0.  1.
    10030    2    1    2    0    0  0.00000000000E+00  0.00000000000E+00 -0.25436094835E+03  0.24365742869E+04  0.24232611835E+04 0.  0.
        3    1    3    3  502    0 -0.59986312869E+03 -0.88054867490E+03 -0.70727893685E+03  0.12788452787E+04  0.10100000352E+00 0.  1.
       -3    1    3    3    0  502  0.59986312869E+03  0.88054867490E+03  0.45291798851E+03  0.11577290082E+04  0.10100000352E+00 0. -1.
</event>
<event>
 5   0  0.4856882E-05  0.2423500E+04  0.7818609E-02  0.8430758E-01
       -2   -1    0    0    0  501  0.00000000000E+00  0.00000000000E+00  0.13765653230E+04  0.13765653230E+04  0.25500000920E-02 0.  1.
        2   -1    0    0  501    0  0.00000000000E+00  0.00000000000E+00 -0.10666676364E+04  0.10666676364E+04  0.25500000920E-02 0. -1.
    10030    2    1    2    0    0  0.00000000000E+00  0.00000000000E+00  0.30989768663E+03  0.24432329595E+04  0.24234996839E+04 0.  0.
        1    1    3    3  502    0 -0.10247401546E+03 -0.52912309728E+02 -0.10611221683E+04  0.10673710191E+04  0.50400001928E-02 0. -1.
       -1    1    3    3    0  502  0.10247401546E+03  0.52912309728E+02  0.13710198549E+04  0.13758619404E+04  0.50400001928E-02 0.  1.
</event>
<event>
 5   0  0.2139556E-05  0.2427789E+04  0.7818609E-02  0.8429172E-01
       -1   -1    0    0    0  501  0.00000000000E+00  0.00000000000E+00  0.92381570922E+03  0.92381570924E+03  0.50400001928E-02 0.  1.
        1   -1    0    0  501    0  0.00000000000E+00  0.00000000000E+00 -0.15950587980E+04  0.15950587980E+04  0.50400001928E-02 0. -1.
    10030    2    1    2    0    0  0.00000000000E+00  0.00000000000E+00 -0.67124308879E+03  0.25188745073E+04  0.24277894264E+04 0.  0.
        2    1    3    3  502    0 -0.13290251806E+03  0.65144241066E+03  0.71811040619E+03  0.97863315353E+03  0.25500000920E-02 0.  1.
       -2    1    3    3    0  502  0.13290251806E+03 -0.65144241066E+03 -0.13893534950E+04  0.15402413537E+04  0.25500000920E-02 0. -1.
</event>
<event>
 5   0  0.2065692E-05  0.2467390E+04  0.7818609E-02  0.8414696E-01
        1   -1    0    0  501    0  0.00000000000E+00  0.00000000000E+00  0.24859239160E+04  0.24859239160E+04  0.50400001928E-02 0. -1.
       -1   -1    0    0    0  501  0.00000000000E+00  0.00000000000E+00 -0.61224874658E+03  0.61224874660E+03  0.50400001928E-02 0.  1.
    10030    2    1    2    0    0  0.00000000000E+00  0.00000000000E+00  0.18736751694E+04  0.30981726626E+04  0.24673903637E+04 0.  0.
        3    1    3    3  502    0  0.97487627546E+03 -0.69811520864E+03  0.13013112011E+04  0.17695082507E+04  0.10100000352E+00 0. -1.
       -3    1    3    3    0  502 -0.97487627546E+03  0.69811520864E+03  0.57236396829E+03  0.13286644119E+04  0.10100000352E+00 0.  1.
</event>
<event>
 5   0  0.2139556E-05  0.2425151E+04  0.7818609E-02  0.8430147E-01
        1   -1    0    0  501    0  0.00000000000E+00  0.00000000000E+00  0.18146645863E+04  0.18146645863E+04  0.50400001928E-02 0. -1.
       -1   -1    0    0    0  501  0.00000000000E+00  0.00000000000E+00 -0.81025432611E+03  0.81025432613E+03  0.50400001928E-02 0.  1.
    10030    2    1    2    0    0  0.00000000000E+00  0.00000000000E+00  0.10044102602E+04  0.26249189124E+04  0.24251514027E+04 0.  0.
        2    1    3    3  502    0 -0.85650233038E+03 -0.28340926942E+03  0.13791430615E+04  0.16480147573E+04  0.25500000920E-02 0. -1.
       -2    1    3    3    0  502  0.85650233038E+03  0.28340926942E+03 -0.37473280137E+03  0.97690415516E+03  0.25500000920E-02 0.  1.
</event>
<event>
 5   0  0.2065692E-05  0.2406720E+04  0.7818609E-02  0.8436992E-01
        1   -1    0    0  501    0  0.00000000000E+00  0.00000000000E+00  0.22026549444E+04  0.22026549444E+04  0.50400001928E-02 0. -1.
       -1   -1    0    0    0  501  0.00000000000E+00  0.00000000000E+00 -0.65742255016E+03  0.65742255018E+03  0.50400001928E-02 0.  1.
    10030    2    1    2    0    0  0.00000000000E+00  0.00000000000E+00  0.15452323943E+04  0.28600774946E+04  0.24067197849E+04 0.  0.
        3    1    3    3  502    0  0.12414575451E+03 -0.67284991116E+02  0.21927752688E+04  0.21973171888E+04  0.10100000352E+00 0. -1.
       -3    1    3    3    0  502 -0.12414575451E+03  0.67284991116E+02 -0.64754287456E+03  0.66276030583E+03  0.10100000352E+00 0.  1.
</event>
<event>
 5   0  0.4713971E-05  0.2408372E+04  0.7818609E-02  0.8436376E-01
        2   -1    0    0  501    0  0.00000000000E+00  0.00000000000E+00  0.19027961604E+04  0.19027961604E+04  0.25500000920E-02 0. -1.
       -2   -1    0    0    0  501  0.00000000000E+00  0.00000000000E+00 -0.76207003448E+03  0.76207003449E+03  0.25500000920E-02 0.  1.
    10030    2    1    2    0    0  0.00000000000E+00  0.00000000000E+00  0.11407261260E+04  0.26648661949E+04  0.24083720108E+04 0.  0.
        5    1    3    3  502    0  0.68747256861E+03 -0.85112493494E+02 -0.51951474780E+03  0.86589856930E+03  0.46999998093E+01 0.  1.
       -5    1    3    3    0  502 -0.68747256861E+03  0.85112493494E+02  0.16602408738E+04  0.17989676256E+04  0.46999998093E+01 0. -1.
</event>
<event>
 5   0  0.4856882E-05  0.2398669E+04  0.7818609E-02  0.8440002E-01
       -2   -1    0    0    0  501  0.00000000000E+00  0.00000000000E+00  0.80342730027E+03  0.80342730028E+03  0.25500000920E-02 0.  1.
        2   -1    0    0  501    0  0.00000000000E+00  0.00000000000E+00 -0.17903334382E+04  0.17903334383E+04  0.25500000920E-02 0. -1.
    10030    2    1    2    0    0  0.00000000000E+00  0.00000000000E+00 -0.98690613797E+03  0.25937607385E+04  0.23986685981E+04 0.  0.
        1    1    3    3  502    0 -0.16190247498E+03 -0.79178562837E+02 -0.17756069096E+04  0.17847301066E+04  0.50400001928E-02 0. -1.
       -1    1    3    3    0  502  0.16190247498E+03  0.79178562837E+02  0.78870077159E+03  0.80903063190E+03  0.50400001928E-02 0.  1.
</event>
<event>
 5   0  0.2090039E-05  0.2410607E+04  0.7818609E-02  0.8435543E-01
        1   -1    0    0  501    0  0.00000000000E+00  0.00000000000E+00  0.15090913844E+04  0.15090913844E+04  0.50400001928E-02 0.  1.
       -1   -1    0    0    0  501  0.00000000000E+00  0.00000000000E+00 -0.96266975041E+03  0.96266975042E+03  0.50400001928E-02 0. -1.
    10030    2    1    2    0    0  0.00000000000E+00  0.00000000000E+00  0.54642163398E+03  0.24717611348E+04  0.24106070824E+04 0.  0.
        1    1    3    3  502    0  0.59032766384E+03 -0.10021060114E+04 -0.51125839179E+02  0.11641808537E+04  0.50400001928E-02 0. -1.
       -1    1    3    3    0  502 -0.59032766384E+03  0.10021060114E+04  0.59754747316E+03  0.13075802811E+04  0.50400001928E-02 0.  1.
</event>
<event>
 5   0  0.4914005E-05  0.2373139E+04  0.7818609E-02  0.8449629E-01
        2   -1    0    0  501    0  0.00000000000E+00  0.00000000000E+00  0.78492723932E+03  0.78492723932E+03  0.25500000920E-02 0. -1.
       -2   -1    0    0    0  501  0.00000000000E+00  0.00000000000E+00 -0.17937302394E+04  0.17937302394E+04  0.25500000920E-02 0.  1.
    10030    2    1    2    0    0  0.00000000000E+00  0.00000000000E+00 -0.10088030001E+04  0.25786574787E+04  0.23731394606E+04 0.  0.
        2    1    3    3  502    0 -0.46741471526E+02 -0.16259362003E+03 -0.17805578994E+04  0.17885770556E+04  0.25500000920E-02 0.  1.
       -2    1    3    3    0  502  0.46741471526E+02  0.16259362003E+03  0.77175489933E+03  0.79008042318E+03  0.25500000920E-02 0. -1.
</event>
<event>
 5   0  0.4713971E-05  0.2407953E+04  0.7818609E-02  0.8436532E-01
       -2   -1    0    0    0  501  0.00000000000E+00  0.00000000000E+00  0.15718726973E+04  0.15718726973E+04  0.25500000920E-02 0. -1.
        2   -1    0    0  501    0  0.00000000000E+00  0.00000000000E+00 -0.92218644019E+03  0.92218644020E+03  0.25500000920E-02 0.  1.
    10030    2    1    2    0    0  0.00000000000E+00  0.00000000000E+00  0.64968625714E+03  0.24940591375E+04  0.24079532281E+04 0.  0.
        5    1    3    3  502    0 -0.32834047220E+03 -0.11468065862E+04  0.15602780858E+03  0.12030542709E+04  0.46999998093E+01 0.  1.
       -5    1    3    3    0  502  0.32834047220E+03  0.11468065862E+04  0.49365844856E+03  0.12910048666E+04  0.46999998093E+01 0. -1.
</event>
<event>
 5   0  0.2139556E-05  0.2381758E+04  0.7818609E-02  0.8446365E-01
        1   -1    0    0  501    0  0.00000000000E+00  0.00000000000E+00  0.11663044581E+04  0.11663044581E+04  0.50400001928E-02 0.  1.
       -1   -1    0    0    0  501  0.00000000000E+00  0.00000000000E+00 -0.12159716358E+04  0.12159716358E+04  0.50400001928E-02 0. -1.
    10030    2    1    2    0    0  0.00000000000E+00  0.00000000000E+00 -0.49667177694E+02  0.23822760939E+04  0.23817582915E+04 0.  0.
        2    1    3    3  502    0  0.18952978907E+03 -0.60432121497E+03  0.98388329112E+03  0.11701076884E+04  0.25500000920E-02 0.  1.
       -2    1    3    3    0  502 -0.18952978907E+03  0.60432121497E+03 -0.10335504688E+04  0.12121684055E+04  0.25500000920E-02 0. -1.
</event>
<event>
 5   0  0.4914005E-05  0.1991868E+04  0.7818609E-02  0.8610432E-01
       -2   -1    0    0    0  501  0.00000000000E+00  0.00000000000E+00  0.78691967471E+03  0.78691967472E+03  0.25500000920E-02 0. -1.
        2   -1    0    0  501    0  0.00000000000E+00  0.00000000000E+00 -0.12604641624E+04  0.12604641624E+04  0.25500000920E-02 0.  1.
    10030    2    1    2    0    0  0.00000000000E+00  0.00000000000E+00 -0.47354448768E+03  0.20473838371E+04  0.19918675143E+04 0.  0.
        2    1    3    3  502    0  0.18116662841E+03  0.40173374583E+03 -0.11547902209E+04  0.12360225743E+04  0.25500000920E-02 0.  1.
       -2    1    3    3    0  502 -0.18116662841E+03 -0.40173374583E+03  0.68124573323E+03  0.81136126284E+03  0.25500000920E-02 0. -1.
</event>
<event>
 5   0  0.4756705E-05  0.2414586E+04  0.7818609E-02  0.8434063E-01
       -2   -1    0    0    0  501  0.00000000000E+00  0.00000000000E+00  0.10158524841E+04  0.10158524841E+04  0.25500000920E-02 0. -1.
        2   -1    0    0  501    0  0.00000000000E+00  0.00000000000E+00 -0.14348111388E+04  0.14348111388E+04  0.25500000920E-02 0.  1.
    10030    2    1    2    0    0  0.00000000000E+00  0.00000000000E+00 -0.41895865472E+03  0.24506636229E+04  0.24145860594E+04 0.  0.
        3    1    3    3  502    0 -0.85916828528E+03  0.47776066591E+03 -0.92075787840E+03  0.13469300194E+04  0.10100000352E+00 0. -1.
       -3    1    3    3    0  502  0.85916828528E+03 -0.47776066591E+03  0.50179922368E+03  0.11037336035E+04  0.10100000352E+00 0.  1.
</event>
<event>
 5   0  0.1672125E-05  0.2183000E+04  0.7818609E-02  0.8525537E-01
       -3   -1    0    0    0  501  0.00000000000E+00  0.00000000000E+00  0.13820217636E+04  0.13820217673E+04  0.10100000352E+00 0.  1.
        3   -1    0    0  501    0  0.00000000000E+00  0.00000000000E+00 -0.86205006161E+03  0.86205006753E+03  0.10100000352E+00 0. -1.
    10030    2    1    2    0    0  0.00000000000E+00  0.00000000000E+00  0.51997170203E+03  0.22440718349E+04  0.21829997318E+04 0.  0.
        2    1    3    3  502    0 -0.41593469732E+03  0.10010288742E+04  0.12869643132E+03  0.10916149737E+04  0.25500000920E-02 0. -1.
       -2    1    3    3    0  502  0.41593469732E+03 -0.10010288742E+04  0.39127527070E+03  0.11524568612E+04  0.25500000920E-02 0.  1.
</event>
<event>
 5   0  0.2149920E-05  0.2386137E+04  0.7818609E-02  0.8444712E-01
       -1   -1    0    0    0  501  0.00000000000E+00  0.00000000000E+00  0.69485143716E+03  0.69485143718E+03  0.50400001928E-02 0.  1.
        1   -1    0    0  501    0  0.00000000000E+00  0.00000000000E+00 -0.20485126581E+04  0.20485126581E+04  0.50400001928E-02 0. -1.
    10030    2    1    2    0    0  0.00000000000E+00  0.00000000000E+00 -0.13536612209E+04  0.27433640953E+04  0.23861365967E+04 0.  0.
        5    1    3    3  502    0  0.10797785075E+04 -0.25248945108E+03 -0.11828560863E+04  0.16213707655E+04  0.46999998093E+01 0.  1.
       -5    1    3    3    0  502 -0.10797785075E+04  0.25248945108E+03 -0.17080513463E+03  0.11219933298E+04  0.46999998093E+01 0. -1.
</event>
<event>
 5   0  0.4856882E-05  0.2436571E+04  0.7818609E-02  0.8425937E-01
        2   -1    0    0  501    0  0.00000000000E+00  0.00000000000E+00  0.61077274480E+03  0.61077274481E+03  0.25500000920E-02 0. -1.
       -2   -1    0    0    0  501  0.00000000000E+00  0.00000000000E+00 -0.24300691478E+04  0.24300691478E+04  0.25500000920E-02 0.  1.
    10030    2    1    2    0    0  0.00000000000E+00  0.00000000000E+00 -0.18192964030E+04  0.30408418926E+04  0.24365713644E+04 0.  0.
        1    1    3    3  502    0 -0.48947825206E+03 -0.11083270154E+04 -0.10686998158E+04  0.16155794715E+04  0.50400001928E-02 0.  1.
       -1    1    3    3    0  502  0.48947825206E+03  0.11083270154E+04 -0.75059658724E+03  0.14252624212E+04  0.50400001928E-02 0. -1.
</event>
<event>
 5   0  0.2057599E-05  0.2321113E+04  0.7818609E-02  0.8469643E-01
       -1   -1    0    0    0  501  0.00000000000E+00  0.00000000000E+00  0.97176414520E+03  0.97176414522E+03  0.50400001928E-02 0. -1.
        1   -1    0    0  501    0  0.00000000000E+00  0.00000000000E+00 -0.13860273020E+04  0.13860273020E+04  0.50400001928E-02 0.  1.
    10030    2    1    2    0    0  0.00000000000E+00  0.00000000000E+00 -0.41426315683E+03  0.23577914473E+04  0.23211132126E+04 0.  0.
        4    1    3    3  502    0  0.56129566763E+03 -0.22765077335E+03 -0.12127305776E+04  0.13555791264E+04  0.12699999809E+01 0.  1.
       -4    1    3    3    0  502 -0.56129566763E+03  0.22765077335E+03  0.79846742080E+03  0.10022123209E+04  0.12699999809E+01 0. -1.
</event>
<event>
 5   0  0.2139556E-05  0.1766282E+04  0.7818609E-02  0.8724439E-01
        1   -1    0    0  501    0  0.00000000000E+00  0.00000000000E+00  0.15645772465E+04  0.15645772465E+04  0.50400001928E-02 0. -1.
       -1   -1    0    0    0  501  0.00000000000E+00  0.00000000000E+00 -0.49849776391E+03  0.49849776393E+03  0.50400001928E-02 0.  1.
    10030    2    1    2    0    0  0.00000000000E+00  0.00000000000E+00  0.10660794826E+04  0.20630750104E+04  0.17662822638E+04 0.  0.
        2    1    3    3  502    0 -0.75708423836E+03  0.36027944498E+03  0.20900716669E+03  0.86409595427E+03  0.25500000920E-02 0.  1.
       -2    1    3    3    0  502  0.75708423836E+03 -0.36027944498E+03  0.85707231591E+03  0.11989790562E+04  0.25500000920E-02 0. -1.
</event>
<event>
 5   0  0.4664127E-05  0.2401026E+04  0.7818609E-02  0.8439120E-01
        2   -1    0    0  501    0  0.00000000000E+00  0.00000000000E+00  0.14918519681E+04  0.14918519681E+04  0.25500000920E-02 0.  1.
       -2   -1    0    0    0  501  0.00000000000E+00  0.00000000000E+00 -0.96606857122E+03  0.96606857122E+03  0.25500000920E-02 0. -1.
    10030    2    1    2    0    0  0.00000000000E+00  0.00000000000E+00  0.52578339692E+03  0.24579205394E+04  0.24010258635E+04 0.  0.
        4    1    3    3  502    0 -0.54088169696E+03  0.96619000555E+03  0.73772947000E+03  0.13305346748E+04  0.12699999809E+01 0.  1.
       -4    1    3    3    0  502  0.54088169696E+03 -0.96619000555E+03 -0.21194607308E+03  0.11273858646E+04  0.12699999809E+01 0. -1.
</event>
<event>
 5   0  0.4914005E-05  0.2398314E+04  0.7818609E-02  0.8440135E-01
        2   -1    0    0  501    0  0.00000000000E+00  0.00000000000E+00  0.11833488080E+04  0.11833488080E+04  0.25500000920E-02 0.  1.
       -2   -1    0    0    0  501  0.00000000000E+00  0.00000000000E+00 -0.12151765078E+04  0.12151765078E+04  0.25500000920E-02 0. -1.
    10030    2    1    2    0    0  0.00000000000E+00  0.00000000000E+00 -0.31827699873E+02  0.23985253158E+04  0.23983141346E+04 0.  0.
        2    1    3    3  502    0  0.44416797847E+03  0.10017848419E+04  0.47107831631E+03  0.11928004203E+04  0.25500000920E-02 0. -1.
       -2    1    3    3    0  502 -0.44416797847E+03 -0.10017848419E+04 -0.50290601618E+03  0.12057248955E+04  0.25500000920E-02 0.  1.
</event>
<event>
 5   0  0.4756705E-05  0.2391544E+04  0.7818609E-02  0.8442676E-01
       -2   -1    0    0    0  501  0.00000000000E+00  0.00000000000E+00  0.11712284218E+04  0.11712284218E+04  0.25500000920E-02 0.  1.
        2   -1    0    0  501    0  0.00000000000E+00  0.00000000000E+00 -0.12208297451E+04  0.12208297451E+04  0.25500000920E-02 0. -1.
    10030    2    1    2    0    0  0.00000000000E+00  0.00000000000E+00 -0.49601323341E+02  0.23920581669E+04  0.23915438492E+04 0.  0.
        3    1    3    3  502    0 -0.10915429362E+04 -0.48775725800E+03 -0.24942726333E+01  0.11955665419E+04  0.10100000352E+00 0. -1.
       -3    1    3    3    0  502  0.10915429362E+04  0.48775725800E+03 -0.47107050707E+02  0.11964916251E+04  0.10100000352E+00 0.  1.
</event>
<event>
 5   0  0.1672125E-05  0.2298668E+04  0.7818609E-02  0.8478446E-01
        4   -1    0    0  501    0  0.00000000000E+00  0.00000000000E+00  0.67746428385E+03  0.67746547424E+03  0.12699999809E+01 0. -1.
       -4   -1    0    0    0  501  0.00000000000E+00  0.00000000000E+00 -0.19498691159E+04  0.19498695295E+04  0.12699999809E+01 0.  1.
    10030    2    1    2    0    0  0.00000000000E+00  0.00000000000E+00 -0.12724048320E+04  0.26273350037E+04  0.22986681285E+04 0.  0.
        1    1    3    3  502    0  0.52958058362E+03 -0.96421263402E+03 -0.25573001898E+03  0.11294066764E+04  0.50400001928E-02 0. -1.
       -1    1    3    3    0  502 -0.52958058362E+03  0.96421263402E+03 -0.10166748130E+04  0.14979283273E+04  0.50400001928E-02 0.  1.
</event>
<event>
 5   0  0.4664127E-05  0.2445105E+04  0.7818609E-02  0.8422807E-01
       -2   -1    0    0    0  501  0.00000000000E+00  0.00000000000E+00  0.26362694719E+04  0.26362694719E+04  0.25500000920E-02 0. -1.
        2   -1    0    0  501    0  0.00000000000E+00  0.00000000000E+00 -0.56695063294E+03  0.56695063295E+03  0.25500000920E-02 0.  1.
    10030    2    1    2    0    0  0.00000000000E+00  0.00000000000E+00  0.20693188390E+04  0.32032201049E+04  0.24451050249E+04 0.  0.
        4    1    3    3  502    0 -0.60811512278E+03  0.10186353883E+04  0.14215381347E+04  0.18515383707E+04  0.12699999809E+01 0. -1.
       -4    1    3    3    0  502  0.60811512278E+03 -0.10186353883E+04  0.64778070431E+03  0.13516817342E+04  0.12699999809E+01 0.  1.
</event>
<event>
 5   0  0.4756705E-05  0.2404614E+04  0.7818609E-02  0.8437778E-01
       -2   -1    0    0    0  501  0.00000000000E+00  0.00000000000E+00  0.90468201702E+03  0.90468201702E+03  0.25500000920E-02 0. -1.
        2   -1    0    0  501    0  0.00000000000E+00  0.00000000000E+00 -0.15978450589E+04  0.15978450589E+04  0.25500000920E-02 0.  1.
    10030    2    1    2    0    0  0.00000000000E+00  0.00000000000E+00 -0.69316304186E+03  0.25025270759E+04  0.24046136411E+04 0.  0.
        3    1    3    3  502    0 -0.26883653636E+03  0.25578067893E+03  0.84359558063E+03  0.92160205776E+03  0.10100000352E+00 0. -1.
       -3    1    3    3    0  502  0.26883653636E+03 -0.25578067893E+03 -0.15367586225E+04  0.15809250181E+04  0.10100000352E+00 0.  1.
</event>
<event>
 5   0  0.2065692E-05  0.2384567E+04  0.7818609E-02  0.8445304E-01
        1   -1    0    0  501    0  0.00000000000E+00  0.00000000000E+00  0.17524133060E+04  0.17524133060E+04  0.50400001928E-02 0.  1.
       -1   -1    0    0    0  501  0.00000000000E+00  0.00000000000E+00 -0.81118996199E+03  0.81118996201E+03  0.50400001928E-02 0. -1.
    10030    2    1    2    0    0  0.00000000000E+00  0.00000000000E+00  0.94122334405E+03  0.25636032681E+04  0.23845671164E+04 0.  0.
        3    1    3    3  502    0 -0.42685880487E+03 -0.10286303976E+04  0.12910907450E+02  0.11137574403E+04  0.10100000352E+00 0. -1.
       -3    1    3    3    0  502  0.42685880487E+03  0.10286303976E+04  0.92831243660E+03  0.14498458278E+04  0.10100000352E+00 0.  1.
</event>
<event>
 5   0  0.4756705E-05  0.2457906E+04  0.7818609E-02  0.8418137E-01
        2   -1    0    0  501    0  0.00000000000E+00  0.00000000000E+00  0.28333626959E+04  0.28333626959E+04  0.25500000920E-02 0.  1.
       -2   -1    0    0    0  501  0.00000000000E+00  0.00000000000E+00 -0.53305046942E+03  0.53305046942E+03  0.25500000920E-02 0. -1.
    10030    2    1    2    0    0  0.00000000000E+00  0.00000000000E+00  0.23003122265E+04  0.33664131654E+04  0.24579058689E+04 0.  0.
        3    1    3    3  502    0  0.39974798068E+03  0.77847388117E+03  0.23319345437E+04  0.24907305671E+04  0.10100000352E+00 0.  1.
       -3    1    3    3    0  502 -0.39974798068E+03 -0.77847388117E+03 -0.31622317169E+02  0.87568259824E+03  0.10100000352E+00 0. -1.
</event>
<event>
 5   0  0.2139556E-05  0.2404460E+04  0.7818609E-02  0.8437836E-01
        1   -1    0    0  501    0  0.00000000000E+00  0.00000000000E+00  0.13583055138E+04  0.13583055138E+04  0.50400001928E-02 0.  1.
       -1   -1    0    0    0  501  0.00000000000E+00  0.00000000000E+00 -0.10640879826E+04  0.10640879827E+04  0.50400001928E-02 0. -1.
    10030    2    1    2    0    0  0.00000000000E+00  0.00000000000E+00  0.29421753114E+03  0.24223934965E+04  0.24044596682E+04 0.  0.
        2    1    3    3  502    0  0.96968237105E+03  0.51210328284E+03 -0.34933723552E+03  0.11508997251E+04  0.25500000920E-02 0. -1.
       -2    1    3    3    0  502 -0.96968237105E+03 -0.51210328284E+03  0.64355476665E+03  0.12714937714E+04  0.25500000920E-02 0.  1.
</event>
<event>
 5   0  0.2090039E-05  0.2335271E+04  0.7818609E-02  0.8464143E-01
       -1   -1    0    0    0  501  0.00000000000E+00  0.00000000000E+00  0.83503861741E+03  0.83503861743E+03  0.50400001928E-02 0. -1.
        1   -1    0    0  501    0  0.00000000000E+00  0.00000000000E+00 -0.16327065157E+04  0.16327065157E+04  0.50400001928E-02 0.  1.
    10030    2    1    2    0    0  0.00000000000E+00  0.00000000000E+00 -0.79766789825E+03  0.24677451331E+04  0.23352712832E+04 0.  0.
        1    1    3    3  502    0 -0.93721268821E+03 -0.41784735677E+03  0.18991492018E+03  0.10435668227E+04  0.50400001928E-02 0. -1.
       -1    1    3    3    0  502  0.93721268821E+03  0.41784735677E+03 -0.98758281843E+03  0.14241783104E+04  0.50400001928E-02 0.  1.
</event>
<event>
 5   0  0.4664127E-05  0.2422811E+04  0.7818609E-02  0.8431012E-01
        2   -1    0    0  501    0  0.00000000000E+00  0.00000000000E+00  0.23644421618E+04  0.23644421618E+04  0.25500000920E-02 0. -1.
       -2   -1    0    0    0  501  0.00000000000E+00  0.00000000000E+00 -0.62065540342E+03  0.62065540343E+03  0.25500000920E-02 0.  1.
    10030    2    1    2    0    0  0.00000000000E+00  0.00000000000E+00  0.17437867584E+04  0.29850975652E+04  0.24228114279E+04 0.  0.
        4    1    3    3  502    0  0.96367525678E+03 -0.61336502371E+03  0.37504950798E+03  0.12023104421E+04  0.12699999809E+01 0.  1.
       -4    1    3    3    0  502 -0.96367525678E+03  0.61336502371E+03  0.13687372504E+04  0.17827871231E+04  0.12699999809E+01 0. -1.
</event>
<event>
 5   0  0.4664127E-05  0.2583245E+04  0.7818609E-02  0.8373915E-01
        2   -1    0    0  501    0  0.00000000000E+00  0.00000000000E+00  0.10781975772E+04  0.10781975772E+04  0.25500000920E-02 0.  1.
       -2   -1    0    0    0  501  0.00000000000E+00  0.00000000000E+00 -0.15472941212E+04  0.15472941212E+04  0.25500000920E-02 0. -1.
    10030    2    1    2    0    0  0.00000000000E+00  0.00000000000E+00 -0.46909654405E+03  0.26254916984E+04  0.25832450698E+04 0.  0.
        4    1    3    3  502    0 -0.82583072806E+03 -0.99027758138E+03 -0.15821283850E+03  0.12991069990E+04  0.12699999809E+01 0. -1.
       -4    1    3    3    0  502  0.82583072806E+03  0.99027758138E+03 -0.31088370555E+03  0.13263846994E+04  0.12699999809E+01 0.  1.
</event>
<event>
 5   0  0.4664127E-05  0.2095434E+04  0.7818609E-02  0.8563258E-01
        2   -1    0    0  501    0  0.00000000000E+00  0.00000000000E+00  0.84961106029E+03  0.84961106030E+03  0.25500000920E-02 0.  1.
       -2   -1    0    0    0  501  0.00000000000E+00  0.00000000000E+00 -0.12920153736E+04  0.12920153736E+04  0.25500000920E-02 0. -1.
    10030    2    1    2    0    0  0.00000000000E+00  0.00000000000E+00 -0.44240431330E+03  0.21416264339E+04  0.20954336558E+04 0.  0.
        4    1    3    3  502    0 -0.45411586765E+03  0.81734998353E+03  0.26189820242E+03  0.97101724916E+03  0.12699999809E+01 0.  1.
       -4    1    3    3    0  502  0.45411586765E+03 -0.81734998353E+03 -0.70430251572E+03  0.11706091847E+04  0.12699999809E+01 0. -1.
</event>
<event>
 5   0  0.2090039E-05  0.2391569E+04  0.7818609E-02  0.8442667E-01
       -1   -1    0    0    0  501  0.00000000000E+00  0.00000000000E+00  0.14017345382E+04  0.14017345382E+04  0.50400001928E-02 0.  1.
        1   -1    0    0  501    0  0.00000000000E+00  0.00000000000E+00 -0.10200939170E+04  0.10200939170E+04  0.50400001928E-02 0. -1.
    10030    2    1    2    0    0  0.00000000000E+00  0.00000000000E+00  0.38164062121E+03  0.24218284552E+04  0.23915692553E+04 0.  0.
        1    1    3    3  502    0 -0.95485139610E+03 -0.56926531650E+01  0.91973826162E+03  0.13257797950E+04  0.50400001928E-02 0.  1.
       -1    1    3    3    0  502  0.95485139610E+03  0.56926531650E+01 -0.53809764041E+03  0.10960486602E+04  0.50400001928E-02 0. -1.
</event>
<event>
 5   0  0.4756705E-05  0.2374919E+04  0.7818609E-02  0.8448953E-01
       -2   -1    0    0    0  501  0.00000000000E+00  0.00000000000E+00  0.10256266129E+04  0.10256266130E+04  0.25500000920E-02 0.  1.
        2   -1    0    0  501    0  0.00000000000E+00  0.00000000000E+00 -0.13748282601E+04  0.13748282601E+04  0.25500000920E-02 0. -1.
    10030    2    1    2    0    0  0.00000000000E+00  0.00000000000E+00 -0.34920164717E+03  0.24004548731E+04  0.23749193265E+04 0.  0.
        3    1    3    3  502    0 -0.72133802574E+03 -0.16513722862E+03  0.76407269433E+03  0.10636756762E+04  0.10100000352E+00 0.  1.
       -3    1    3    3    0  502  0.72133802574E+03  0.16513722862E+03 -0.11132743415E+04  0.13367791969E+04  0.10100000352E+00 0. -1.
</event>
<event>
 5   0  0.4856882E-05  0.2421941E+04  0.7818609E-02  0.8431335E-01
        2   -1    0    0  501    0  0.00000000000E+00  0.00000000000E+00  0.59946199589E+03  0.59946199589E+03  0.25500000920E-02 0. -1.
       -2   -1    0    0    0  501  0.00000000000E+00  0.00000000000E+00 -0.24462753082E+04  0.24462753082E+04  0.25500000920E-02 0.  1.
    10030    2    1    2    0    0  0.00000000000E+00  0.00000000000E+00 -0.18468133123E+04  0.30457373041E+04  0.24219406093E+04 0.  0.
        1    1    3    3  502    0 -0.37254722403E+03 -0.45878928841E+03 -0.22526013297E+04  0.23288391520E+04  0.50400001928E-02 0.  1.
       -1    1    3    3    0  502  0.37254722403E+03  0.45878928841E+03  0.40578801743E+03  0.71689815205E+03  0.50400001928E-02 0. -1.
</event>
<event>
 5   0  0.1672125E-05  0.2081985E+04  0.7818609E-02  0.8569221E-01
        4   -1    0    0  501    0  0.00000000000E+00  0.00000000000E+00  0.75912679272E+03  0.75912785506E+03  0.12699999809E+01 0. -1.
       -4   -1    0    0    0  501  0.00000000000E+00  0.00000000000E+00 -0.14275127778E+04  0.14275133427E+04  0.12699999809E+01 0.  1.
    10030    2    1    2    0    0  0.00000000000E+00  0.00000000000E+00 -0.66838598509E+03  0.21866411978E+04  0.20819846068E+04 0.  0.
        5    1    3    3  502    0  0.80660436183E+03 -0.37789977975E+02 -0.10241830719E+04  0.13042284055E+04  0.46999998093E+01 0.  1.
       -5    1    3    3    0  502 -0.80660436183E+03  0.37789977975E+02  0.35579708686E+03  0.88241279227E+03  0.46999998093E+01 0. -1.
</event>
<event>
 5   0  0.2090039E-05  0.2422906E+04  0.7818609E-02  0.8430977E-01
        1   -1    0    0  501    0  0.00000000000E+00  0.00000000000E+00  0.13180955352E+04  0.13180955352E+04  0.50400001928E-02 0.  1.
       -1   -1    0    0    0  501  0.00000000000E+00  0.00000000000E+00 -0.11134384118E+04  0.11134384118E+04  0.50400001928E-02 0. -1.
    10030    2    1    2    0    0  0.00000000000E+00  0.00000000000E+00  0.20465712340E+03  0.24315339470E+04  0.24229058581E+04 0.  0.
        1    1    3    3  502    0 -0.98799759672E+03 -0.66003218497E+03  0.33946743216E+03  0.12357264559E+04  0.50400001928E-02 0.  1.
       -1    1    3    3    0  502  0.98799759672E+03  0.66003218497E+03 -0.13481030877E+03  0.11958074911E+04  0.50400001928E-02 0. -1.
</event>
<event>
 5   0  0.2139556E-05  0.2416036E+04  0.7818609E-02  0.8433524E-01
       -1   -1    0    0    0  501  0.00000000000E+00  0.00000000000E+00  0.99678708493E+03  0.99678708495E+03  0.50400001928E-02 0.  1.
        1   -1    0    0  501    0  0.00000000000E+00  0.00000000000E+00 -0.14640115757E+04  0.14640115757E+04  0.50400001928E-02 0. -1.
    10030    2    1    2    0    0  0.00000000000E+00  0.00000000000E+00 -0.46722449081E+03  0.24607986607E+04  0.24160362836E+04 0.  0.
        2    1    3    3  502    0 -0.79195620652E+03  0.33447464288E+03  0.63078071507E+03  0.10662796211E+04  0.25500000920E-02 0.  1.
       -2    1    3    3    0  502  0.79195620652E+03 -0.33447464288E+03 -0.10980052059E+04  0.13945190396E+04  0.25500000920E-02 0. -1.
</event>
<event>
 5   0  0.4756705E-05  0.2401382E+04  0.7818609E-02  0.8438986E-01
       -2   -1    0    0    0  501  0.00000000000E+00  0.00000000000E+00  0.92885611944E+03  0.92885611945E+03  0.25500000920E-02 0.  1.
        2   -1    0    0  501    0  0.00000000000E+00  0.00000000000E+00 -0.15520803185E+04  0.15520803185E+04  0.25500000920E-02 0. -1.
    10030    2    1    2    0    0  0.00000000000E+00  0.00000000000E+00 -0.62322419909E+03  0.24809364380E+04  0.24013823533E+04 0.  0.
        3    1    3    3  502    0 -0.71943511284E+03 -0.38194585942E+03 -0.12229870374E+04  0.14694103664E+04  0.10100000352E+00 0. -1.
       -3    1    3    3    0  502  0.71943511284E+03  0.38194585942E+03  0.59976283827E+03  0.10115260716E+04  0.10100000352E+00 0.  1.
</event>
<event>
 5   0  0.2139556E-05  0.2409937E+04  0.7818609E-02  0.8435793E-01
        1   -1    0    0  501    0  0.00000000000E+00  0.00000000000E+00  0.22144299278E+04  0.22144299278E+04  0.50400001928E-02 0.  1.
       -1   -1    0    0    0  501  0.00000000000E+00  0.00000000000E+00 -0.65567642116E+03  0.65567642118E+03  0.50400001928E-02 0. -1.
    10030    2    1    2    0    0  0.00000000000E+00  0.00000000000E+00  0.15587535066E+04  0.28701063490E+04  0.24099373353E+04 0.  0.
        2    1    3    3  502    0 -0.19751306277E+02 -0.79612890924E+03  0.18563362379E+04  0.20199494010E+04  0.25500000920E-02 0.  1.
       -2    1    3    3    0  502  0.19751306277E+02  0.79612890924E+03 -0.29758273132E+03  0.85015694799E+03  0.25500000920E-02 0. -1.
</event>
<event>
 5   0  0.4664127E-05  0.2427422E+04  0.7818609E-02  0.8429308E-01
        2   -1    0    0  501    0  0.00000000000E+00  0.00000000000E+00  0.12652215069E+04  0.12652215069E+04  0.25500000920E-02 0.  1.
       -2   -1    0    0    0  501  0.00000000000E+00  0.00000000000E+00 -0.11642979839E+04  0.11642979839E+04  0.25500000920E-02 0. -1.
    10030    2    1    2    0    0  0.00000000000E+00  0.00000000000E+00  0.10092352296E+03  0.24295194908E+04  0.24274223774E+04 0.  0.
        4    1    3    3  502    0 -0.91926158683E+03  0.28866511044E+02  0.84311698566E+03  0.12476870621E+04  0.12699999809E+01 0. -1.
       -4    1    3    3    0  502  0.91926158683E+03 -0.28866511044E+02 -0.74219346270E+03  0.11818324287E+04  0.12699999809E+01 0.  1.
</event>
<event>
 5   0  0.2065692E-05  0.2412161E+04  0.7818609E-02  0.8434965E-01
       -1   -1    0    0    0  501  0.00000000000E+00  0.00000000000E+00  0.11019222309E+04  0.11019222309E+04  0.50400001928E-02 0.  1.
        1   -1    0    0  501    0  0.00000000000E+00  0.00000000000E+00 -0.13200838204E+04  0.13200838204E+04  0.50400001928E-02 0. -1.
    10030    2    1    2    0    0  0.00000000000E+00  0.00000000000E+00 -0.21816158947E+03  0.24220060514E+04  0.24121606152E+04 0.  0.
        3    1    3    3  502    0 -0.21778149821E+03  0.10351138066E+04 -0.69087682648E+03  0.12634081578E+04  0.10100000352E+00 0. -1.
       -3    1    3    3    0  502  0.21778149821E+03 -0.10351138066E+04  0.47271523701E+03  0.11585978936E+04  0.10100000352E+00 0.  1.
</event>
<event>
 5   0  0.2090039E-05  0.2453030E+04  0.7818609E-02  0.8419912E-01
       -1   -1    0    0    0  501  0.00000000000E+00  0.00000000000E+00  0.78173643718E+03  0.78173643719E+03  0.50400001928E-02 0.  1.
        1   -1    0    0  501    0  0.00000000000E+00  0.00000000000E+00 -0.19243563163E+04  0.19243563163E+04  0.50400001928E-02 0. -1.
    10030    2    1    2    0    0  0.00000000000E+00  0.00000000000E+00 -0.11426198791E+04  0.27060927535E+04  0.24530303305E+04 0.  0.
        1    1    3    3  502    0 -0.48154853355E+03 -0.52100910188E+03 -0.16750245557E+04  0.18190785405E+04  0.50400001928E-02 0. -1.
       -1    1    3    3    0  502  0.48154853355E+03  0.52100910188E+03  0.53240467655E+03  0.88701421299E+03  0.50400001928E-02 0.  1.
</event>
<event>
 5   0  0.4664127E-05  0.2393499E+04  0.7818609E-02  0.8441941E-01
        2   -1    0    0  501    0  0.00000000000E+00  0.00000000000E+00  0.10279552546E+04  0.10279552546E+04  0.25500000920E-02 0. -1.
       -2   -1    0    0    0  501  0.00000000000E+00  0.00000000000E+00 -0.13932609241E+04  0.13932609241E+04  0.25500000920E-02 0.  1.
    10030    2    1    2    0    0  0.00000000000E+00  0.00000000000E+00 -0.36530566949E+03  0.24212161788E+04  0.23934994364E+04 0.  0.
        4    1    3    3  502    0 -0.10195927891E+04  0.46272693919E+03  0.24475929043E+03  0.11461214591E+04  0.12699999809E+01 0. -1.
       -4    1    3    3    0  502  0.10195927891E+04 -0.46272693919E+03 -0.61006495993E+03  0.12750947197E+04  0.12699999809E+01 0.  1.
</event>
<event>
 5   0  0.4713971E-05  0.2342282E+04  0.7818609E-02  0.8461434E-01
        2   -1    0    0  501    0  0.00000000000E+00  0.00000000000E+00  0.12438666930E+04  0.12438666930E+04  0.25500000920E-02 0. -1.
       -2   -1    0    0    0  501  0.00000000000E+00  0.00000000000E+00 -0.11026676957E+04  0.11026676957E+04  0.25500000920E-02 0.  1.
    10030    2    1    2    0    0  0.00000000000E+00  0.00000000000E+00  0.14119899729E+03  0.23465343886E+04  0.23422823229E+04 0.  0.
        5    1    3    3  502    0  0.34763599614E+03  0.27219454355E+02 -0.10494452283E+04  0.11058702735E+04  0.46999998093E+01 0.  1.
       -5    1    3    3    0  502 -0.34763599614E+03 -0.27219454355E+02  0.11906442256E+04  0.12406641151E+04  0.46999998093E+01 0. -1.
</event>
<event>
 5   0  0.2139556E-05  0.2398399E+04  0.7818609E-02  0.8440103E-01
       -1   -1    0    0    0  501  0.00000000000E+00  0.00000000000E+00  0.74027982313E+03  0.74027982314E+03  0.50400001928E-02 0.  1.
        1   -1    0    0  501    0  0.00000000000E+00  0.00000000000E+00 -0.19426164532E+04  0.19426164532E+04  0.50400001928E-02 0. -1.
    10030    2    1    2    0    0  0.00000000000E+00  0.00000000000E+00 -0.12023366300E+04  0.26828962763E+04  0.23983992698E+04 0.  0.
        2    1    3    3  502    0 -0.27038783543E+01  0.73997920241E+03 -0.16567701823E+04  0.18145148023E+04  0.25500000920E-02 0. -1.
       -2    1    3    3    0  502  0.27038783543E+01 -0.73997920241E+03  0.45443355225E+03  0.86838147399E+03  0.25500000920E-02 0.  1.
</event>
<event>
 5   0  0.2139556E-05  0.2352013E+04  0.7818609E-02  0.8457691E-01
        1   -1    0    0  501    0  0.00000000000E+00  0.00000000000E+00  0.14086081640E+04  0.14086081640E+04  0.50400001928E-02 0. -1.
       -1   -1    0    0    0  501  0.00000000000E+00  0.00000000000E+00 -0.98181445178E+03  0.98181445179E+03  0.50400001928E-02 0.  1.
    10030    2    1    2    0    0  0.00000000000E+00  0.00000000000E+00  0.42679371219E+03  0.23904226158E+04  0.23520134798E+04 0.  0.
        2    1    3    3  502    0  0.99955228750E+03  0.53844405781E+03  0.52493993771E+03  0.12508352078E+04  0.25500000920E-02 0. -1.
       -2    1    3    3    0  502 -0.99955228750E+03 -0.53844405781E+03 -0.98146225517E+02  0.11395874080E+04  0.25500000920E-02 0.  1.
</event>
<event>
 5   0  0.2090039E-05  0.2426417E+04  0.7818609E-02  0.8429679E-01
       -1   -1    0    0    0  501  0.00000000000E+00  0.00000000000E+00  0.88226326388E+03  0.88226326390E+03  0.50400001928E-02 0. -1.
        1   -1    0    0  501    0  0.00000000000E+00  0.00000000000E+00 -0.16682937496E+04  0.16682937496E+04  0.50400001928E-02 0.  1.
    10030    2    1    2    0    0  0.00000000000E+00  0.00000000000E+00 -0.78603048570E+03  0.25505570135E+04  0.24264165254E+04 0.  0.
        1    1    3    3  502    0  0.32747645737E+03 -0.11572575867E+04 -0.56050444105E+03  0.13268953164E+04  0.50400001928E-02 0. -1.
       -1    1    3    3    0  502 -0.32747645737E+03  0.11572575867E+04 -0.22552604465E+03  0.12236616971E+04  0.50400001928E-02 0.  1.
</event>
<event>
 5   0  0.2149920E-05  0.2430996E+04  0.7818609E-02  0.8427990E-01
        1   -1    0    0  501    0  0.00000000000E+00  0.00000000000E+00  0.21729489173E+04  0.21729489173E+04  0.50400001928E-02 0.  1.
       -1   -1    0    0    0  501  0.00000000000E+00  0.00000000000E+00 -0.67992165439E+03  0.67992165441E+03  0.50400001928E-02 0. -1.
    10030    2    1    2    0    0  0.00000000000E+00  0.00000000000E+00  0.14930272630E+04  0.28528705717E+04  0.24309956996E+04 0.  0.
        5    1    3    3  502    0 -0.16352634446E+03 -0.12011154139E+04  0.64158951257E+03  0.13715240776E+04  0.46999998093E+01 0. -1.
       -5    1    3    3    0  502  0.16352634446E+03  0.12011154139E+04  0.85143775038E+03  0.14813464941E+04  0.46999998093E+01 0.  1.
</event>
<event>
 5   0  0.2065692E-05  0.2395149E+04  0.7818609E-02  0.8441322E-01
       -1   -1    0    0    0  501  0.00000000000E+00  0.00000000000E+00  0.72409464110E+03  0.72409464112E+03  0.50400001928E-02 0.  1.
        1   -1    0    0  501    0  0.00000000000E+00  0.00000000000E+00 -0.19806585834E+04  0.19806585834E+04  0.50400001928E-02 0. -1.
    10030    2    1    2    0    0  0.00000000000E+00  0.00000000000E+00 -0.12565639423E+04  0.27047532245E+04  0.23951486519E+04 0.  0.
        3    1    3    3  502    0  0.24883097334E+02  0.15187105259E+03 -0.19694455827E+04  0.19754492903E+04  0.10100000352E+00 0. -1.
       -3    1    3    3    0  502 -0.24883097334E+02 -0.15187105259E+03  0.71288164037E+03  0.72930393425E+03  0.10100000352E+00 0.  1.
</event>
<event>
 5   0  0.4856882E-05  0.2042529E+04  0.7818609E-02  0.8586991E-01
       -2   -1    0    0    0  501  0.00000000000E+00  0.00000000000E+00  0.10404377597E+04  0.10404377597E+04  0.25500000920E-02 0.  1.
        2   -1    0    0  501    0  0.00000000000E+00  0.00000000000E+00 -0.10024447872E+04  0.10024447872E+04  0.25500000920E-02 0. -1.
    10030    2    1    2    0    0  0.00000000000E+00  0.00000000000E+00  0.37992972506E+02  0.20428825469E+04  0.20425292249E+04 0.  0.
        1    1    3    3  502    0 -0.43691152993E+03 -0.90874560684E+03 -0.14311531279E+03  0.10184263624E+04  0.50400001928E-02 0. -1.
       -1    1    3    3    0  502  0.43691152993E+03  0.90874560684E+03  0.18110828530E+03  0.10244561845E+04  0.50400001928E-02 0.  1.
</event>
<event>
 5   0  0.2149920E-05  0.2293263E+04  0.7818609E-02  0.8480582E-01
        1   -1    0    0  501    0  0.00000000000E+00  0.00000000000E+00  0.18736958521E+04  0.18736958521E+04  0.50400001928E-02 0. -1.
       -1   -1    0    0    0  501  0.00000000000E+00  0.00000000000E+00 -0.70169557224E+03  0.70169557225E+03  0.50400001928E-02 0.  1.
    10030    2    1    2    0    0  0.00000000000E+00  0.00000000000E+00  0.11720002798E+04  0.25753914243E+04  0.22932632497E+04 0.  0.
        5    1    3    3  502    0 -0.57764531373E+03  0.99028833193E+03  0.60837355343E+03  0.12978773283E+04  0.46999998093E+01 0.  1.
       -5    1    3    3    0  502  0.57764531373E+03 -0.99028833193E+03  0.56362672641E+03  0.12775140960E+04  0.46999998093E+01 0. -1.
</event>
<event>
 5   0  0.2090039E-05  0.2397340E+04  0.7818609E-02  0.8440500E-01
       -1   -1    0    0    0  501  0.00000000000E+00  0.00000000000E+00  0.10764150754E+04  0.10764150755E+04  0.50400001928E-02 0.  1.
        1   -1    0    0  501    0  0.00000000000E+00  0.00000000000E+00 -0.13348099328E+04  0.13348099328E+04  0.50400001928E-02 0. -1.
    10030    2    1    2    0    0  0.00000000000E+00  0.00000000000E+00 -0.25839485731E+03  0.24112250082E+04  0.23973398044E+04 0.  0.
        1    1    3    3  502    0 -0.10031415912E+04  0.61876238691E+03 -0.34874959739E+03  0.12291404416E+04  0.50400001928E-02 0. -1.
       -1    1    3    3    0  502  0.10031415912E+04 -0.61876238691E+03  0.90354740087E+02  0.11820845666E+04  0.50400001928E-02 0.  1.
</event>
<event>
 5   0  0.2090039E-05  0.2484322E+04  0.7818609E-02  0.8408592E-01
       -1   -1    0    0    0  501  0.00000000000E+00  0.00000000000E+00  0.18201026105E+04  0.18201026105E+04  0.50400001928E-02 0. -1.
        1   -1    0    0  501    0  0.00000000000E+00  0.00000000000E+00 -0.84773482372E+03  0.84773482373E+03  0.50400001928E-02 0.  1.
    10030    2    1    2    0    0  0.00000000000E+00  0.00000000000E+00  0.97236778678E+03  0.26678374342E+04  0.24843223347E+04 0.  0.
        1    1    3    3  502    0 -0.55095412514E+03  0.77386812948E+03 -0.37327525004E+03  0.10206648530E+04  0.50400001928E-02 0.  1.
       -1    1    3    3    0  502  0.55095412514E+03 -0.77386812948E+03  0.13456430368E+04  0.16471725812E+04  0.50400001928E-02 0. -1.
</event>
<event>
 5   0  0.2057599E-05  0.2234680E+04  0.7818609E-02  0.8504131E-01
       -1   -1    0    0    0  501  0.00000000000E+00  0.00000000000E+00  0.15383106994E+04  0.15383106995E+04  0.50400001928E-02 0.  1.
        1   -1    0    0  501    0  0.00000000000E+00  0.00000000000E+00 -0.81157091784E+03  0.81157091785E+03  0.50400001928E-02 0. -1.
    10030    2    1    2    0    0  0.00000000000E+00  0.00000000000E+00  0.72673978161E+03  0.23498816173E+04  0.22346795979E+04 0.  0.
        4    1    3    3  502    0 -0.10767709165E+04 -0.24202832698E+02  0.50676416363E+02  0.10782351765E+04  0.12699999809E+01 0. -1.
       -4    1    3    3    0  502  0.10767709165E+04  0.24202832698E+02  0.67606336524E+03  0.12716464408E+04  0.12699999809E+01 0.  1.
</event>
<event>
 5   0  0.2065692E-05  0.2411691E+04  0.7818609E-02  0.8435140E-01
        1   -1    0    0  501    0  0.00000000000E+00  0.00000000000E+00  0.12065356071E+04  0.12065356071E+04  0.50400001928E-02 0. -1.
       -1   -1    0    0    0  501  0.00000000000E+00  0.00000000000E+00 -0.12051559081E+04  0.12051559081E+04  0.50400001928E-02 0.  1.
    10030    2    1    2    0    0  0.00000000000E+00  0.00000000000E+00  0.13796989705E+01  0.24116915152E+04  0.24116911205E+04 0.  0.
        3    1    3    3  502    0 -0.35771206134E+03 -0.10076682786E+04 -0.55672411529E+03  0.12055268679E+04  0.10100000352E+00 0.  1.
       -3    1    3    3    0  502  0.35771206134E+03  0.10076682786E+04  0.55810381426E+03  0.12061646472E+04  0.10100000352E+00 0. -1.
</event>
<event>
 5   0  0.4856882E-05  0.2433753E+04  0.7818609E-02  0.8426974E-01
        2   -1    0    0  501    0  0.00000000000E+00  0.00000000000E+00  0.10695867426E+04  0.10695867426E+04  0.25500000920E-02 0. -1.
       -2   -1    0    0    0  501  0.00000000000E+00  0.00000000000E+00 -0.13844493998E+04  0.13844493998E+04  0.25500000920E-02 0.  1.
    10030    2    1    2    0    0  0.00000000000E+00  0.00000000000E+00 -0.31486265719E+03  0.24540361423E+04  0.24337532527E+04 0.  0.
        1    1    3    3  502    0  0.81110213162E+03  0.78440462096E+03  0.30200999744E+03  0.11680699105E+04  0.50400001928E-02 0. -1.
       -1    1    3    3    0  502 -0.81110213162E+03 -0.78440462096E+03 -0.61687265462E+03  0.12859662318E+04  0.50400001928E-02 0.  1.
</event>
<event>
 5   0  0.4756705E-05  0.2387000E+04  0.7818609E-02  0.8444386E-01
       -2   -1    0    0    0  501  0.00000000000E+00  0.00000000000E+00  0.13607754572E+04  0.13607754572E+04  0.25500000920E-02 0.  1.
        2   -1    0    0  501    0  0.00000000000E+00  0.00000000000E+00 -0.10467874925E+04  0.10467874925E+04  0.25500000920E-02 0. -1.
    10030    2    1    2    0    0  0.00000000000E+00  0.00000000000E+00  0.31398796469E+03  0.24075629498E+04  0.23870004011E+04 0.  0.
        3    1    3    3  502    0  0.43580640572E+03  0.20527124243E+02  0.12774615830E+04  0.13499098831E+04  0.10100000352E+00 0.  1.
       -3    1    3    3    0  502 -0.43580640572E+03 -0.20527124243E+02 -0.96347361832E+03  0.10576530667E+04  0.10100000352E+00 0. -1.
</event>
<event>
 5   0  0.2065692E-05  0.2408593E+04  0.7818609E-02  0.8436294E-01
        1   -1    0    0  501    0  0.00000000000E+00  0.00000000000E+00  0.93804494438E+03  0.93804494440E+03  0.50400001928E-02 0. -1.
       -1   -1    0    0    0  501  0.00000000000E+00  0.00000000000E+00 -0.15461196583E+04  0.15461196584E+04  0.50400001928E-02 0.  1.
    10030    2    1    2    0    0  0.00000000000E+00  0.00000000000E+00 -0.60807471396E+03  0.24841646028E+04  0.24085927252E+04 0.  0.
        3    1    3    3  502    0 -0.10766881128E+04 -0.52279211466E+03 -0.44148859138E+03  0.12757276645E+04  0.10100000352E+00 0. -1.
       -3    1    3    3    0  502  0.10766881128E+04  0.52279211466E+03 -0.16658612258E+03  0.12084369383E+04  0.10100000352E+00 0.  1.
</event>
<event>
 5   0  0.4713971E-05  0.2403401E+04  0.7818609E-02  0.8438231E-01
       -2   -1    0    0    0  501  0.00000000000E+00  0.00000000000E+00  0.16575311166E+04  0.16575311166E+04  0.25500000920E-02 0.  1.
        2   -1    0    0  501    0  0.00000000000E+00  0.00000000000E+00 -0.87122614597E+03  0.87122614597E+03  0.25500000920E-02 0. -1.
    10030    2    1    2    0    0  0.00000000000E+00  0.00000000000E+00  0.78630497062E+03  0.25287572626E+04  0.24034012953E+04 0.  0.
        5    1    3    3  502    0 -0.71417898102E+03 -0.92687386104E+03  0.10516942621E+03  0.11748316771E+04  0.46999998093E+01 0. -1.
       -5    1    3    3    0  502  0.71417898102E+03  0.92687386104E+03  0.68113554441E+03  0.13539255855E+04  0.46999998093E+01 0.  1.
</event>
<event>
 5   0  0.2057599E-05  0.2383995E+04  0.7818609E-02  0.8445520E-01
       -1   -1    0    0    0  501  0.00000000000E+00  0.00000000000E+00  0.11528858108E+04  0.11528858108E+04  0.50400001928E-02 0. -1.
        1   -1    0    0  501    0  0.00000000000E+00  0.00000000000E+00 -0.12324365090E+04  0.12324365090E+04  0.50400001928E-02 0.  1.
    10030    2    1    2    0    0  0.00000000000E+00  0.00000000000E+00 -0.79550698173E+02  0.23853223199E+04  0.23839954396E+04 0.  0.
        4    1    3    3  502    0  0.93093832615E+03  0.74120145047E+03  0.29770126631E+02  0.11903418125E+04  0.12699999809E+01 0.  1.
       -4    1    3    3    0  502 -0.93093832615E+03 -0.74120145047E+03 -0.10932082480E+03  0.11949805073E+04  0.12699999809E+01 0. -1.
</event>
<event>
 5   0  0.2139556E-05  0.2404943E+04  0.7818609E-02  0.8437655E-01
        1   -1    0    0  501    0  0.00000000000E+00  0.00000000000E+00  0.19919900924E+04  0.19919900924E+04  0.50400001928E-02 0. -1.
       -1   -1    0    0    0  501  0.00000000000E+00  0.00000000000E+00 -0.72587619946E+03  0.72587619947E+03  0.50400001928E-02 0.  1.
    10030    2    1    2    0    0  0.00000000000E+00  0.00000000000E+00  0.12661138929E+04  0.27178662918E+04  0.24049434069E+04 0.  0.
        2    1    3    3  502    0  0.10326294074E+04  0.25138927685E+03  0.12687594331E+04  0.16550741859E+04  0.25500000920E-02 0.  1.
       -2    1    3    3    0  502 -0.10326294074E+04 -0.25138927685E+03 -0.26455402399E+01  0.10627921060E+04  0.25500000920E-02 0. -1.
</event>
<event>
 5   0  0.2090039E-05  0.2399260E+04  0.7818609E-02  0.8439781E-01
       -1   -1    0    0    0  501  0.00000000000E+00  0.00000000000E+00  0.53032229738E+03  0.53032229740E+03  0.50400001928E-02 0. -1.
        1   -1    0    0  501    0  0.00000000000E+00  0.00000000000E+00 -0.27136554699E+04  0.27136554699E+04  0.50400001928E-02 0.  1.
    10030    2    1    2    0    0  0.00000000000E+00  0.00000000000E+00 -0.21833331725E+04  0.32439777673E+04  0.23992598885E+04 0.  0.
        1    1    3    3  502    0  0.17801572121E+03  0.11489388587E+04 -0.14912998445E+04  0.18909588372E+04  0.50400001928E-02 0.  1.
       -1    1    3    3    0  502 -0.17801572121E+03 -0.11489388587E+04 -0.69203332801E+03  0.13530189300E+04  0.50400001928E-02 0. -1.
</event>
<event>
 5   0  0.2149920E-05  0.2377237E+04  0.7818609E-02  0.8448075E-01
        1   -1    0    0  501    0  0.00000000000E+00  0.00000000000E+00  0.10163449957E+04  0.10163449957E+04  0.50400001928E-02 0.  1.
       -1   -1    0    0    0  501  0.00000000000E+00  0.00000000000E+00 -0.13900934443E+04  0.13900934443E+04  0.50400001928E-02 0. -1.
    10030    2    1    2    0    0  0.00000000000E+00  0.00000000000E+00 -0.37374844861E+03  0.24064384400E+04  0.23772374855E+04 0.  0.
        5    1    3    3  502    0 -0.23584967831E+03 -0.35296124358E+03 -0.13107304394E+04  0.13777674278E+04  0.46999998093E+01 0. -1.
       -5    1    3    3    0  502  0.23584967831E+03  0.35296124358E+03  0.93698199081E+03  0.10286710122E+04  0.46999998093E+01 0.  1.
</event>
<event>
 5   0  0.4713971E-05  0.2434322E+04  0.7818609E-02  0.8426765E-01
       -2   -1    0    0    0  501  0.00000000000E+00  0.00000000000E+00  0.10868508574E+04  0.10868508574E+04  0.25500000920E-02 0.  1.
        2   -1    0    0  501    0  0.00000000000E+00  0.00000000000E+00 -0.13630948602E+04  0.13630948602E+04  0.25500000920E-02 0. -1.
    10030    2    1    2    0    0  0.00000000000E+00  0.00000000000E+00 -0.27624400282E+03  0.24499457176E+04  0.24343219323E+04 0.  0.
        5    1    3    3  502    0  0.80032673416E+03 -0.79903268590E+03  0.31474671199E+03  0.11739095780E+04  0.46999998093E+01 0.  1.
       -5    1    3    3    0  502 -0.80032673416E+03  0.79903268590E+03 -0.59099071481E+03  0.12760361396E+04  0.46999998093E+01 0. -1.
</event>
<event>
 5   0  0.4664127E-05  0.2417164E+04  0.7818609E-02  0.8433105E-01
        2   -1    0    0  501    0  0.00000000000E+00  0.00000000000E+00  0.13727273732E+04  0.13727273732E+04  0.25500000920E-02 0. -1.
       -2   -1    0    0    0  501  0.00000000000E+00  0.00000000000E+00 -0.10640644700E+04  0.10640644700E+04  0.25500000920E-02 0.  1.
    10030    2    1    2    0    0  0.00000000000E+00  0.00000000000E+00  0.30866290322E+03  0.24367918432E+04  0.24171639786E+04 0.  0.
        4    1    3    3  502    0  0.15887113781E+03  0.10446760162E+03  0.13575537638E+04  0.13708053665E+04  0.12699999809E+01 0. -1.
       -4    1    3    3    0  502 -0.15887113781E+03 -0.10446760162E+03 -0.10488908606E+04  0.10659864767E+04  0.12699999809E+01 0.  1.
</event>
<event>
 5   0  0.2149920E-05  0.2447668E+04  0.7818609E-02  0.8421870E-01
        1   -1    0    0  501    0  0.00000000000E+00  0.00000000000E+00  0.12748663302E+04  0.12748663302E+04  0.50400001928E-02 0. -1.
       -1   -1    0    0    0  501  0.00000000000E+00  0.00000000000E+00 -0.11748443365E+04  0.11748443365E+04  0.50400001928E-02 0.  1.
    10030    2    1    2    0    0  0.00000000000E+00  0.00000000000E+00  0.10002199370E+03  0.24497106667E+04  0.24476678597E+04 0.  0.
        5    1    3    3  502    0 -0.17542296937E+03 -0.48219375700E+03  0.11620023501E+04  0.12702580797E+04  0.46999998093E+01 0. -1.
       -5    1    3    3    0  502  0.17542296937E+03  0.48219375700E+03 -0.10619803564E+04  0.11794525870E+04  0.46999998093E+01 0.  1.
</event>
<event>
 5   0  0.1672125E-05  0.2241290E+04  0.7818609E-02  0.8501436E-01
       -3   -1    0    0    0  501  0.00000000000E+00  0.00000000000E+00  0.81313061513E+03  0.81313062140E+03  0.10100000352E+00 0.  1.
        3   -1    0    0  501    0  0.00000000000E+00  0.00000000000E+00 -0.15444565871E+04  0.15444565904E+04  0.10100000352E+00 0. -1.
    10030    2    1    2    0    0  0.00000000000E+00  0.00000000000E+00 -0.73132597199E+03  0.23575872118E+04  0.22412897591E+04 0.  0.
        4    1    3    3  502    0 -0.82103948667E+03 -0.67588341408E+03 -0.73744141884E+03  0.12941196572E+04  0.12699999809E+01 0. -1.
       -4    1    3    3    0  502  0.82103948667E+03  0.67588341408E+03  0.61154468452E+01  0.10634675546E+04  0.12699999809E+01 0.  1.
</event>
<event>
 5   0  0.4856882E-05  0.2378760E+04  0.7818609E-02  0.8447499E-01
       -2   -1    0    0    0  501  0.00000000000E+00  0.00000000000E+00  0.11106918480E+04  0.11106918480E+04  0.25500000920E-02 0. -1.
        2   -1    0    0  501    0  0.00000000000E+00  0.00000000000E+00 -0.12736425830E+04  0.12736425830E+04  0.25500000920E-02 0.  1.
    10030    2    1    2    0    0  0.00000000000E+00  0.00000000000E+00 -0.16295073497E+03  0.23843344310E+04  0.23787597056E+04 0.  0.
        1    1    3    3  502    0  0.72489140925E+03  0.89125734322E+03 -0.39012106144E+03  0.12132607509E+04  0.50400001928E-02 0.  1.
       -1    1    3    3    0  502 -0.72489140925E+03 -0.89125734322E+03  0.22717032647E+03  0.11710736801E+04  0.50400001928E-02 0. -1.
</event>
<event>
 5   0  0.4664127E-05  0.2385515E+04  0.7818609E-02  0.8444946E-01
       -2   -1    0    0    0  501  0.00000000000E+00  0.00000000000E+00  0.10960212210E+04  0.10960212210E+04  0.25500000920E-02 0.  1.
        2   -1    0    0  501    0  0.00000000000E+00  0.00000000000E+00 -0.12980323002E+04  0.12980323002E+04  0.25500000920E-02 0. -1.
    10030    2    1    2    0    0  0.00000000000E+00  0.00000000000E+00 -0.20201107922E+03  0.23940535212E+04  0.23855154131E+04 0.  0.
        4    1    3    3  502    0  0.66883444206E+03  0.79019218221E+03 -0.69551598124E+03  0.12471917610E+04  0.12699999809E+01 0. -1.
       -4    1    3    3    0  502 -0.66883444206E+03 -0.79019218221E+03  0.49350490202E+03  0.11468617602E+04  0.12699999809E+01 0.  1.
</event>
<event>
 5   0  0.4664127E-05  0.2385118E+04  0.7818609E-02  0.8445096E-01
       -2   -1    0    0    0  501  0.00000000000E+00  0.00000000000E+00  0.15719476809E+04  0.15719476809E+04  0.25500000920E-02 0.  1.
        2   -1    0    0  501    0  0.00000000000E+00  0.00000000000E+00 -0.90473535420E+03  0.90473535421E+03  0.25500000920E-02 0. -1.
    10030    2    1    2    0    0  0.00000000000E+00  0.00000000000E+00  0.66721232668E+03  0.24766830351E+04  0.23851177261E+04 0.  0.
        4    1    3    3  502    0 -0.67946635498E+03 -0.97437751418E+03  0.44305151860E+03  0.12678258274E+04  0.12699999809E+01 0.  1.
       -4    1    3    3    0  502  0.67946635498E+03  0.97437751418E+03  0.22416080808E+03  0.12088572076E+04  0.12699999809E+01 0. -1.
</event>
<event>
 5   0  0.2057599E-05  0.2426868E+04  0.7818609E-02  0.8429512E-01
        1   -1    0    0  501    0  0.00000000000E+00  0.00000000000E+00  0.14418331435E+04  0.14418331435E+04  0.50400001928E-02 0.  1.
       -1   -1    0    0    0  501  0.00000000000E+00  0.00000000000E+00 -0.10212155926E+04  0.10212155927E+04  0.50400001928E-02 0. -1.
    10030    2    1    2    0    0  0.00000000000E+00  0.00000000000E+00  0.42061755083E+03  0.24630487361E+04  0.24268683426E+04 0.  0.
        4    1    3    3  502    0 -0.11762132605E+04 -0.27974483653E+03  0.10539421946E+03  0.12136079936E+04  0.12699999809E+01 0. -1.
       -4    1    3    3    0  502  0.11762132605E+04  0.27974483653E+03  0.31522333137E+03  0.12494407426E+04  0.12699999809E+01 0.  1.
</event>
<event>
 5   0  0.2065692E-05  0.2413639E+04  0.7818609E-02  0.8434415E-01
        1   -1    0    0  501    0  0.00000000000E+00  0.00000000000E+00  0.15099699419E+04  0.15099699419E+04  0.50400001928E-02 0. -1.
       -1   -1    0    0    0  501  0.00000000000E+00  0.00000000000E+00 -0.96453126493E+03  0.96453126495E+03  0.50400001928E-02 0.  1.
    10030    2    1    2    0    0  0.00000000000E+00  0.00000000000E+00  0.54543867698E+03  0.24745012069E+04  0.24136389275E+04 0.  0.
        3    1    3    3  502    0  0.10129170591E+04  0.62008547599E+03  0.49237946958E+03  0.12856688992E+04  0.10100000352E+00 0.  1.
       -3    1    3    3    0  502 -0.10129170591E+04 -0.62008547599E+03  0.53059207407E+02  0.11888323077E+04  0.10100000352E+00 0. -1.
</event>
<event>
 5   0  0.2065692E-05  0.2388829E+04  0.7818609E-02  0.8443698E-01
        1   -1    0    0  501    0  0.00000000000E+00  0.00000000000E+00  0.20475075132E+04  0.20475075132E+04  0.50400001928E-02 0.  1.
       -1   -1    0    0    0  501  0.00000000000E+00  0.00000000000E+00 -0.69676209232E+03  0.69676209234E+03  0.50400001928E-02 0. -1.
    10030    2    1    2    0    0  0.00000000000E+00  0.00000000000E+00  0.13507454209E+04  0.27442696056E+04  0.23888286828E+04 0.  0.
        3    1    3    3  502    0  0.11268573459E+04 -0.33016095750E+03  0.92656693431E+03  0.14957740571E+04  0.10100000352E+00 0. -1.
       -3    1    3    3    0  502 -0.11268573459E+04  0.33016095750E+03  0.42417848657E+03  0.12484955485E+04  0.10100000352E+00 0.  1.
</event>
<event>
 5   0  0.4664127E-05  0.2400996E+04  0.7818609E-02  0.8439131E-01
       -2   -1    0    0    0  501  0.00000000000E+00  0.00000000000E+00  0.11376872196E+04  0.11376872196E+04  0.25500000920E-02 0.  1.
        2   -1    0    0  501    0  0.00000000000E+00  0.00000000000E+00 -0.12667764020E+04  0.12667764020E+04  0.25500000920E-02 0. -1.
    10030    2    1    2    0    0  0.00000000000E+00  0.00000000000E+00 -0.12908918239E+03  0.24044636217E+04  0.24009958957E+04 0.  0.
        4    1    3    3  502    0 -0.11410707492E+04 -0.14227643550E+03 -0.40987399252E+03  0.12207716173E+04  0.12699999809E+01 0.  1.
       -4    1    3    3    0  502  0.11410707492E+04  0.14227643550E+03  0.28078481013E+03  0.11836920044E+04  0.12699999809E+01 0. -1.
</event>
<event>
 5   0  0.2057599E-05  0.2442766E+04  0.7818609E-02  0.8423664E-01
       -1   -1    0    0    0  501  0.00000000000E+00  0.00000000000E+00  0.98345761906E+03  0.98345761907E+03  0.50400001928E-02 0. -1.
        1   -1    0    0  501    0  0.00000000000E+00  0.00000000000E+00 -0.15168691436E+04  0.15168691437E+04  0.50400001928E-02 0.  1.
    10030    2    1    2    0    0  0.00000000000E+00  0.00000000000E+00 -0.53341152459E+03  0.25003267627E+04  0.24427660686E+04 0.  0.
        4    1    3    3  502    0 -0.28644556449E+03 -0.29981777584E+03 -0.14426166344E+04  0.15010283565E+04  0.12699999809E+01 0.  1.
       -4    1    3    3    0  502  0.28644556449E+03  0.29981777584E+03  0.90920510982E+03  0.99929840626E+03  0.12699999809E+01 0. -1.
</event>
<event>
 5   0  0.4856882E-05  0.2275290E+04  0.7818609E-02  0.8487728E-01
       -2   -1    0    0    0  501  0.00000000000E+00  0.00000000000E+00  0.11610010577E+04  0.11610010577E+04  0.25500000920E-02 0. -1.
        2   -1    0    0  501    0  0.00000000000E+00  0.00000000000E+00 -0.11147589966E+04  0.11147589966E+04  0.25500000920E-02 0.  1.
    10030    2    1    2    0    0  0.00000000000E+00  0.00000000000E+00  0.46242061172E+02  0.22757600543E+04  0.22752902005E+04 0.  0.
        1    1    3    3  502    0 -0.46899647079E+03 -0.82068663821E+02 -0.10103122599E+04  0.11168812908E+04  0.50400001928E-02 0.  1.
       -1    1    3    3    0  502  0.46899647079E+03  0.82068663821E+02  0.10565543210E+04  0.11588787635E+04  0.50400001928E-02 0. -1.
</event>
<event>
 5   0  0.2149920E-05  0.2364785E+04  0.7818609E-02  0.8452807E-01
       -1   -1    0    0    0  501  0.00000000000E+00  0.00000000000E+00  0.70109996525E+03  0.70109996527E+03  0.50400001928E-02 0.  1.
        1   -1    0    0  501    0  0.00000000000E+00  0.00000000000E+00 -0.19940829225E+04  0.19940829225E+04  0.50400001928E-02 0. -1.
    10030    2    1    2    0    0  0.00000000000E+00  0.00000000000E+00 -0.12929829572E+04  0.26951828878E+04  0.23647845295E+04 0.  0.
        5    1    3    3  502    0  0.22661826469E+03  0.15885266404E+03 -0.19566392608E+04  0.19761197570E+04  0.46999998093E+01 0. -1.
       -5    1    3    3    0  502 -0.22661826469E+03 -0.15885266404E+03  0.66365630361E+03  0.71906313081E+03  0.46999998093E+01 0.  1.
</event>
<event>
 5   0  0.4756705E-05  0.2400023E+04  0.7818609E-02  0.8439495E-01
        2   -1    0    0  501    0  0.00000000000E+00  0.00000000000E+00  0.22310509266E+04  0.22310509266E+04  0.25500000920E-02 0.  1.
       -2   -1    0    0    0  501  0.00000000000E+00  0.00000000000E+00 -0.64544832357E+03  0.64544832357E+03  0.25500000920E-02 0. -1.
    10030    2    1    2    0    0  0.00000000000E+00  0.00000000000E+00  0.15856026030E+04  0.28764992501E+04  0.24000234002E+04 0.  0.
        3    1    3    3  502    0  0.63138760149E+03  0.13501187357E+03  0.20051243170E+04  0.21065141932E+04  0.10100000352E+00 0.  1.
       -3    1    3    3    0  502 -0.63138760149E+03 -0.13501187357E+03 -0.41952171395E+03  0.76998505699E+03  0.10100000352E+00 0. -1.
</event>
<event>
 5   0  0.4856882E-05  0.2423388E+04  0.7818609E-02  0.8430799E-01
        2   -1    0    0  501    0  0.00000000000E+00  0.00000000000E+00  0.20742919969E+04  0.20742919969E+04  0.25500000920E-02 0. -1.
       -2   -1    0    0    0  501  0.00000000000E+00  0.00000000000E+00 -0.70780863166E+03  0.70780863166E+03  0.25500000920E-02 0.  1.
    10030    2    1    2    0    0  0.00000000000E+00  0.00000000000E+00  0.13664833652E+04  0.27821006286E+04  0.24233875299E+04 0.  0.
        1    1    3    3  502    0 -0.62858714372E+02 -0.57993748177E+03 -0.53599973480E+03  0.79219594575E+03  0.50400001928E-02 0.  1.
       -1    1    3    3    0  502  0.62858714372E+02  0.57993748177E+03  0.19024831000E+04  0.19899046828E+04  0.50400001928E-02 0. -1.
</event>
<event>
 5   0  0.2149920E-05  0.2441533E+04  0.7818609E-02  0.8424116E-01
        1   -1    0    0  501    0  0.00000000000E+00  0.00000000000E+00  0.20078473836E+04  0.20078473836E+04  0.50400001928E-02 0.  1.
       -1   -1    0    0    0  501  0.00000000000E+00  0.00000000000E+00 -0.74222327353E+03  0.74222327355E+03  0.50400001928E-02 0. -1.
    10030    2    1    2    0    0  0.00000000000E+00  0.00000000000E+00  0.12656241101E+04  0.27500706572E+04  0.24415331723E+04 0.  0.
        5    1    3    3  502    0  0.65430834797E+03 -0.65726455576E+03  0.15269350947E+04  0.17865242747E+04  0.46999998093E+01 0.  1.
       -5    1    3    3    0  502 -0.65430834797E+03  0.65726455576E+03 -0.26131098466E+03  0.96354638248E+03  0.46999998093E+01 0. -1.
</event>
<event>
 5   0  0.2139556E-05  0.2138497E+04  0.7818609E-02  0.8544472E-01
       -1   -1    0    0    0  501  0.00000000000E+00  0.00000000000E+00  0.69186664528E+03  0.69186664530E+03  0.50400001928E-02 0. -1.
        1   -1    0    0  501    0  0.00000000000E+00  0.00000000000E+00 -0.16524749873E+04  0.16524749873E+04  0.50400001928E-02 0.  1.
    10030    2    1    2    0    0  0.00000000000E+00  0.00000000000E+00 -0.96060834206E+03  0.23443416326E+04  0.21384969730E+04 0.  0.
        2    1    3    3  502    0  0.43029291969E+03  0.79350962987E+03 -0.11086063632E+04  0.14296214876E+04  0.25500000920E-02 0.  1.
       -2    1    3    3    0  502 -0.43029291969E+03 -0.79350962987E+03  0.14799802112E+03  0.91472014501E+03  0.25500000920E-02 0. -1.
</event>
<event>
 5   0  0.4914005E-05  0.2419558E+04  0.7818609E-02  0.8432217E-01
        2   -1    0    0  501    0  0.00000000000E+00  0.00000000000E+00  0.17472265323E+04  0.17472265323E+04  0.25500000920E-02 0.  1.
       -2   -1    0    0    0  501  0.00000000000E+00  0.00000000000E+00 -0.83765047622E+03  0.83765047622E+03  0.25500000920E-02 0. -1.
    10030    2    1    2    0    0  0.00000000000E+00  0.00000000000E+00  0.90957605613E+03  0.25848770086E+04  0.24195579240E+04 0.  0.
        2    1    3    3  502    0  0.78597445743E+03 -0.91084606858E+03  0.59063244507E+03  0.13402399388E+04  0.25500000920E-02 0.  1.
       -2    1    3    3    0  502 -0.78597445743E+03  0.91084606858E+03  0.31894361105E+03  0.12446370698E+04  0.25500000920E-02 0. -1.
</event>
<event>
 5   0  0.4914005E-05  0.2419649E+04  0.7818609E-02  0.8432184E-01
       -2   -1    0    0    0  501  0.00000000000E+00  0.00000000000E+00  0.19699248969E+04  0.19699248969E+04  0.25500000920E-02 0. -1.
        2   -1    0    0  501    0  0.00000000000E+00  0.00000000000E+00 -0.74301067126E+03  0.74301067127E+03  0.25500000920E-02 0.  1.
    10030    2    1    2    0    0  0.00000000000E+00  0.00000000000E+00  0.12269142256E+04  0.27129355681E+04  0.24196489167E+04 0.  0.
        2    1    3    3  502    0  0.98178281871E+03  0.23188258236E+03  0.13622445303E+04  0.16951038893E+04  0.25500000920E-02 0. -1.
       -2    1    3    3    0  502 -0.98178281871E+03 -0.23188258236E+03 -0.13533030469E+03  0.10178316789E+04  0.25500000920E-02 0.  1.
</event>
<event>
 5   0  0.2065692E-05  0.2367157E+04  0.7818609E-02  0.8451903E-01
        1   -1    0    0  501    0  0.00000000000E+00  0.00000000000E+00  0.28052659877E+04  0.28052659877E+04  0.50400001928E-02 0. -1.
       -1   -1    0    0    0  501  0.00000000000E+00  0.00000000000E+00 -0.49936729215E+03  0.49936729217E+03  0.50400001928E-02 0.  1.
    10030    2    1    2    0    0  0.00000000000E+00  0.00000000000E+00  0.23058986956E+04  0.33046332799E+04  0.23671570122E+04 0.  0.
        3    1    3    3  502    0 -0.92311837527E+03  0.22377844742E+03  0.16715337797E+03  0.96445040840E+03  0.10100000352E+00 0.  1.
       -3    1    3    3    0  502  0.92311837527E+03 -0.22377844742E+03  0.21387453176E+04  0.23401828715E+04  0.10100000352E+00 0. -1.
</event>
<event>
 5   0  0.2139556E-05  0.2411766E+04  0.7818609E-02  0.8435112E-01
        1   -1    0    0  501    0  0.00000000000E+00  0.00000000000E+00  0.16678771758E+04  0.16678771758E+04  0.50400001928E-02 0. -1.
       -1   -1    0    0    0  501  0.00000000000E+00  0.00000000000E+00 -0.87185919455E+03  0.87185919456E+03  0.50400001928E-02 0.  1.
    10030    2    1    2    0    0  0.00000000000E+00  0.00000000000E+00  0.79601798127E+03  0.25397363704E+04  0.24117662002E+04 0.  0.
        2    1    3    3  502    0 -0.97698049921E+01  0.11827357777E+03 -0.86569463022E+03  0.87379132583E+03  0.25500000920E-02 0.  1.
       -2    1    3    3    0  502  0.97698049921E+01 -0.11827357777E+03  0.16617126115E+04  0.16659450446E+04  0.25500000920E-02 0. -1.
</event>
<event>
 5   0  0.4856882E-05  0.2348306E+04  0.7818609E-02  0.8459114E-01
       -2   -1    0    0    0  501  0.00000000000E+00  0.00000000000E+00  0.77041968634E+03  0.77041968634E+03  0.25500000920E-02 0. -1.
        2   -1    0    0  501    0  0.00000000000E+00  0.00000000000E+00 -0.17894607307E+04  0.17894607307E+04  0.25500000920E-02 0.  1.
    10030    2    1    2    0    0  0.00000000000E+00  0.00000000000E+00 -0.10190410444E+04  0.25598804171E+04  0.23483064322E+04 0.  0.
        1    1    3    3  502    0 -0.44554702257E+03 -0.10633983387E+04 -0.26746118660E+03  0.11835808644E+04  0.50400001928E-02 0. -1.
       -1    1    3    3    0  502  0.44554702257E+03  0.10633983387E+04 -0.75157985781E+03  0.13762995527E+04  0.50400001928E-02 0.  1.
</event>
<event>
 5   0  0.2057599E-05  0.2389641E+04  0.7818609E-02  0.8443392E-01
       -1   -1    0    0    0  501  0.00000000000E+00  0.00000000000E+00  0.10084482513E+04  0.10084482513E+04  0.50400001928E-02 0.  1.
        1   -1    0    0  501    0  0.00000000000E+00  0.00000000000E+00 -0.14156366802E+04  0.14156366802E+04  0.50400001928E-02 0. -1.
    10030    2    1    2    0    0  0.00000000000E+00  0.00000000000E+00 -0.40718842889E+03  0.24240849316E+04  0.23896412573E+04 0.  0.
        4    1    3    3  502    0  0.87002328819E+03  0.65894618392E+03 -0.69685817906E+03  0.12948990424E+04  0.12699999809E+01 0.  1.
       -4    1    3    3    0  502 -0.87002328819E+03 -0.65894618392E+03  0.28966975017E+03  0.11291858892E+04  0.12699999809E+01 0. -1.
</event>
<event>
 5   0  0.4856882E-05  0.2411629E+04  0.7818609E-02  0.8435163E-01
        2   -1    0    0  501    0  0.00000000000E+00  0.00000000000E+00  0.18517791556E+04  0.18517791556E+04  0.25500000920E-02 0.  1.
       -2   -1    0    0    0  501  0.00000000000E+00  0.00000000000E+00 -0.78518440553E+03  0.78518440554E+03  0.25500000920E-02 0. -1.
    10030    2    1    2    0    0  0.00000000000E+00  0.00000000000E+00  0.10665947501E+04  0.26369635612E+04  0.24116285912E+04 0.  0.
        1    1    3    3  502    0 -0.28196611861E+02 -0.11807055960E+04  0.26741597544E+03  0.12109385027E+04  0.50400001928E-02 0. -1.
       -1    1    3    3    0  502  0.28196611861E+02  0.11807055960E+04  0.79917877467E+03  0.14260250585E+04  0.50400001928E-02 0.  1.
</event>
<event>
 5   0  0.2090039E-05  0.2403104E+04  0.7818609E-02  0.8438342E-01
        1   -1    0    0  501    0  0.00000000000E+00  0.00000000000E+00  0.15092404535E+04  0.15092404535E+04  0.50400001928E-02 0. -1.
       -1   -1    0    0    0  501  0.00000000000E+00  0.00000000000E+00 -0.95659193745E+03  0.95659193747E+03  0.50400001928E-02 0.  1.
    10030    2    1    2    0    0  0.00000000000E+00  0.00000000000E+00  0.55264851608E+03  0.24658323910E+04  0.24031040340E+04 0.  0.
        1    1    3    3  502    0 -0.14602396781E+03 -0.11642058986E+04  0.10666838694E+02  0.11733763910E+04  0.50400001928E-02 0. -1.
       -1    1    3    3    0  502  0.14602396781E+03  0.11642058986E+04  0.54198167739E+03  0.12924560000E+04  0.50400001928E-02 0.  1.
</event>
<event>
 5   0  0.4664127E-05  0.2405659E+04  0.7818609E-02  0.8437388E-01
       -2   -1    0    0    0  501  0.00000000000E+00  0.00000000000E+00  0.70501549582E+03  0.70501549582E+03  0.25500000920E-02 0. -1.
        2   -1    0    0  501    0  0.00000000000E+00  0.00000000000E+00 -0.20521517993E+04  0.20521517993E+04  0.25500000920E-02 0.  1.
    10030    2    1    2    0    0  0.00000000000E+00  0.00000000000E+00 -0.13471363035E+04  0.27571672951E+04  0.24056590101E+04 0.  0.
        4    1    3    3  502    0 -0.74665216388E+03  0.27894783791E+03 -0.17060256982E+04  0.18830365493E+04  0.12699999809E+01 0.  1.
       -4    1    3    3    0  502  0.74665216388E+03 -0.27894783791E+03  0.35888939479E+03  0.87413074577E+03  0.12699999809E+01 0. -1.
</event>
<event>
 5   0  0.1672125E-05  0.2402751E+04  0.7818609E-02  0.8438474E-01
        3   -1    0    0  501    0  0.00000000000E+00  0.00000000000E+00  0.78763142544E+03  0.78763143191E+03  0.10100000352E+00 0. -1.
       -3   -1    0    0    0  501  0.00000000000E+00  0.00000000000E+00 -0.18324605473E+04  0.18324605501E+04  0.10100000352E+00 0.  1.
    10030    2    1    2    0    0  0.00000000000E+00  0.00000000000E+00 -0.10448291219E+04  0.26200919820E+04  0.24027513605E+04 0.  0.
        4    1    3    3  502    0 -0.34376298214E+03  0.11252150429E+04 -0.78733009494E+03  0.14156878794E+04  0.12699999809E+01 0.  1.
       -4    1    3    3    0  502  0.34376298214E+03 -0.11252150429E+04 -0.25749902691E+03  0.12044041026E+04  0.12699999809E+01 0. -1.
</event>
<event>
 5   0  0.4756705E-05  0.2374188E+04  0.7818609E-02  0.8449231E-01
       -2   -1    0    0    0  501  0.00000000000E+00  0.00000000000E+00  0.10321334169E+04  0.10321334169E+04  0.25500000920E-02 0. -1.
        2   -1    0    0  501    0  0.00000000000E+00  0.00000000000E+00 -0.13653203155E+04  0.13653203155E+04  0.25500000920E-02 0.  1.
    10030    2    1    2    0    0  0.00000000000E+00  0.00000000000E+00 -0.33318689861E+03  0.23974537325E+04  0.23741884698E+04 0.  0.
        3    1    3    3  502    0  0.64853235965E+03  0.68339325834E+03  0.56268308221E+03  0.10973754272E+04  0.10100000352E+00 0. -1.
       -3    1    3    3    0  502 -0.64853235965E+03 -0.68339325834E+03 -0.89586998082E+03  0.13000783052E+04  0.10100000352E+00 0.  1.
</event>
<event>
 5   0  0.4914005E-05  0.2341111E+04  0.7818609E-02  0.8461886E-01
        2   -1    0    0  501    0  0.00000000000E+00  0.00000000000E+00  0.25269281753E+04  0.25269281753E+04  0.25500000920E-02 0.  1.
       -2   -1    0    0    0  501  0.00000000000E+00  0.00000000000E+00 -0.54223957683E+03  0.54223957684E+03  0.25500000920E-02 0. -1.
    10030    2    1    2    0    0  0.00000000000E+00  0.00000000000E+00  0.19846885984E+04  0.30691677521E+04  0.23411112442E+04 0.  0.
        2    1    3    3  502    0 -0.88947156422E+03  0.56845916728E+03  0.16555212984E+04  0.19634297181E+04  0.25500000920E-02 0.  1.
       -2    1    3    3    0  502  0.88947156422E+03 -0.56845916728E+03  0.32916730000E+03  0.11057380340E+04  0.25500000920E-02 0. -1.
</event>
<event>
 5   0  0.4856882E-05  0.2405802E+04  0.7818609E-02  0.8437335E-01
        2   -1    0    0  501    0  0.00000000000E+00  0.00000000000E+00  0.19949534077E+04  0.19949534077E+04  0.25500000920E-02 0. -1.
       -2   -1    0    0    0  501  0.00000000000E+00  0.00000000000E+00 -0.72531549579E+03  0.72531549579E+03  0.25500000920E-02 0.  1.
    10030    2    1    2    0    0  0.00000000000E+00  0.00000000000E+00  0.12696379119E+04  0.27202689035E+04  0.24058018372E+04 0.  0.
        1    1    3    3  502    0  0.67144946106E+03  0.99147640944E+03  0.76423866159E+03  0.14205388348E+04  0.50400001928E-02 0. -1.
       -1    1    3    3    0  502 -0.67144946106E+03 -0.99147640944E+03  0.50539925032E+03  0.12997300687E+04  0.50400001928E-02 0.  1.
</event>
<event>
 5   0  0.2139556E-05  0.2376154E+04  0.7818609E-02  0.8448486E-01
        1   -1    0    0  501    0  0.00000000000E+00  0.00000000000E+00  0.14313571706E+04  0.14313571706E+04  0.50400001928E-02 0. -1.
       -1   -1    0    0    0  501  0.00000000000E+00  0.00000000000E+00 -0.98614570164E+03  0.98614570166E+03  0.50400001928E-02 0.  1.
    10030    2    1    2    0    0  0.00000000000E+00  0.00000000000E+00  0.44521146894E+03  0.24175028722E+04  0.23761538008E+04 0.  0.
        2    1    3    3  502    0 -0.19363230390E+03 -0.10271598191E+04 -0.35200194571E+03  0.11029307017E+04  0.25500000920E-02 0.  1.
       -2    1    3    3    0  502  0.19363230390E+03  0.10271598191E+04  0.79721341464E+03  0.13145721705E+04  0.25500000920E-02 0. -1.
</event>
<event>
 5   0  0.4914005E-05  0.2428331E+04  0.7818609E-02  0.8428973E-01
       -2   -1    0    0    0  501  0.00000000000E+00  0.00000000000E+00  0.78493822528E+03  0.78493822529E+03  0.25500000920E-02 0.  1.
        2   -1    0    0  501    0  0.00000000000E+00  0.00000000000E+00 -0.18781062088E+04  0.18781062088E+04  0.25500000920E-02 0. -1.
    10030    2    1    2    0    0  0.00000000000E+00  0.00000000000E+00 -0.10931679835E+04  0.26630444341E+04  0.24283305825E+04 0.  0.
        2    1    3    3  502    0 -0.78510953993E+03 -0.90435449001E+03 -0.76575983678E+03  0.14214929338E+04  0.25500000920E-02 0.  1.
       -2    1    3    3    0  502  0.78510953993E+03  0.90435449001E+03 -0.32740814675E+03  0.12415515003E+04  0.25500000920E-02 0. -1.
</event>
<event>
 5   0  0.2065692E-05  0.2409962E+04  0.7818609E-02  0.8435783E-01
        1   -1    0    0  501    0  0.00000000000E+00  0.00000000000E+00  0.81919460584E+03  0.81919460585E+03  0.50400001928E-02 0. -1.
       -1   -1    0    0    0  501  0.00000000000E+00  0.00000000000E+00 -0.17724469972E+04  0.17724469972E+04  0.50400001928E-02 0.  1.
    10030    2    1    2    0    0  0.00000000000E+00  0.00000000000E+00 -0.95325239140E+03  0.25916416031E+04  0.24099618414E+04 0.  0.
        3    1    3    3  502    0 -0.49376885243E+03  0.17626009715E+02 -0.16585056797E+04  0.17305373314E+04  0.10100000352E+00 0.  1.
       -3    1    3    3    0  502  0.49376885243E+03 -0.17626009715E+02  0.70525328826E+03  0.86110427165E+03  0.10100000352E+00 0. -1.
</event>
<event>
 5   0  0.2057599E-05  0.2397973E+04  0.7818609E-02  0.8440263E-01
       -1   -1    0    0    0  501  0.00000000000E+00  0.00000000000E+00  0.74599327786E+03  0.74599327788E+03  0.50400001928E-02 0. -1.
        1   -1    0    0  501    0  0.00000000000E+00  0.00000000000E+00 -0.19270535443E+04  0.19270535443E+04  0.50400001928E-02 0.  1.
    10030    2    1    2    0    0  0.00000000000E+00  0.00000000000E+00 -0.11810602665E+04  0.26730468222E+04  0.23979733028E+04 0.  0.
        4    1    3    3  502    0 -0.87989942913E+03  0.70191554934E+03 -0.10510270599E+04  0.15399895900E+04  0.12699999809E+01 0. -1.
       -4    1    3    3    0  502  0.87989942913E+03 -0.70191554934E+03 -0.13003320659E+03  0.11330572322E+04  0.12699999809E+01 0.  1.
</event>
<event>
 5   0  0.2139556E-05  0.2384713E+04  0.7818609E-02  0.8445249E-01
       -1   -1    0    0    0  501  0.00000000000E+00  0.00000000000E+00  0.14572027324E+04  0.14572027324E+04  0.50400001928E-02 0. -1.
        1   -1    0    0  501    0  0.00000000000E+00  0.00000000000E+00 -0.97564578675E+03  0.97564578677E+03  0.50400001928E-02 0.  1.
    10030    2    1    2    0    0  0.00000000000E+00  0.00000000000E+00  0.48155694564E+03  0.24328485192E+04  0.23847127343E+04 0.  0.
        2    1    3    3  502    0  0.47666101885E+03 -0.10923566544E+04  0.20449487356E+03  0.12092423002E+04  0.25500000920E-02 0.  1.
       -2    1    3    3    0  502 -0.47666101885E+03  0.10923566544E+04  0.27706207208E+03  0.12236062190E+04  0.25500000920E-02 0. -1.
</event>
<event>
 5   0  0.2149920E-05  0.2430519E+04  0.7818609E-02  0.8428165E-01
       -1   -1    0    0    0  501  0.00000000000E+00  0.00000000000E+00  0.87840580060E+03  0.87840580061E+03  0.50400001928E-02 0.  1.
        1   -1    0    0  501    0  0.00000000000E+00  0.00000000000E+00 -0.16812902847E+04  0.16812902847E+04  0.50400001928E-02 0. -1.
    10030    2    1    2    0    0  0.00000000000E+00  0.00000000000E+00 -0.80288448407E+03  0.25596960853E+04  0.24305185772E+04 0.  0.
        5    1    3    3  502    0 -0.54936041485E+02  0.11719143996E+04 -0.67689448410E+02  0.11751618101E+04  0.46999998093E+01 0.  1.
       -5    1    3    3    0  502  0.54936041485E+02 -0.11719143996E+04 -0.73519503566E+03  0.13845342751E+04  0.46999998093E+01 0. -1.
</event>
<event>
 5   0  0.4856882E-05  0.2393469E+04  0.7818609E-02  0.8441953E-01
       -2   -1    0    0    0  501  0.00000000000E+00  0.00000000000E+00  0.98572674717E+03  0.98572674718E+03  0.25500000920E-02 0.  1.
        2   -1    0    0  501    0  0.00000000000E+00  0.00000000000E+00 -0.14529112827E+04  0.14529112827E+04  0.25500000920E-02 0. -1.
    10030    2    1    2    0    0  0.00000000000E+00  0.00000000000E+00 -0.46718453555E+03  0.24386380299E+04  0.23934690411E+04 0.  0.
        1    1    3    3  502    0  0.97158464285E+03  0.29178138824E+03  0.41325925100E+03  0.10953977841E+04  0.50400001928E-02 0.  1.
       -1    1    3    3    0  502 -0.97158464285E+03 -0.29178138824E+03 -0.88044378656E+03  0.13432402458E+04  0.50400001928E-02 0. -1.
</event>
<event>
 5   0  0.4664127E-05  0.2376134E+04  0.7818609E-02  0.8448493E-01
        2   -1    0    0  501    0  0.00000000000E+00  0.00000000000E+00  0.16965669773E+04  0.16965669773E+04  0.25500000920E-02 0. -1.
       -2   -1    0    0    0  501  0.00000000000E+00  0.00000000000E+00 -0.83197626939E+03  0.83197626940E+03  0.25500000920E-02 0.  1.
    10030    2    1    2    0    0  0.00000000000E+00  0.00000000000E+00  0.86459070793E+03  0.25285432467E+04  0.23761342257E+04 0.  0.
        4    1    3    3  502    0 -0.88575210485E+03  0.58003251906E+03  0.10058541823E+04  0.14603899354E+04  0.12699999809E+01 0.  1.
       -4    1    3    3    0  502  0.88575210485E+03 -0.58003251906E+03 -0.14126347440E+03  0.10681533113E+04  0.12699999809E+01 0. -1.
</event>
<event>
 5   0  0.4756705E-05  0.2451087E+04  0.7818609E-02  0.8420621E-01
        2   -1    0    0  501    0  0.00000000000E+00  0.00000000000E+00  0.14714287869E+04  0.14714287869E+04  0.25500000920E-02 0.  1.
       -2   -1    0    0    0  501  0.00000000000E+00  0.00000000000E+00 -0.10207471777E+04  0.10207471777E+04  0.25500000920E-02 0. -1.
    10030    2    1    2    0    0  0.00000000000E+00  0.00000000000E+00  0.45068160924E+03  0.24921759646E+04  0.24510869274E+04 0.  0.
        3    1    3    3  502    0 -0.10797181723E+04  0.36844865979E+03  0.68051831271E+03  0.13284016450E+04  0.10100000352E+00 0.  1.
       -3    1    3    3    0  502  0.10797181723E+04 -0.36844865979E+03 -0.22983670348E+03  0.11637743196E+04  0.10100000352E+00 0. -1.
</event>
<event>
 5   0  0.2139556E-05  0.2397013E+04  0.7818609E-02  0.8440623E-01
        1   -1    0    0  501    0  0.00000000000E+00  0.00000000000E+00  0.11554979113E+04  0.11554979114E+04  0.50400001928E-02 0. -1.
       -1   -1    0    0    0  501  0.00000000000E+00  0.00000000000E+00 -0.12431157373E+04  0.12431157373E+04  0.50400001928E-02 0.  1.
    10030    2    1    2    0    0  0.00000000000E+00  0.00000000000E+00 -0.87617825936E+02  0.23986136486E+04  0.23970128394E+04 0.  0.
        2    1    3    3  502    0  0.11202816330E+04 -0.39885561782E+03 -0.19324349251E+03  0.12047654496E+04  0.25500000920E-02 0.  1.
       -2    1    3    3    0  502 -0.11202816330E+04  0.39885561782E+03  0.10562566657E+03  0.11938481991E+04  0.25500000920E-02 0. -1.
</event>
<event>
 5   0  0.1672125E-05  0.2410529E+04  0.7818609E-02  0.8435572E-01
       -4   -1    0    0    0  501  0.00000000000E+00  0.00000000000E+00  0.15457419546E+04  0.15457424764E+04  0.12699999809E+01 0. -1.
        4   -1    0    0  501    0  0.00000000000E+00  0.00000000000E+00 -0.93978195605E+03  0.93978281417E+03  0.12699999809E+01 0.  1.
    10030    2    1    2    0    0  0.00000000000E+00  0.00000000000E+00  0.60595999860E+03  0.24855252905E+04  0.24105286661E+04 0.  0.
        3    1    3    3  502    0 -0.26704526699E+03  0.71065793993E+03 -0.66226112217E+03  0.10074411578E+04  0.10100000352E+00 0.  1.
       -3    1    3    3    0  502  0.26704526699E+03 -0.71065793993E+03  0.12682211208E+04  0.14780841328E+04  0.10100000352E+00 0. -1.
</event>
<event>
 5   0  0.1672125E-05  0.2438492E+04  0.7818609E-02  0.8425232E-01
       -3   -1    0    0    0  501  0.00000000000E+00  0.00000000000E+00  0.75963955008E+03  0.75963955679E+03  0.10100000352E+00 0. -1.
        3   -1    0    0  501    0  0.00000000000E+00  0.00000000000E+00 -0.19569290202E+04  0.19569290229E+04  0.10100000352E+00 0.  1.
    10030    2    1    2    0    0  0.00000000000E+00  0.00000000000E+00 -0.11972894702E+04  0.27165685796E+04  0.24384919054E+04 0.  0.
        3    1    3    3  502    0  0.91204281421E+03  0.71496037599E+03 -0.10207605089E+04  0.15443258921E+04  0.10100000352E+00 0.  1.
       -3    1    3    3    0  502 -0.91204281421E+03 -0.71496037599E+03 -0.17652896127E+03  0.11722426876E+04  0.10100000352E+00 0. -1.
</event>
<event>
 5   0  0.1672125E-05  0.2382282E+04  0.7818609E-02  0.8446167E-01
        3   -1    0    0  501    0  0.00000000000E+00  0.00000000000E+00  0.76316424239E+03  0.76316424908E+03  0.10100000352E+00 0. -1.
       -3   -1    0    0    0  501  0.00000000000E+00  0.00000000000E+00 -0.18591241893E+04  0.18591241920E+04  0.10100000352E+00 0.  1.
    10030    2    1    2    0    0  0.00000000000E+00  0.00000000000E+00 -0.10959599469E+04  0.26222884411E+04  0.23822821964E+04 0.  0.
        4    1    3    3  502    0 -0.10681456054E+04 -0.11660774299E+03 -0.11138568581E+04  0.15476469602E+04  0.12699999809E+01 0.  1.
       -4    1    3    3    0  502  0.10681456054E+04  0.11660774299E+03  0.17896911248E+02  0.10746414809E+04  0.12699999809E+01 0. -1.
</event>
<event>
 5   0  0.2057599E-05  0.2427317E+04  0.7818609E-02  0.8429347E-01
        1   -1    0    0  501    0  0.00000000000E+00  0.00000000000E+00  0.10014725927E+04  0.10014725927E+04  0.50400001928E-02 0.  1.
       -1   -1    0    0    0  501  0.00000000000E+00  0.00000000000E+00 -0.14708011999E+04  0.14708011999E+04  0.50400001928E-02 0. -1.
    10030    2    1    2    0    0  0.00000000000E+00  0.00000000000E+00 -0.46932860719E+03  0.24722737927E+04  0.24273171124E+04 0.  0.
        4    1    3    3  502    0 -0.10452829294E+04 -0.42189323314E+03  0.22350628364E+03  0.11491592468E+04  0.12699999809E+01 0.  1.
       -4    1    3    3    0  502  0.10452829294E+04  0.42189323314E+03 -0.69283489083E+03  0.13231145459E+04  0.12699999809E+01 0. -1.
</event>
<event>
 5   0  0.2090039E-05  0.2371396E+04  0.7818609E-02  0.8450291E-01
       -1   -1    0    0    0  501  0.00000000000E+00  0.00000000000E+00  0.10131006147E+04  0.10131006147E+04  0.50400001928E-02 0. -1.
        1   -1    0    0  501    0  0.00000000000E+00  0.00000000000E+00 -0.13876998137E+04  0.13876998137E+04  0.50400001928E-02 0.  1.
    10030    2    1    2    0    0  0.00000000000E+00  0.00000000000E+00 -0.37459919900E+03  0.24008004285E+04  0.23713958205E+04 0.  0.
        1    1    3    3  502    0 -0.97320920670E+03  0.26868804103E+03  0.44214123057E+03  0.11021879564E+04  0.50400001928E-02 0. -1.
       -1    1    3    3    0  502  0.97320920670E+03 -0.26868804103E+03 -0.81674042956E+03  0.12986124721E+04  0.50400001928E-02 0.  1.
</event>
<event>
 5   0  0.4664127E-05  0.2408338E+04  0.7818609E-02  0.8436389E-01
        2   -1    0    0  501    0  0.00000000000E+00  0.00000000000E+00  0.12931208041E+04  0.12931208041E+04  0.25500000920E-02 0.  1.
       -2   -1    0    0    0  501  0.00000000000E+00  0.00000000000E+00 -0.11213358584E+04  0.11213358584E+04  0.25500000920E-02 0. -1.
    10030    2    1    2    0    0  0.00000000000E+00  0.00000000000E+00  0.17178494573E+03  0.24144566625E+04  0.24083377893E+04 0.  0.
        4    1    3    3  502    0  0.34652190461E+03  0.97417367953E+03  0.70465530458E+03  0.12512523724E+04  0.12699999809E+01 0.  1.
       -4    1    3    3    0  502 -0.34652190461E+03 -0.97417367953E+03 -0.53287035885E+03  0.11632042901E+04  0.12699999809E+01 0. -1.
</event>
<event>
 5   0  0.4713971E-05  0.2374420E+04  0.7818609E-02  0.8449143E-01
       -2   -1    0    0    0  501  0.00000000000E+00  0.00000000000E+00  0.57321978628E+03  0.57321978629E+03  0.25500000920E-02 0.  1.
        2   -1    0    0  501    0  0.00000000000E+00  0.00000000000E+00 -0.24588609910E+04  0.24588609910E+04  0.25500000920E-02 0. -1.
    10030    2    1    2    0    0  0.00000000000E+00  0.00000000000E+00 -0.18856412047E+04  0.30320807773E+04  0.23744201581E+04 0.  0.
        5    1    3    3  502    0  0.33650443788E+03 -0.30912347582E+03 -0.23420598351E+04  0.23862227308E+04  0.46999998093E+01 0. -1.
       -5    1    3    3    0  502 -0.33650443788E+03  0.30912347582E+03  0.45641863037E+03  0.64585804645E+03  0.46999998093E+01 0.  1.
</event>
<event>
 5   0  0.2149920E-05  0.2252662E+04  0.7818609E-02  0.8496823E-01
       -1   -1    0    0    0  501  0.00000000000E+00  0.00000000000E+00  0.10221560328E+04  0.10221560328E+04  0.50400001928E-02 0.  1.
        1   -1    0    0  501    0  0.00000000000E+00  0.00000000000E+00 -0.12411229529E+04  0.12411229529E+04  0.50400001928E-02 0. -1.
    10030    2    1    2    0    0  0.00000000000E+00  0.00000000000E+00 -0.21896692009E+03  0.22632789857E+04  0.22526618155E+04 0.  0.
        5    1    3    3  502    0  0.50053936154E+02 -0.69468608833E+03 -0.99881357328E+03  0.12176800902E+04  0.46999998093E+01 0. -1.
       -5    1    3    3    0  502 -0.50053936154E+02  0.69468608833E+03  0.77984665319E+03  0.10455988955E+04  0.46999998093E+01 0.  1.
</event>
<event>
 5   0  0.4856882E-05  0.2390616E+04  0.7818609E-02  0.8443025E-01
       -2   -1    0    0    0  501  0.00000000000E+00  0.00000000000E+00  0.93287981894E+03  0.93287981894E+03  0.25500000920E-02 0. -1.
        2   -1    0    0  501    0  0.00000000000E+00  0.00000000000E+00 -0.15315596255E+04  0.15315596255E+04  0.25500000920E-02 0.  1.
    10030    2    1    2    0    0  0.00000000000E+00  0.00000000000E+00 -0.59867980660E+03  0.24644394445E+04  0.23906158756E+04 0.  0.
        1    1    3    3  502    0  0.34123273339E+03 -0.34767090771E+02 -0.14797375558E+04  0.15189706261E+04  0.50400001928E-02 0.  1.
       -1    1    3    3    0  502 -0.34123273339E+03  0.34767090771E+02  0.88105774923E+03  0.94546881834E+03  0.50400001928E-02 0. -1.
</event>
<event>
 5   0  0.4914005E-05  0.2396329E+04  0.7818609E-02  0.8440879E-01
        2   -1    0    0  501    0  0.00000000000E+00  0.00000000000E+00  0.20756345478E+04  0.20756345478E+04  0.25500000920E-02 0. -1.
       -2   -1    0    0    0  501  0.00000000000E+00  0.00000000000E+00 -0.69164320107E+03  0.69164320107E+03  0.25500000920E-02 0.  1.
    10030    2    1    2    0    0  0.00000000000E+00  0.00000000000E+00  0.13839913468E+04  0.27672777489E+04  0.23963292953E+04 0.  0.
        2    1    3    3  502    0  0.34892957674E+02 -0.25572580351E+03  0.20431521558E+04  0.20593892145E+04  0.25500000920E-02 0. -1.
       -2    1    3    3    0  502 -0.34892957674E+02  0.25572580351E+03 -0.65916080899E+03  0.70788853444E+03  0.25500000920E-02 0.  1.
</event>
<event>
 5   0  0.4914005E-05  0.2316487E+04  0.7818609E-02  0.8471449E-01
       -2   -1    0    0    0  501  0.00000000000E+00  0.00000000000E+00  0.10459810722E+04  0.10459810722E+04  0.25500000920E-02 0. -1.
        2   -1    0    0  501    0  0.00000000000E+00  0.00000000000E+00 -0.12825545318E+04  0.12825545318E+04  0.25500000920E-02 0.  1.
    10030    2    1    2    0    0  0.00000000000E+00  0.00000000000E+00 -0.23657345964E+03  0.23285356040E+04  0.23164867920E+04 0.  0.
        2    1    3    3  502    0 -0.38355572249E+03 -0.10653760360E+04 -0.36324807366E+03  0.11891552688E+04  0.25500000920E-02 0.  1.
       -2    1    3    3    0  502  0.38355572249E+03  0.10653760360E+04  0.12667461402E+03  0.11393803352E+04  0.25500000920E-02 0. -1.
</event>
<event>
 5   0  0.2057599E-05  0.2441567E+04  0.7818609E-02  0.8424104E-01
        1   -1    0    0  501    0  0.00000000000E+00  0.00000000000E+00  0.15326712391E+04  0.15326712392E+04  0.50400001928E-02 0. -1.
       -1   -1    0    0    0  501  0.00000000000E+00  0.00000000000E+00 -0.97236233880E+03  0.97236233881E+03  0.50400001928E-02 0.  1.
    10030    2    1    2    0    0  0.00000000000E+00  0.00000000000E+00  0.56030890034E+03  0.25050335780E+04  0.24415665387E+04 0.  0.
        4    1    3    3  502    0 -0.69429692922E+03  0.60037759857E+03 -0.54563317857E+03  0.10678102197E+04  0.12699999809E+01 0.  1.
       -4    1    3    3    0  502  0.69429692922E+03 -0.60037759857E+03  0.11059420789E+04  0.14372233583E+04  0.12699999809E+01 0. -1.
</event>
<event>
 5   0  0.2090039E-05  0.2353573E+04  0.7818609E-02  0.8457093E-01
       -1   -1    0    0    0  501  0.00000000000E+00  0.00000000000E+00  0.86784573029E+03  0.86784573031E+03  0.50400001928E-02 0. -1.
        1   -1    0    0  501    0  0.00000000000E+00  0.00000000000E+00 -0.15957055391E+04  0.15957055391E+04  0.50400001928E-02 0.  1.
    10030    2    1    2    0    0  0.00000000000E+00  0.00000000000E+00 -0.72785980883E+03  0.24635512694E+04  0.23535728066E+04 0.  0.
        1    1    3    3  502    0  0.30297390918E+03 -0.74247003580E+03 -0.12654366463E+04  0.14981271140E+04  0.50400001928E-02 0.  1.
       -1    1    3    3    0  502 -0.30297390918E+03  0.74247003580E+03  0.53757683751E+03  0.96542415547E+03  0.50400001928E-02 0. -1.
</event>
<event>
 5   0  0.4713971E-05  0.2381253E+04  0.7818609E-02  0.8446556E-01
       -2   -1    0    0    0  501  0.00000000000E+00  0.00000000000E+00  0.12607608588E+04  0.12607608588E+04  0.25500000920E-02 0. -1.
        2   -1    0    0  501    0  0.00000000000E+00  0.00000000000E+00 -0.11243939533E+04  0.11243939533E+04  0.25500000920E-02 0.  1.
    10030    2    1    2    0    0  0.00000000000E+00  0.00000000000E+00  0.13636690546E+03  0.23851548121E+04  0.23812533558E+04 0.  0.
        5    1    3    3  502    0  0.48012706571E+03  0.78003902199E+03 -0.69371181112E+03  0.11490174246E+04  0.46999998093E+01 0.  1.
       -5    1    3    3    0  502 -0.48012706571E+03 -0.78003902199E+03  0.83007871658E+03  0.12361373875E+04  0.46999998093E+01 0. -1.
</event>
<event>
 5   0  0.2149920E-05  0.2423656E+04  0.7818609E-02  0.8430700E-01
       -1   -1    0    0    0  501  0.00000000000E+00  0.00000000000E+00  0.93751865166E+03  0.93751865168E+03  0.50400001928E-02 0. -1.
        1   -1    0    0  501    0  0.00000000000E+00  0.00000000000E+00 -0.15663978690E+04  0.15663978690E+04  0.50400001928E-02 0.  1.
    10030    2    1    2    0    0  0.00000000000E+00  0.00000000000E+00 -0.62887921730E+03  0.25039165207E+04  0.24236560962E+04 0.  0.
        5    1    3    3  502    0 -0.11103440899E+04  0.47336198079E+03 -0.42556348147E+03  0.12798679345E+04  0.46999998093E+01 0. -1.
       -5    1    3    3    0  502  0.11103440899E+04 -0.47336198079E+03 -0.20331573583E+03  0.12240485862E+04  0.46999998093E+01 0.  1.
</event>
<event>
 5   0  0.4914005E-05  0.2371551E+04  0.7818609E-02  0.8450232E-01
       -2   -1    0    0    0  501  0.00000000000E+00  0.00000000000E+00  0.13131856906E+04  0.13131856906E+04  0.25500000920E-02 0.  1.
        2   -1    0    0  501    0  0.00000000000E+00  0.00000000000E+00 -0.10707271349E+04  0.10707271349E+04  0.25500000920E-02 0. -1.
    10030    2    1    2    0    0  0.00000000000E+00  0.00000000000E+00  0.24245855566E+03  0.23839128255E+04  0.23715510132E+04 0.  0.
        2    1    3    3  502    0 -0.11359308372E+04 -0.28923570793E+03 -0.58777852742E+02  0.11736485835E+04  0.25500000920E-02 0.  1.
       -2    1    3    3    0  502  0.11359308372E+04  0.28923570793E+03  0.30123640840E+03  0.12102642420E+04  0.25500000920E-02 0. -1.
</event>
<event>
 5   0  0.4664127E-05  0.2438478E+04  0.7818609E-02  0.8425237E-01
       -2   -1    0    0    0  501  0.00000000000E+00  0.00000000000E+00  0.63899128901E+03  0.63899128902E+03  0.25500000920E-02 0. -1.
        2   -1    0    0  501    0  0.00000000000E+00  0.00000000000E+00 -0.23263907692E+04  0.23263907692E+04  0.25500000920E-02 0.  1.
    10030    2    1    2    0    0  0.00000000000E+00  0.00000000000E+00 -0.16873994802E+04  0.29653820582E+04  0.24384777517E+04 0.  0.
        4    1    3    3  502    0 -0.52592531677E+02  0.79120136734E+03 -0.19699862064E+04  0.21235849040E+04  0.12699999809E+01 0.  1.
       -4    1    3    3    0  502  0.52592531677E+02 -0.79120136734E+03  0.28258672626E+03  0.84179715420E+03  0.12699999809E+01 0. -1.
</event>
<event>
 5   0  0.2057599E-05  0.2413126E+04  0.7818609E-02  0.8434606E-01
       -1   -1    0    0    0  501  0.00000000000E+00  0.00000000000E+00  0.12174905994E+04  0.12174905994E+04  0.50400001928E-02 0. -1.
        1   -1    0    0  501    0  0.00000000000E+00  0.00000000000E+00 -0.11957337946E+04  0.11957337946E+04  0.50400001928E-02 0.  1.
    10030    2    1    2    0    0  0.00000000000E+00  0.00000000000E+00  0.21756804816E+02  0.24132243940E+04  0.24131263160E+04 0.  0.
        4    1    3    3  502    0  0.34732543081E+02 -0.12058963263E+04 -0.91409546325E+01  0.12064317093E+04  0.12699999809E+01 0. -1.
       -4    1    3    3    0  502 -0.34732543081E+02  0.12058963263E+04  0.30897759449E+02  0.12067926846E+04  0.12699999809E+01 0.  1.
</event>
<event>
 5   0  0.4713971E-05  0.2387032E+04  0.7818609E-02  0.8444375E-01
       -2   -1    0    0    0  501  0.00000000000E+00  0.00000000000E+00  0.10367127777E+04  0.10367127777E+04  0.25500000920E-02 0. -1.
        2   -1    0    0  501    0  0.00000000000E+00  0.00000000000E+00 -0.13740352164E+04  0.13740352164E+04  0.25500000920E-02 0.  1.
    10030    2    1    2    0    0  0.00000000000E+00  0.00000000000E+00 -0.33732243876E+03  0.24107479941E+04  0.23870315170E+04 0.  0.
        5    1    3    3  502    0  0.32531398842E+03 -0.63317275648E+03 -0.11361567313E+04  0.13407502149E+04  0.46999998093E+01 0.  1.
       -5    1    3    3    0  502 -0.32531398842E+03  0.63317275648E+03  0.79883429253E+03  0.10699977792E+04  0.46999998093E+01 0. -1.
</event>
<event>
 5   0  0.4756705E-05  0.2408550E+04  0.7818609E-02  0.8436309E-01
       -2   -1    0    0    0  501  0.00000000000E+00  0.00000000000E+00  0.10237737327E+04  0.10237737327E+04  0.25500000920E-02 0.  1.
        2   -1    0    0  501    0  0.00000000000E+00  0.00000000000E+00 -0.14166009051E+04  0.14166009051E+04  0.25500000920E-02 0. -1.
    10030    2    1    2    0    0  0.00000000000E+00  0.00000000000E+00 -0.39282717243E+03  0.24403746378E+04  0.24085504324E+04 0.  0.
        3    1    3    3  502    0  0.65801274783E+02  0.18440435682E+03  0.10075393115E+04  0.10263869879E+04  0.10100000352E+00 0.  1.
       -3    1    3    3    0  502 -0.65801274783E+02 -0.18440435682E+03 -0.14003664839E+04  0.14139876499E+04  0.10100000352E+00 0. -1.
</event>
<event>
 5   0  0.4664127E-05  0.2315131E+04  0.7818609E-02  0.8471979E-01
       -2   -1    0    0    0  501  0.00000000000E+00  0.00000000000E+00  0.49578853163E+03  0.49578853164E+03  0.25500000920E-02 0. -1.
        2   -1    0    0  501    0  0.00000000000E+00  0.00000000000E+00 -0.27026802934E+04  0.27026802934E+04  0.25500000920E-02 0.  1.
    10030    2    1    2    0    0  0.00000000000E+00  0.00000000000E+00 -0.22068917618E+04  0.31984688250E+04  0.23151310064E+04 0.  0.
        4    1    3    3  502    0  0.19905332507E+03 -0.48892067432E+03 -0.25267041489E+04  0.25812595997E+04  0.12699999809E+01 0.  1.
       -4    1    3    3    0  502 -0.19905332507E+03  0.48892067432E+03  0.31981238713E+03  0.61720922536E+03  0.12699999809E+01 0. -1.
</event>
<event>
 5   0  0.2139556E-05  0.2403400E+04  0.7818609E-02  0.8438232E-01
        1   -1    0    0  501    0  0.00000000000E+00  0.00000000000E+00  0.11352149856E+04  0.11352149856E+04  0.50400001928E-02 0.  1.
       -1   -1    0    0    0  501  0.00000000000E+00  0.00000000000E+00 -0.12720789790E+04  0.12720789790E+04  0.50400001928E-02 0. -1.
    10030    2    1    2    0    0  0.00000000000E+00  0.00000000000E+00 -0.13686399337E+03  0.24072939646E+04  0.24034001912E+04 0.  0.
        2    1    3    3  502    0  0.13399857183E+03 -0.54480368193E+03 -0.11328466947E+04  0.12641630839E+04  0.25500000920E-02 0. -1.
       -2    1    3    3    0  502 -0.13399857183E+03  0.54480368193E+03  0.99598270128E+03  0.11431308807E+04  0.25500000920E-02 0.  1.
</event>
<event>
 5   0  0.4756705E-05  0.2366201E+04  0.7818609E-02  0.8452267E-01
       -2   -1    0    0    0  501  0.00000000000E+00  0.00000000000E+00  0.81382166161E+03  0.81382166162E+03  0.25500000920E-02 0. -1.
        2   -1    0    0  501    0  0.00000000000E+00  0.00000000000E+00 -0.17199431784E+04  0.17199431784E+04  0.25500000920E-02 0.  1.
    10030    2    1    2    0    0  0.00000000000E+00  0.00000000000E+00 -0.90612151676E+03  0.25337648400E+04  0.23662011878E+04 0.  0.
        3    1    3    3  502    0 -0.30404950565E+03  0.38295217056E+03 -0.16066767291E+04  0.16794369857E+04  0.10100000352E+00 0.  1.
       -3    1    3    3    0  502  0.30404950565E+03 -0.38295217056E+03  0.70055521237E+03  0.85432785428E+03  0.10100000352E+00 0. -1.
</event>
<event>
 5   0  0.2065692E-05  0.2332460E+04  0.7818609E-02  0.8465231E-01
       -1   -1    0    0    0  501  0.00000000000E+00  0.00000000000E+00  0.65905683483E+03  0.65905683485E+03  0.50400001928E-02 0.  1.
        1   -1    0    0  501    0  0.00000000000E+00  0.00000000000E+00 -0.20636956470E+04  0.20636956470E+04  0.50400001928E-02 0. -1.
    10030    2    1    2    0    0  0.00000000000E+00  0.00000000000E+00 -0.14046388121E+04  0.27227524818E+04  0.23324602643E+04 0.  0.
        3    1    3    3  502    0  0.89224142175E+03 -0.23505066402E+03 -0.15349373255E+04  0.17909148983E+04  0.10100000352E+00 0. -1.
       -3    1    3    3    0  502 -0.89224142175E+03  0.23505066402E+03  0.13029851338E+03  0.93183758356E+03  0.10100000352E+00 0.  1.
</event>
<event>
 5   0  0.4664127E-05  0.2482221E+04  0.7818609E-02  0.8409347E-01
       -2   -1    0    0    0  501  0.00000000000E+00  0.00000000000E+00  0.11355780452E+04  0.11355780452E+04  0.25500000920E-02 0. -1.
        2   -1    0    0  501    0  0.00000000000E+00  0.00000000000E+00 -0.13564503351E+04  0.13564503351E+04  0.25500000920E-02 0.  1.
    10030    2    1    2    0    0  0.00000000000E+00  0.00000000000E+00 -0.22087228988E+03  0.24920283803E+04  0.24822209571E+04 0.  0.
        4    1    3    3  502    0  0.40189635437E+03  0.88270545908E+03 -0.88787552354E+03  0.13149198323E+04  0.12699999809E+01 0.  1.
       -4    1    3    3    0  502 -0.40189635437E+03 -0.88270545908E+03  0.66700323366E+03  0.11771085480E+04  0.12699999809E+01 0. -1.
</event>
<event>
 5   0  0.2090039E-05  0.2410993E+04  0.7818609E-02  0.8435399E-01
       -1   -1    0    0    0  501  0.00000000000E+00  0.00000000000E+00  0.79941485065E+03  0.79941485067E+03  0.50400001928E-02 0.  1.
        1   -1    0    0  501    0  0.00000000000E+00  0.00000000000E+00 -0.18178574158E+04  0.18178574158E+04  0.50400001928E-02 0. -1.
    10030    2    1    2    0    0  0.00000000000E+00  0.00000000000E+00 -0.10184425651E+04  0.26172722664E+04  0.24109933343E+04 0.  0.
        1    1    3    3  502    0  0.11674623168E+04 -0.30040689516E+03 -0.50584893364E+03  0.13073238725E+04  0.50400001928E-02 0. -1.
       -1    1    3    3    0  502 -0.11674623168E+04  0.30040689516E+03 -0.51259363147E+03  0.13099483940E+04  0.50400001928E-02 0.  1.
</event>
<event>
 5   0  0.4713971E-05  0.2376142E+04  0.7818609E-02  0.8448490E-01
       -2   -1    0    0    0  501  0.00000000000E+00  0.00000000000E+00  0.56829093715E+03  0.56829093716E+03  0.25500000920E-02 0. -1.
        2   -1    0    0  501    0  0.00000000000E+00  0.00000000000E+00 -0.24837852696E+04  0.24837852696E+04  0.25500000920E-02 0.  1.
    10030    2    1    2    0    0  0.00000000000E+00  0.00000000000E+00 -0.19154943324E+04  0.30520762067E+04  0.23761419642E+04 0.  0.
        5    1    3    3  502    0 -0.44776929988E+03  0.78648343996E+03  0.30906278265E+02  0.90555553958E+03  0.46999998093E+01 0. -1.
       -5    1    3    3    0  502  0.44776929988E+03 -0.78648343996E+03 -0.19464006107E+04  0.21465206671E+04  0.46999998093E+01 0.  1.
</event>
<event>
 5   0  0.2149920E-05  0.2405504E+04  0.7818609E-02  0.8437446E-01
        1   -1    0    0  501    0  0.00000000000E+00  0.00000000000E+00  0.15212671383E+04  0.15212671383E+04  0.50400001928E-02 0. -1.
       -1   -1    0    0    0  501  0.00000000000E+00  0.00000000000E+00 -0.95092567016E+03  0.95092567017E+03  0.50400001928E-02 0.  1.
    10030    2    1    2    0    0  0.00000000000E+00  0.00000000000E+00  0.57034146811E+03  0.24721928084E+04  0.24055036670E+04 0.  0.
        5    1    3    3  502    0 -0.45221794750E+03 -0.39012464653E+03 -0.78775080128E+03  0.98857054720E+03  0.46999998093E+01 0.  1.
       -5    1    3    3    0  502  0.45221794750E+03  0.39012464653E+03  0.13580922694E+04  0.14836222612E+04  0.46999998093E+01 0. -1.
</event>
<event>
 5   0  0.2149920E-05  0.2342166E+04  0.7818609E-02  0.8461479E-01
        1   -1    0    0  501    0  0.00000000000E+00  0.00000000000E+00  0.21975789512E+04  0.21975789512E+04  0.50400001928E-02 0.  1.
       -1   -1    0    0    0  501  0.00000000000E+00  0.00000000000E+00 -0.62406625330E+03  0.62406625332E+03  0.50400001928E-02 0. -1.
    10030    2    1    2    0    0  0.00000000000E+00  0.00000000000E+00  0.15735126979E+04  0.28216452045E+04  0.23421655470E+04 0.  0.
        5    1    3    3  502    0  0.41558080704E+03  0.94180741431E+03  0.11415750729E+03  0.10357425545E+04  0.46999998093E+01 0. -1.
       -5    1    3    3    0  502 -0.41558080704E+03 -0.94180741431E+03  0.14593551906E+04  0.17859026500E+04  0.46999998093E+01 0.  1.
</event>
<event>
 5   0  0.4713971E-05  0.2389489E+04  0.7818609E-02  0.8443449E-01
        2   -1    0    0  501    0  0.00000000000E+00  0.00000000000E+00  0.10943563047E+04  0.10943563047E+04  0.25500000920E-02 0.  1.
       -2   -1    0    0    0  501  0.00000000000E+00  0.00000000000E+00 -0.13043417237E+04  0.13043417237E+04  0.25500000920E-02 0. -1.
    10030    2    1    2    0    0  0.00000000000E+00  0.00000000000E+00 -0.20998541901E+03  0.23986980284E+04  0.23894891410E+04 0.  0.
        5    1    3    3  502    0 -0.56594763530E+03 -0.27630588610E+03  0.91417900867E+03  0.11101292801E+04  0.46999998093E+01 0.  1.
       -5    1    3    3    0  502  0.56594763530E+03  0.27630588610E+03 -0.11241644277E+04  0.12885687483E+04  0.46999998093E+01 0. -1.
</event>
<event>
 5   0  0.2057599E-05  0.2391891E+04  0.7818609E-02  0.8442546E-01
       -1   -1    0    0    0  501  0.00000000000E+00  0.00000000000E+00  0.12455019339E+04  0.12455019339E+04  0.50400001928E-02 0.  1.
        1   -1    0    0  501    0  0.00000000000E+00  0.00000000000E+00 -0.11483612588E+04  0.11483612588E+04  0.50400001928E-02 0. -1.
    10030    2    1    2    0    0  0.00000000000E+00  0.00000000000E+00  0.97140675108E+02  0.23938631927E+04  0.23918914429E+04 0.  0.
        4    1    3    3  502    0  0.56268869046E+03 -0.55835484114E+03 -0.84765982703E+03  0.11605634348E+04  0.12699999809E+01 0. -1.
       -4    1    3    3    0  502 -0.56268869046E+03  0.55835484114E+03  0.94480050214E+03  0.12332997579E+04  0.12699999809E+01 0.  1.
</event>
<event>
 5   0  0.2057599E-05  0.2176792E+04  0.7818609E-02  0.8528150E-01
        1   -1    0    0  501    0  0.00000000000E+00  0.00000000000E+00  0.12159711480E+04  0.12159711481E+04  0.50400001928E-02 0. -1.
       -1   -1    0    0    0  501  0.00000000000E+00  0.00000000000E+00 -0.97420579386E+03  0.97420579387E+03  0.50400001928E-02 0.  1.
    10030    2    1    2    0    0  0.00000000000E+00  0.00000000000E+00  0.24176535418E+03  0.21901769419E+04  0.21767922617E+04 0.  0.
        4    1    3    3  502    0 -0.10541118607E+04 -0.25992810862E+03  0.43663864839E+02  0.10865645781E+04  0.12699999809E+01 0.  1.
       -4    1    3    3    0  502  0.10541118607E+04  0.25992810862E+03  0.19810148935E+03  0.11036123638E+04  0.12699999809E+01 0. -1.
</event>
<event>
 5   0  0.2149920E-05  0.2416053E+04  0.7818609E-02  0.8433518E-01
       -1   -1    0    0    0  501  0.00000000000E+00  0.00000000000E+00  0.12299742417E+04  0.12299742418E+04  0.50400001928E-02 0. -1.
        1   -1    0    0  501    0  0.00000000000E+00  0.00000000000E+00 -0.11864706495E+04  0.11864706495E+04  0.50400001928E-02 0.  1.
    10030    2    1    2    0    0  0.00000000000E+00  0.00000000000E+00  0.43503592237E+02  0.24164448913E+04  0.24160532589E+04 0.  0.
        5    1    3    3  502    0 -0.24772529798E+03 -0.34069603098E+03  0.11541299319E+04  0.12286088061E+04  0.46999998093E+01 0. -1.
       -5    1    3    3    0  502  0.24772529798E+03  0.34069603098E+03 -0.11106263397E+04  0.11878360851E+04  0.46999998093E+01 0.  1.
</event>
<event>
 5   0  0.2057599E-05  0.1870562E+04  0.7818609E-02  0.8669650E-01
       -1   -1    0    0    0  501  0.00000000000E+00  0.00000000000E+00  0.73537992824E+03  0.73537992825E+03  0.50400001928E-02 0. -1.
        1   -1    0    0  501    0  0.00000000000E+00  0.00000000000E+00 -0.11895215772E+04  0.11895215772E+04  0.50400001928E-02 0.  1.
    10030    2    1    2    0    0  0.00000000000E+00  0.00000000000E+00 -0.45414164893E+03  0.19249015054E+04  0.18705617253E+04 0.  0.
        4    1    3    3  502    0  0.88821924364E+03  0.14709289116E+03  0.33624188967E+02  0.90094502739E+03  0.12699999809E+01 0. -1.
       -4    1    3    3    0  502 -0.88821924364E+03 -0.14709289116E+03 -0.48776583789E+03  0.10239564780E+04  0.12699999809E+01 0.  1.
</event>
<event>
 5   0  0.2057599E-05  0.2391427E+04  0.7818609E-02  0.8442720E-01
        1   -1    0    0  501    0  0.00000000000E+00  0.00000000000E+00  0.13365710344E+04  0.13365710344E+04  0.50400001928E-02 0. -1.
       -1   -1    0    0    0  501  0.00000000000E+00  0.00000000000E+00 -0.10697003181E+04  0.10697003181E+04  0.50400001928E-02 0.  1.
    10030    2    1    2    0    0  0.00000000000E+00  0.00000000000E+00  0.26687071629E+03  0.24062713524E+04  0.23914267378E+04 0.  0.
        4    1    3    3  502    0  0.69573965602E+03  0.23223604484E+03  0.10836178703E+04  0.13085169282E+04  0.12699999809E+01 0. -1.
       -4    1    3    3    0  502 -0.69573965602E+03 -0.23223604484E+03 -0.81674715404E+03  0.10977544243E+04  0.12699999809E+01 0.  1.
</event>
<event>
 5   0  0.2057599E-05  0.2359238E+04  0.7818609E-02  0.8454924E-01
       -1   -1    0    0    0  501  0.00000000000E+00  0.00000000000E+00  0.69724363260E+03  0.69724363262E+03  0.50400001928E-02 0. -1.
        1   -1    0    0  501    0  0.00000000000E+00  0.00000000000E+00 -0.19957168323E+04  0.19957168323E+04  0.50400001928E-02 0.  1.
    10030    2    1    2    0    0  0.00000000000E+00  0.00000000000E+00 -0.12984731997E+04  0.26929604649E+04  0.23592378887E+04 0.  0.
        4    1    3    3  502    0 -0.96079360366E+03  0.10909693219E+03  0.12196100557E+03  0.97462946252E+03  0.12699999809E+01 0. -1.
       -4    1    3    3    0  502  0.96079360366E+03 -0.10909693219E+03 -0.14204342053E+04  0.17183310024E+04  0.12699999809E+01 0.  1.
</event>
<event>
 5   0  0.2090039E-05  0.2399072E+04  0.7818609E-02  0.8439851E-01
        1   -1    0    0  501    0  0.00000000000E+00  0.00000000000E+00  0.14324172160E+04  0.14324172160E+04  0.50400001928E-02 0.  1.
       -1   -1    0    0    0  501  0.00000000000E+00  0.00000000000E+00 -0.10045167507E+04  0.10045167507E+04  0.50400001928E-02 0. -1.
    10030    2    1    2    0    0  0.00000000000E+00  0.00000000000E+00  0.42790046538E+03  0.24369339667E+04  0.23990723936E+04 0.  0.
        1    1    3    3  502    0  0.19439893593E+01  0.55024185589E+02  0.14311330092E+04  0.14321917226E+04  0.50400001928E-02 0.  1.
       -1    1    3    3    0  502 -0.19439893593E+01 -0.55024185589E+02 -0.10032325438E+04  0.10047422441E+04  0.50400001928E-02 0. -1.
</event>
<event>
 5   0  0.4914005E-05  0.2398374E+04  0.7818609E-02  0.8440113E-01
       -2   -1    0    0    0  501  0.00000000000E+00  0.00000000000E+00  0.10839418570E+04  0.10839418570E+04  0.25500000920E-02 0.  1.
        2   -1    0    0  501    0  0.00000000000E+00  0.00000000000E+00 -0.13266849374E+04  0.13266849374E+04  0.25500000920E-02 0. -1.
    10030    2    1    2    0    0  0.00000000000E+00  0.00000000000E+00 -0.24274308040E+03  0.24106267943E+04  0.23983738946E+04 0.  0.
        2    1    3    3  502    0  0.24038216163E+03  0.11579265568E+04  0.78318671235E+02  0.11852051759E+04  0.25500000920E-02 0.  1.
       -2    1    3    3    0  502 -0.24038216163E+03 -0.11579265568E+04 -0.32106175163E+03  0.12254216185E+04  0.25500000920E-02 0. -1.
</event>
<event>
 5   0  0.2090039E-05  0.2385748E+04  0.7818609E-02  0.8444859E-01
        1   -1    0    0  501    0  0.00000000000E+00  0.00000000000E+00  0.95481027712E+03  0.95481027714E+03  0.50400001928E-02 0.  1.
       -1   -1    0    0    0  501  0.00000000000E+00  0.00000000000E+00 -0.14902941522E+04  0.14902941522E+04  0.50400001928E-02 0. -1.
    10030    2    1    2    0    0  0.00000000000E+00  0.00000000000E+00 -0.53548387503E+03  0.24451044293E+04  0.23857478261E+04 0.  0.
        1    1    3    3  502    0  0.78786388674E+03 -0.81269091965E+03 -0.65360897772E+03  0.13070580441E+04  0.50400001928E-02 0. -1.
       -1    1    3    3    0  502 -0.78786388674E+03  0.81269091965E+03  0.11812510268E+03  0.11380463852E+04  0.50400001928E-02 0.  1.
</event>
<event>
 5   0  0.2057599E-05  0.2418656E+04  0.7818609E-02  0.8432552E-01
       -1   -1    0    0    0  501  0.00000000000E+00  0.00000000000E+00  0.16111404269E+04  0.16111404270E+04  0.50400001928E-02 0.  1.
        1   -1    0    0  501    0  0.00000000000E+00  0.00000000000E+00 -0.90772646495E+03  0.90772646497E+03  0.50400001928E-02 0. -1.
    10030    2    1    2    0    0  0.00000000000E+00  0.00000000000E+00  0.70341396199E+03  0.25188668919E+04  0.24186564901E+04 0.  0.
        4    1    3    3  502    0 -0.21417884130E+03  0.10836840861E+04  0.86426669417E+03  0.14025698934E+04  0.12699999809E+01 0.  1.
       -4    1    3    3    0  502  0.21417884130E+03 -0.10836840861E+04 -0.16085273218E+03  0.11162969985E+04  0.12699999809E+01 0. -1.
</event>
<event>
 5   0  0.4713971E-05  0.2415044E+04  0.7818609E-02  0.8433893E-01
        2   -1    0    0  501    0  0.00000000000E+00  0.00000000000E+00  0.18272465841E+04  0.18272465841E+04  0.25500000920E-02 0.  1.
       -2   -1    0    0    0  501  0.00000000000E+00  0.00000000000E+00 -0.79798161450E+03  0.79798161450E+03  0.25500000920E-02 0. -1.
    10030    2    1    2    0    0  0.00000000000E+00  0.00000000000E+00  0.10292649696E+04  0.26252281986E+04  0.24150438334E+04 0.  0.
        5    1    3    3  502    0 -0.10453500439E+04  0.27136186795E+03  0.11017230884E+04  0.15427928672E+04  0.46999998093E+01 0. -1.
       -5    1    3    3    0  502  0.10453500439E+04 -0.27136186795E+03 -0.72458118788E+02  0.10824353314E+04  0.46999998093E+01 0.  1.
</event>
<event>
 5   0  0.4713971E-05  0.2388278E+04  0.7818609E-02  0.8443905E-01
        2   -1    0    0  501    0  0.00000000000E+00  0.00000000000E+00  0.83379882618E+03  0.83379882619E+03  0.25500000920E-02 0.  1.
       -2   -1    0    0    0  501  0.00000000000E+00  0.00000000000E+00 -0.17102067113E+04  0.17102067113E+04  0.25500000920E-02 0. -1.
    10030    2    1    2    0    0  0.00000000000E+00  0.00000000000E+00 -0.87640788508E+03  0.25440055374E+04  0.23882783325E+04 0.  0.
        5    1    3    3  502    0  0.14842111862E+03 -0.10715160499E+04 -0.97691833910E+03  0.14575894500E+04  0.46999998093E+01 0. -1.
       -5    1    3    3    0  502 -0.14842111862E+03  0.10715160499E+04  0.10051045402E+03  0.10864160874E+04  0.46999998093E+01 0.  1.
</event>
<event>
 5   0  0.2065692E-05  0.2387134E+04  0.7818609E-02  0.8444336E-01
        1   -1    0    0  501    0  0.00000000000E+00  0.00000000000E+00  0.17412365894E+04  0.17412365894E+04  0.50400001928E-02 0.  1.
       -1   -1    0    0    0  501  0.00000000000E+00  0.00000000000E+00 -0.81815514119E+03  0.81815514121E+03  0.50400001928E-02 0. -1.
    10030    2    1    2    0    0  0.00000000000E+00  0.00000000000E+00  0.92308144820E+03  0.25593917306E+04  0.23871335678E+04 0.  0.
        3    1    3    3  502    0 -0.53489776611E+03  0.53658749676E+03 -0.52726846420E+03  0.92306760609E+03  0.10100000352E+00 0. -1.
       -3    1    3    3    0  502  0.53489776611E+03 -0.53658749676E+03  0.14503499124E+04  0.16363241245E+04  0.10100000352E+00 0.  1.
</event>
<event>
 5   0  0.2057599E-05  0.2403772E+04  0.7818609E-02  0.8438093E-01
       -1   -1    0    0    0  501  0.00000000000E+00  0.00000000000E+00  0.19082681423E+04  0.19082681423E+04  0.50400001928E-02 0. -1.
        1   -1    0    0  501    0  0.00000000000E+00  0.00000000000E+00 -0.75698485460E+03  0.75698485462E+03  0.50400001928E-02 0.  1.
    10030    2    1    2    0    0  0.00000000000E+00  0.00000000000E+00  0.11512832877E+04  0.26652529969E+04  0.24037721042E+04 0.  0.
        4    1    3    3  502    0  0.16285714038E+03 -0.11027670587E+04  0.77417278862E+02  0.11174133890E+04  0.12699999809E+01 0.  1.
       -4    1    3    3    0  502 -0.16285714038E+03  0.11027670587E+04  0.10738660089E+04  0.15478396079E+04  0.12699999809E+01 0. -1.
</event>
<event>
 5   0  0.2057599E-05  0.2422956E+04  0.7818609E-02  0.8430959E-01
        1   -1    0    0  501    0  0.00000000000E+00  0.00000000000E+00  0.11196649791E+04  0.11196649791E+04  0.50400001928E-02 0. -1.
       -1   -1    0    0    0  501  0.00000000000E+00  0.00000000000E+00 -0.13108195874E+04  0.13108195874E+04  0.50400001928E-02 0.  1.
    10030    2    1    2    0    0  0.00000000000E+00  0.00000000000E+00 -0.19115460831E+03  0.24304845665E+04  0.24229558691E+04 0.  0.
        4    1    3    3  502    0 -0.11411518325E+04 -0.31463571224E+03 -0.35416511375E+03  0.12355798950E+04  0.12699999809E+01 0.  1.
       -4    1    3    3    0  502  0.11411518325E+04  0.31463571224E+03  0.16301050544E+03  0.11949046715E+04  0.12699999809E+01 0. -1.
</event>
<event>
 5   0  0.4664127E-05  0.2430017E+04  0.7818609E-02  0.8428350E-01
       -2   -1    0    0    0  501  0.00000000000E+00  0.00000000000E+00  0.10566365990E+04  0.10566365990E+04  0.25500000920E-02 0. -1.
        2   -1    0    0  501    0  0.00000000000E+00  0.00000000000E+00 -0.13971182082E+04  0.13971182082E+04  0.25500000920E-02 0.  1.
    10030    2    1    2    0    0  0.00000000000E+00  0.00000000000E+00 -0.34048160916E+03  0.24537548072E+04  0.24300174747E+04 0.  0.
        4    1    3    3  502    0 -0.39254284395E+03  0.11269235622E+04 -0.40094143437E+03  0.12588892906E+04  0.12699999809E+01 0.  1.
       -4    1    3    3    0  502  0.39254284395E+03 -0.11269235622E+04  0.60459825214E+02  0.11948655166E+04  0.12699999809E+01 0. -1.
</event>
<event>
 5   0  0.1672125E-05  0.2369681E+04  0.7818609E-02  0.8450942E-01
       -3   -1    0    0    0  501  0.00000000000E+00  0.00000000000E+00  0.68945863514E+03  0.68945864254E+03  0.10100000352E+00 0. -1.
        3   -1    0    0  501    0  0.00000000000E+00  0.00000000000E+00 -0.20361592666E+04  0.20361592691E+04  0.10100000352E+00 0.  1.
    10030    2    1    2    0    0  0.00000000000E+00  0.00000000000E+00 -0.13467006314E+04  0.27256179116E+04  0.23696814996E+04 0.  0.
        1    1    3    3  502    0  0.78596804074E+03 -0.41246983165E+03  0.22937359527E+03  0.91678207297E+03  0.50400001928E-02 0. -1.
       -1    1    3    3    0  502 -0.78596804074E+03  0.41246983165E+03 -0.15760742267E+04  0.18088358386E+04  0.50400001928E-02 0.  1.
</event>
<event>
 5   0  0.2065692E-05  0.1870284E+04  0.7818609E-02  0.8669791E-01
       -1   -1    0    0    0  501  0.00000000000E+00  0.00000000000E+00  0.60260497022E+03  0.60260497024E+03  0.50400001928E-02 0.  1.
        1   -1    0    0  501    0  0.00000000000E+00  0.00000000000E+00 -0.14511845566E+04  0.14511845566E+04  0.50400001928E-02 0. -1.
    10030    2    1    2    0    0  0.00000000000E+00  0.00000000000E+00 -0.84857958634E+03  0.20537895268E+04  0.18702844987E+04 0.  0.
        3    1    3    3  502    0  0.53039256729E+03 -0.36917800036E+03 -0.11665402073E+04  0.13335759209E+04  0.10100000352E+00 0. -1.
       -3    1    3    3    0  502 -0.53039256729E+03  0.36917800036E+03  0.31796062098E+03  0.72021360587E+03  0.10100000352E+00 0.  1.
</event>
<event>
 5   0  0.4914005E-05  0.2391539E+04  0.7818609E-02  0.8442678E-01
       -2   -1    0    0    0  501  0.00000000000E+00  0.00000000000E+00  0.11733314883E+04  0.11733314884E+04  0.25500000920E-02 0. -1.
        2   -1    0    0  501    0  0.00000000000E+00  0.00000000000E+00 -0.12186367069E+04  0.12186367069E+04  0.25500000920E-02 0.  1.
    10030    2    1    2    0    0  0.00000000000E+00  0.00000000000E+00 -0.45305218529E+02  0.23919681952E+04  0.23915391036E+04 0.  0.
        2    1    3    3  502    0  0.78205872609E+01  0.50945540063E+03  0.10593265168E+04  0.11754908064E+04  0.25500000920E-02 0. -1.
       -2    1    3    3    0  502 -0.78205872609E+01 -0.50945540063E+03 -0.11046317353E+04  0.12164773888E+04  0.25500000920E-02 0.  1.
</event>
<event>
 5   0  0.4713971E-05  0.2509577E+04  0.7818609E-02  0.8399582E-01
       -2   -1    0    0    0  501  0.00000000000E+00  0.00000000000E+00  0.91677884538E+03  0.91677884539E+03  0.25500000920E-02 0.  1.
        2   -1    0    0  501    0  0.00000000000E+00  0.00000000000E+00 -0.17174201476E+04  0.17174201476E+04  0.25500000920E-02 0. -1.
    10030    2    1    2    0    0  0.00000000000E+00  0.00000000000E+00 -0.80064130217E+03  0.26341989929E+04  0.25095772233E+04 0.  0.
        5    1    3    3  502    0 -0.40394052425E+03  0.11584642059E+04 -0.12406875474E+03  0.12331351951E+04  0.46999998093E+01 0.  1.
       -5    1    3    3    0  502  0.40394052425E+03 -0.11584642059E+04 -0.67657254743E+03  0.14010637978E+04  0.46999998093E+01 0. -1.
</event>
<event>
 5   0  0.4756705E-05  0.2427543E+04  0.7818609E-02  0.8429263E-01
        2   -1    0    0  501    0  0.00000000000E+00  0.00000000000E+00  0.13435560146E+04  0.13435560146E+04  0.25500000920E-02 0. -1.
       -2   -1    0    0    0  501  0.00000000000E+00  0.00000000000E+00 -0.10965242080E+04  0.10965242080E+04  0.25500000920E-02 0.  1.
    10030    2    1    2    0    0  0.00000000000E+00  0.00000000000E+00  0.24703180658E+03  0.24400802226E+04  0.24275433630E+04 0.  0.
        3    1    3    3  502    0 -0.91201233139E+03 -0.80075972299E+03  0.10733749928E+03  0.12184022224E+04  0.10100000352E+00 0.  1.
       -3    1    3    3    0  502  0.91201233139E+03  0.80075972299E+03  0.13969430731E+03  0.12216780002E+04  0.10100000352E+00 0. -1.
</event>
<event>
 5   0  0.2139556E-05  0.2394875E+04  0.7818609E-02  0.8441425E-01
       -1   -1    0    0    0  501  0.00000000000E+00  0.00000000000E+00  0.70770738693E+03  0.70770738695E+03  0.50400001928E-02 0.  1.
        1   -1    0    0  501    0  0.00000000000E+00  0.00000000000E+00 -0.20260589214E+04  0.20260589214E+04  0.50400001928E-02 0. -1.
    10030    2    1    2    0    0  0.00000000000E+00  0.00000000000E+00 -0.13183515345E+04  0.27337663084E+04  0.23948752494E+04 0.  0.
        2    1    3    3  502    0  0.93286399476E+02  0.77667441124E+03  0.37571918749E+03  0.86780781355E+03  0.25500000920E-02 0.  1.
       -2    1    3    3    0  502 -0.93286399476E+02 -0.77667441124E+03 -0.16940707220E+04  0.18659584949E+04  0.25500000920E-02 0. -1.
</event>
<event>
 5   0  0.4756705E-05  0.2377483E+04  0.7818609E-02  0.8447982E-01
        2   -1    0    0  501    0  0.00000000000E+00  0.00000000000E+00  0.21238646959E+04  0.21238646959E+04  0.25500000920E-02 0. -1.
       -2   -1    0    0    0  501  0.00000000000E+00  0.00000000000E+00 -0.66534692907E+03  0.66534692908E+03  0.25500000920E-02 0.  1.
    10030    2    1    2    0    0  0.00000000000E+00  0.00000000000E+00  0.14585177669E+04  0.27892116250E+04  0.23774834201E+04 0.  0.
        3    1    3    3  502    0  0.59527075345E+03  0.46173661431E+03  0.18080463572E+04  0.19587188698E+04  0.10100000352E+00 0. -1.
       -3    1    3    3    0  502 -0.59527075345E+03 -0.46173661431E+03 -0.34952859029E+03  0.83049275526E+03  0.10100000352E+00 0.  1.
</event>
<event>
 5   0  0.2149920E-05  0.2379187E+04  0.7818609E-02  0.8447337E-01
        1   -1    0    0  501    0  0.00000000000E+00  0.00000000000E+00  0.12347873072E+04  0.12347873072E+04  0.50400001928E-02 0. -1.
       -1   -1    0    0    0  501  0.00000000000E+00  0.00000000000E+00 -0.11460541361E+04  0.11460541361E+04  0.50400001928E-02 0.  1.
    10030    2    1    2    0    0  0.00000000000E+00  0.00000000000E+00  0.88733171071E+02  0.23808414433E+04  0.23791873408E+04 0.  0.
        5    1    3    3  502    0 -0.11606036098E+04  0.26043261439E+03  0.27469203260E+02  0.11897909618E+04  0.46999998093E+01 0. -1.
       -5    1    3    3    0  502  0.11606036098E+04 -0.26043261439E+03  0.61263967811E+02  0.11910504815E+04  0.46999998093E+01 0.  1.
</event>
<event>
 5   0  0.2065692E-05  0.2389681E+04  0.7818609E-02  0.8443377E-01
       -1   -1    0    0    0  501  0.00000000000E+00  0.00000000000E+00  0.13582974385E+04  0.13582974385E+04  0.50400001928E-02 0. -1.
        1   -1    0    0  501    0  0.00000000000E+00  0.00000000000E+00 -0.10510542388E+04  0.10510542388E+04  0.50400001928E-02 0.  1.
    10030    2    1    2    0    0  0.00000000000E+00  0.00000000000E+00  0.30724319968E+03  0.24093516773E+04  0.23896813849E+04 0.  0.
        3    1    3    3  502    0 -0.10678967541E+04 -0.51692988175E+03  0.10949596690E+02  0.11864821465E+04  0.10100000352E+00 0.  1.
       -3    1    3    3    0  502  0.10678967541E+04  0.51692988175E+03  0.29629360299E+03  0.12228695308E+04  0.10100000352E+00 0. -1.
</event>
<event>
 5   0  0.2057599E-05  0.2397766E+04  0.7818609E-02  0.8440341E-01
       -1   -1    0    0    0  501  0.00000000000E+00  0.00000000000E+00  0.12475860258E+04  0.12475860258E+04  0.50400001928E-02 0.  1.
        1   -1    0    0  501    0  0.00000000000E+00  0.00000000000E+00 -0.11520807573E+04  0.11520807573E+04  0.50400001928E-02 0. -1.
    10030    2    1    2    0    0  0.00000000000E+00  0.00000000000E+00  0.95505268524E+02  0.23996667831E+04  0.23977655043E+04 0.  0.
        4    1    3    3  502    0  0.73854272662E+03 -0.33165187405E+02  0.99230870293E+03  0.12374261447E+04  0.12699999809E+01 0.  1.
       -4    1    3    3    0  502 -0.73854272662E+03  0.33165187405E+02 -0.89680343440E+03  0.11622406384E+04  0.12699999809E+01 0. -1.
</event>
<event>
 5   0  0.4664127E-05  0.2380043E+04  0.7818609E-02  0.8447013E-01
        2   -1    0    0  501    0  0.00000000000E+00  0.00000000000E+00  0.25556460981E+04  0.25556460981E+04  0.25500000920E-02 0.  1.
       -2   -1    0    0    0  501  0.00000000000E+00  0.00000000000E+00 -0.55412642348E+03  0.55412642349E+03  0.25500000920E-02 0. -1.
    10030    2    1    2    0    0  0.00000000000E+00  0.00000000000E+00  0.20015196747E+04  0.31097725216E+04  0.23800428837E+04 0.  0.
        4    1    3    3  502    0  0.32908540626E+03  0.49222239834E+02 -0.49210514755E+03  0.59404471435E+03  0.12699999809E+01 0. -1.
       -4    1    3    3    0  502 -0.32908540626E+03 -0.49222239834E+02  0.24936248222E+04  0.25157278073E+04  0.12699999809E+01 0.  1.
</event>
<event>
 5   0  0.2057599E-05  0.2426918E+04  0.7818609E-02  0.8429494E-01
        1   -1    0    0  501    0  0.00000000000E+00  0.00000000000E+00  0.17237626547E+04  0.17237626547E+04  0.50400001928E-02 0.  1.
       -1   -1    0    0    0  501  0.00000000000E+00  0.00000000000E+00 -0.85422564377E+03  0.85422564379E+03  0.50400001928E-02 0. -1.
    10030    2    1    2    0    0  0.00000000000E+00  0.00000000000E+00  0.86953701092E+03  0.25779882985E+04  0.24269176034E+04 0.  0.
        4    1    3    3  502    0 -0.21811345018E+03 -0.10315669051E+04 -0.20326761753E+03  0.10737891293E+04  0.12699999809E+01 0. -1.
       -4    1    3    3    0  502  0.21811345018E+03  0.10315669051E+04  0.10728046284E+04  0.15041991692E+04  0.12699999809E+01 0.  1.
</event>
<event>
 5   0  0.4713971E-05  0.2406836E+04  0.7818609E-02  0.8436949E-01
       -2   -1    0    0    0  501  0.00000000000E+00  0.00000000000E+00  0.10238694295E+04  0.10238694295E+04  0.25500000920E-02 0. -1.
        2   -1    0    0  501    0  0.00000000000E+00  0.00000000000E+00 -0.14144526368E+04  0.14144526368E+04  0.25500000920E-02 0.  1.
    10030    2    1    2    0    0  0.00000000000E+00  0.00000000000E+00 -0.39058320726E+03  0.24383220662E+04  0.24068359431E+04 0.  0.
        5    1    3    3  502    0 -0.40163503013E+03  0.11301594745E+04 -0.95918699492E+02  0.12032429605E+04  0.46999998093E+01 0. -1.
       -5    1    3    3    0  502  0.40163503013E+03 -0.11301594745E+04 -0.29466450777E+03  0.12350791057E+04  0.46999998093E+01 0.  1.
</event>
<event>
 5   0  0.2065692E-05  0.2402856E+04  0.7818609E-02  0.8438435E-01
       -1   -1    0    0    0  501  0.00000000000E+00  0.00000000000E+00  0.87725372407E+03  0.87725372409E+03  0.50400001928E-02 0.  1.
        1   -1    0    0  501    0  0.00000000000E+00  0.00000000000E+00 -0.16453958605E+04  0.16453958605E+04  0.50400001928E-02 0. -1.
    10030    2    1    2    0    0  0.00000000000E+00  0.00000000000E+00 -0.76814213638E+03  0.25226495845E+04  0.24028563388E+04 0.  0.
        3    1    3    3  502    0 -0.68533481399E+03  0.69071907320E+03  0.35579932563E+03  0.10360356247E+04  0.10100000352E+00 0.  1.
       -3    1    3    3    0  502  0.68533481399E+03 -0.69071907320E+03 -0.11239414620E+04  0.14866139598E+04  0.10100000352E+00 0. -1.
</event>
<event>
 5   0  0.4914005E-05  0.2238912E+04  0.7818609E-02  0.8502405E-01
       -2   -1    0    0    0  501  0.00000000000E+00  0.00000000000E+00  0.96506590385E+03  0.96506590386E+03  0.25500000920E-02 0. -1.
        2   -1    0    0  501    0  0.00000000000E+00  0.00000000000E+00 -0.12985447201E+04  0.12985447201E+04  0.25500000920E-02 0.  1.
    10030    2    1    2    0    0  0.00000000000E+00  0.00000000000E+00 -0.33347881620E+03  0.22636106239E+04  0.22389115516E+04 0.  0.
        2    1    3    3  502    0  0.76790028698E+03  0.78155172672E+03  0.65329886746E+02  0.10976164842E+04  0.25500000920E-02 0. -1.
       -2    1    3    3    0  502 -0.76790028698E+03 -0.78155172672E+03 -0.39880870294E+03  0.11659941397E+04  0.25500000920E-02 0.  1.
</event>
<event>
 5   0  0.4664127E-05  0.2360803E+04  0.7818609E-02  0.8454326E-01
       -2   -1    0    0    0  501  0.00000000000E+00  0.00000000000E+00  0.75476663480E+03  0.75476663480E+03  0.25500000920E-02 0.  1.
        2   -1    0    0  501    0  0.00000000000E+00  0.00000000000E+00 -0.18460643315E+04  0.18460643315E+04  0.25500000920E-02 0. -1.
    10030    2    1    2    0    0  0.00000000000E+00  0.00000000000E+00 -0.10912976967E+04  0.26008309663E+04  0.23608030525E+04 0.  0.
        4    1    3    3  502    0  0.93283058337E+03  0.70969942372E+03 -0.69948891620E+03  0.13649661264E+04  0.12699999809E+01 0. -1.
       -4    1    3    3    0  502 -0.93283058337E+03 -0.70969942372E+03 -0.39180878054E+03  0.12358648400E+04  0.12699999809E+01 0.  1.
</event>
<event>
 5   0  0.4914005E-05  0.2126442E+04  0.7818609E-02  0.8549684E-01
       -2   -1    0    0    0  501  0.00000000000E+00  0.00000000000E+00  0.97804573641E+03  0.97804573642E+03  0.25500000920E-02 0.  1.
        2   -1    0    0  501    0  0.00000000000E+00  0.00000000000E+00 -0.11558136262E+04  0.11558136262E+04  0.25500000920E-02 0. -1.
    10030    2    1    2    0    0  0.00000000000E+00  0.00000000000E+00 -0.17776788977E+03  0.21338593626E+04  0.21264417125E+04 0.  0.
        2    1    3    3  502    0  0.16112018497E+03 -0.80478368784E+03 -0.76711293849E+03  0.11234316885E+04  0.25500000920E-02 0. -1.
       -2    1    3    3    0  502 -0.16112018497E+03  0.80478368784E+03  0.58934504872E+03  0.10104276741E+04  0.25500000920E-02 0.  1.
</event>
<event>
 5   0  0.2057599E-05  0.2387169E+04  0.7818609E-02  0.8444323E-01
       -1   -1    0    0    0  501  0.00000000000E+00  0.00000000000E+00  0.10314783045E+04  0.10314783045E+04  0.50400001928E-02 0. -1.
        1   -1    0    0  501    0  0.00000000000E+00  0.00000000000E+00 -0.13811673722E+04  0.13811673722E+04  0.50400001928E-02 0.  1.
    10030    2    1    2    0    0  0.00000000000E+00  0.00000000000E+00 -0.34968906764E+03  0.24126456767E+04  0.23871691849E+04 0.  0.
        4    1    3    3  502    0 -0.92240917817E+03  0.59211490160E+03  0.30264203004E+03  0.11371158956E+04  0.12699999809E+01 0. -1.
       -4    1    3    3    0  502  0.92240917817E+03 -0.59211490160E+03 -0.65233109768E+03  0.12755297811E+04  0.12699999809E+01 0.  1.
</event>
<event>
 5   0  0.4713971E-05  0.2457955E+04  0.7818609E-02  0.8418119E-01
        2   -1    0    0  501    0  0.00000000000E+00  0.00000000000E+00  0.16645330602E+04  0.16645330602E+04  0.25500000920E-02 0.  1.
       -2   -1    0    0    0  501  0.00000000000E+00  0.00000000000E+00 -0.90739324645E+03  0.90739324646E+03  0.25500000920E-02 0. -1.
    10030    2    1    2    0    0  0.00000000000E+00  0.00000000000E+00  0.75713981376E+03  0.25719263067E+04  0.24579552944E+04 0.  0.
        5    1    3    3  502    0  0.10048940272E+04  0.28843477488E+03 -0.29741744482E+03  0.10869617526E+04  0.46999998093E+01 0. -1.
       -5    1    3    3    0  502 -0.10048940272E+04 -0.28843477488E+03  0.10545572586E+04  0.14849645541E+04  0.46999998093E+01 0.  1.
</event>
<event>
 5   0  0.2139556E-05  0.2432200E+04  0.7818609E-02  0.8427546E-01
       -1   -1    0    0    0  501  0.00000000000E+00  0.00000000000E+00  0.13373646814E+04  0.13373646814E+04  0.50400001928E-02 0. -1.
        1   -1    0    0  501    0  0.00000000000E+00  0.00000000000E+00 -0.11058308965E+04  0.11058308965E+04  0.50400001928E-02 0.  1.
    10030    2    1    2    0    0  0.00000000000E+00  0.00000000000E+00  0.23153378493E+03  0.24431955779E+04  0.24321999791E+04 0.  0.
        2    1    3    3  502    0 -0.73710120118E+03 -0.63869475315E+03  0.84544603285E+03  0.12907471336E+04  0.25500000920E-02 0. -1.
       -2    1    3    3    0  502  0.73710120118E+03  0.63869475315E+03 -0.61391224793E+03  0.11524484442E+04  0.25500000920E-02 0.  1.
</event>
<event>
 5   0  0.2090039E-05  0.2444476E+04  0.7818609E-02  0.8423038E-01
       -1   -1    0    0    0  501  0.00000000000E+00  0.00000000000E+00  0.10619663092E+04  0.10619663092E+04  0.50400001928E-02 0.  1.
        1   -1    0    0  501    0  0.00000000000E+00  0.00000000000E+00 -0.14066975799E+04  0.14066975800E+04  0.50400001928E-02 0. -1.
    10030    2    1    2    0    0  0.00000000000E+00  0.00000000000E+00 -0.34473127071E+03  0.24686638892E+04  0.24444757616E+04 0.  0.
        1    1    3    3  502    0 -0.74365957421E+03  0.50960519208E+03  0.66111193839E+03  0.11179427576E+04  0.50400001928E-02 0.  1.
       -1    1    3    3    0  502  0.74365957421E+03 -0.50960519208E+03 -0.10058432091E+04  0.13507211316E+04  0.50400001928E-02 0. -1.
</event>
<event>
 5   0  0.2149920E-05  0.2333522E+04  0.7818609E-02  0.8464820E-01
        1   -1    0    0  501    0  0.00000000000E+00  0.00000000000E+00  0.15805459755E+04  0.15805459755E+04  0.50400001928E-02 0. -1.
       -1   -1    0    0    0  501  0.00000000000E+00  0.00000000000E+00 -0.86130456988E+03  0.86130456989E+03  0.50400001928E-02 0.  1.
    10030    2    1    2    0    0  0.00000000000E+00  0.00000000000E+00  0.71924140565E+03  0.24418505454E+04  0.23335222062E+04 0.  0.
        5    1    3    3  502    0 -0.23452874159E+03  0.11203260676E+04  0.12289974064E+03  0.11511996632E+04  0.46999998093E+01 0.  1.
       -5    1    3    3    0  502  0.23452874159E+03 -0.11203260676E+04  0.59634166502E+03  0.12906508822E+04  0.46999998093E+01 0. -1.
</event>
<event>
 5   0  0.2057599E-05  0.2382572E+04  0.7818609E-02  0.8446057E-01
        1   -1    0    0  501    0  0.00000000000E+00  0.00000000000E+00  0.11053918325E+04  0.11053918326E+04  0.50400001928E-02 0.  1.
       -1   -1    0    0    0  501  0.00000000000E+00  0.00000000000E+00 -0.12838545492E+04  0.12838545493E+04  0.50400001928E-02 0. -1.
    10030    2    1    2    0    0  0.00000000000E+00  0.00000000000E+00 -0.17846271669E+03  0.23892463818E+04  0.23825719993E+04 0.  0.
        4    1    3    3  502    0 -0.66916374149E+03 -0.22846568826E+03  0.87219525594E+03  0.11228102516E+04  0.12699999809E+01 0.  1.
       -4    1    3    3    0  502  0.66916374149E+03  0.22846568826E+03 -0.10506579726E+04  0.12664361302E+04  0.12699999809E+01 0. -1.
</event>
<event>
 5   0  0.4856882E-05  0.2412082E+04  0.7818609E-02  0.8434994E-01
       -2   -1    0    0    0  501  0.00000000000E+00  0.00000000000E+00  0.88603606989E+03  0.88603606989E+03  0.25500000920E-02 0. -1.
        2   -1    0    0  501    0  0.00000000000E+00  0.00000000000E+00 -0.16416209949E+04  0.16416209949E+04  0.25500000920E-02 0.  1.
    10030    2    1    2    0    0  0.00000000000E+00  0.00000000000E+00 -0.75558492504E+03  0.25276570648E+04  0.24120824319E+04 0.  0.
        1    1    3    3  502    0 -0.72662249075E+03  0.15039700675E+03  0.61851830969E+03  0.96600434945E+03  0.50400001928E-02 0. -1.
       -1    1    3    3    0  502  0.72662249075E+03 -0.15039700675E+03 -0.13741032347E+04  0.15616527154E+04  0.50400001928E-02 0.  1.
</event>
<event>
 5   0  0.2090039E-05  0.2387632E+04  0.7818609E-02  0.8444148E-01
        1   -1    0    0  501    0  0.00000000000E+00  0.00000000000E+00  0.17904164669E+04  0.17904164670E+04  0.50400001928E-02 0. -1.
       -1   -1    0    0    0  501  0.00000000000E+00  0.00000000000E+00 -0.79601432029E+03  0.79601432030E+03  0.50400001928E-02 0.  1.
    10030    2    1    2    0    0  0.00000000000E+00  0.00000000000E+00  0.99440214666E+03  0.25864307873E+04  0.23876324231E+04 0.  0.
        1    1    3    3  502    0 -0.17874079877E+03 -0.39013121215E+03  0.17039791794E+04  0.17571840199E+04  0.50400001928E-02 0. -1.
       -1    1    3    3    0  502  0.17874079877E+03  0.39013121215E+03 -0.70957703273E+03  0.82924676740E+03  0.50400001928E-02 0.  1.
</event>
<event>
 5   0  0.4756705E-05  0.2374698E+04  0.7818609E-02  0.8449038E-01
        2   -1    0    0  501    0  0.00000000000E+00  0.00000000000E+00  0.11830250504E+04  0.11830250504E+04  0.25500000920E-02 0. -1.
       -2   -1    0    0    0  501  0.00000000000E+00  0.00000000000E+00 -0.11916882740E+04  0.11916882740E+04  0.25500000920E-02 0.  1.
    10030    2    1    2    0    0  0.00000000000E+00  0.00000000000E+00 -0.86632236136E+01  0.23747133244E+04  0.23746975222E+04 0.  0.
        3    1    3    3  502    0  0.37745068788E+03 -0.65796289298E+03  0.90913649659E+03  0.11840242269E+04  0.10100000352E+00 0. -1.
       -3    1    3    3    0  502 -0.37745068788E+03  0.65796289298E+03 -0.91779972021E+03  0.11906890975E+04  0.10100000352E+00 0.  1.
</event>
<event>
 5   0  0.4856882E-05  0.2397825E+04  0.7818609E-02  0.8440318E-01
        2   -1    0    0  501    0  0.00000000000E+00  0.00000000000E+00  0.89188192551E+03  0.89188192551E+03  0.25500000920E-02 0.  1.
       -2   -1    0    0    0  501  0.00000000000E+00  0.00000000000E+00 -0.16116388154E+04  0.16116388154E+04  0.25500000920E-02 0. -1.
    10030    2    1    2    0    0  0.00000000000E+00  0.00000000000E+00 -0.71975688987E+03  0.25035207409E+04  0.23978252896E+04 0.  0.
        1    1    3    3  502    0 -0.47196628003E+03  0.86571485419E+03  0.35222460349E+03  0.10470322581E+04  0.50400001928E-02 0.  1.
       -1    1    3    3    0  502  0.47196628003E+03 -0.86571485419E+03 -0.10719814934E+04  0.14564884827E+04  0.50400001928E-02 0. -1.
</event>
<event>
 5   0  0.4856882E-05  0.2415341E+04  0.7818609E-02  0.8433783E-01
       -2   -1    0    0    0  501  0.00000000000E+00  0.00000000000E+00  0.13466257979E+04  0.13466257979E+04  0.25500000920E-02 0.  1.
        2   -1    0    0  501    0  0.00000000000E+00  0.00000000000E+00 -0.10830533046E+04  0.10830533046E+04  0.25500000920E-02 0. -1.
    10030    2    1    2    0    0  0.00000000000E+00  0.00000000000E+00  0.26357249337E+03  0.24296791025E+04  0.24153405727E+04 0.  0.
        1    1    3    3  502    0 -0.54262870614E+03  0.69048465351E+03  0.96571456547E+03  0.13053044057E+04  0.50400001928E-02 0.  1.
       -1    1    3    3    0  502  0.54262870614E+03 -0.69048465351E+03 -0.70214207210E+03  0.11243746968E+04  0.50400001928E-02 0. -1.
</event>
<event>
 5   0  0.4713971E-05  0.2378106E+04  0.7818609E-02  0.8447746E-01
        2   -1    0    0  501    0  0.00000000000E+00  0.00000000000E+00  0.11954910318E+04  0.11954910318E+04  0.25500000920E-02 0.  1.
       -2   -1    0    0    0  501  0.00000000000E+00  0.00000000000E+00 -0.11826496698E+04  0.11826496698E+04  0.25500000920E-02 0. -1.
    10030    2    1    2    0    0  0.00000000000E+00  0.00000000000E+00  0.12841361927E+02  0.23781407016E+04  0.23781060313E+04 0.  0.
        5    1    3    3  502    0 -0.75876743243E+03  0.60658674724E+03 -0.67926379041E+03  0.11853678270E+04  0.46999998093E+01 0. -1.
       -5    1    3    3    0  502  0.75876743243E+03 -0.60658674724E+03  0.69210515233E+03  0.11927728746E+04  0.46999998093E+01 0.  1.
</event>
<event>
 5   0  0.2149920E-05  0.2358383E+04  0.7818609E-02  0.8455251E-01
        1   -1    0    0  501    0  0.00000000000E+00  0.00000000000E+00  0.99558631900E+03  0.99558631901E+03  0.50400001928E-02 0. -1.
       -1   -1    0    0    0  501  0.00000000000E+00  0.00000000000E+00 -0.13966575167E+04  0.13966575167E+04  0.50400001928E-02 0.  1.
    10030    2    1    2    0    0  0.00000000000E+00  0.00000000000E+00 -0.40107119767E+03  0.23922438357E+04  0.23583834429E+04 0.  0.
        5    1    3    3  502    0 -0.11710056391E+04 -0.10628521198E+03 -0.29080926922E+03  0.12112567333E+04  0.46999998093E+01 0.  1.
       -5    1    3    3    0  502  0.11710056391E+04  0.10628521198E+03 -0.11026192845E+03  0.11809871023E+04  0.46999998093E+01 0. -1.
</event>
<event>
 5   0  0.4756705E-05  0.1857777E+04  0.7818609E-02  0.8676164E-01
       -2   -1    0    0    0  501  0.00000000000E+00  0.00000000000E+00  0.98307383606E+03  0.98307383606E+03  0.25500000920E-02 0.  1.
        2   -1    0    0  501    0  0.00000000000E+00  0.00000000000E+00 -0.87768990011E+03  0.87768990012E+03  0.25500000920E-02 0. -1.
    10030    2    1    2    0    0  0.00000000000E+00  0.00000000000E+00  0.10538393595E+03  0.18607637362E+04  0.18577771416E+04 0.  0.
        3    1    3    3  502    0  0.39491251031E+03 -0.74202623621E+03  0.44864399268E+03  0.95280652201E+03  0.10100000352E+00 0.  1.
       -3    1    3    3    0  502 -0.39491251031E+03  0.74202623621E+03 -0.34326005673E+03  0.90795721417E+03  0.10100000352E+00 0. -1.
</event>
<event>
 5   0  0.2139556E-05  0.2387992E+04  0.7818609E-02  0.8444013E-01
       -1   -1    0    0    0  501  0.00000000000E+00  0.00000000000E+00  0.62163049655E+03  0.62163049657E+03  0.50400001928E-02 0. -1.
        1   -1    0    0  501    0  0.00000000000E+00  0.00000000000E+00 -0.22933655154E+04  0.22933655154E+04  0.50400001928E-02 0.  1.
    10030    2    1    2    0    0  0.00000000000E+00  0.00000000000E+00 -0.16717350189E+04  0.29149960120E+04  0.23879915780E+04 0.  0.
        2    1    3    3  502    0 -0.93217564431E+03 -0.60226012320E+03 -0.13734661851E+04  0.17658080443E+04  0.25500000920E-02 0.  1.
       -2    1    3    3    0  502  0.93217564431E+03  0.60226012320E+03 -0.29826883381E+03  0.11491879677E+04  0.25500000920E-02 0. -1.
</event>
<event>
 5   0  0.2090039E-05  0.2393848E+04  0.7818609E-02  0.8441810E-01
       -1   -1    0    0    0  501  0.00000000000E+00  0.00000000000E+00  0.62818023274E+03  0.62818023276E+03  0.50400001928E-02 0. -1.
        1   -1    0    0  501    0  0.00000000000E+00  0.00000000000E+00 -0.22805980876E+04  0.22805980876E+04  0.50400001928E-02 0.  1.
    10030    2    1    2    0    0  0.00000000000E+00  0.00000000000E+00 -0.16524178549E+04  0.29087783204E+04  0.23938476455E+04 0.  0.
        1    1    3    3  502    0 -0.46802759793E+03  0.71668120594E+03 -0.18427993892E+04  0.20318935435E+04  0.50400001928E-02 0.  1.
       -1    1    3    3    0  502  0.46802759793E+03 -0.71668120594E+03  0.19038153425E+03  0.87688477692E+03  0.50400001928E-02 0. -1.
</event>
<event>
 5   0  0.2065692E-05  0.2419791E+04  0.7818609E-02  0.8432131E-01
        1   -1    0    0  501    0  0.00000000000E+00  0.00000000000E+00  0.13764048660E+04  0.13764048660E+04  0.50400001928E-02 0.  1.
       -1   -1    0    0    0  501  0.00000000000E+00  0.00000000000E+00 -0.10635298056E+04  0.10635298056E+04  0.50400001928E-02 0. -1.
    10030    2    1    2    0    0  0.00000000000E+00  0.00000000000E+00  0.31287506046E+03  0.24399346716E+04  0.24197913956E+04 0.  0.
        3    1    3    3  502    0 -0.11385830719E+04 -0.40851384434E+03  0.18098389820E+03  0.12231149391E+04  0.10100000352E+00 0.  1.
       -3    1    3    3    0  502  0.11385830719E+04  0.40851384434E+03  0.13189116227E+03  0.12168197325E+04  0.10100000352E+00 0. -1.
</event>
<event>
 5   0  0.2065692E-05  0.2374593E+04  0.7818609E-02  0.8449077E-01
       -1   -1    0    0    0  501  0.00000000000E+00  0.00000000000E+00  0.11021849612E+04  0.11021849612E+04  0.50400001928E-02 0. -1.
        1   -1    0    0  501    0  0.00000000000E+00  0.00000000000E+00 -0.12789805016E+04  0.12789805016E+04  0.50400001928E-02 0.  1.
    10030    2    1    2    0    0  0.00000000000E+00  0.00000000000E+00 -0.17679554040E+03  0.23811654629E+04  0.23745930806E+04 0.  0.
        3    1    3    3  502    0 -0.14993851544E+03  0.38693580149E+03 -0.12038939850E+04  0.12734055168E+04  0.10100000352E+00 0.  1.
       -3    1    3    3    0  502  0.14993851544E+03 -0.38693580149E+03  0.10270984446E+04  0.11077599460E+04  0.10100000352E+00 0. -1.
</event>
<event>
 5   0  0.4914005E-05  0.2396332E+04  0.7818609E-02  0.8440878E-01
       -2   -1    0    0    0  501  0.00000000000E+00  0.00000000000E+00  0.69211529780E+03  0.69211529781E+03  0.25500000920E-02 0. -1.
        2   -1    0    0  501    0  0.00000000000E+00  0.00000000000E+00 -0.20742233452E+04  0.20742233452E+04  0.25500000920E-02 0.  1.
    10030    2    1    2    0    0  0.00000000000E+00  0.00000000000E+00 -0.13821080474E+04  0.27663386430E+04  0.23963319539E+04 0.  0.
        2    1    3    3  502    0 -0.18587090955E+03  0.10098460074E+04 -0.14038605942E+04  0.17392991467E+04  0.25500000920E-02 0.  1.
       -2    1    3    3    0  502  0.18587090955E+03 -0.10098460074E+04  0.21752546797E+02  0.10270394963E+04  0.25500000920E-02 0. -1.
</event>
<event>
 5   0  0.2149920E-05  0.2428334E+04  0.7818609E-02  0.8428971E-01
       -1   -1    0    0    0  501  0.00000000000E+00  0.00000000000E+00  0.92598841379E+03  0.92598841380E+03  0.50400001928E-02 0. -1.
        1   -1    0    0  501    0  0.00000000000E+00  0.00000000000E+00 -0.15920306016E+04  0.15920306016E+04  0.50400001928E-02 0.  1.
    10030    2    1    2    0    0  0.00000000000E+00  0.00000000000E+00 -0.66604218777E+03  0.25180190154E+04  0.24283343192E+04 0.  0.
        5    1    3    3  502    0  0.29069591849E+03  0.96491220574E+03 -0.10352473755E+04  0.14447556542E+04  0.46999998093E+01 0.  1.
       -5    1    3    3    0  502 -0.29069591849E+03 -0.96491220574E+03  0.36920518773E+03  0.10732633612E+04  0.46999998093E+01 0. -1.
</event>
<event>
 5   0  0.4713971E-05  0.2434575E+04  0.7818609E-02  0.8426672E-01
        2   -1    0    0  501    0  0.00000000000E+00  0.00000000000E+00  0.10605797862E+04  0.10605797862E+04  0.25500000920E-02 0. -1.
       -2   -1    0    0    0  501  0.00000000000E+00  0.00000000000E+00 -0.13971493361E+04  0.13971493361E+04  0.25500000920E-02 0.  1.
    10030    2    1    2    0    0  0.00000000000E+00  0.00000000000E+00 -0.33656954989E+03  0.24577291222E+04  0.24345745781E+04 0.  0.
        5    1    3    3  502    0  0.15972935625E+02  0.53392336478E+03  0.93593582038E+03  0.10776489428E+04  0.46999998093E+01 0. -1.
       -5    1    3    3    0  502 -0.15972935625E+02 -0.53392336478E+03 -0.12725053703E+04  0.13800801794E+04  0.46999998093E+01 0.  1.
</event>
<event>
 5   0  0.2139556E-05  0.2409046E+04  0.7818609E-02  0.8436125E-01
        1   -1    0    0  501    0  0.00000000000E+00  0.00000000000E+00  0.98906853853E+03  0.98906853854E+03  0.50400001928E-02 0. -1.
       -1   -1    0    0    0  501  0.00000000000E+00  0.00000000000E+00 -0.14669109045E+04  0.14669109045E+04  0.50400001928E-02 0.  1.
    10030    2    1    2    0    0  0.00000000000E+00  0.00000000000E+00 -0.47784236597E+03  0.24559794431E+04  0.24090458065E+04 0.  0.
        2    1    3    3  502    0 -0.62621499446E+03 -0.91521897284E+03 -0.71829951321E+03  0.13212589369E+04  0.25500000920E-02 0.  1.
       -2    1    3    3    0  502  0.62621499446E+03  0.91521897284E+03  0.24045714724E+03  0.11347205062E+04  0.25500000920E-02 0. -1.
</event>
<event>
 5   0  0.1672125E-05  0.2399106E+04  0.7818609E-02  0.8439838E-01
       -4   -1    0    0    0  501  0.00000000000E+00  0.00000000000E+00  0.15364440102E+04  0.15364445351E+04  0.12699999809E+01 0.  1.
        4   -1    0    0  501    0  0.00000000000E+00  0.00000000000E+00 -0.93652995356E+03  0.93653081466E+03  0.12699999809E+01 0. -1.
    10030    2    1    2    0    0  0.00000000000E+00  0.00000000000E+00  0.59991405663E+03  0.24729753497E+04  0.23991061263E+04 0.  0.
        2    1    3    3  502    0  0.63836675385E+03 -0.10837438040E+03 -0.74092195764E+03  0.98398296025E+03  0.25500000920E-02 0. -1.
       -2    1    3    3    0  502 -0.63836675385E+03  0.10837438040E+03  0.13408360143E+04  0.14889923895E+04  0.25500000920E-02 0.  1.
</event>
<event>
 5   0  0.2090039E-05  0.2423299E+04  0.7818609E-02  0.8430832E-01
       -1   -1    0    0    0  501  0.00000000000E+00  0.00000000000E+00  0.10213245925E+04  0.10213245925E+04  0.50400001928E-02 0.  1.
        1   -1    0    0  501    0  0.00000000000E+00  0.00000000000E+00 -0.14374410826E+04  0.14374410826E+04  0.50400001928E-02 0. -1.
    10030    2    1    2    0    0  0.00000000000E+00  0.00000000000E+00 -0.41611649013E+03  0.24587656751E+04  0.24232985189E+04 0.  0.
        1    1    3    3  502    0  0.31302642558E+03  0.45841930687E+03  0.88471928057E+03  0.10444433970E+04  0.50400001928E-02 0.  1.
       -1    1    3    3    0  502 -0.31302642558E+03 -0.45841930687E+03 -0.13008357707E+04  0.14143222781E+04  0.50400001928E-02 0. -1.
</event>
<event>
 5   0  0.2139556E-05  0.2406214E+04  0.7818609E-02  0.8437181E-01
       -1   -1    0    0    0  501  0.00000000000E+00  0.00000000000E+00  0.10783886260E+04  0.10783886260E+04  0.50400001928E-02 0.  1.
        1   -1    0    0  501    0  0.00000000000E+00  0.00000000000E+00 -0.13422497681E+04  0.13422497681E+04  0.50400001928E-02 0. -1.
    10030    2    1    2    0    0  0.00000000000E+00  0.00000000000E+00 -0.26386114204E+03  0.24206383941E+04  0.24062143572E+04 0.  0.
        2    1    3    3  502    0 -0.39410347748E+03  0.10924381716E+04  0.18416335797E+03  0.11758634496E+04  0.25500000920E-02 0.  1.
       -2    1    3    3    0  502  0.39410347748E+03 -0.10924381716E+04 -0.44802450001E+03  0.12447749445E+04  0.25500000920E-02 0. -1.
</event>
<event>
 5   0  0.4856882E-05  0.2204892E+04  0.7818609E-02  0.8516395E-01
        2   -1    0    0  501    0  0.00000000000E+00  0.00000000000E+00  0.10775838671E+04  0.10775838671E+04  0.25500000920E-02 0. -1.
       -2   -1    0    0    0  501  0.00000000000E+00  0.00000000000E+00 -0.11278818588E+04  0.11278818588E+04  0.25500000920E-02 0.  1.
    10030    2    1    2    0    0  0.00000000000E+00  0.00000000000E+00 -0.50297991701E+02  0.22054657260E+04  0.22048921018E+04 0.  0.
        1    1    3    3  502    0  0.65426360854E+03  0.72315783755E+03 -0.53945118521E+03  0.11144620715E+04  0.50400001928E-02 0.  1.
       -1    1    3    3    0  502 -0.65426360854E+03 -0.72315783755E+03  0.48915319350E+03  0.10910036545E+04  0.50400001928E-02 0. -1.
</event>
<event>
 5   0  0.4856882E-05  0.2310098E+04  0.7818609E-02  0.8473950E-01
       -2   -1    0    0    0  501  0.00000000000E+00  0.00000000000E+00  0.13957067374E+04  0.13957067374E+04  0.25500000920E-02 0.  1.
        2   -1    0    0  501    0  0.00000000000E+00  0.00000000000E+00 -0.95588692298E+03  0.95588692299E+03  0.25500000920E-02 0. -1.
    10030    2    1    2    0    0  0.00000000000E+00  0.00000000000E+00  0.43981981437E+03  0.23515936603E+04  0.23100976763E+04 0.  0.
        1    1    3    3  502    0 -0.98917332245E+03  0.58856137953E+03  0.31791736777E+03  0.11941272177E+04  0.50400001928E-02 0. -1.
       -1    1    3    3    0  502  0.98917332245E+03 -0.58856137953E+03  0.12190244661E+03  0.11574664426E+04  0.50400001928E-02 0.  1.
</event>
<event>
 5   0  0.1672125E-05  0.2448133E+04  0.7818609E-02  0.8421700E-01
       -3   -1    0    0    0  501  0.00000000000E+00  0.00000000000E+00  0.60891925387E+03  0.60891926224E+03  0.10100000352E+00 0.  1.
        3   -1    0    0  501    0  0.00000000000E+00  0.00000000000E+00 -0.24606517824E+04  0.24606517845E+04  0.10100000352E+00 0. -1.
    10030    2    1    2    0    0  0.00000000000E+00  0.00000000000E+00 -0.18517325285E+04  0.30695710467E+04  0.24481325646E+04 0.  0.
        3    1    3    3  502    0 -0.99177580206E+03  0.40751720095E+03 -0.18551672479E+03  0.10881663366E+04  0.10100000352E+00 0.  1.
       -3    1    3    3    0  502  0.99177580206E+03 -0.40751720095E+03 -0.16662158038E+04  0.19814047102E+04  0.10100000352E+00 0. -1.
</event>
<event>
 5   0  0.2057599E-05  0.2354885E+04  0.7818609E-02  0.8456590E-01
       -1   -1    0    0    0  501  0.00000000000E+00  0.00000000000E+00  0.61998535390E+03  0.61998535392E+03  0.50400001928E-02 0. -1.
        1   -1    0    0  501    0  0.00000000000E+00  0.00000000000E+00 -0.22361345147E+04  0.22361345147E+04  0.50400001928E-02 0.  1.
    10030    2    1    2    0    0  0.00000000000E+00  0.00000000000E+00 -0.16161491608E+04  0.28561198686E+04  0.23548848367E+04 0.  0.
        4    1    3    3  502    0  0.44373095487E+03 -0.92320302475E+03 -0.10381953903E+03  0.10295538329E+04  0.12699999809E+01 0. -1.
       -4    1    3    3    0  502 -0.44373095487E+03  0.92320302475E+03 -0.15123296218E+04  0.18265660358E+04  0.12699999809E+01 0.  1.
</event>
<event>
 5   0  0.4713971E-05  0.2366839E+04  0.7818609E-02  0.8452024E-01
       -2   -1    0    0    0  501  0.00000000000E+00  0.00000000000E+00  0.55063662300E+03  0.55063662300E+03  0.25500000920E-02 0. -1.
        2   -1    0    0  501    0  0.00000000000E+00  0.00000000000E+00 -0.25433853691E+04  0.25433853691E+04  0.25500000920E-02 0.  1.
    10030    2    1    2    0    0  0.00000000000E+00  0.00000000000E+00 -0.19927487461E+04  0.30940219921E+04  0.23668385079E+04 0.  0.
        5    1    3    3  502    0  0.89968905073E+02  0.20033596936E+03 -0.25165020806E+04  0.25260708058E+04  0.46999998093E+01 0.  1.
       -5    1    3    3    0  502 -0.89968905073E+02 -0.20033596936E+03  0.52375333453E+03  0.56795118622E+03  0.46999998093E+01 0. -1.
</event>
<event>
 5   0  0.2149920E-05  0.2383472E+04  0.7818609E-02  0.8445717E-01
        1   -1    0    0  501    0  0.00000000000E+00  0.00000000000E+00  0.11085984436E+04  0.11085984436E+04  0.50400001928E-02 0.  1.
       -1   -1    0    0    0  501  0.00000000000E+00  0.00000000000E+00 -0.12811086433E+04  0.12811086433E+04  0.50400001928E-02 0. -1.
    10030    2    1    2    0    0  0.00000000000E+00  0.00000000000E+00 -0.17251019973E+03  0.23897070869E+04  0.23834722973E+04 0.  0.
        5    1    3    3  502    0 -0.84443003825E+03  0.80172237620E+03 -0.34067487084E+03  0.12132198134E+04  0.46999998093E+01 0.  1.
       -5    1    3    3    0  502  0.84443003825E+03 -0.80172237620E+03  0.16816467112E+03  0.11764872735E+04  0.46999998093E+01 0. -1.
</event>
<event>
 5   0  0.2139556E-05  0.2414181E+04  0.7818609E-02  0.8434213E-01
        1   -1    0    0  501    0  0.00000000000E+00  0.00000000000E+00  0.90374230807E+03  0.90374230809E+03  0.50400001928E-02 0.  1.
       -1   -1    0    0    0  501  0.00000000000E+00  0.00000000000E+00 -0.16122605441E+04  0.16122605441E+04  0.50400001928E-02 0. -1.
    10030    2    1    2    0    0  0.00000000000E+00  0.00000000000E+00 -0.70851823598E+03  0.25160028522E+04  0.24141814889E+04 0.  0.
        2    1    3    3  502    0 -0.72633579865E+03  0.91866761925E+03 -0.65909200955E+03  0.13438438020E+04  0.25500000920E-02 0. -1.
       -2    1    3    3    0  502  0.72633579865E+03 -0.91866761925E+03 -0.49426226430E+02  0.11721590502E+04  0.25500000920E-02 0.  1.
</event>
<event>
 5   0  0.4713971E-05  0.2016475E+04  0.7818609E-02  0.8598957E-01
       -2   -1    0    0    0  501  0.00000000000E+00  0.00000000000E+00  0.91213367937E+03  0.91213367937E+03  0.25500000920E-02 0. -1.
        2   -1    0    0  501    0  0.00000000000E+00  0.00000000000E+00 -0.11144668223E+04  0.11144668223E+04  0.25500000920E-02 0.  1.
    10030    2    1    2    0    0  0.00000000000E+00  0.00000000000E+00 -0.20233314293E+03  0.20266005017E+04  0.20164748678E+04 0.  0.
        5    1    3    3  502    0  0.10934370509E+03  0.45081148763E+03 -0.10008340175E+04  0.11031218717E+04  0.46999998093E+01 0.  1.
       -5    1    3    3    0  502 -0.10934370509E+03 -0.45081148763E+03  0.79850087461E+03  0.92347862995E+03  0.46999998093E+01 0. -1.
</event>
<event>
 5   0  0.4856882E-05  0.2369107E+04  0.7818609E-02  0.8451161E-01
       -2   -1    0    0    0  501  0.00000000000E+00  0.00000000000E+00  0.26253180398E+04  0.26253180398E+04  0.25500000920E-02 0. -1.
        2   -1    0    0  501    0  0.00000000000E+00  0.00000000000E+00 -0.53447492131E+03  0.53447492131E+03  0.25500000920E-02 0.  1.
    10030    2    1    2    0    0  0.00000000000E+00  0.00000000000E+00  0.20908431185E+04  0.31597929611E+04  0.23691067116E+04 0.  0.
        1    1    3    3  502    0  0.83168818242E+02 -0.11512658915E+04  0.14004003378E+04  0.18147868501E+04  0.50400001928E-02 0. -1.
       -1    1    3    3    0  502 -0.83168818242E+02  0.11512658915E+04  0.69044278063E+03  0.13450061110E+04  0.50400001928E-02 0.  1.
</event>
<event>
 5   0  0.2139556E-05  0.2377322E+04  0.7818609E-02  0.8448043E-01
       -1   -1    0    0    0  501  0.00000000000E+00  0.00000000000E+00  0.66706390352E+03  0.66706390354E+03  0.50400001928E-02 0.  1.
        1   -1    0    0  501    0  0.00000000000E+00  0.00000000000E+00 -0.21181104858E+04  0.21181104858E+04  0.50400001928E-02 0. -1.
    10030    2    1    2    0    0  0.00000000000E+00  0.00000000000E+00 -0.14510465822E+04  0.27851743893E+04  0.23773220638E+04 0.  0.
        2    1    3    3  502    0 -0.67203601266E+03  0.97336300925E+03 -0.58766154808E+03  0.13207626756E+04  0.25500000920E-02 0.  1.
       -2    1    3    3    0  502  0.67203601266E+03 -0.97336300925E+03 -0.86338503417E+03  0.14644117137E+04  0.25500000920E-02 0. -1.
</event>
<event>
 5   0  0.2149920E-05  0.2381834E+04  0.7818609E-02  0.8446336E-01
       -1   -1    0    0    0  501  0.00000000000E+00  0.00000000000E+00  0.11321251593E+04  0.11321251593E+04  0.50400001928E-02 0.  1.
        1   -1    0    0  501    0  0.00000000000E+00  0.00000000000E+00 -0.12527619667E+04  0.12527619667E+04  0.50400001928E-02 0. -1.
    10030    2    1    2    0    0  0.00000000000E+00  0.00000000000E+00 -0.12063680744E+03  0.23848871260E+04  0.23818340338E+04 0.  0.
        5    1    3    3  502    0  0.38929742930E+02 -0.11866033641E+04 -0.15380929806E+03  0.11971726938E+04  0.46999998093E+01 0. -1.
       -5    1    3    3    0  502 -0.38929742930E+02  0.11866033641E+04  0.33172490620E+02  0.11877144323E+04  0.46999998093E+01 0.  1.
</event>
<event>
 5   0  0.2065692E-05  0.2423638E+04  0.7818609E-02  0.8430706E-01
       -1   -1    0    0    0  501  0.00000000000E+00  0.00000000000E+00  0.90598433238E+03  0.90598433240E+03  0.50400001928E-02 0.  1.
        1   -1    0    0  501    0  0.00000000000E+00  0.00000000000E+00 -0.16208948971E+04  0.16208948971E+04  0.50400001928E-02 0. -1.
    10030    2    1    2    0    0  0.00000000000E+00  0.00000000000E+00 -0.71491056470E+03  0.25268792295E+04  0.24236380763E+04 0.  0.
        3    1    3    3  502    0  0.79319133285E+03 -0.26533512824E+03 -0.12717070566E+04  0.15221018589E+04  0.10100000352E+00 0. -1.
       -3    1    3    3    0  502 -0.79319133285E+03  0.26533512824E+03  0.55679649193E+03  0.10047773706E+04  0.10100000352E+00 0.  1.
</event>
<event>
 5   0  0.2065692E-05  0.2414194E+04  0.7818609E-02  0.8434209E-01
        1   -1    0    0  501    0  0.00000000000E+00  0.00000000000E+00  0.21592305513E+04  0.21592305513E+04  0.50400001928E-02 0.  1.
       -1   -1    0    0    0  501  0.00000000000E+00  0.00000000000E+00 -0.67481606900E+03  0.67481606902E+03  0.50400001928E-02 0. -1.
    10030    2    1    2    0    0  0.00000000000E+00  0.00000000000E+00  0.14844144823E+04  0.28340466204E+04  0.24141942530E+04 0.  0.
        3    1    3    3  502    0  0.10093680280E+04 -0.33919836756E+03  0.14095872888E+04  0.17665830531E+04  0.10100000352E+00 0.  1.
       -3    1    3    3    0  502 -0.10093680280E+04  0.33919836756E+03  0.74827193531E+02  0.10674635673E+04  0.10100000352E+00 0. -1.
</event>
<event>
 5   0  0.2149920E-05  0.2395111E+04  0.7818609E-02  0.8441336E-01
        1   -1    0    0  501    0  0.00000000000E+00  0.00000000000E+00  0.47294737890E+03  0.47294737893E+03  0.50400001928E-02 0.  1.
       -1   -1    0    0    0  501  0.00000000000E+00  0.00000000000E+00 -0.30323444103E+04  0.30323444103E+04  0.50400001928E-02 0. -1.
    10030    2    1    2    0    0  0.00000000000E+00  0.00000000000E+00 -0.25593970314E+04  0.35052917892E+04  0.23951111380E+04 0.  0.
        5    1    3    3  502    0  0.17867615056E+03  0.11338773085E+04 -0.17792591200E+04  0.21174012430E+04  0.46999998093E+01 0.  1.
       -5    1    3    3    0  502 -0.17867615056E+03 -0.11338773085E+04 -0.78013791134E+03  0.13878905462E+04  0.46999998093E+01 0. -1.
</event>
<event>
 5   0  0.2057599E-05  0.2436180E+04  0.7818609E-02  0.8426081E-01
        1   -1    0    0  501    0  0.00000000000E+00  0.00000000000E+00  0.14026410616E+04  0.14026410617E+04  0.50400001928E-02 0. -1.
       -1   -1    0    0    0  501  0.00000000000E+00  0.00000000000E+00 -0.10578212755E+04  0.10578212755E+04  0.50400001928E-02 0.  1.
    10030    2    1    2    0    0  0.00000000000E+00  0.00000000000E+00  0.34481978611E+03  0.24604623372E+04  0.24361802536E+04 0.  0.
        4    1    3    3  502    0 -0.96646380979E+03  0.15990704865E+03  0.90358671160E+03  0.13327014362E+04  0.12699999809E+01 0. -1.
       -4    1    3    3    0  502  0.96646380979E+03 -0.15990704865E+03 -0.55876692548E+03  0.11277609010E+04  0.12699999809E+01 0.  1.
</event>
<event>
 5   0  0.2149920E-05  0.2398242E+04  0.7818609E-02  0.8440162E-01
        1   -1    0    0  501    0  0.00000000000E+00  0.00000000000E+00  0.16780708510E+04  0.16780708510E+04  0.50400001928E-02 0. -1.
       -1   -1    0    0    0  501  0.00000000000E+00  0.00000000000E+00 -0.85687151765E+03  0.85687151767E+03  0.50400001928E-02 0.  1.
    10030    2    1    2    0    0  0.00000000000E+00  0.00000000000E+00  0.82119933332E+03  0.25349423686E+04  0.23982419535E+04 0.  0.
        5    1    3    3  502    0  0.23543631061E+03 -0.98364792847E+03 -0.27022299136E+03  0.10469174077E+04  0.46999998093E+01 0.  1.
       -5    1    3    3    0  502 -0.23543631061E+03  0.98364792847E+03  0.10914223247E+04  0.14880249609E+04  0.46999998093E+01 0. -1.
</event>
<event>
 5   0  0.4664127E-05  0.2463396E+04  0.7818609E-02  0.8416143E-01
       -2   -1    0    0    0  501  0.00000000000E+00  0.00000000000E+00  0.62756147133E+03  0.62756147133E+03  0.25500000920E-02 0. -1.
        2   -1    0    0  501    0  0.00000000000E+00  0.00000000000E+00 -0.24174214695E+04  0.24174214695E+04  0.25500000920E-02 0.  1.
    10030    2    1    2    0    0  0.00000000000E+00  0.00000000000E+00 -0.17898599982E+04  0.30449829409E+04  0.24633964961E+04 0.  0.
        4    1    3    3  502    0 -0.72930160380E+03 -0.40571411271E+03 -0.20146637365E+04  0.21806779575E+04  0.12699999809E+01 0.  1.
       -4    1    3    3    0  502  0.72930160380E+03  0.40571411271E+03  0.22480373827E+03  0.86430498332E+03  0.12699999809E+01 0. -1.
</event>
<event>
 5   0  0.2149920E-05  0.2399103E+04  0.7818609E-02  0.8439840E-01
       -1   -1    0    0    0  501  0.00000000000E+00  0.00000000000E+00  0.99180586735E+03  0.99180586736E+03  0.50400001928E-02 0. -1.
        1   -1    0    0  501    0  0.00000000000E+00  0.00000000000E+00 -0.14508116534E+04  0.14508116534E+04  0.50400001928E-02 0.  1.
    10030    2    1    2    0    0  0.00000000000E+00  0.00000000000E+00 -0.45900578605E+03  0.24426175208E+04  0.23991027575E+04 0.  0.
        5    1    3    3  502    0 -0.53883835051E+03 -0.21120311991E+03  0.84024368467E+03  0.10202867565E+04  0.46999998093E+01 0. -1.
       -5    1    3    3    0  502  0.53883835051E+03  0.21120311991E+03 -0.12992494707E+04  0.14223307643E+04  0.46999998093E+01 0.  1.
</event>
<event>
 5   0  0.4756705E-05  0.2501558E+04  0.7818609E-02  0.8402431E-01
        2   -1    0    0  501    0  0.00000000000E+00  0.00000000000E+00  0.25497216620E+04  0.25497216620E+04  0.25500000920E-02 0.  1.
       -2   -1    0    0    0  501  0.00000000000E+00  0.00000000000E+00 -0.61357580602E+03  0.61357580603E+03  0.25500000920E-02 0. -1.
    10030    2    1    2    0    0  0.00000000000E+00  0.00000000000E+00  0.19361458559E+04  0.31632974680E+04  0.25015575339E+04 0.  0.
        3    1    3    3  502    0 -0.88256130354E+03  0.88442304636E+03  0.10410324776E+04  0.16263047713E+04  0.10100000352E+00 0.  1.
       -3    1    3    3    0  502  0.88256130354E+03 -0.88442304636E+03  0.89511337829E+03  0.15369926967E+04  0.10100000352E+00 0. -1.
</event>
<event>
 5   0  0.4756705E-05  0.2403213E+04  0.7818609E-02  0.8438302E-01
       -2   -1    0    0    0  501  0.00000000000E+00  0.00000000000E+00  0.10175613266E+04  0.10175613266E+04  0.25500000920E-02 0. -1.
        2   -1    0    0  501    0  0.00000000000E+00  0.00000000000E+00 -0.14189395314E+04  0.14189395314E+04  0.25500000920E-02 0.  1.
    10030    2    1    2    0    0  0.00000000000E+00  0.00000000000E+00 -0.40137820473E+03  0.24365008580E+04  0.24032128428E+04 0.  0.
        3    1    3    3  502    0 -0.71626038719E+01 -0.12003092753E+04 -0.14456601326E+03  0.12090049635E+04  0.10100000352E+00 0.  1.
       -3    1    3    3    0  502  0.71626038719E+01  0.12003092753E+04 -0.25681219147E+03  0.12274958946E+04  0.10100000352E+00 0. -1.
</event>
<event>
 5   0  0.1672125E-05  0.2420181E+04  0.7818609E-02  0.8431986E-01
        4   -1    0    0  501    0  0.00000000000E+00  0.00000000000E+00  0.80074702860E+03  0.80074803572E+03  0.12699999809E+01 0.  1.
       -4   -1    0    0    0  501  0.00000000000E+00  0.00000000000E+00 -0.18286891221E+04  0.18286895631E+04  0.12699999809E+01 0. -1.
    10030    2    1    2    0    0  0.00000000000E+00  0.00000000000E+00 -0.10279420935E+04  0.26294375988E+04  0.24201812202E+04 0.  0.
        4    1    3    3  502    0 -0.11103905053E+04 -0.41255101784E+03 -0.78264231207E+03  0.14197520974E+04  0.12699999809E+01 0. -1.
       -4    1    3    3    0  502  0.11103905053E+04  0.41255101784E+03 -0.24529978145E+03  0.12096855014E+04  0.12699999809E+01 0.  1.
</event>
<event>
 5   0  0.4713971E-05  0.2415263E+04  0.7818609E-02  0.8433811E-01
       -2   -1    0    0    0  501  0.00000000000E+00  0.00000000000E+00  0.10572263911E+04  0.10572263911E+04  0.25500000920E-02 0. -1.
        2   -1    0    0  501    0  0.00000000000E+00  0.00000000000E+00 -0.13794343523E+04  0.13794343523E+04  0.25500000920E-02 0.  1.
    10030    2    1    2    0    0  0.00000000000E+00  0.00000000000E+00 -0.32220796129E+03  0.24366607434E+04  0.24152634656E+04 0.  0.
        5    1    3    3  502    0 -0.51975057663E+03  0.24379681171E+03 -0.12329544446E+04  0.13600648145E+04  0.46999998093E+01 0.  1.
       -5    1    3    3    0  502  0.51975057663E+03 -0.24379681171E+03  0.91074648327E+03  0.10765959289E+04  0.46999998093E+01 0. -1.
</event>
<event>
 5   0  0.2149920E-05  0.2424875E+04  0.7818609E-02  0.8430249E-01
        1   -1    0    0  501    0  0.00000000000E+00  0.00000000000E+00  0.24953175416E+04  0.24953175416E+04  0.50400001928E-02 0. -1.
       -1   -1    0    0    0  501  0.00000000000E+00  0.00000000000E+00 -0.58910504339E+03  0.58910504341E+03  0.50400001928E-02 0.  1.
    10030    2    1    2    0    0  0.00000000000E+00  0.00000000000E+00  0.19062124982E+04  0.30844225850E+04  0.24248745523E+04 0.  0.
        5    1    3    3  502    0  0.36091440517E+03 -0.46358681416E+03 -0.39593182028E+03  0.70848855914E+03  0.46999998093E+01 0.  1.
       -5    1    3    3    0  502 -0.36091440517E+03  0.46358681416E+03  0.23021443185E+04  0.23759340259E+04  0.46999998093E+01 0. -1.
</event>
<event>
 5   0  0.2139556E-05  0.2379617E+04  0.7818609E-02  0.8447174E-01
        1   -1    0    0  501    0  0.00000000000E+00  0.00000000000E+00  0.97527707417E+03  0.97527707418E+03  0.50400001928E-02 0.  1.
       -1   -1    0    0    0  501  0.00000000000E+00  0.00000000000E+00 -0.14515305773E+04  0.14515305773E+04  0.50400001928E-02 0. -1.
    10030    2    1    2    0    0  0.00000000000E+00  0.00000000000E+00 -0.47625350314E+03  0.24268076515E+04  0.23796171915E+04 0.  0.
        2    1    3    3  502    0 -0.37443758171E+03  0.22023118261E+03 -0.13677660230E+04  0.14350920424E+04  0.25500000920E-02 0. -1.
       -2    1    3    3    0  502  0.37443758171E+03 -0.22023118261E+03  0.89151251984E+03  0.99171560915E+03  0.25500000920E-02 0.  1.
</event>
<event>
 5   0  0.4713971E-05  0.2347561E+04  0.7818609E-02  0.8459401E-01
       -2   -1    0    0    0  501  0.00000000000E+00  0.00000000000E+00  0.13507217067E+04  0.13507217067E+04  0.25500000920E-02 0. -1.
        2   -1    0    0  501    0  0.00000000000E+00  0.00000000000E+00 -0.10200184013E+04  0.10200184013E+04  0.25500000920E-02 0.  1.
    10030    2    1    2    0    0  0.00000000000E+00  0.00000000000E+00  0.33070330536E+03  0.23707401081E+04  0.23475612843E+04 0.  0.
        5    1    3    3  502    0  0.70812576466E+03  0.66410959440E+03 -0.50090110507E+03  0.10924319929E+04  0.46999998093E+01 0.  1.
       -5    1    3    3    0  502 -0.70812576466E+03 -0.66410959440E+03  0.83160441042E+03  0.12783081152E+04  0.46999998093E+01 0. -1.
</event>
<event>
 5   0  0.4856882E-05  0.2407370E+04  0.7818609E-02  0.8436750E-01
        2   -1    0    0  501    0  0.00000000000E+00  0.00000000000E+00  0.11342638303E+04  0.11342638303E+04  0.25500000920E-02 0.  1.
       -2   -1    0    0    0  501  0.00000000000E+00  0.00000000000E+00 -0.12773546726E+04  0.12773546726E+04  0.25500000920E-02 0. -1.
    10030    2    1    2    0    0  0.00000000000E+00  0.00000000000E+00 -0.14309084228E+03  0.24116185030E+04  0.24073696880E+04 0.  0.
        1    1    3    3  502    0  0.11757097224E+02 -0.11699118796E+04  0.21184105283E+03  0.11889948137E+04  0.50400001928E-02 0. -1.
       -1    1    3    3    0  502 -0.11757097224E+02  0.11699118796E+04 -0.35493189511E+03  0.12226236893E+04  0.50400001928E-02 0.  1.
</event>
<event>
 5   0  0.2139556E-05  0.2385456E+04  0.7818609E-02  0.8444969E-01
        1   -1    0    0  501    0  0.00000000000E+00  0.00000000000E+00  0.82176800691E+03  0.82176800692E+03  0.50400001928E-02 0. -1.
       -1   -1    0    0    0  501  0.00000000000E+00  0.00000000000E+00 -0.17311453481E+04  0.17311453482E+04  0.50400001928E-02 0.  1.
    10030    2    1    2    0    0  0.00000000000E+00  0.00000000000E+00 -0.90937734124E+03  0.25529133551E+04  0.23854558159E+04 0.  0.
        2    1    3    3  502    0  0.11627796405E+04 -0.74385423453E+02 -0.18181892942E+03  0.11792573115E+04  0.25500000920E-02 0. -1.
       -2    1    3    3    0  502 -0.11627796405E+04  0.74385423453E+02 -0.72755841182E+03  0.13736560436E+04  0.25500000920E-02 0.  1.
</event>
<event>
 5   0  0.4856882E-05  0.2403408E+04  0.7818609E-02  0.8438229E-01
       -2   -1    0    0    0  501  0.00000000000E+00  0.00000000000E+00  0.13070681102E+04  0.13070681102E+04  0.25500000920E-02 0.  1.
        2   -1    0    0  501    0  0.00000000000E+00  0.00000000000E+00 -0.11048335074E+04  0.11048335074E+04  0.25500000920E-02 0. -1.
    10030    2    1    2    0    0  0.00000000000E+00  0.00000000000E+00  0.20223460275E+03  0.24119016176E+04  0.24034081173E+04 0.  0.
        1    1    3    3  502    0 -0.18091693565E+03  0.67009105953E+03  0.10855731911E+04  0.12884960687E+04  0.50400001928E-02 0.  1.
       -1    1    3    3    0  502  0.18091693565E+03 -0.67009105953E+03 -0.88333858838E+03  0.11234055489E+04  0.50400001928E-02 0. -1.
</event>
<event>
 5   0  0.2057599E-05  0.2377537E+04  0.7818609E-02  0.8447961E-01
        1   -1    0    0  501    0  0.00000000000E+00  0.00000000000E+00  0.10039047847E+04  0.10039047847E+04  0.50400001928E-02 0.  1.
       -1   -1    0    0    0  501  0.00000000000E+00  0.00000000000E+00 -0.14076740268E+04  0.14076740268E+04  0.50400001928E-02 0. -1.
    10030    2    1    2    0    0  0.00000000000E+00  0.00000000000E+00 -0.40376924206E+03  0.24115788116E+04  0.23775371214E+04 0.  0.
        4    1    3    3  502    0  0.80689151813E+03 -0.84716780908E+03  0.11849928719E+02  0.11700039540E+04  0.12699999809E+01 0.  1.
       -4    1    3    3    0  502 -0.80689151813E+03  0.84716780908E+03 -0.41561917078E+03  0.12415748575E+04  0.12699999809E+01 0. -1.
</event>
<event>
 5   0  0.4756705E-05  0.2360151E+04  0.7818609E-02  0.8454575E-01
        2   -1    0    0  501    0  0.00000000000E+00  0.00000000000E+00  0.20274199033E+04  0.20274199033E+04  0.25500000920E-02 0. -1.
       -2   -1    0    0    0  501  0.00000000000E+00  0.00000000000E+00 -0.68687209536E+03  0.68687209536E+03  0.25500000920E-02 0.  1.
    10030    2    1    2    0    0  0.00000000000E+00  0.00000000000E+00  0.13405478079E+04  0.27142919986E+04  0.23601509758E+04 0.  0.
        3    1    3    3  502    0  0.42515305464E+02  0.11717885798E+04  0.82320082644E+03  0.14326742958E+04  0.10100000352E+00 0. -1.
       -3    1    3    3    0  502 -0.42515305464E+02 -0.11717885798E+04  0.51734698146E+03  0.12816177029E+04  0.10100000352E+00 0.  1.
</event>
<event>
 5   0  0.2057599E-05  0.2337784E+04  0.7818609E-02  0.8463171E-01
       -1   -1    0    0    0  501  0.00000000000E+00  0.00000000000E+00  0.93992518734E+03  0.93992518735E+03  0.50400001928E-02 0. -1.
        1   -1    0    0  501    0  0.00000000000E+00  0.00000000000E+00 -0.14536352561E+04  0.14536352561E+04  0.50400001928E-02 0.  1.
    10030    2    1    2    0    0  0.00000000000E+00  0.00000000000E+00 -0.51371006872E+03  0.23935604434E+04  0.23377838997E+04 0.  0.
        4    1    3    3  502    0  0.99682156575E+03  0.42424523778E+03 -0.70626898062E+03  0.12932342176E+04  0.12699999809E+01 0.  1.
       -4    1    3    3    0  502 -0.99682156575E+03 -0.42424523778E+03  0.19255891191E+03  0.11003262258E+04  0.12699999809E+01 0. -1.
</event>
<event>
 5   0  0.4756705E-05  0.2462434E+04  0.7818609E-02  0.8416492E-01
       -2   -1    0    0    0  501  0.00000000000E+00  0.00000000000E+00  0.54522829824E+03  0.54522829824E+03  0.25500000920E-02 0. -1.
        2   -1    0    0  501    0  0.00000000000E+00  0.00000000000E+00 -0.27802952879E+04  0.27802952879E+04  0.25500000920E-02 0.  1.
    10030    2    1    2    0    0  0.00000000000E+00  0.00000000000E+00 -0.22350669896E+04  0.33255235861E+04  0.24624342983E+04 0.  0.
        3    1    3    3  502    0  0.17121341887E+02 -0.12309326234E+04 -0.11447920575E+04  0.16810821303E+04  0.10100000352E+00 0. -1.
       -3    1    3    3    0  502 -0.17121341887E+02  0.12309326234E+04 -0.10902749321E+04  0.16444414558E+04  0.10100000352E+00 0.  1.
</event>
<event>
 5   0  0.4664127E-05  0.2393968E+04  0.7818609E-02  0.8441765E-01
       -2   -1    0    0    0  501  0.00000000000E+00  0.00000000000E+00  0.87387301071E+03  0.87387301071E+03  0.25500000920E-02 0. -1.
        2   -1    0    0  501    0  0.00000000000E+00  0.00000000000E+00 -0.16395646031E+04  0.16395646031E+04  0.25500000920E-02 0.  1.
    10030    2    1    2    0    0  0.00000000000E+00  0.00000000000E+00 -0.76569159241E+03  0.25134376138E+04  0.23939684676E+04 0.  0.
        4    1    3    3  502    0  0.25309730262E+02  0.11765315508E+04 -0.15305687064E+03  0.11867160953E+04  0.12699999809E+01 0.  1.
       -4    1    3    3    0  502 -0.25309730262E+02 -0.11765315508E+04 -0.61263472177E+03  0.13267215185E+04  0.12699999809E+01 0. -1.
</event>
<event>
 5   0  0.4914005E-05  0.2407652E+04  0.7818609E-02  0.8436644E-01
       -2   -1    0    0    0  501  0.00000000000E+00  0.00000000000E+00  0.10656877935E+04  0.10656877935E+04  0.25500000920E-02 0. -1.
        2   -1    0    0  501    0  0.00000000000E+00  0.00000000000E+00 -0.13598701744E+04  0.13598701744E+04  0.25500000920E-02 0.  1.
    10030    2    1    2    0    0  0.00000000000E+00  0.00000000000E+00 -0.29418238082E+03  0.24255579679E+04  0.24076520061E+04 0.  0.
        2    1    3    3  502    0  0.20996415833E+02  0.90538050671E+03 -0.94611161267E+03  0.13096877090E+04  0.25500000920E-02 0.  1.
       -2    1    3    3    0  502 -0.20996415833E+02 -0.90538050671E+03  0.65192923185E+03  0.11158702589E+04  0.25500000920E-02 0. -1.
</event>
<event>
 5   0  0.4914005E-05  0.2407331E+04  0.7818609E-02  0.8436764E-01
        2   -1    0    0  501    0  0.00000000000E+00  0.00000000000E+00  0.17603717411E+04  0.17603717411E+04  0.25500000920E-02 0.  1.
       -2   -1    0    0    0  501  0.00000000000E+00  0.00000000000E+00 -0.82301432793E+03  0.82301432793E+03  0.25500000920E-02 0. -1.
    10030    2    1    2    0    0  0.00000000000E+00  0.00000000000E+00  0.93735741318E+03  0.25833860690E+04  0.24073314399E+04 0.  0.
        2    1    3    3  502    0 -0.33755859776E+03 -0.99812333858E+03  0.10931415814E+04  0.15182735337E+04  0.25500000920E-02 0.  1.
       -2    1    3    3    0  502  0.33755859776E+03  0.99812333858E+03 -0.15578416827E+03  0.10651125354E+04  0.25500000920E-02 0. -1.
</event>
<event>
 5   0  0.2057599E-05  0.2181748E+04  0.7818609E-02  0.8526064E-01
       -1   -1    0    0    0  501  0.00000000000E+00  0.00000000000E+00  0.93433573407E+03  0.93433573408E+03  0.50400001928E-02 0.  1.
        1   -1    0    0  501    0  0.00000000000E+00  0.00000000000E+00 -0.12736380679E+04  0.12736380680E+04  0.50400001928E-02 0. -1.
    10030    2    1    2    0    0  0.00000000000E+00  0.00000000000E+00 -0.33930233387E+03  0.22079738020E+04  0.21817475190E+04 0.  0.
        4    1    3    3  502    0 -0.64791948509E+03  0.86745446397E+03 -0.34907755564E+02  0.10832806979E+04  0.12699999809E+01 0.  1.
       -4    1    3    3    0  502  0.64791948509E+03 -0.86745446397E+03 -0.30439457831E+03  0.11246931041E+04  0.12699999809E+01 0. -1.
</event>
<event>
 5   0  0.4914005E-05  0.2409137E+04  0.7818609E-02  0.8436091E-01
       -2   -1    0    0    0  501  0.00000000000E+00  0.00000000000E+00  0.16080595676E+04  0.16080595676E+04  0.25500000920E-02 0. -1.
        2   -1    0    0  501    0  0.00000000000E+00  0.00000000000E+00 -0.90232070423E+03  0.90232070423E+03  0.25500000920E-02 0.  1.
    10030    2    1    2    0    0  0.00000000000E+00  0.00000000000E+00  0.70573886334E+03  0.25103802718E+04  0.24091371414E+04 0.  0.
        2    1    3    3  502    0 -0.29712850766E+03 -0.11595154892E+04  0.21220026637E+03  0.12156440568E+04  0.25500000920E-02 0. -1.
       -2    1    3    3    0  502  0.29712850766E+03  0.11595154892E+04  0.49353859698E+03  0.12947362150E+04  0.25500000920E-02 0.  1.
</event>
<event>
 5   0  0.4713971E-05  0.2381268E+04  0.7818609E-02  0.8446550E-01
       -2   -1    0    0    0  501  0.00000000000E+00  0.00000000000E+00  0.10318262544E+04  0.10318262544E+04  0.25500000920E-02 0.  1.
        2   -1    0    0  501    0  0.00000000000E+00  0.00000000000E+00 -0.13738835775E+04  0.13738835775E+04  0.25500000920E-02 0. -1.
    10030    2    1    2    0    0  0.00000000000E+00  0.00000000000E+00 -0.34205732309E+03  0.24057098319E+04  0.23812678521E+04 0.  0.
        5    1    3    3  502    0 -0.97424867578E+02  0.54725817281E+03 -0.12347385677E+04  0.13540991592E+04  0.46999998093E+01 0. -1.
       -5    1    3    3    0  502  0.97424867578E+02 -0.54725817281E+03  0.89268124458E+03  0.10516106727E+04  0.46999998093E+01 0.  1.
</event>
<event>
 5   0  0.4713971E-05  0.2414224E+04  0.7818609E-02  0.8434197E-01
       -2   -1    0    0    0  501  0.00000000000E+00  0.00000000000E+00  0.58476010746E+03  0.58476010746E+03  0.25500000920E-02 0. -1.
        2   -1    0    0  501    0  0.00000000000E+00  0.00000000000E+00 -0.24918239945E+04  0.24918239945E+04  0.25500000920E-02 0.  1.
    10030    2    1    2    0    0  0.00000000000E+00  0.00000000000E+00 -0.19070638870E+04  0.30765841020E+04  0.24142239058E+04 0.  0.
        5    1    3    3  502    0 -0.32361826603E+03 -0.11605021964E+04 -0.10489220588E+04  0.15974209543E+04  0.46999998093E+01 0.  1.
       -5    1    3    3    0  502  0.32361826603E+03  0.11605021964E+04 -0.85814182828E+03  0.14791631477E+04  0.46999998093E+01 0. -1.
</event>
<event>
 5   0  0.4756705E-05  0.2312733E+04  0.7818609E-02  0.8472918E-01
        2   -1    0    0  501    0  0.00000000000E+00  0.00000000000E+00  0.12806012655E+04  0.12806012655E+04  0.25500000920E-02 0. -1.
       -2   -1    0    0    0  501  0.00000000000E+00  0.00000000000E+00 -0.10441839343E+04  0.10441839343E+04  0.25500000920E-02 0.  1.
    10030    2    1    2    0    0  0.00000000000E+00  0.00000000000E+00  0.23641733120E+03  0.23247851998E+04  0.23127328144E+04 0.  0.
        3    1    3    3  502    0 -0.88674788080E+03  0.47056840557E+03  0.69515690532E+03  0.12210649293E+04  0.10100000352E+00 0. -1.
       -3    1    3    3    0  502  0.88674788080E+03 -0.47056840557E+03 -0.45873957412E+03  0.11037202705E+04  0.10100000352E+00 0.  1.
</event>
<event>
 5   0  0.2149920E-05  0.2412505E+04  0.7818609E-02  0.8434837E-01
        1   -1    0    0  501    0  0.00000000000E+00  0.00000000000E+00  0.85811947740E+03  0.85811947741E+03  0.50400001928E-02 0. -1.
       -1   -1    0    0    0  501  0.00000000000E+00  0.00000000000E+00 -0.16956204918E+04  0.16956204918E+04  0.50400001928E-02 0.  1.
    10030    2    1    2    0    0  0.00000000000E+00  0.00000000000E+00 -0.83750101438E+03  0.25537399692E+04  0.24125048977E+04 0.  0.
        5    1    3    3  502    0  0.56729522123E+03  0.31704072150E+03 -0.14944531481E+04  0.16296475046E+04  0.46999998093E+01 0.  1.
       -5    1    3    3    0  502 -0.56729522123E+03 -0.31704072150E+03  0.65695213377E+03  0.92409246463E+03  0.46999998093E+01 0. -1.
</event>
<event>
 5   0  0.2090039E-05  0.2366369E+04  0.7818609E-02  0.8452203E-01
        1   -1    0    0  501    0  0.00000000000E+00  0.00000000000E+00  0.95004923201E+03  0.95004923202E+03  0.50400001928E-02 0.  1.
       -1   -1    0    0    0  501  0.00000000000E+00  0.00000000000E+00 -0.14735299706E+04  0.14735299707E+04  0.50400001928E-02 0. -1.
    10030    2    1    2    0    0  0.00000000000E+00  0.00000000000E+00 -0.52348073864E+03  0.24235792027E+04  0.23663693853E+04 0.  0.
        1    1    3    3  502    0  0.10133888421E+02 -0.26546542532E+03 -0.14425899573E+04  0.14668470857E+04  0.50400001928E-02 0. -1.
       -1    1    3    3    0  502 -0.10133888421E+02  0.26546542532E+03  0.91910921870E+03  0.95673211698E+03  0.50400001928E-02 0.  1.
</event>
<event>
 5   0  0.4756705E-05  0.2457186E+04  0.7818609E-02  0.8418399E-01
        2   -1    0    0  501    0  0.00000000000E+00  0.00000000000E+00  0.18894700999E+04  0.18894700999E+04  0.25500000920E-02 0.  1.
       -2   -1    0    0    0  501  0.00000000000E+00  0.00000000000E+00 -0.79886972962E+03  0.79886972962E+03  0.25500000920E-02 0. -1.
    10030    2    1    2    0    0  0.00000000000E+00  0.00000000000E+00  0.10906003702E+04  0.26883398295E+04  0.24571857625E+04 0.  0.
        3    1    3    3  502    0  0.32519967214E+03  0.11375249914E+04  0.18289527563E+03  0.11971502098E+04  0.10100000352E+00 0.  1.
       -3    1    3    3    0  502 -0.32519967214E+03 -0.11375249914E+04  0.90770509462E+03  0.14911896197E+04  0.10100000352E+00 0. -1.
</event>
<event>
 5   0  0.2139556E-05  0.2390066E+04  0.7818609E-02  0.8443232E-01
        1   -1    0    0  501    0  0.00000000000E+00  0.00000000000E+00  0.14702817045E+04  0.14702817045E+04  0.50400001928E-02 0.  1.
       -1   -1    0    0    0  501  0.00000000000E+00  0.00000000000E+00 -0.97131291471E+03  0.97131291472E+03  0.50400001928E-02 0. -1.
    10030    2    1    2    0    0  0.00000000000E+00  0.00000000000E+00  0.49896878982E+03  0.24415946193E+04  0.23900657798E+04 0.  0.
        2    1    3    3  502    0  0.38952836851E+02 -0.33317450028E+03 -0.92223200280E+03  0.98134318061E+03  0.25500000920E-02 0. -1.
       -2    1    3    3    0  502 -0.38952836851E+02  0.33317450028E+03  0.14212007926E+04  0.14602514386E+04  0.25500000920E-02 0.  1.
</event>
<event>
 5   0  0.4664127E-05  0.2384388E+04  0.7818609E-02  0.8445372E-01
        2   -1    0    0  501    0  0.00000000000E+00  0.00000000000E+00  0.10980537527E+04  0.10980537527E+04  0.25500000920E-02 0. -1.
       -2   -1    0    0    0  501  0.00000000000E+00  0.00000000000E+00 -0.12944053577E+04  0.12944053577E+04  0.25500000920E-02 0.  1.
    10030    2    1    2    0    0  0.00000000000E+00  0.00000000000E+00 -0.19635160498E+03  0.23924591104E+04  0.23843881065E+04 0.  0.
        4    1    3    3  502    0 -0.42215286053E+03  0.11079527842E+04 -0.22330815433E+03  0.12064992973E+04  0.12699999809E+01 0. -1.
       -4    1    3    3    0  502  0.42215286053E+03 -0.11079527842E+04  0.26956549354E+02  0.11859598131E+04  0.12699999809E+01 0.  1.
</event>
<event>
 5   0  0.2057599E-05  0.2406314E+04  0.7818609E-02  0.8437144E-01
       -1   -1    0    0    0  501  0.00000000000E+00  0.00000000000E+00  0.14981447695E+04  0.14981447695E+04  0.50400001928E-02 0.  1.
        1   -1    0    0  501    0  0.00000000000E+00  0.00000000000E+00 -0.96625277568E+03  0.96625277569E+03  0.50400001928E-02 0. -1.
    10030    2    1    2    0    0  0.00000000000E+00  0.00000000000E+00  0.53189199380E+03  0.24643975452E+04  0.24063138132E+04 0.  0.
        4    1    3    3  502    0 -0.28444131600E+03 -0.91001062062E+02 -0.92768981470E+03  0.97457583633E+03  0.12699999809E+01 0. -1.
       -4    1    3    3    0  502  0.28444131600E+03  0.91001062062E+02  0.14595818085E+04  0.14898217088E+04  0.12699999809E+01 0.  1.
</event>
<event>
 5   0  0.4664127E-05  0.2178766E+04  0.7818609E-02  0.8527319E-01
       -2   -1    0    0    0  501  0.00000000000E+00  0.00000000000E+00  0.19444337018E+04  0.19444337018E+04  0.25500000920E-02 0.  1.
        2   -1    0    0  501    0  0.00000000000E+00  0.00000000000E+00 -0.61033440020E+03  0.61033440021E+03  0.25500000920E-02 0. -1.
    10030    2    1    2    0    0  0.00000000000E+00  0.00000000000E+00  0.13340993016E+04  0.25547681020E+04  0.21787655011E+04 0.  0.
        4    1    3    3  502    0 -0.35988846785E+02 -0.55030817874E+03 -0.43455966676E+03  0.70212392464E+03  0.12699999809E+01 0. -1.
       -4    1    3    3    0  502  0.35988846785E+02  0.55030817874E+03  0.17686589684E+04  0.18526441774E+04  0.12699999809E+01 0.  1.
</event>
<event>
 5   0  0.4856882E-05  0.2406955E+04  0.7818609E-02  0.8436904E-01
       -2   -1    0    0    0  501  0.00000000000E+00  0.00000000000E+00  0.67592323797E+03  0.67592323798E+03  0.25500000920E-02 0. -1.
        2   -1    0    0  501    0  0.00000000000E+00  0.00000000000E+00 -0.21427853659E+04  0.21427853659E+04  0.25500000920E-02 0.  1.
    10030    2    1    2    0    0  0.00000000000E+00  0.00000000000E+00 -0.14668621280E+04  0.28187086039E+04  0.24069552741E+04 0.  0.
        1    1    3    3  502    0 -0.70755315935E+03 -0.58599258665E+03  0.17694892058E+03  0.93559056506E+03  0.50400001928E-02 0. -1.
       -1    1    3    3    0  502  0.70755315935E+03  0.58599258665E+03 -0.16438110485E+04  0.18831180389E+04  0.50400001928E-02 0.  1.
</event>
<event>
 5   0  0.4914005E-05  0.2412982E+04  0.7818609E-02  0.8434659E-01
        2   -1    0    0  501    0  0.00000000000E+00  0.00000000000E+00  0.13742708254E+04  0.13742708254E+04  0.25500000920E-02 0. -1.
       -2   -1    0    0    0  501  0.00000000000E+00  0.00000000000E+00 -0.10591951129E+04  0.10591951129E+04  0.25500000920E-02 0.  1.
    10030    2    1    2    0    0  0.00000000000E+00  0.00000000000E+00  0.31507571257E+03  0.24334659383E+04  0.24129823390E+04 0.  0.
        2    1    3    3  502    0  0.45746223126E+03  0.11151247842E+04  0.21133830357E+03  0.12236988420E+04  0.25500000920E-02 0. -1.
       -2    1    3    3    0  502 -0.45746223126E+03 -0.11151247842E+04  0.10373740900E+03  0.12097670963E+04  0.25500000920E-02 0.  1.
</event>
<event>
 5   0  0.2065692E-05  0.2407971E+04  0.7818609E-02  0.8436525E-01
        1   -1    0    0  501    0  0.00000000000E+00  0.00000000000E+00  0.13935827116E+04  0.13935827116E+04  0.50400001928E-02 0. -1.
       -1   -1    0    0    0  501  0.00000000000E+00  0.00000000000E+00 -0.10401828280E+04  0.10401828280E+04  0.50400001928E-02 0.  1.
    10030    2    1    2    0    0  0.00000000000E+00  0.00000000000E+00  0.35339988357E+03  0.24337655396E+04  0.24079707690E+04 0.  0.
        3    1    3    3  502    0 -0.14507185245E+03  0.77887404197E+03  0.10929930556E+04  0.13499349782E+04  0.10100000352E+00 0. -1.
       -3    1    3    3    0  502  0.14507185245E+03 -0.77887404197E+03 -0.73959317200E+03  0.10838305614E+04  0.10100000352E+00 0.  1.
</event>
<event>
 5   0  0.2090039E-05  0.2338615E+04  0.7818609E-02  0.8462850E-01
       -1   -1    0    0    0  501  0.00000000000E+00  0.00000000000E+00  0.24333281154E+04  0.24333281154E+04  0.50400001928E-02 0.  1.
        1   -1    0    0  501    0  0.00000000000E+00  0.00000000000E+00 -0.56189693887E+03  0.56189693889E+03  0.50400001928E-02 0. -1.
    10030    2    1    2    0    0  0.00000000000E+00  0.00000000000E+00  0.18714311766E+04  0.29952250543E+04  0.23386146492E+04 0.  0.
        1    1    3    3  502    0  0.93984115734E+03  0.78138106723E+02  0.18210898319E+04  0.20507986592E+04  0.50400001928E-02 0.  1.
       -1    1    3    3    0  502 -0.93984115734E+03 -0.78138106723E+02  0.50341344636E+02  0.94442639510E+03  0.50400001928E-02 0. -1.
</event>
<event>
 5   0  0.2139556E-05  0.2377876E+04  0.7818609E-02  0.8447833E-01
       -1   -1    0    0    0  501  0.00000000000E+00  0.00000000000E+00  0.92857266781E+03  0.92857266782E+03  0.50400001928E-02 0. -1.
        1   -1    0    0  501    0  0.00000000000E+00  0.00000000000E+00 -0.15223074033E+04  0.15223074033E+04  0.50400001928E-02 0.  1.
    10030    2    1    2    0    0  0.00000000000E+00  0.00000000000E+00 -0.59373473544E+03  0.24508800711E+04  0.23778755617E+04 0.  0.
        2    1    3    3  502    0 -0.71089283063E+03 -0.23910021333E+03 -0.12477059150E+04  0.14557841801E+04  0.25500000920E-02 0.  1.
       -2    1    3    3    0  502  0.71089283063E+03  0.23910021333E+03  0.65397117953E+03  0.99509589102E+03  0.25500000920E-02 0. -1.
</event>
<event>
 5   0  0.4914005E-05  0.2420734E+04  0.7818609E-02  0.8431782E-01
        2   -1    0    0  501    0  0.00000000000E+00  0.00000000000E+00  0.14640943112E+04  0.14640943112E+04  0.25500000920E-02 0.  1.
       -2   -1    0    0    0  501  0.00000000000E+00  0.00000000000E+00 -0.10006102453E+04  0.10006102453E+04  0.25500000920E-02 0. -1.
    10030    2    1    2    0    0  0.00000000000E+00  0.00000000000E+00  0.46348406597E+03  0.24647045565E+04  0.24207335812E+04 0.  0.
        2    1    3    3  502    0 -0.63076103298E+03  0.99925682283E+03  0.49844295937E+03  0.12825049951E+04  0.25500000920E-02 0.  1.
       -2    1    3    3    0  502  0.63076103298E+03 -0.99925682283E+03 -0.34958893400E+02  0.11821995614E+04  0.25500000920E-02 0. -1.
</event>
<event>
 5   0  0.4713971E-05  0.2474568E+04  0.7818609E-02  0.8412102E-01
       -2   -1    0    0    0  501  0.00000000000E+00  0.00000000000E+00  0.12749945494E+04  0.12749945494E+04  0.25500000920E-02 0. -1.
        2   -1    0    0  501    0  0.00000000000E+00  0.00000000000E+00 -0.12006884313E+04  0.12006884313E+04  0.25500000920E-02 0.  1.
    10030    2    1    2    0    0  0.00000000000E+00  0.00000000000E+00  0.74306118182E+02  0.24756829807E+04  0.24745676030E+04 0.  0.
        5    1    3    3  502    0 -0.11205040161E+04 -0.19103851407E+03  0.52606971196E+03  0.12525160262E+04  0.46999998093E+01 0. -1.
       -5    1    3    3    0  502  0.11205040161E+04  0.19103851407E+03 -0.45176359378E+03  0.12231669545E+04  0.46999998093E+01 0.  1.
</event>
<event>
 5   0  0.2090039E-05  0.2404563E+04  0.7818609E-02  0.8437797E-01
        1   -1    0    0  501    0  0.00000000000E+00  0.00000000000E+00  0.11300529028E+04  0.11300529028E+04  0.50400001928E-02 0. -1.
       -1   -1    0    0    0  501  0.00000000000E+00  0.00000000000E+00 -0.12791267120E+04  0.12791267121E+04  0.50400001928E-02 0.  1.
    10030    2    1    2    0    0  0.00000000000E+00  0.00000000000E+00 -0.14907380922E+03  0.24091796149E+04  0.24045630406E+04 0.  0.
        1    1    3    3  502    0 -0.52119855688E+02  0.64588981091E+03  0.94012196238E+03  0.11418053386E+04  0.50400001928E-02 0. -1.
       -1    1    3    3    0  502  0.52119855688E+02 -0.64588981091E+03 -0.10891957716E+04  0.12673742762E+04  0.50400001928E-02 0.  1.
</event>
<event>
 5   0  0.4856882E-05  0.2423869E+04  0.7818609E-02  0.8430621E-01
       -2   -1    0    0    0  501  0.00000000000E+00  0.00000000000E+00  0.10285408265E+04  0.10285408265E+04  0.25500000920E-02 0. -1.
        2   -1    0    0  501    0  0.00000000000E+00  0.00000000000E+00 -0.14280275442E+04  0.14280275442E+04  0.25500000920E-02 0.  1.
    10030    2    1    2    0    0  0.00000000000E+00  0.00000000000E+00 -0.39948671766E+03  0.24565683707E+04  0.24238685035E+04 0.  0.
        1    1    3    3  502    0  0.76006787112E+03  0.43867257034E+03  0.64738449192E+03  0.10905244028E+04  0.50400001928E-02 0. -1.
       -1    1    3    3    0  502 -0.76006787112E+03 -0.43867257034E+03 -0.10468712096E+04  0.13660439679E+04  0.50400001928E-02 0.  1.
</event>
<event>
 5   0  0.2090039E-05  0.2425920E+04  0.7818609E-02  0.8429863E-01
       -1   -1    0    0    0  501  0.00000000000E+00  0.00000000000E+00  0.83997051274E+03  0.83997051276E+03  0.50400001928E-02 0. -1.
        1   -1    0    0  501    0  0.00000000000E+00  0.00000000000E+00 -0.17515759747E+04  0.17515759747E+04  0.50400001928E-02 0.  1.
    10030    2    1    2    0    0  0.00000000000E+00  0.00000000000E+00 -0.91160546193E+03  0.25915464874E+04  0.24259201715E+04 0.  0.
        1    1    3    3  502    0 -0.40910028906E+03 -0.20318595126E+02 -0.16754588407E+04  0.17248009215E+04  0.50400001928E-02 0.  1.
       -1    1    3    3    0  502  0.40910028906E+03  0.20318595126E+02  0.76385337878E+03  0.86674556596E+03  0.50400001928E-02 0. -1.
</event>
<event>
 5   0  0.4713971E-05  0.2505422E+04  0.7818609E-02  0.8401056E-01
        2   -1    0    0  501    0  0.00000000000E+00  0.00000000000E+00  0.12892621540E+04  0.12892621540E+04  0.25500000920E-02 0. -1.
       -2   -1    0    0    0  501  0.00000000000E+00  0.00000000000E+00 -0.12171960596E+04  0.12171960596E+04  0.25500000920E-02 0.  1.
    10030    2    1    2    0    0  0.00000000000E+00  0.00000000000E+00  0.72066094341E+02  0.25064582136E+04  0.25054219714E+04 0.  0.
        5    1    3    3  502    0  0.16442643334E+03  0.89243388367E+03 -0.82791456615E+03  0.12283887445E+04  0.46999998093E+01 0.  1.
       -5    1    3    3    0  502 -0.16442643334E+03 -0.89243388367E+03  0.89998066049E+03  0.12780694691E+04  0.46999998093E+01 0. -1.
</event>
<event>
 5   0  0.4664127E-05  0.2328379E+04  0.7818609E-02  0.8466815E-01
       -2   -1    0    0    0  501  0.00000000000E+00  0.00000000000E+00  0.56187570725E+03  0.56187570726E+03  0.25500000920E-02 0.  1.
        2   -1    0    0  501    0  0.00000000000E+00  0.00000000000E+00 -0.24121655192E+04  0.24121655192E+04  0.25500000920E-02 0. -1.
    10030    2    1    2    0    0  0.00000000000E+00  0.00000000000E+00 -0.18502898119E+04  0.29740412264E+04  0.23283790130E+04 0.  0.
        4    1    3    3  502    0 -0.26920409509E+03  0.10659129730E+04 -0.14143600620E+04  0.17913841880E+04  0.12699999809E+01 0. -1.
       -4    1    3    3    0  502  0.26920409509E+03 -0.10659129730E+04 -0.43592974990E+03  0.11826570385E+04  0.12699999809E+01 0.  1.
</event>
<event>
 5   0  0.4713971E-05  0.2420343E+04  0.7818609E-02  0.8431927E-01
       -2   -1    0    0    0  501  0.00000000000E+00  0.00000000000E+00  0.12518011267E+04  0.12518011267E+04  0.25500000920E-02 0.  1.
        2   -1    0    0  501    0  0.00000000000E+00  0.00000000000E+00 -0.11699260992E+04  0.11699260992E+04  0.25500000920E-02 0. -1.
    10030    2    1    2    0    0  0.00000000000E+00  0.00000000000E+00  0.81875027440E+02  0.24217272259E+04  0.24203427932E+04 0.  0.
        5    1    3    3  502    0 -0.48864045118E+02  0.10857939545E+04  0.57336641547E+03  0.12288642492E+04  0.46999998093E+01 0.  1.
       -5    1    3    3    0  502  0.48864045118E+02 -0.10857939545E+04 -0.49149138803E+03  0.11928629767E+04  0.46999998093E+01 0. -1.
</event>
<event>
 5   0  0.4713971E-05  0.2395597E+04  0.7818609E-02  0.8441154E-01
       -2   -1    0    0    0  501  0.00000000000E+00  0.00000000000E+00  0.11655521913E+04  0.11655521913E+04  0.25500000920E-02 0.  1.
        2   -1    0    0  501    0  0.00000000000E+00  0.00000000000E+00 -0.12309369210E+04  0.12309369210E+04  0.25500000920E-02 0. -1.
    10030    2    1    2    0    0  0.00000000000E+00  0.00000000000E+00 -0.65384729710E+02  0.23964891122E+04  0.23955969824E+04 0.  0.
        5    1    3    3  502    0 -0.86480319786E+03 -0.15207582749E+03 -0.84766593435E+03  0.12204799280E+04  0.46999998093E+01 0. -1.
       -5    1    3    3    0  502  0.86480319786E+03  0.15207582749E+03  0.78228120464E+03  0.11760091843E+04  0.46999998093E+01 0.  1.
</event>
<event>
 5   0  0.1672125E-05  0.2439501E+04  0.7818609E-02  0.8424861E-01
        4   -1    0    0  501    0  0.00000000000E+00  0.00000000000E+00  0.16600732126E+04  0.16600736984E+04  0.12699999809E+01 0. -1.
       -4   -1    0    0    0  501  0.00000000000E+00  0.00000000000E+00 -0.89621904246E+03  0.89621994229E+03  0.12699999809E+01 0.  1.
    10030    2    1    2    0    0  0.00000000000E+00  0.00000000000E+00  0.76385417013E+03  0.25562936407E+04  0.24395007653E+04 0.  0.
        4    1    3    3  502    0 -0.59525102905E+03  0.73093615352E+03  0.11930654349E+04  0.15205256305E+04  0.12699999809E+01 0. -1.
       -4    1    3    3    0  502  0.59525102905E+03 -0.73093615352E+03 -0.42921126481E+03  0.10357680102E+04  0.12699999809E+01 0.  1.
</event>
<event>
 5   0  0.4856882E-05  0.2406676E+04  0.7818609E-02  0.8437008E-01
       -2   -1    0    0    0  501  0.00000000000E+00  0.00000000000E+00  0.12956003699E+04  0.12956003699E+04  0.25500000920E-02 0.  1.
        2   -1    0    0  501    0  0.00000000000E+00  0.00000000000E+00 -0.11176456721E+04  0.11176456721E+04  0.25500000920E-02 0. -1.
    10030    2    1    2    0    0  0.00000000000E+00  0.00000000000E+00  0.17795469788E+03  0.24132460420E+04  0.24066758371E+04 0.  0.
        1    1    3    3  502    0 -0.26033060857E+03  0.52647943665E+01 -0.10890585929E+04  0.11197537062E+04  0.50400001928E-02 0. -1.
       -1    1    3    3    0  502  0.26033060857E+03 -0.52647943665E+01  0.12670132907E+04  0.12934923358E+04  0.50400001928E-02 0.  1.
</event>
<event>
 5   0  0.2139556E-05  0.2411919E+04  0.7818609E-02  0.8435055E-01
        1   -1    0    0  501    0  0.00000000000E+00  0.00000000000E+00  0.79709390222E+03  0.79709390224E+03  0.50400001928E-02 0. -1.
       -1   -1    0    0    0  501  0.00000000000E+00  0.00000000000E+00 -0.18245503229E+04  0.18245503229E+04  0.50400001928E-02 0.  1.
    10030    2    1    2    0    0  0.00000000000E+00  0.00000000000E+00 -0.10274564207E+04  0.26216442252E+04  0.24119186858E+04 0.  0.
        2    1    3    3  502    0  0.89938800246E+02  0.81830777902E+03 -0.14716184522E+04  0.16862317391E+04  0.25500000920E-02 0.  1.
       -2    1    3    3    0  502 -0.89938800246E+02 -0.81830777902E+03  0.44416203147E+03  0.93541248612E+03  0.25500000920E-02 0. -1.
</event>
<event>
 5   0  0.4664127E-05  0.2393956E+04  0.7818609E-02  0.8441770E-01
       -2   -1    0    0    0  501  0.00000000000E+00  0.00000000000E+00  0.81413381027E+03  0.81413381028E+03  0.25500000920E-02 0. -1.
        2   -1    0    0  501    0  0.00000000000E+00  0.00000000000E+00 -0.17598535270E+04  0.17598535270E+04  0.25500000920E-02 0.  1.
    10030    2    1    2    0    0  0.00000000000E+00  0.00000000000E+00 -0.94571971669E+03  0.25739873372E+04  0.23939559373E+04 0.  0.
        4    1    3    3  502    0  0.76506139322E+03 -0.91691511765E+03 -0.56088457841E+03  0.13193352082E+04  0.12699999809E+01 0.  1.
       -4    1    3    3    0  502 -0.76506139322E+03  0.91691511765E+03 -0.38483513828E+03  0.12546521291E+04  0.12699999809E+01 0. -1.
</event>
<event>
 5   0  0.2065692E-05  0.2381784E+04  0.7818609E-02  0.8446355E-01
       -1   -1    0    0    0  501  0.00000000000E+00  0.00000000000E+00  0.87573450979E+03  0.87573450981E+03  0.50400001928E-02 0. -1.
        1   -1    0    0  501    0  0.00000000000E+00  0.00000000000E+00 -0.16194676593E+04  0.16194676593E+04  0.50400001928E-02 0.  1.
    10030    2    1    2    0    0  0.00000000000E+00  0.00000000000E+00 -0.74373314947E+03  0.24952021691E+04  0.23817839673E+04 0.  0.
        3    1    3    3  502    0 -0.67938709083E+02 -0.16070396332E+03  0.86227232059E+03  0.87974712109E+03  0.10100000352E+00 0. -1.
       -3    1    3    3    0  502  0.67938709083E+02  0.16070396332E+03 -0.16060054701E+04  0.16154550480E+04  0.10100000352E+00 0.  1.
</event>
<event>
 5   0  0.4756705E-05  0.2429193E+04  0.7818609E-02  0.8428654E-01
       -2   -1    0    0    0  501  0.00000000000E+00  0.00000000000E+00  0.76444794038E+03  0.76444794038E+03  0.25500000920E-02 0.  1.
        2   -1    0    0  501    0  0.00000000000E+00  0.00000000000E+00 -0.19298174954E+04  0.19298174954E+04  0.25500000920E-02 0. -1.
    10030    2    1    2    0    0  0.00000000000E+00  0.00000000000E+00 -0.11653695550E+04  0.26942654358E+04  0.24291932897E+04 0.  0.
        3    1    3    3  502    0  0.57466834161E+03 -0.10440090531E+04 -0.32246353719E+03  0.12345773969E+04  0.10100000352E+00 0.  1.
       -3    1    3    3    0  502 -0.57466834161E+03  0.10440090531E+04 -0.84290601784E+03  0.14596880389E+04  0.10100000352E+00 0. -1.
</event>
<event>
 5   0  0.2057599E-05  0.2543854E+04  0.7818609E-02  0.8387527E-01
       -1   -1    0    0    0  501  0.00000000000E+00  0.00000000000E+00  0.68502962779E+03  0.68502962781E+03  0.50400001928E-02 0.  1.
        1   -1    0    0  501    0  0.00000000000E+00  0.00000000000E+00 -0.23616476951E+04  0.23616476951E+04  0.50400001928E-02 0. -1.
    10030    2    1    2    0    0  0.00000000000E+00  0.00000000000E+00 -0.16766180673E+04  0.30466773229E+04  0.25438542738E+04 0.  0.
        4    1    3    3  502    0 -0.38126851968E+03 -0.25338405782E+03 -0.22595597539E+04  0.23054676443E+04  0.12699999809E+01 0. -1.
       -4    1    3    3    0  502  0.38126851968E+03  0.25338405782E+03  0.58294168654E+03  0.74120967861E+03  0.12699999809E+01 0.  1.
</event>
<event>
 5   0  0.4856882E-05  0.2296076E+04  0.7818609E-02  0.8479470E-01
       -2   -1    0    0    0  501  0.00000000000E+00  0.00000000000E+00  0.16042562667E+04  0.16042562667E+04  0.25500000920E-02 0.  1.
        2   -1    0    0  501    0  0.00000000000E+00  0.00000000000E+00 -0.82155915745E+03  0.82155915746E+03  0.25500000920E-02 0. -1.
    10030    2    1    2    0    0  0.00000000000E+00  0.00000000000E+00  0.78269710928E+03  0.24258154242E+04  0.22960761545E+04 0.  0.
        1    1    3    3  502    0  0.40899325377E+03 -0.22673362870E+03  0.14990714212E+04  0.15703180397E+04  0.50400001928E-02 0.  1.
       -1    1    3    3    0  502 -0.40899325377E+03  0.22673362870E+03 -0.71637431192E+03  0.85549738446E+03  0.50400001928E-02 0. -1.
</event>
<event>
 5   0  0.2149920E-05  0.2326144E+04  0.7818609E-02  0.8467684E-01
       -1   -1    0    0    0  501  0.00000000000E+00  0.00000000000E+00  0.12782057920E+04  0.12782057920E+04  0.50400001928E-02 0.  1.
        1   -1    0    0  501    0  0.00000000000E+00  0.00000000000E+00 -0.10583087193E+04  0.10583087193E+04  0.50400001928E-02 0. -1.
    10030    2    1    2    0    0  0.00000000000E+00  0.00000000000E+00  0.21989707269E+03  0.23365145113E+04  0.23261438775E+04 0.  0.
        5    1    3    3  502    0  0.47415613068E+03  0.71240855844E+03  0.90109208692E+03  0.12427143797E+04  0.46999998093E+01 0.  1.
       -5    1    3    3    0  502 -0.47415613068E+03 -0.71240855844E+03 -0.68119501423E+03  0.10938001316E+04  0.46999998093E+01 0. -1.
</event>
<event>
 5   0  0.2057599E-05  0.2351298E+04  0.7818609E-02  0.8457965E-01
       -1   -1    0    0    0  501  0.00000000000E+00  0.00000000000E+00  0.12227058981E+04  0.12227058981E+04  0.50400001928E-02 0. -1.
        1   -1    0    0  501    0  0.00000000000E+00  0.00000000000E+00 -0.11304033577E+04  0.11304033577E+04  0.50400001928E-02 0.  1.
    10030    2    1    2    0    0  0.00000000000E+00  0.00000000000E+00  0.92302540395E+02  0.23531092558E+04  0.23512982395E+04 0.  0.
        4    1    3    3  502    0 -0.58781826143E+03 -0.14129376665E+02  0.10649821925E+04  0.12165190631E+04  0.12699999809E+01 0. -1.
       -4    1    3    3    0  502  0.58781826143E+03  0.14129376665E+02 -0.97267965207E+03  0.11365901927E+04  0.12699999809E+01 0.  1.
</event>
<event>
 5   0  0.4756705E-05  0.2380295E+04  0.7818609E-02  0.8446918E-01
        2   -1    0    0  501    0  0.00000000000E+00  0.00000000000E+00  0.16790300897E+04  0.16790300897E+04  0.25500000920E-02 0.  1.
       -2   -1    0    0    0  501  0.00000000000E+00  0.00000000000E+00 -0.84361259219E+03  0.84361259220E+03  0.25500000920E-02 0. -1.
    10030    2    1    2    0    0  0.00000000000E+00  0.00000000000E+00  0.83541749751E+03  0.25226426819E+04  0.23802948778E+04 0.  0.
        3    1    3    3  502    0  0.86789921831E+02 -0.13684859282E+03 -0.83186587297E+03  0.84750272489E+03  0.10100000352E+00 0. -1.
       -3    1    3    3    0  502 -0.86789921831E+02  0.13684859282E+03  0.16672833705E+04  0.16751399570E+04  0.10100000352E+00 0.  1.
</event>
<event>
 5   0  0.2149920E-05  0.2363243E+04  0.7818609E-02  0.8453394E-01
        1   -1    0    0  501    0  0.00000000000E+00  0.00000000000E+00  0.13916747680E+04  0.13916747681E+04  0.50400001928E-02 0.  1.
       -1   -1    0    0    0  501  0.00000000000E+00  0.00000000000E+00 -0.10032731482E+04  0.10032731482E+04  0.50400001928E-02 0. -1.
    10030    2    1    2    0    0  0.00000000000E+00  0.00000000000E+00  0.38840161987E+03  0.23949479163E+04  0.23632434710E+04 0.  0.
        5    1    3    3  502    0  0.11216384808E+04 -0.35949056193E+03  0.98587365302E+02  0.11819678102E+04  0.46999998093E+01 0.  1.
       -5    1    3    3    0  502 -0.11216384808E+04  0.35949056193E+03  0.28981425457E+03  0.12129801061E+04  0.46999998093E+01 0. -1.
</event>
<event>
 5   0  0.2065692E-05  0.2414534E+04  0.7818609E-02  0.8434082E-01
       -1   -1    0    0    0  501  0.00000000000E+00  0.00000000000E+00  0.49944444135E+03  0.49944444138E+03  0.50400001928E-02 0.  1.
        1   -1    0    0  501    0  0.00000000000E+00  0.00000000000E+00 -0.29182290772E+04  0.29182290772E+04  0.50400001928E-02 0. -1.
    10030    2    1    2    0    0  0.00000000000E+00  0.00000000000E+00 -0.24187846359E+04  0.34176735186E+04  0.24145337366E+04 0.  0.
        3    1    3    3  502    0 -0.11442164161E+04 -0.22715029740E+03 -0.16494721955E+04  0.20202937902E+04  0.10100000352E+00 0. -1.
       -3    1    3    3    0  502  0.11442164161E+04  0.22715029740E+03 -0.76931244034E+03  0.13973797285E+04  0.10100000352E+00 0.  1.
</event>
<event>
 5   0  0.2139556E-05  0.2381727E+04  0.7818609E-02  0.8446376E-01
       -1   -1    0    0    0  501  0.00000000000E+00  0.00000000000E+00  0.82205680998E+03  0.82205681000E+03  0.50400001928E-02 0.  1.
        1   -1    0    0  501    0  0.00000000000E+00  0.00000000000E+00 -0.17251314474E+04  0.17251314474E+04  0.50400001928E-02 0. -1.
    10030    2    1    2    0    0  0.00000000000E+00  0.00000000000E+00 -0.90307463744E+03  0.25471882574E+04  0.23817271502E+04 0.  0.
        2    1    3    3  502    0  0.99100041124E+03  0.43497409348E+03 -0.98291677304E+03  0.14619882557E+04  0.25500000920E-02 0. -1.
       -2    1    3    3    0  502 -0.99100041124E+03 -0.43497409348E+03  0.79842135609E+02  0.10852000017E+04  0.25500000920E-02 0.  1.
</event>
<event>
 5   0  0.4914005E-05  0.2404950E+04  0.7818609E-02  0.8437653E-01
       -2   -1    0    0    0  501  0.00000000000E+00  0.00000000000E+00  0.18187130546E+04  0.18187130546E+04  0.25500000920E-02 0.  1.
        2   -1    0    0  501    0  0.00000000000E+00  0.00000000000E+00 -0.79503807567E+03  0.79503807567E+03  0.25500000920E-02 0. -1.
    10030    2    1    2    0    0  0.00000000000E+00  0.00000000000E+00  0.10236749789E+04  0.26137511303E+04  0.24049500013E+04 0.  0.
        2    1    3    3  502    0 -0.56109014512E+03 -0.10548824449E+04  0.36462632280E+03  0.12492203484E+04  0.25500000920E-02 0. -1.
       -2    1    3    3    0  502  0.56109014512E+03  0.10548824449E+04  0.65904865614E+03  0.13645307819E+04  0.25500000920E-02 0.  1.
</event>
<event>
 5   0  0.2139556E-05  0.2361512E+04  0.7818609E-02  0.8454055E-01
        1   -1    0    0  501    0  0.00000000000E+00  0.00000000000E+00  0.19102813592E+04  0.19102813592E+04  0.50400001928E-02 0.  1.
       -1   -1    0    0    0  501  0.00000000000E+00  0.00000000000E+00 -0.72983227366E+03  0.72983227368E+03  0.50400001928E-02 0. -1.
    10030    2    1    2    0    0  0.00000000000E+00  0.00000000000E+00  0.11804490855E+04  0.26401136329E+04  0.23615122170E+04 0.  0.
        2    1    3    3  502    0  0.99209491354E+03  0.99951348881E+02  0.12972436426E+04  0.16361795921E+04  0.25500000920E-02 0.  1.
       -2    1    3    3    0  502 -0.99209491354E+03 -0.99951348881E+02 -0.11679455701E+03  0.10039340407E+04  0.25500000920E-02 0. -1.
</event>
<event>
 5   0  0.2139556E-05  0.2319912E+04  0.7818609E-02  0.8470111E-01
       -1   -1    0    0    0  501  0.00000000000E+00  0.00000000000E+00  0.12676789998E+04  0.12676789998E+04  0.50400001928E-02 0. -1.
        1   -1    0    0  501    0  0.00000000000E+00  0.00000000000E+00 -0.10613872996E+04  0.10613872996E+04  0.50400001928E-02 0.  1.
    10030    2    1    2    0    0  0.00000000000E+00  0.00000000000E+00  0.20629170023E+03  0.23290662994E+04  0.23199124038E+04 0.  0.
        2    1    3    3  502    0  0.49338253316E+03  0.99382528694E+03  0.44268644048E+03  0.11946071779E+04  0.25500000920E-02 0.  1.
       -2    1    3    3    0  502 -0.49338253316E+03 -0.99382528694E+03 -0.23639474025E+03  0.11344591214E+04  0.25500000920E-02 0. -1.
</event>
<event>
 5   0  0.2065692E-05  0.2371372E+04  0.7818609E-02  0.8450300E-01
       -1   -1    0    0    0  501  0.00000000000E+00  0.00000000000E+00  0.62311008568E+03  0.62311008570E+03  0.50400001928E-02 0. -1.
        1   -1    0    0  501    0  0.00000000000E+00  0.00000000000E+00 -0.22561845542E+04  0.22561845542E+04  0.50400001928E-02 0.  1.
    10030    2    1    2    0    0  0.00000000000E+00  0.00000000000E+00 -0.16330744685E+04  0.28792946399E+04  0.23713720509E+04 0.  0.
        3    1    3    3  502    0  0.42492306767E+03  0.55371079640E+03 -0.19803211315E+04  0.20997207084E+04  0.10100000352E+00 0.  1.
       -3    1    3    3    0  502 -0.42492306767E+03 -0.55371079640E+03  0.34724666295E+03  0.77957393147E+03  0.10100000352E+00 0. -1.
</event>
<event>
 5   0  0.4856882E-05  0.2423040E+04  0.7818609E-02  0.8430928E-01
        2   -1    0    0  501    0  0.00000000000E+00  0.00000000000E+00  0.20339317078E+04  0.20339317078E+04  0.25500000920E-02 0.  1.
       -2   -1    0    0    0  501  0.00000000000E+00  0.00000000000E+00 -0.72164697634E+03  0.72164697635E+03  0.25500000920E-02 0. -1.
    10030    2    1    2    0    0  0.00000000000E+00  0.00000000000E+00  0.13122847315E+04  0.27555786841E+04  0.24230399642E+04 0.  0.
        1    1    3    3  502    0 -0.78066797125E+03 -0.61461176707E+03  0.14445300984E+04  0.17532419430E+04  0.50400001928E-02 0.  1.
       -1    1    3    3    0  502  0.78066797125E+03  0.61461176707E+03 -0.13224536692E+03  0.10023367411E+04  0.50400001928E-02 0. -1.
</event>
<event>
 5   0  0.4664127E-05  0.2390430E+04  0.7818609E-02  0.8443095E-01
        2   -1    0    0  501    0  0.00000000000E+00  0.00000000000E+00  0.27003455014E+04  0.27003455014E+04  0.25500000920E-02 0. -1.
       -2   -1    0    0    0  501  0.00000000000E+00  0.00000000000E+00 -0.52902083484E+03  0.52902083485E+03  0.25500000920E-02 0.  1.
    10030    2    1    2    0    0  0.00000000000E+00  0.00000000000E+00  0.21713246665E+04  0.32293663362E+04  0.23904301132E+04 0.  0.
        4    1    3    3  502    0 -0.34403267508E+03 -0.68175299555E+03  0.23278015559E+04  0.24498586337E+04  0.12699999809E+01 0. -1.
       -4    1    3    3    0  502  0.34403267508E+03  0.68175299555E+03 -0.15647688939E+03  0.77950770252E+03  0.12699999809E+01 0.  1.
</event>
<event>
 5   0  0.2090039E-05  0.2349227E+04  0.7818609E-02  0.8458760E-01
       -1   -1    0    0    0  501  0.00000000000E+00  0.00000000000E+00  0.57040762033E+03  0.57040762036E+03  0.50400001928E-02 0. -1.
        1   -1    0    0  501    0  0.00000000000E+00  0.00000000000E+00 -0.24188271866E+04  0.24188271866E+04  0.50400001928E-02 0.  1.
    10030    2    1    2    0    0  0.00000000000E+00  0.00000000000E+00 -0.18484195663E+04  0.29892348070E+04  0.23492274982E+04 0.  0.
        1    1    3    3  502    0 -0.91399508351E+03  0.37040732131E+03 -0.11231284955E+03  0.99257381215E+03  0.50400001928E-02 0. -1.
       -1    1    3    3    0  502  0.91399508351E+03 -0.37040732131E+03 -0.17361067167E+04  0.19966609948E+04  0.50400001928E-02 0.  1.
</event>
<event>
 5   0  0.4856882E-05  0.2346912E+04  0.7818609E-02  0.8459651E-01
       -2   -1    0    0    0  501  0.00000000000E+00  0.00000000000E+00  0.86777935691E+03  0.86777935691E+03  0.25500000920E-02 0.  1.
        2   -1    0    0  501    0  0.00000000000E+00  0.00000000000E+00 -0.15868071134E+04  0.15868071134E+04  0.25500000920E-02 0. -1.
    10030    2    1    2    0    0  0.00000000000E+00  0.00000000000E+00 -0.71902775644E+03  0.24545864703E+04  0.23469115504E+04 0.  0.
        1    1    3    3  502    0 -0.24076542836E+03  0.35637162431E+03  0.78237845557E+03  0.89279604271E+03  0.50400001928E-02 0.  1.
       -1    1    3    3    0  502  0.24076542836E+03 -0.35637162431E+03 -0.15014062120E+04  0.15617904276E+04  0.50400001928E-02 0. -1.
</event>
<event>
 5   0  0.4664127E-05  0.2419654E+04  0.7818609E-02  0.8432182E-01
       -2   -1    0    0    0  501  0.00000000000E+00  0.00000000000E+00  0.94680951969E+03  0.94680951970E+03  0.25500000920E-02 0. -1.
        2   -1    0    0  501    0  0.00000000000E+00  0.00000000000E+00 -0.15459085759E+04  0.15459085759E+04  0.25500000920E-02 0.  1.
    10030    2    1    2    0    0  0.00000000000E+00  0.00000000000E+00 -0.59909905620E+03  0.24927180956E+04  0.24196536581E+04 0.  0.
        4    1    3    3  502    0  0.36016636378E+03  0.11549054560E+04 -0.28680997819E+03  0.12432972285E+04  0.12699999809E+01 0. -1.
       -4    1    3    3    0  502 -0.36016636378E+03 -0.11549054560E+04 -0.31228907802E+03  0.12494208671E+04  0.12699999809E+01 0.  1.
</event>
<event>
 5   0  0.4713971E-05  0.2409008E+04  0.7818609E-02  0.8436139E-01
        2   -1    0    0  501    0  0.00000000000E+00  0.00000000000E+00  0.11138903038E+04  0.11138903038E+04  0.25500000920E-02 0.  1.
       -2   -1    0    0    0  501  0.00000000000E+00  0.00000000000E+00 -0.13024895169E+04  0.13024895169E+04  0.25500000920E-02 0. -1.
    10030    2    1    2    0    0  0.00000000000E+00  0.00000000000E+00 -0.18859921312E+03  0.24163798207E+04  0.24090084629E+04 0.  0.
        5    1    3    3  502    0 -0.44030145249E+03  0.78923490541E+03  0.70441027153E+03  0.11458503504E+04  0.46999998093E+01 0.  1.
       -5    1    3    3    0  502  0.44030145249E+03 -0.78923490541E+03 -0.89300948465E+03  0.12705294702E+04  0.46999998093E+01 0. -1.
</event>
<event>
 5   0  0.4856882E-05  0.2380476E+04  0.7818609E-02  0.8446849E-01
       -2   -1    0    0    0  501  0.00000000000E+00  0.00000000000E+00  0.11880223345E+04  0.11880223345E+04  0.25500000920E-02 0. -1.
        2   -1    0    0  501    0  0.00000000000E+00  0.00000000000E+00 -0.11924577221E+04  0.11924577221E+04  0.25500000920E-02 0.  1.
    10030    2    1    2    0    0  0.00000000000E+00  0.00000000000E+00 -0.44353875431E+01  0.23804800566E+04  0.23804759245E+04 0.  0.
        1    1    3    3  502    0  0.73066784782E+02  0.58189271255E+03 -0.10379455764E+04  0.11921698300E+04  0.50400001928E-02 0.  1.
       -1    1    3    3    0  502 -0.73066784782E+02 -0.58189271255E+03  0.10335101889E+04  0.11883102266E+04  0.50400001928E-02 0. -1.
</event>
<event>
 5   0  0.4713971E-05  0.2412523E+04  0.7818609E-02  0.8434830E-01
       -2   -1    0    0    0  501  0.00000000000E+00  0.00000000000E+00  0.71123932580E+03  0.71123932580E+03  0.25500000920E-02 0.  1.
        2   -1    0    0  501    0  0.00000000000E+00  0.00000000000E+00 -0.20458183521E+04  0.20458183521E+04  0.25500000920E-02 0. -1.
    10030    2    1    2    0    0  0.00000000000E+00  0.00000000000E+00 -0.13345790263E+04  0.27570576779E+04  0.24125227174E+04 0.  0.
        5    1    3    3  502    0  0.18550964829E+03 -0.11679151127E+04 -0.39539452293E+03  0.12469155781E+04  0.46999998093E+01 0. -1.
       -5    1    3    3    0  502 -0.18550964829E+03  0.11679151127E+04 -0.93918450334E+03  0.15101420998E+04  0.46999998093E+01 0.  1.
</event>
<event>
 5   0  0.4856882E-05  0.2411260E+04  0.7818609E-02  0.8435300E-01
       -2   -1    0    0    0  501  0.00000000000E+00  0.00000000000E+00  0.20948001706E+04  0.20948001706E+04  0.25500000920E-02 0.  1.
        2   -1    0    0  501    0  0.00000000000E+00  0.00000000000E+00 -0.69388154529E+03  0.69388154530E+03  0.25500000920E-02 0. -1.
    10030    2    1    2    0    0  0.00000000000E+00  0.00000000000E+00  0.14009186253E+04  0.27886817159E+04  0.24112595708E+04 0.  0.
        1    1    3    3  502    0 -0.33807391891E+03  0.92943560293E+03 -0.96954884512E+02  0.99375286882E+03  0.50400001928E-02 0. -1.
       -1    1    3    3    0  502  0.33807391891E+03 -0.92943560293E+03  0.14978735098E+04  0.17949288471E+04  0.50400001928E-02 0.  1.
</event>
<event>
 5   0  0.2057599E-05  0.2281042E+04  0.7818609E-02  0.8485434E-01
        1   -1    0    0  501    0  0.00000000000E+00  0.00000000000E+00  0.16841139071E+04  0.16841139072E+04  0.50400001928E-02 0.  1.
       -1   -1    0    0    0  501  0.00000000000E+00  0.00000000000E+00 -0.77238713517E+03  0.77238713519E+03  0.50400001928E-02 0. -1.
    10030    2    1    2    0    0  0.00000000000E+00  0.00000000000E+00  0.91172677197E+03  0.24565010423E+04  0.22810417936E+04 0.  0.
        4    1    3    3  502    0 -0.11102257522E+04  0.15847120079E+03  0.23236158227E+03  0.11452981533E+04  0.12699999809E+01 0. -1.
       -4    1    3    3    0  502  0.11102257522E+04 -0.15847120079E+03  0.67936518970E+03  0.13112028890E+04  0.12699999809E+01 0.  1.
</event>
<event>
 5   0  0.2065692E-05  0.2432430E+04  0.7818609E-02  0.8427461E-01
        1   -1    0    0  501    0  0.00000000000E+00  0.00000000000E+00  0.11308059057E+04  0.11308059057E+04  0.50400001928E-02 0. -1.
       -1   -1    0    0    0  501  0.00000000000E+00  0.00000000000E+00 -0.13080747610E+04  0.13080747610E+04  0.50400001928E-02 0.  1.
    10030    2    1    2    0    0  0.00000000000E+00  0.00000000000E+00 -0.17726885534E+03  0.24388806667E+04  0.24324297850E+04 0.  0.
        3    1    3    3  502    0 -0.81437883213E+03  0.77459365973E+03 -0.55459308964E+03  0.12533083121E+04  0.10100000352E+00 0.  1.
       -3    1    3    3    0  502  0.81437883213E+03 -0.77459365973E+03  0.37732423430E+03  0.11855723546E+04  0.10100000352E+00 0. -1.
</event>
<event>
 5   0  0.4856882E-05  0.2400919E+04  0.7818609E-02  0.8439159E-01
        2   -1    0    0  501    0  0.00000000000E+00  0.00000000000E+00  0.68142174984E+03  0.68142174984E+03  0.25500000920E-02 0. -1.
       -2   -1    0    0    0  501  0.00000000000E+00  0.00000000000E+00 -0.21148481058E+04  0.21148481058E+04  0.25500000920E-02 0.  1.
    10030    2    1    2    0    0  0.00000000000E+00  0.00000000000E+00 -0.14334263560E+04  0.27962698557E+04  0.24009194047E+04 0.  0.
        1    1    3    3  502    0 -0.73896233816E+03  0.92395217658E+03 -0.47988025986E+03  0.12767294254E+04  0.50400001928E-02 0. -1.
       -1    1    3    3    0  502  0.73896233816E+03 -0.92395217658E+03 -0.95354609614E+03  0.15195404303E+04  0.50400001928E-02 0.  1.
</event>
<event>
 5   0  0.2139556E-05  0.2380987E+04  0.7818609E-02  0.8446656E-01
        1   -1    0    0  501    0  0.00000000000E+00  0.00000000000E+00  0.96659385069E+03  0.96659385071E+03  0.50400001928E-02 0.  1.
       -1   -1    0    0    0  501  0.00000000000E+00  0.00000000000E+00 -0.14662570525E+04  0.14662570525E+04  0.50400001928E-02 0. -1.
    10030    2    1    2    0    0  0.00000000000E+00  0.00000000000E+00 -0.49966320182E+03  0.24328509032E+04  0.23809872327E+04 0.  0.
        2    1    3    3  502    0  0.10961662428E+03  0.11415233017E+04  0.76793417851E+02  0.11493426302E+04  0.25500000920E-02 0.  1.
       -2    1    3    3    0  502 -0.10961662428E+03 -0.11415233017E+04 -0.57645661967E+03  0.12835082730E+04  0.25500000920E-02 0. -1.
</event>
<event>
 5   0  0.4914005E-05  0.2449529E+04  0.7818609E-02  0.8421190E-01
        2   -1    0    0  501    0  0.00000000000E+00  0.00000000000E+00  0.30141304782E+04  0.30141304782E+04  0.25500000920E-02 0. -1.
       -2   -1    0    0    0  501  0.00000000000E+00  0.00000000000E+00 -0.49767198357E+03  0.49767198358E+03  0.25500000920E-02 0.  1.
    10030    2    1    2    0    0  0.00000000000E+00  0.00000000000E+00  0.25164584946E+04  0.35118024618E+04  0.24495291742E+04 0.  0.
        2    1    3    3  502    0  0.49596417415E+03  0.88751677253E+03  0.22373094397E+04  0.24574824542E+04  0.25500000920E-02 0. -1.
       -2    1    3    3    0  502 -0.49596417415E+03 -0.88751677253E+03  0.27914905491E+03  0.10543200076E+04  0.25500000920E-02 0.  1.
</event>
<event>
 5   0  0.2057599E-05  0.2461504E+04  0.7818609E-02  0.8416830E-01
       -1   -1    0    0    0  501  0.00000000000E+00  0.00000000000E+00  0.87926425825E+03  0.87926425826E+03  0.50400001928E-02 0. -1.
        1   -1    0    0  501    0  0.00000000000E+00  0.00000000000E+00 -0.17227475527E+04  0.17227475527E+04  0.50400001928E-02 0.  1.
    10030    2    1    2    0    0  0.00000000000E+00  0.00000000000E+00 -0.84348329447E+03  0.26020118110E+04  0.24615038892E+04 0.  0.
        4    1    3    3  502    0 -0.10077832394E+04 -0.31080698377E+03  0.24891903370E+03  0.10836006354E+04  0.12699999809E+01 0. -1.
       -4    1    3    3    0  502  0.10077832394E+04  0.31080698377E+03 -0.10924023282E+04  0.15184111756E+04  0.12699999809E+01 0.  1.
</event>
<event>
 5   0  0.4713971E-05  0.2468464E+04  0.7818609E-02  0.8414307E-01
        2   -1    0    0  501    0  0.00000000000E+00  0.00000000000E+00  0.20567538644E+04  0.20567538644E+04  0.25500000920E-02 0.  1.
       -2   -1    0    0    0  501  0.00000000000E+00  0.00000000000E+00 -0.74064684935E+03  0.74064684935E+03  0.25500000920E-02 0. -1.
    10030    2    1    2    0    0  0.00000000000E+00  0.00000000000E+00  0.13161070151E+04  0.27974007138E+04  0.24684637081E+04 0.  0.
        5    1    3    3  502    0 -0.52071698134E+03 -0.42108767514E+03  0.18329534713E+04  0.19514613813E+04  0.46999998093E+01 0.  1.
       -5    1    3    3    0  502  0.52071698134E+03  0.42108767514E+03 -0.51684645625E+03  0.84593933243E+03  0.46999998093E+01 0. -1.
</event>
<event>
 5   0  0.2057599E-05  0.2381310E+04  0.7818609E-02  0.8446534E-01
       -1   -1    0    0    0  501  0.00000000000E+00  0.00000000000E+00  0.13066639641E+04  0.13066639641E+04  0.50400001928E-02 0. -1.
        1   -1    0    0  501    0  0.00000000000E+00  0.00000000000E+00 -0.10849454872E+04  0.10849454872E+04  0.50400001928E-02 0.  1.
    10030    2    1    2    0    0  0.00000000000E+00  0.00000000000E+00  0.22171847687E+03  0.23916094513E+04  0.23813098674E+04 0.  0.
        4    1    3    3  502    0  0.15662395991E+03  0.55504201558E+03 -0.93530578617E+03  0.10988181062E+04  0.12699999809E+01 0.  1.
       -4    1    3    3    0  502 -0.15662395991E+03 -0.55504201558E+03  0.11570242630E+04  0.12927913451E+04  0.12699999809E+01 0. -1.
</event>
<event>
 5   0  0.4856882E-05  0.2406268E+04  0.7818609E-02  0.8437161E-01
       -2   -1    0    0    0  501  0.00000000000E+00  0.00000000000E+00  0.10377656528E+04  0.10377656528E+04  0.25500000920E-02 0.  1.
        2   -1    0    0  501    0  0.00000000000E+00  0.00000000000E+00 -0.13948532846E+04  0.13948532846E+04  0.25500000920E-02 0. -1.
    10030    2    1    2    0    0  0.00000000000E+00  0.00000000000E+00 -0.35708763180E+03  0.24326189374E+04  0.24062675075E+04 0.  0.
        1    1    3    3  502    0 -0.61434302786E+03  0.10331143804E+04 -0.23192500991E+03  0.12241453709E+04  0.50400001928E-02 0.  1.
       -1    1    3    3    0  502  0.61434302786E+03 -0.10331143804E+04 -0.12516262190E+03  0.12084735665E+04  0.50400001928E-02 0. -1.
</event>
<event>
 5   0  0.2139556E-05  0.2397084E+04  0.7818609E-02  0.8440596E-01
       -1   -1    0    0    0  501  0.00000000000E+00  0.00000000000E+00  0.14349814197E+04  0.14349814197E+04  0.50400001928E-02 0.  1.
        1   -1    0    0  501    0  0.00000000000E+00  0.00000000000E+00 -0.10010604176E+04  0.10010604176E+04  0.50400001928E-02 0. -1.
    10030    2    1    2    0    0  0.00000000000E+00  0.00000000000E+00  0.43392100204E+03  0.24360418373E+04  0.23970841448E+04 0.  0.
        2    1    3    3  502    0 -0.26536096170E+03 -0.34225440443E+02 -0.97032266722E+03  0.10065355927E+04  0.25500000920E-02 0. -1.
       -2    1    3    3    0  502  0.26536096170E+03  0.34225440443E+02  0.14042436693E+04  0.14295062446E+04  0.25500000920E-02 0.  1.
</event>
<event>
 5   0  0.2139556E-05  0.2328258E+04  0.7818609E-02  0.8466862E-01
       -1   -1    0    0    0  501  0.00000000000E+00  0.00000000000E+00  0.81978119836E+03  0.81978119837E+03  0.50400001928E-02 0.  1.
        1   -1    0    0  501    0  0.00000000000E+00  0.00000000000E+00 -0.16531200100E+04  0.16531200100E+04  0.50400001928E-02 0. -1.
    10030    2    1    2    0    0  0.00000000000E+00  0.00000000000E+00 -0.83333881165E+03  0.24729012084E+04  0.23282583215E+04 0.  0.
        2    1    3    3  502    0  0.47247014645E+03  0.33695854577E+03  0.65519705923E+03  0.87524413011E+03  0.25500000920E-02 0.  1.
       -2    1    3    3    0  502 -0.47247014645E+03 -0.33695854577E+03 -0.14885358709E+04  0.15976570783E+04  0.25500000920E-02 0. -1.
</event>
<event>
 5   0  0.2065692E-05  0.2339587E+04  0.7818609E-02  0.8462474E-01
       -1   -1    0    0    0  501  0.00000000000E+00  0.00000000000E+00  0.70885394079E+03  0.70885394080E+03  0.50400001928E-02 0.  1.
        1   -1    0    0  501    0  0.00000000000E+00  0.00000000000E+00 -0.19304640822E+04  0.19304640822E+04  0.50400001928E-02 0. -1.
    10030    2    1    2    0    0  0.00000000000E+00  0.00000000000E+00 -0.12216101414E+04  0.26393180230E+04  0.23395872048E+04 0.  0.
        3    1    3    3  502    0  0.33177521160E+02 -0.92405980540E+03  0.19753297067E+03  0.94551919947E+03  0.10100000352E+00 0.  1.
       -3    1    3    3    0  502 -0.33177521160E+02  0.92405980540E+03 -0.14191431121E+04  0.16937988236E+04  0.10100000352E+00 0. -1.
</event>
<event>
 5   0  0.2149920E-05  0.2462389E+04  0.7818609E-02  0.8416508E-01
        1   -1    0    0  501    0  0.00000000000E+00  0.00000000000E+00  0.30269049891E+04  0.30269049891E+04  0.50400001928E-02 0.  1.
       -1   -1    0    0    0  501  0.00000000000E+00  0.00000000000E+00 -0.50078876379E+03  0.50078876381E+03  0.50400001928E-02 0. -1.
    10030    2    1    2    0    0  0.00000000000E+00  0.00000000000E+00  0.25261162253E+04  0.35276937529E+04  0.24623890900E+04 0.  0.
        5    1    3    3  502    0  0.49529073692E+03  0.65122316968E+03  0.25810886105E+04  0.27076641291E+04  0.46999998093E+01 0.  1.
       -5    1    3    3    0  502 -0.49529073692E+03 -0.65122316968E+03 -0.54972385180E+02  0.82002962381E+03  0.46999998093E+01 0. -1.
</event>
<event>
 5   0  0.2057599E-05  0.2431008E+04  0.7818609E-02  0.8427985E-01
       -1   -1    0    0    0  501  0.00000000000E+00  0.00000000000E+00  0.10051671239E+04  0.10051671239E+04  0.50400001928E-02 0. -1.
        1   -1    0    0  501    0  0.00000000000E+00  0.00000000000E+00 -0.14698551211E+04  0.14698551211E+04  0.50400001928E-02 0.  1.
    10030    2    1    2    0    0  0.00000000000E+00  0.00000000000E+00 -0.46468799718E+03  0.24750222450E+04  0.24310080580E+04 0.  0.
        4    1    3    3  502    0  0.15656346139E+03 -0.88077988028E+03  0.60545407195E+03  0.10802136646E+04  0.12699999809E+01 0. -1.
       -4    1    3    3    0  502 -0.15656346139E+03  0.88077988028E+03 -0.10701420691E+04  0.13948085804E+04  0.12699999809E+01 0.  1.
</event>
<event>
 5   0  0.4664127E-05  0.2411871E+04  0.7818609E-02  0.8435073E-01
        2   -1    0    0  501    0  0.00000000000E+00  0.00000000000E+00  0.82296249361E+03  0.82296249361E+03  0.25500000920E-02 0. -1.
       -2   -1    0    0    0  501  0.00000000000E+00  0.00000000000E+00 -0.17671287113E+04  0.17671287113E+04  0.25500000920E-02 0.  1.
    10030    2    1    2    0    0  0.00000000000E+00  0.00000000000E+00 -0.94416621767E+03  0.25900912049E+04  0.24118711829E+04 0.  0.
        4    1    3    3  502    0  0.10873778798E+04  0.95133364332E+02 -0.10226436069E+04  0.14957414783E+04  0.12699999809E+01 0.  1.
       -4    1    3    3    0  502 -0.10873778798E+04 -0.95133364332E+02  0.78477389201E+02  0.10943497265E+04  0.12699999809E+01 0. -1.
</event>
<event>
 5   0  0.4856882E-05  0.2301692E+04  0.7818609E-02  0.8477254E-01
        2   -1    0    0  501    0  0.00000000000E+00  0.00000000000E+00  0.11909842012E+04  0.11909842012E+04  0.25500000920E-02 0. -1.
       -2   -1    0    0    0  501  0.00000000000E+00  0.00000000000E+00 -0.11120607045E+04  0.11120607045E+04  0.25500000920E-02 0.  1.
    10030    2    1    2    0    0  0.00000000000E+00  0.00000000000E+00  0.78923496688E+02  0.23030449056E+04  0.23016921860E+04 0.  0.
        1    1    3    3  502    0  0.26772506457E+03 -0.65527576286E+03  0.94739995911E+03  0.11826367651E+04  0.50400001928E-02 0. -1.
       -1    1    3    3    0  502 -0.26772506457E+03  0.65527576286E+03 -0.86847646242E+03  0.11204081405E+04  0.50400001928E-02 0.  1.
</event>
<event>
 5   0  0.4713971E-05  0.2410514E+04  0.7818609E-02  0.8435578E-01
       -2   -1    0    0    0  501  0.00000000000E+00  0.00000000000E+00  0.86365483379E+03  0.86365483379E+03  0.25500000920E-02 0.  1.
        2   -1    0    0  501    0  0.00000000000E+00  0.00000000000E+00 -0.16819730554E+04  0.16819730554E+04  0.25500000920E-02 0. -1.
    10030    2    1    2    0    0  0.00000000000E+00  0.00000000000E+00 -0.81831822166E+03  0.25456278892E+04  0.24105137707E+04 0.  0.
        5    1    3    3  502    0  0.81132339030E+03  0.58344116656E+03  0.30238238878E+03  0.10440816240E+04  0.46999998093E+01 0.  1.
       -5    1    3    3    0  502 -0.81132339030E+03 -0.58344116656E+03 -0.11207006104E+04  0.15015462653E+04  0.46999998093E+01 0. -1.
</event>
<event>
 5   0  0.4914005E-05  0.2409447E+04  0.7818609E-02  0.8435975E-01
       -2   -1    0    0    0  501  0.00000000000E+00  0.00000000000E+00  0.17682686510E+04  0.17682686510E+04  0.25500000920E-02 0.  1.
        2   -1    0    0  501    0  0.00000000000E+00  0.00000000000E+00 -0.82077944355E+03  0.82077944355E+03  0.25500000920E-02 0. -1.
    10030    2    1    2    0    0  0.00000000000E+00  0.00000000000E+00  0.94748920744E+03  0.25890480945E+04  0.24094468738E+04 0.  0.
        2    1    3    3  502    0  0.10879036528E+04 -0.51702477172E+03  0.44948788804E+03  0.12856470487E+04  0.25500000920E-02 0. -1.
       -2    1    3    3    0  502 -0.10879036528E+04  0.51702477172E+03  0.49800131940E+03  0.13034010459E+04  0.25500000920E-02 0.  1.
</event>
<event>
 5   0  0.2139556E-05  0.2386691E+04  0.7818609E-02  0.8444503E-01
        1   -1    0    0  501    0  0.00000000000E+00  0.00000000000E+00  0.13767135693E+04  0.13767135693E+04  0.50400001928E-02 0. -1.
       -1   -1    0    0    0  501  0.00000000000E+00  0.00000000000E+00 -0.10344011099E+04  0.10344011099E+04  0.50400001928E-02 0.  1.
    10030    2    1    2    0    0  0.00000000000E+00  0.00000000000E+00  0.34231245941E+03  0.24111146791E+04  0.23866914707E+04 0.  0.
        2    1    3    3  502    0 -0.48818574203E+03 -0.58631915480E+03 -0.75582748830E+03  0.10739509589E+04  0.25500000920E-02 0.  1.
       -2    1    3    3    0  502  0.48818574203E+03  0.58631915480E+03  0.10981399477E+04  0.13371637203E+04  0.25500000920E-02 0. -1.
</event>
<event>
 5   0  0.2090039E-05  0.2627751E+04  0.7818609E-02  0.8358835E-01
       -1   -1    0    0    0  501  0.00000000000E+00  0.00000000000E+00  0.10096811968E+04  0.10096811968E+04  0.50400001928E-02 0. -1.
        1   -1    0    0  501    0  0.00000000000E+00  0.00000000000E+00 -0.17097167620E+04  0.17097167620E+04  0.50400001928E-02 0.  1.
    10030    2    1    2    0    0  0.00000000000E+00  0.00000000000E+00 -0.70003556522E+03  0.27193979588E+04  0.26277510281E+04 0.  0.
        1    1    3    3  502    0  0.91168383875E+03  0.10417038879E+03  0.62312391226E+03  0.11091899304E+04  0.50400001928E-02 0. -1.
       -1    1    3    3    0  502 -0.91168383875E+03 -0.10417038879E+03 -0.13231594775E+04  0.16102080284E+04  0.50400001928E-02 0.  1.
</event>
<event>
 5   0  0.4713971E-05  0.2393590E+04  0.7818609E-02  0.8441907E-01
        2   -1    0    0  501    0  0.00000000000E+00  0.00000000000E+00  0.18415876316E+04  0.18415876316E+04  0.25500000920E-02 0. -1.
       -2   -1    0    0    0  501  0.00000000000E+00  0.00000000000E+00 -0.77776276916E+03  0.77776276916E+03  0.25500000920E-02 0.  1.
    10030    2    1    2    0    0  0.00000000000E+00  0.00000000000E+00  0.10638248625E+04  0.26193504008E+04  0.23935900201E+04 0.  0.
        5    1    3    3  502    0  0.69471623580E+03 -0.50077796743E+03 -0.38293213025E+03  0.93811956984E+03  0.46999998093E+01 0.  1.
       -5    1    3    3    0  502 -0.69471623580E+03  0.50077796743E+03  0.14467569927E+04  0.16812308309E+04  0.46999998093E+01 0. -1.
</event>
<event>
 5   0  0.4856882E-05  0.2465284E+04  0.7818609E-02  0.8415459E-01
        2   -1    0    0  501    0  0.00000000000E+00  0.00000000000E+00  0.18061182230E+04  0.18061182230E+04  0.25500000920E-02 0. -1.
       -2   -1    0    0    0  501  0.00000000000E+00  0.00000000000E+00 -0.84125496287E+03  0.84125496287E+03  0.25500000920E-02 0.  1.
    10030    2    1    2    0    0  0.00000000000E+00  0.00000000000E+00  0.96486326012E+03  0.26473731859E+04  0.24652836905E+04 0.  0.
        1    1    3    3  502    0 -0.11935580866E+04 -0.93920994956E+02  0.16750656099E+03  0.12089088085E+04  0.50400001928E-02 0. -1.
       -1    1    3    3    0  502  0.11935580866E+04  0.93920994956E+02  0.79735669913E+03  0.14384643774E+04  0.50400001928E-02 0.  1.
</event>
<event>
 5   0  0.2149920E-05  0.2340492E+04  0.7818609E-02  0.8462125E-01
       -1   -1    0    0    0  501  0.00000000000E+00  0.00000000000E+00  0.92684233966E+03  0.92684233967E+03  0.50400001928E-02 0. -1.
        1   -1    0    0  501    0  0.00000000000E+00  0.00000000000E+00 -0.14775709876E+04  0.14775709876E+04  0.50400001928E-02 0.  1.
    10030    2    1    2    0    0  0.00000000000E+00  0.00000000000E+00 -0.55072864793E+03  0.24044133273E+04  0.23404917015E+04 0.  0.
        5    1    3    3  502    0  0.71445647446E+03  0.66531919588E+03  0.38751460303E+03  0.10503748587E+04  0.46999998093E+01 0. -1.
       -5    1    3    3    0  502 -0.71445647446E+03 -0.66531919588E+03 -0.93824325096E+03  0.13540384685E+04  0.46999998093E+01 0.  1.
</event>
<event>
 5   0  0.2065692E-05  0.2563499E+04  0.7818609E-02  0.8380707E-01
       -1   -1    0    0    0  501  0.00000000000E+00  0.00000000000E+00  0.15825898917E+04  0.15825898917E+04  0.50400001928E-02 0. -1.
        1   -1    0    0  501    0  0.00000000000E+00  0.00000000000E+00 -0.10380968356E+04  0.10380968357E+04  0.50400001928E-02 0.  1.
    10030    2    1    2    0    0  0.00000000000E+00  0.00000000000E+00  0.54449305602E+03  0.26206867273E+04  0.25634988267E+04 0.  0.
        3    1    3    3  502    0  0.71014932631E+03  0.65054015792E+03  0.11369086472E+04  0.14899918942E+04  0.10100000352E+00 0. -1.
       -3    1    3    3    0  502 -0.71014932631E+03 -0.65054015792E+03 -0.59241559115E+03  0.11306948331E+04  0.10100000352E+00 0.  1.
</event>
<event>
 5   0  0.4713971E-05  0.2465737E+04  0.7818609E-02  0.8415295E-01
       -2   -1    0    0    0  501  0.00000000000E+00  0.00000000000E+00  0.12562097027E+04  0.12562097027E+04  0.25500000920E-02 0. -1.
        2   -1    0    0  501    0  0.00000000000E+00  0.00000000000E+00 -0.12099606163E+04  0.12099606163E+04  0.25500000920E-02 0.  1.
    10030    2    1    2    0    0  0.00000000000E+00  0.00000000000E+00  0.46249086364E+02  0.24661703191E+04  0.24657366170E+04 0.  0.
        5    1    3    3  502    0  0.44604343761E+03 -0.11356148888E+04  0.20026089548E+03  0.12364070690E+04  0.46999998093E+01 0. -1.
       -5    1    3    3    0  502 -0.44604343761E+03  0.11356148888E+04 -0.15401180912E+03  0.12297632501E+04  0.46999998093E+01 0.  1.
</event>
<event>
 5   0  0.2065692E-05  0.2380460E+04  0.7818609E-02  0.8446856E-01
        1   -1    0    0  501    0  0.00000000000E+00  0.00000000000E+00  0.16943168787E+04  0.16943168787E+04  0.50400001928E-02 0.  1.
       -1   -1    0    0    0  501  0.00000000000E+00  0.00000000000E+00 -0.83611684887E+03  0.83611684889E+03  0.50400001928E-02 0. -1.
    10030    2    1    2    0    0  0.00000000000E+00  0.00000000000E+00  0.85820002982E+03  0.25304337276E+04  0.23804595268E+04 0.  0.
        3    1    3    3  502    0 -0.38558031763E+03 -0.76527337197E+03  0.13071754610E+04  0.15630173419E+04  0.10100000352E+00 0.  1.
       -3    1    3    3    0  502  0.38558031763E+03  0.76527337197E+03 -0.44897543118E+03  0.96741638564E+03  0.10100000352E+00 0. -1.
</event>
<event>
 5   0  0.4756705E-05  0.2370400E+04  0.7818609E-02  0.8450669E-01
       -2   -1    0    0    0  501  0.00000000000E+00  0.00000000000E+00  0.13714830318E+04  0.13714830318E+04  0.25500000920E-02 0. -1.
        2   -1    0    0  501    0  0.00000000000E+00  0.00000000000E+00 -0.10242192404E+04  0.10242192404E+04  0.25500000920E-02 0.  1.
    10030    2    1    2    0    0  0.00000000000E+00  0.00000000000E+00  0.34726379134E+03  0.23957022722E+04  0.23704002270E+04 0.  0.
        3    1    3    3  502    0 -0.86127035512E+03 -0.81271360506E+03  0.22324014881E+03  0.12050419921E+04  0.10100000352E+00 0.  1.
       -3    1    3    3    0  502  0.86127035512E+03  0.81271360506E+03  0.12402364253E+03  0.11906602801E+04  0.10100000352E+00 0. -1.
</event>
<event>
 5   0  0.2139556E-05  0.2395804E+04  0.7818609E-02  0.8441076E-01
        1   -1    0    0  501    0  0.00000000000E+00  0.00000000000E+00  0.15673279808E+04  0.15673279808E+04  0.50400001928E-02 0. -1.
       -1   -1    0    0    0  501  0.00000000000E+00  0.00000000000E+00 -0.91555147769E+03  0.91555147770E+03  0.50400001928E-02 0.  1.
    10030    2    1    2    0    0  0.00000000000E+00  0.00000000000E+00  0.65177650314E+03  0.24828794585E+04  0.23958042064E+04 0.  0.
        2    1    3    3  502    0  0.95526231411E+03  0.60409974233E+03 -0.85407336803E+02  0.11334712174E+04  0.25500000920E-02 0.  1.
       -2    1    3    3    0  502 -0.95526231411E+03 -0.60409974233E+03  0.73718383994E+03  0.13494082412E+04  0.25500000920E-02 0. -1.
</event>
<event>
 5   0  0.4856882E-05  0.2415301E+04  0.7818609E-02  0.8433797E-01
       -2   -1    0    0    0  501  0.00000000000E+00  0.00000000000E+00  0.21658212123E+04  0.21658212123E+04  0.25500000920E-02 0. -1.
        2   -1    0    0  501    0  0.00000000000E+00  0.00000000000E+00 -0.67337945655E+03  0.67337945656E+03  0.25500000920E-02 0.  1.
    10030    2    1    2    0    0  0.00000000000E+00  0.00000000000E+00  0.14924417558E+04  0.28392006689E+04  0.24153008185E+04 0.  0.
        1    1    3    3  502    0 -0.11249113439E+04  0.38783306491E+03  0.98878418372E+03  0.15471050966E+04  0.50400001928E-02 0. -1.
       -1    1    3    3    0  502  0.11249113439E+04 -0.38783306491E+03  0.50365757206E+03  0.12920955723E+04  0.50400001928E-02 0.  1.
</event>
<event>
 5   0  0.2139556E-05  0.1793341E+04  0.7818609E-02  0.8709849E-01
       -1   -1    0    0    0  501  0.00000000000E+00  0.00000000000E+00  0.56996797336E+03  0.56996797339E+03  0.50400001928E-02 0.  1.
        1   -1    0    0  501    0  0.00000000000E+00  0.00000000000E+00 -0.14106372163E+04  0.14106372163E+04  0.50400001928E-02 0. -1.
    10030    2    1    2    0    0  0.00000000000E+00  0.00000000000E+00 -0.84066924290E+03  0.19806051897E+04  0.17933410555E+04 0.  0.
        2    1    3    3  502    0  0.11088283094E+03 -0.25523046286E+03 -0.13617404307E+04  0.13898829418E+04  0.25500000920E-02 0. -1.
       -2    1    3    3    0  502 -0.11088283094E+03  0.25523046286E+03  0.52107118778E+03  0.59072224785E+03  0.25500000920E-02 0.  1.
</event>
<event>
 5   0  0.4664127E-05  0.2411249E+04  0.7818609E-02  0.8435304E-01
        2   -1    0    0  501    0  0.00000000000E+00  0.00000000000E+00  0.22654359239E+04  0.22654359239E+04  0.25500000920E-02 0.  1.
       -2   -1    0    0    0  501  0.00000000000E+00  0.00000000000E+00 -0.64161170180E+03  0.64161170181E+03  0.25500000920E-02 0. -1.
    10030    2    1    2    0    0  0.00000000000E+00  0.00000000000E+00  0.16238242221E+04  0.29070476257E+04  0.24112488038E+04 0.  0.
        4    1    3    3  502    0  0.24527246833E+02 -0.11371068725E+04  0.32979264287E+03  0.11842205983E+04  0.12699999809E+01 0. -1.
       -4    1    3    3    0  502 -0.24527246833E+02  0.11371068725E+04  0.12940315792E+04  0.17228270273E+04  0.12699999809E+01 0.  1.
</event>
<event>
 5   0  0.2057599E-05  0.2369029E+04  0.7818609E-02  0.8451191E-01
        1   -1    0    0  501    0  0.00000000000E+00  0.00000000000E+00  0.16287806689E+04  0.16287806689E+04  0.50400001928E-02 0.  1.
       -1   -1    0    0    0  501  0.00000000000E+00  0.00000000000E+00 -0.86142606439E+03  0.86142606440E+03  0.50400001928E-02 0. -1.
    10030    2    1    2    0    0  0.00000000000E+00  0.00000000000E+00  0.76735460454E+03  0.24902067333E+04  0.23690285954E+04 0.  0.
        4    1    3    3  502    0 -0.58525412616E+03 -0.30599469156E+03  0.14172946272E+04  0.15636114660E+04  0.12699999809E+01 0.  1.
       -4    1    3    3    0  502  0.58525412616E+03  0.30599469156E+03 -0.64994002266E+03  0.92659526732E+03  0.12699999809E+01 0. -1.
</event>
<event>
 5   0  0.1672125E-05  0.2377668E+04  0.7818609E-02  0.8447912E-01
       -4   -1    0    0    0  501  0.00000000000E+00  0.00000000000E+00  0.10322077027E+04  0.10322084840E+04  0.12699999809E+01 0. -1.
        4   -1    0    0  501    0  0.00000000000E+00  0.00000000000E+00 -0.13692248453E+04  0.13692254343E+04  0.12699999809E+01 0.  1.
    10030    2    1    2    0    0  0.00000000000E+00  0.00000000000E+00 -0.33701714260E+03  0.24014339183E+04  0.23776678299E+04 0.  0.
        3    1    3    3  502    0 -0.90406242666E+03 -0.76198107137E+03 -0.29377262608E+03  0.12182965117E+04  0.10100000352E+00 0.  1.
       -3    1    3    3    0  502  0.90406242666E+03  0.76198107137E+03 -0.43244516527E+02  0.11831374066E+04  0.10100000352E+00 0. -1.
</event>
<event>
 5   0  0.2149920E-05  0.2367655E+04  0.7818609E-02  0.8451713E-01
        1   -1    0    0  501    0  0.00000000000E+00  0.00000000000E+00  0.19387846624E+04  0.19387846624E+04  0.50400001928E-02 0.  1.
       -1   -1    0    0    0  501  0.00000000000E+00  0.00000000000E+00 -0.72284820538E+03  0.72284820540E+03  0.50400001928E-02 0. -1.
    10030    2    1    2    0    0  0.00000000000E+00  0.00000000000E+00  0.12159364570E+04  0.26616328678E+04  0.23676545473E+04 0.  0.
        5    1    3    3  502    0 -0.87454390354E+03 -0.81592295049E+02  0.15002039521E+04  0.17384240937E+04  0.46999998093E+01 0.  1.
       -5    1    3    3    0  502  0.87454390354E+03  0.81592295049E+02 -0.28426749504E+03  0.92320877409E+03  0.46999998093E+01 0. -1.
</event>
<event>
 5   0  0.2139556E-05  0.2423922E+04  0.7818609E-02  0.8430602E-01
       -1   -1    0    0    0  501  0.00000000000E+00  0.00000000000E+00  0.11972357762E+04  0.11972357762E+04  0.50400001928E-02 0.  1.
        1   -1    0    0  501    0  0.00000000000E+00  0.00000000000E+00 -0.12268668658E+04  0.12268668658E+04  0.50400001928E-02 0. -1.
    10030    2    1    2    0    0  0.00000000000E+00  0.00000000000E+00 -0.29631089661E+02  0.24241026420E+04  0.24239215370E+04 0.  0.
        2    1    3    3  502    0  0.59710725416E+03  0.67482854867E+02  0.10377638753E+04  0.11991850856E+04  0.25500000920E-02 0.  1.
       -2    1    3    3    0  502 -0.59710725416E+03 -0.67482854867E+02 -0.10673949650E+04  0.12249175564E+04  0.25500000920E-02 0. -1.
</event>
<event>
 5   0  0.2065692E-05  0.2394525E+04  0.7818609E-02  0.8441556E-01
        1   -1    0    0  501    0  0.00000000000E+00  0.00000000000E+00  0.12328639220E+04  0.12328639220E+04  0.50400001928E-02 0. -1.
       -1   -1    0    0    0  501  0.00000000000E+00  0.00000000000E+00 -0.11626886612E+04  0.11626886612E+04  0.50400001928E-02 0.  1.
    10030    2    1    2    0    0  0.00000000000E+00  0.00000000000E+00  0.70175260799E+02  0.23955525832E+04  0.23945245063E+04 0.  0.
        3    1    3    3  502    0  0.40623134274E+03 -0.64693063110E+03 -0.88720500163E+03  0.11707586730E+04  0.10100000352E+00 0.  1.
       -3    1    3    3    0  502 -0.40623134274E+03  0.64693063110E+03  0.95738026243E+03  0.12247939102E+04  0.10100000352E+00 0. -1.
</event>
<event>
 5   0  0.2149920E-05  0.2389092E+04  0.7818609E-02  0.8443599E-01
       -1   -1    0    0    0  501  0.00000000000E+00  0.00000000000E+00  0.93728781304E+03  0.93728781306E+03  0.50400001928E-02 0.  1.
        1   -1    0    0  501    0  0.00000000000E+00  0.00000000000E+00 -0.15224136937E+04  0.15224136937E+04  0.50400001928E-02 0. -1.
    10030    2    1    2    0    0  0.00000000000E+00  0.00000000000E+00 -0.58512588067E+03  0.24597015068E+04  0.23890917116E+04 0.  0.
        5    1    3    3  502    0  0.15325600289E+03  0.79891050907E+02  0.92433794602E+03  0.94036839105E+03  0.46999998093E+01 0.  1.
       -5    1    3    3    0  502 -0.15325600289E+03 -0.79891050907E+02 -0.15094638267E+04  0.15193331157E+04  0.46999998093E+01 0. -1.
</event>
<event>
 5   0  0.2149920E-05  0.2529647E+04  0.7818609E-02  0.8392499E-01
       -1   -1    0    0    0  501  0.00000000000E+00  0.00000000000E+00  0.15268873387E+04  0.15268873387E+04  0.50400001928E-02 0.  1.
        1   -1    0    0  501    0  0.00000000000E+00  0.00000000000E+00 -0.10477380865E+04  0.10477380865E+04  0.50400001928E-02 0. -1.
    10030    2    1    2    0    0  0.00000000000E+00  0.00000000000E+00  0.47914925223E+03  0.25746254252E+04  0.25296466303E+04 0.  0.
        5    1    3    3  502    0  0.38604422930E+03  0.90141882786E+03  0.10526341593E+04  0.14386267109E+04  0.46999998093E+01 0.  1.
       -5    1    3    3    0  502 -0.38604422930E+03 -0.90141882786E+03 -0.57348490702E+03  0.11359987142E+04  0.46999998093E+01 0. -1.
</event>
<event>
 5   0  0.2149920E-05  0.1731403E+04  0.7818609E-02  0.8743654E-01
       -1   -1    0    0    0  501  0.00000000000E+00  0.00000000000E+00  0.48829443930E+03  0.48829443932E+03  0.50400001928E-02 0.  1.
        1   -1    0    0  501    0  0.00000000000E+00  0.00000000000E+00 -0.15348096733E+04  0.15348096733E+04  0.50400001928E-02 0. -1.
    10030    2    1    2    0    0  0.00000000000E+00  0.00000000000E+00 -0.10465152340E+04  0.20231041126E+04  0.17314029327E+04 0.  0.
        5    1    3    3  502    0 -0.50820789906E+03 -0.45615928542E+03 -0.11449272077E+04  0.13331305124E+04  0.46999998093E+01 0. -1.
       -5    1    3    3    0  502  0.50820789906E+03  0.45615928542E+03  0.98411973700E+02  0.68997360015E+03  0.46999998093E+01 0.  1.
</event>
<event>
 5   0  0.4664127E-05  0.2349015E+04  0.7818609E-02  0.8458842E-01
       -2   -1    0    0    0  501  0.00000000000E+00  0.00000000000E+00  0.14595662157E+04  0.14595662157E+04  0.25500000920E-02 0.  1.
        2   -1    0    0  501    0  0.00000000000E+00  0.00000000000E+00 -0.94512189851E+03  0.94512189852E+03  0.25500000920E-02 0. -1.
    10030    2    1    2    0    0  0.00000000000E+00  0.00000000000E+00  0.51444431721E+03  0.24046881142E+04  0.23490151066E+04 0.  0.
        4    1    3    3  502    0 -0.48001241956E+03 -0.50821825391E+03 -0.70895198805E+03  0.99564664957E+03  0.12699999809E+01 0. -1.
       -4    1    3    3    0  502  0.48001241956E+03  0.50821825391E+03  0.12233963053E+04  0.14090414647E+04  0.12699999809E+01 0.  1.
</event>
<event>
 5   0  0.2057599E-05  0.2420610E+04  0.7818609E-02  0.8431828E-01
       -1   -1    0    0    0  501  0.00000000000E+00  0.00000000000E+00  0.92761016469E+03  0.92761016471E+03  0.50400001928E-02 0. -1.
        1   -1    0    0  501    0  0.00000000000E+00  0.00000000000E+00 -0.15791523142E+04  0.15791523143E+04  0.50400001928E-02 0.  1.
    10030    2    1    2    0    0  0.00000000000E+00  0.00000000000E+00 -0.65154214956E+03  0.25067624790E+04  0.24206096243E+04 0.  0.
        4    1    3    3  502    0 -0.37785245926E+03 -0.25540030404E+03 -0.14867583162E+04  0.15551378396E+04  0.12699999809E+01 0.  1.
       -4    1    3    3    0  502  0.37785245926E+03  0.25540030404E+03  0.83521616669E+03  0.95162463938E+03  0.12699999809E+01 0. -1.
</event>
<event>
 5   0  0.4756705E-05  0.2325252E+04  0.7818609E-02  0.8468031E-01
       -2   -1    0    0    0  501  0.00000000000E+00  0.00000000000E+00  0.50073142964E+03  0.50073142965E+03  0.25500000920E-02 0. -1.
        2   -1    0    0  501    0  0.00000000000E+00  0.00000000000E+00 -0.26994503490E+04  0.26994503490E+04  0.25500000920E-02 0.  1.
    10030    2    1    2    0    0  0.00000000000E+00  0.00000000000E+00 -0.21987189193E+04  0.32001817786E+04  0.23252523584E+04 0.  0.
        3    1    3    3  502    0 -0.55800970345E+03  0.76840865011E+03 -0.17625788914E+03  0.96586413972E+03  0.10100000352E+00 0. -1.
       -3    1    3    3    0  502  0.55800970345E+03 -0.76840865011E+03 -0.20224610302E+04  0.22343176389E+04  0.10100000352E+00 0.  1.
</event>
<event>
 5   0  0.4856882E-05  0.2396780E+04  0.7818609E-02  0.8440710E-01
       -2   -1    0    0    0  501  0.00000000000E+00  0.00000000000E+00  0.96490737638E+03  0.96490737638E+03  0.25500000920E-02 0.  1.
        2   -1    0    0  501    0  0.00000000000E+00  0.00000000000E+00 -0.14883698174E+04  0.14883698174E+04  0.25500000920E-02 0. -1.
    10030    2    1    2    0    0  0.00000000000E+00  0.00000000000E+00 -0.52346244104E+03  0.24532771938E+04  0.23967803534E+04 0.  0.
        1    1    3    3  502    0  0.11607841634E+03 -0.96502482118E+03  0.45578609669E+03  0.10735399714E+04  0.50400001928E-02 0. -1.
       -1    1    3    3    0  502 -0.11607841634E+03  0.96502482118E+03 -0.97924853773E+03  0.13797372224E+04  0.50400001928E-02 0.  1.
</event>
<event>
 5   0  0.2057599E-05  0.2390290E+04  0.7818609E-02  0.8443148E-01
       -1   -1    0    0    0  501  0.00000000000E+00  0.00000000000E+00  0.64468001719E+03  0.64468001721E+03  0.50400001928E-02 0. -1.
        1   -1    0    0  501    0  0.00000000000E+00  0.00000000000E+00 -0.22156290917E+04  0.22156290917E+04  0.50400001928E-02 0.  1.
    10030    2    1    2    0    0  0.00000000000E+00  0.00000000000E+00 -0.15709490745E+04  0.28603091089E+04  0.23902901924E+04 0.  0.
        4    1    3    3  502    0  0.85251215798E+03 -0.38550538355E+03  0.10437500947E+03  0.94142824249E+03  0.12699999809E+01 0. -1.
       -4    1    3    3    0  502 -0.85251215798E+03  0.38550538355E+03 -0.16753240840E+04  0.19188808664E+04  0.12699999809E+01 0.  1.
</event>
<event>
 5   0  0.4856882E-05  0.2382477E+04  0.7818609E-02  0.8446093E-01
        2   -1    0    0  501    0  0.00000000000E+00  0.00000000000E+00  0.16247803832E+04  0.16247803832E+04  0.25500000920E-02 0.  1.
       -2   -1    0    0    0  501  0.00000000000E+00  0.00000000000E+00 -0.87337938916E+03  0.87337938917E+03  0.25500000920E-02 0. -1.
    10030    2    1    2    0    0  0.00000000000E+00  0.00000000000E+00  0.75140099407E+03  0.24981597724E+04  0.23824774489E+04 0.  0.
        1    1    3    3  502    0  0.10681170133E+04 -0.19144519155E+03  0.89101455788E+03  0.14040769772E+04  0.50400001928E-02 0.  1.
       -1    1    3    3    0  502 -0.10681170133E+04  0.19144519155E+03 -0.13961356381E+03  0.10940827952E+04  0.50400001928E-02 0. -1.
</event>
<event>
 5   0  0.4756705E-05  0.2392579E+04  0.7818609E-02  0.8442287E-01
        2   -1    0    0  501    0  0.00000000000E+00  0.00000000000E+00  0.97651183861E+03  0.97651183861E+03  0.25500000920E-02 0. -1.
       -2   -1    0    0    0  501  0.00000000000E+00  0.00000000000E+00 -0.14655308758E+04  0.14655308758E+04  0.25500000920E-02 0.  1.
    10030    2    1    2    0    0  0.00000000000E+00  0.00000000000E+00 -0.48901903723E+03  0.24420427144E+04  0.23925787344E+04 0.  0.
        3    1    3    3  502    0 -0.96363665330E+03 -0.14969802960E+03 -0.95172912305E+03  0.13626420783E+04  0.10100000352E+00 0.  1.
       -3    1    3    3    0  502  0.96363665330E+03  0.14969802960E+03  0.46271008582E+03  0.10794006362E+04  0.10100000352E+00 0. -1.
</event>
<event>
 5   0  0.2139556E-05  0.2439307E+04  0.7818609E-02  0.8424932E-01
        1   -1    0    0  501    0  0.00000000000E+00  0.00000000000E+00  0.77785153394E+03  0.77785153396E+03  0.50400001928E-02 0. -1.
       -1   -1    0    0    0  501  0.00000000000E+00  0.00000000000E+00 -0.19123895753E+04  0.19123895753E+04  0.50400001928E-02 0.  1.
    10030    2    1    2    0    0  0.00000000000E+00  0.00000000000E+00 -0.11345380414E+04  0.26902411093E+04  0.24393074137E+04 0.  0.
        2    1    3    3  502    0 -0.14692613011E+03  0.23662432523E+03 -0.18768448578E+04  0.18973995307E+04  0.25500000920E-02 0.  1.
       -2    1    3    3    0  502  0.14692613011E+03 -0.23662432523E+03  0.74230681641E+03  0.79284157856E+03  0.25500000920E-02 0. -1.
</event>
<event>
 5   0  0.4756705E-05  0.2503196E+04  0.7818609E-02  0.8401848E-01
        2   -1    0    0  501    0  0.00000000000E+00  0.00000000000E+00  0.16998521922E+04  0.16998521922E+04  0.25500000920E-02 0. -1.
       -2   -1    0    0    0  501  0.00000000000E+00  0.00000000000E+00 -0.92154953308E+03  0.92154953308E+03  0.25500000920E-02 0.  1.
    10030    2    1    2    0    0  0.00000000000E+00  0.00000000000E+00  0.77830265909E+03  0.26214017253E+04  0.25031963519E+04 0.  0.
        3    1    3    3  502    0 -0.61005581897E+03  0.54587098617E+03  0.13806191552E+04  0.16050708700E+04  0.10100000352E+00 0. -1.
       -3    1    3    3    0  502  0.61005581897E+03 -0.54587098617E+03 -0.60231649606E+03  0.10163308553E+04  0.10100000352E+00 0.  1.
</event>
<event>
 5   0  0.2057599E-05  0.2399554E+04  0.7818609E-02  0.8439671E-01
        1   -1    0    0  501    0  0.00000000000E+00  0.00000000000E+00  0.10370351917E+04  0.10370351917E+04  0.50400001928E-02 0. -1.
       -1   -1    0    0    0  501  0.00000000000E+00  0.00000000000E+00 -0.13880574227E+04  0.13880574228E+04  0.50400001928E-02 0.  1.
    10030    2    1    2    0    0  0.00000000000E+00  0.00000000000E+00 -0.35102223107E+03  0.24250926144E+04  0.23995536214E+04 0.  0.
        4    1    3    3  502    0  0.12819396503E+03 -0.11574305441E+04  0.11632447645E+03  0.11703042996E+04  0.12699999809E+01 0. -1.
       -4    1    3    3    0  502 -0.12819396503E+03  0.11574305441E+04 -0.46734670752E+03  0.12547883148E+04  0.12699999809E+01 0.  1.
</event>
<event>
 5   0  0.2139556E-05  0.2490508E+04  0.7818609E-02  0.8406375E-01
        1   -1    0    0  501    0  0.00000000000E+00  0.00000000000E+00  0.27448541390E+04  0.27448541391E+04  0.50400001928E-02 0.  1.
       -1   -1    0    0    0  501  0.00000000000E+00  0.00000000000E+00 -0.56493270474E+03  0.56493270477E+03  0.50400001928E-02 0. -1.
    10030    2    1    2    0    0  0.00000000000E+00  0.00000000000E+00  0.21799214343E+04  0.33097868438E+04  0.24905082798E+04 0.  0.
        2    1    3    3  502    0  0.11377912778E+04  0.11024111228E+03  0.43358910894E+03  0.12225880787E+04  0.25500000920E-02 0.  1.
       -2    1    3    3    0  502 -0.11377912778E+04 -0.11024111228E+03  0.17463323254E+04  0.20871987652E+04  0.25500000920E-02 0. -1.
</event>
<event>
 5   0  0.2057599E-05  0.2388777E+04  0.7818609E-02  0.8443717E-01
        1   -1    0    0  501    0  0.00000000000E+00  0.00000000000E+00  0.16160321405E+04  0.16160321405E+04  0.50400001928E-02 0. -1.
       -1   -1    0    0    0  501  0.00000000000E+00  0.00000000000E+00 -0.88275706468E+03  0.88275706469E+03  0.50400001928E-02 0.  1.
    10030    2    1    2    0    0  0.00000000000E+00  0.00000000000E+00  0.73327507578E+03  0.24987892052E+04  0.23887769161E+04 0.  0.
        4    1    3    3  502    0  0.11297635446E+04 -0.84714327504E+02  0.76223400286E+03  0.13654832375E+04  0.12699999809E+01 0.  1.
       -4    1    3    3    0  502 -0.11297635446E+04  0.84714327504E+02 -0.28958927084E+02  0.11333059676E+04  0.12699999809E+01 0. -1.
</event>
<event>
 5   0  0.4856882E-05  0.2411098E+04  0.7818609E-02  0.8435360E-01
        2   -1    0    0  501    0  0.00000000000E+00  0.00000000000E+00  0.23370461577E+04  0.23370461577E+04  0.25500000920E-02 0.  1.
       -2   -1    0    0    0  501  0.00000000000E+00  0.00000000000E+00 -0.62187414326E+03  0.62187414327E+03  0.25500000920E-02 0. -1.
    10030    2    1    2    0    0  0.00000000000E+00  0.00000000000E+00  0.17151720145E+04  0.29589203010E+04  0.24110981541E+04 0.  0.
        1    1    3    3  502    0  0.51382683628E+03 -0.42047882011E+03  0.20924579519E+04  0.21952678051E+04  0.50400001928E-02 0.  1.
       -1    1    3    3    0  502 -0.51382683628E+03  0.42047882011E+03 -0.37728593741E+03  0.76365249587E+03  0.50400001928E-02 0. -1.
</event>
<event>
 5   0  0.2090039E-05  0.2388108E+04  0.7818609E-02  0.8443969E-01
        1   -1    0    0  501    0  0.00000000000E+00  0.00000000000E+00  0.11018269745E+04  0.11018269745E+04  0.50400001928E-02 0. -1.
       -1   -1    0    0    0  501  0.00000000000E+00  0.00000000000E+00 -0.12940003462E+04  0.12940003462E+04  0.50400001928E-02 0.  1.
    10030    2    1    2    0    0  0.00000000000E+00  0.00000000000E+00 -0.19217337165E+03  0.23958273207E+04  0.23881076077E+04 0.  0.
        1    1    3    3  502    0 -0.84791004065E+03  0.14115322881E+03 -0.92755335290E+03  0.12646070115E+04  0.50400001928E-02 0.  1.
       -1    1    3    3    0  502  0.84791004065E+03 -0.14115322881E+03  0.73537998125E+03  0.11312203092E+04  0.50400001928E-02 0. -1.
</event>
<event>
 5   0  0.2057599E-05  0.2384340E+04  0.7818609E-02  0.8445390E-01
        1   -1    0    0  501    0  0.00000000000E+00  0.00000000000E+00  0.12607820948E+04  0.12607820949E+04  0.50400001928E-02 0. -1.
       -1   -1    0    0    0  501  0.00000000000E+00  0.00000000000E+00 -0.11272918575E+04  0.11272918575E+04  0.50400001928E-02 0.  1.
    10030    2    1    2    0    0  0.00000000000E+00  0.00000000000E+00  0.13349023733E+03  0.23880739524E+04  0.23843400677E+04 0.  0.
        4    1    3    3  502    0  0.31011432704E+02 -0.11871252154E+04  0.17198006739E+03  0.11999194734E+04  0.12699999809E+01 0.  1.
       -4    1    3    3    0  502 -0.31011432704E+02  0.11871252154E+04 -0.38489830059E+02  0.11881544790E+04  0.12699999809E+01 0. -1.
</event>
<event>
 5   0  0.4914005E-05  0.2413659E+04  0.7818609E-02  0.8434407E-01
       -2   -1    0    0    0  501  0.00000000000E+00  0.00000000000E+00  0.13370024757E+04  0.13370024757E+04  0.25500000920E-02 0. -1.
        2   -1    0    0  501    0  0.00000000000E+00  0.00000000000E+00 -0.10893304584E+04  0.10893304584E+04  0.25500000920E-02 0.  1.
    10030    2    1    2    0    0  0.00000000000E+00  0.00000000000E+00  0.24767201721E+03  0.24263329341E+04  0.24136590644E+04 0.  0.
        2    1    3    3  502    0  0.15751279272E+03 -0.11463199644E+04  0.46853268390E+03  0.12483519602E+04  0.25500000920E-02 0.  1.
       -2    1    3    3    0  502 -0.15751279272E+03  0.11463199644E+04 -0.22086066669E+03  0.11779809739E+04  0.25500000920E-02 0. -1.
</event>
<event>
 5   0  0.4914005E-05  0.2384296E+04  0.7818609E-02  0.8445407E-01
        2   -1    0    0  501    0  0.00000000000E+00  0.00000000000E+00  0.22729038206E+04  0.22729038206E+04  0.25500000920E-02 0. -1.
       -2   -1    0    0    0  501  0.00000000000E+00  0.00000000000E+00 -0.62528666824E+03  0.62528666825E+03  0.25500000920E-02 0.  1.
    10030    2    1    2    0    0  0.00000000000E+00  0.00000000000E+00  0.16476171523E+04  0.28981904888E+04  0.23842956673E+04 0.  0.
        2    1    3    3  502    0  0.57022629236E+02 -0.10420150934E+04  0.12324646933E+03  0.10508266876E+04  0.25500000920E-02 0.  1.
       -2    1    3    3    0  502 -0.57022629236E+02  0.10420150934E+04  0.15243706830E+04  0.18473638013E+04  0.25500000920E-02 0. -1.
</event>
<event>
 5   0  0.4713971E-05  0.2373860E+04  0.7818609E-02  0.8449355E-01
        2   -1    0    0  501    0  0.00000000000E+00  0.00000000000E+00  0.16407643005E+04  0.16407643005E+04  0.25500000920E-02 0.  1.
       -2   -1    0    0    0  501  0.00000000000E+00  0.00000000000E+00 -0.85862588761E+03  0.85862588762E+03  0.25500000920E-02 0. -1.
    10030    2    1    2    0    0  0.00000000000E+00  0.00000000000E+00  0.78213841289E+03  0.24993901881E+04  0.23738598980E+04 0.  0.
        5    1    3    3  502    0 -0.90612060792E+03  0.23910557072E+03 -0.37584010748E+03  0.10097048611E+04  0.46999998093E+01 0. -1.
       -5    1    3    3    0  502  0.90612060792E+03 -0.23910557072E+03  0.11579785204E+04  0.14896853271E+04  0.46999998093E+01 0.  1.
</event>
<event>
 5   0  0.4856882E-05  0.2413193E+04  0.7818609E-02  0.8434581E-01
       -2   -1    0    0    0  501  0.00000000000E+00  0.00000000000E+00  0.74093740893E+03  0.74093740894E+03  0.25500000920E-02 0. -1.
        2   -1    0    0  501    0  0.00000000000E+00  0.00000000000E+00 -0.19649092528E+04  0.19649092528E+04  0.25500000920E-02 0.  1.
    10030    2    1    2    0    0  0.00000000000E+00  0.00000000000E+00 -0.12239718439E+04  0.27058466617E+04  0.24131927155E+04 0.  0.
        1    1    3    3  502    0 -0.54934956940E+03  0.76424525444E+03  0.23457037943E+03  0.96998918616E+03  0.50400001928E-02 0. -1.
       -1    1    3    3    0  502  0.54934956940E+03 -0.76424525444E+03 -0.14585422233E+04  0.17358574756E+04  0.50400001928E-02 0.  1.
</event>
<event>
 5   0  0.2065692E-05  0.2376830E+04  0.7818609E-02  0.8448229E-01
        1   -1    0    0  501    0  0.00000000000E+00  0.00000000000E+00  0.16644383921E+04  0.16644383921E+04  0.50400001928E-02 0.  1.
       -1   -1    0    0    0  501  0.00000000000E+00  0.00000000000E+00 -0.84853280493E+03  0.84853280495E+03  0.50400001928E-02 0. -1.
    10030    2    1    2    0    0  0.00000000000E+00  0.00000000000E+00  0.81590558719E+03  0.25129711971E+04  0.23768303074E+04 0.  0.
        3    1    3    3  502    0  0.62756765108E+03  0.88216751594E+03 -0.11029684041E+03  0.10882215243E+04  0.10100000352E+00 0. -1.
       -3    1    3    3    0  502 -0.62756765108E+03 -0.88216751594E+03  0.92620242761E+03  0.14247496727E+04  0.10100000352E+00 0.  1.
</event>
<event>
 5   0  0.4664127E-05  0.2493839E+04  0.7818609E-02  0.8405184E-01
        2   -1    0    0  501    0  0.00000000000E+00  0.00000000000E+00  0.36251020707E+04  0.36251020707E+04  0.25500000920E-02 0.  1.
       -2   -1    0    0    0  501  0.00000000000E+00  0.00000000000E+00 -0.42890059581E+03  0.42890059582E+03  0.25500000920E-02 0. -1.
    10030    2    1    2    0    0  0.00000000000E+00  0.00000000000E+00  0.31962014749E+04  0.40540026665E+04  0.24938391592E+04 0.  0.
        4    1    3    3  502    0 -0.99048695854E+03  0.47921527354E+03  0.25516757317E+04  0.27788059209E+04  0.12699999809E+01 0.  1.
       -4    1    3    3    0  502  0.99048695854E+03 -0.47921527354E+03  0.64452574315E+03  0.12751967456E+04  0.12699999809E+01 0. -1.
</event>
<event>
 5   0  0.4713971E-05  0.2631384E+04  0.7818609E-02  0.8357618E-01
        2   -1    0    0  501    0  0.00000000000E+00  0.00000000000E+00  0.99192207082E+03  0.99192207083E+03  0.25500000920E-02 0.  1.
       -2   -1    0    0    0  501  0.00000000000E+00  0.00000000000E+00 -0.17451427299E+04  0.17451427299E+04  0.25500000920E-02 0. -1.
    10030    2    1    2    0    0  0.00000000000E+00  0.00000000000E+00 -0.75322065907E+03  0.27370648007E+04  0.26313841153E+04 0.  0.
        5    1    3    3  502    0 -0.35517915274E+03 -0.83662352018E+03  0.61287392814E+03  0.10962334089E+04  0.46999998093E+01 0.  1.
       -5    1    3    3    0  502  0.35517915274E+03  0.83662352018E+03 -0.13660945872E+04  0.16408313918E+04  0.46999998093E+01 0. -1.
</event>
<event>
 5   0  0.4756705E-05  0.2382391E+04  0.7818609E-02  0.8446126E-01
        2   -1    0    0  501    0  0.00000000000E+00  0.00000000000E+00  0.92383871111E+03  0.92383871111E+03  0.25500000920E-02 0. -1.
       -2   -1    0    0    0  501  0.00000000000E+00  0.00000000000E+00 -0.15359242754E+04  0.15359242754E+04  0.25500000920E-02 0.  1.
    10030    2    1    2    0    0  0.00000000000E+00  0.00000000000E+00 -0.61208556426E+03  0.24597629865E+04  0.23823906505E+04 0.  0.
        3    1    3    3  502    0 -0.57215815293E+03 -0.78739923105E+03  0.40297923437E+03  0.10534489900E+04  0.10100000352E+00 0. -1.
       -3    1    3    3    0  502  0.57215815293E+03  0.78739923105E+03 -0.10150647986E+04  0.14063139965E+04  0.10100000352E+00 0.  1.
</event>
<event>
 5   0  0.2090039E-05  0.2460163E+04  0.7818609E-02  0.8417317E-01
        1   -1    0    0  501    0  0.00000000000E+00  0.00000000000E+00  0.16787444403E+04  0.16787444404E+04  0.50400001928E-02 0.  1.
       -1   -1    0    0    0  501  0.00000000000E+00  0.00000000000E+00 -0.90132881688E+03  0.90132881690E+03  0.50400001928E-02 0. -1.
    10030    2    1    2    0    0  0.00000000000E+00  0.00000000000E+00  0.77741562347E+03  0.25800732573E+04  0.24601631981E+04 0.  0.
        1    1    3    3  502    0  0.24598386889E+03 -0.46938413258E+03  0.15528908600E+04  0.16408228273E+04  0.50400001928E-02 0.  1.
       -1    1    3    3    0  502 -0.24598386889E+03  0.46938413258E+03 -0.77547523650E+03  0.93925042993E+03  0.50400001928E-02 0. -1.
</event>
<event>
 5   0  0.1672125E-05  0.2298085E+04  0.7818609E-02  0.8478676E-01
        4   -1    0    0  501    0  0.00000000000E+00  0.00000000000E+00  0.15275800458E+04  0.15275805737E+04  0.12699999809E+01 0.  1.
       -4   -1    0    0    0  501  0.00000000000E+00  0.00000000000E+00 -0.86430643384E+03  0.86430736690E+03  0.12699999809E+01 0. -1.
    10030    2    1    2    0    0  0.00000000000E+00  0.00000000000E+00  0.66327361194E+03  0.23918879406E+04  0.22980852978E+04 0.  0.
        3    1    3    3  502    0  0.84916721652E+03 -0.70983766626E+03  0.65301955708E+03  0.12850638218E+04  0.10100000352E+00 0.  1.
       -3    1    3    3    0  502 -0.84916721652E+03  0.70983766626E+03  0.10254054865E+02  0.11068241188E+04  0.10100000352E+00 0. -1.
</event>
<event>
 5   0  0.2139556E-05  0.2228682E+04  0.7818609E-02  0.8506584E-01
       -1   -1    0    0    0  501  0.00000000000E+00  0.00000000000E+00  0.66076776570E+03  0.66076776572E+03  0.50400001928E-02 0. -1.
        1   -1    0    0  501    0  0.00000000000E+00  0.00000000000E+00 -0.18792621973E+04  0.18792621973E+04  0.50400001928E-02 0.  1.
    10030    2    1    2    0    0  0.00000000000E+00  0.00000000000E+00 -0.12184944316E+04  0.25400299631E+04  0.22286820171E+04 0.  0.
        2    1    3    3  502    0 -0.79275256419E+03 -0.58403349651E+03 -0.14629168727E+02  0.98476685853E+03  0.25500000920E-02 0. -1.
       -2    1    3    3    0  502  0.79275256419E+03  0.58403349651E+03 -0.12038652629E+04  0.15552631045E+04  0.25500000920E-02 0.  1.
</event>
<event>
 5   0  0.4914005E-05  0.2272649E+04  0.7818609E-02  0.8488784E-01
        2   -1    0    0  501    0  0.00000000000E+00  0.00000000000E+00  0.10594507173E+04  0.10594507173E+04  0.25500000920E-02 0.  1.
       -2   -1    0    0    0  501  0.00000000000E+00  0.00000000000E+00 -0.12187758238E+04  0.12187758238E+04  0.25500000920E-02 0. -1.
    10030    2    1    2    0    0  0.00000000000E+00  0.00000000000E+00 -0.15932510649E+03  0.22782265410E+04  0.22726486052E+04 0.  0.
        2    1    3    3  502    0  0.49577919655E+03 -0.17415371385E+03  0.93033517688E+03  0.10684802615E+04  0.25500000920E-02 0.  1.
       -2    1    3    3    0  502 -0.49577919655E+03  0.17415371385E+03 -0.10896602834E+04  0.12097462796E+04  0.25500000920E-02 0. -1.
</event>
<event>
 5   0  0.4664127E-05  0.2311559E+04  0.7818609E-02  0.8473377E-01
       -2   -1    0    0    0  501  0.00000000000E+00  0.00000000000E+00  0.91712806636E+03  0.91712806637E+03  0.25500000920E-02 0. -1.
        2   -1    0    0  501    0  0.00000000000E+00  0.00000000000E+00 -0.14565324423E+04  0.14565324423E+04  0.25500000920E-02 0.  1.
    10030    2    1    2    0    0  0.00000000000E+00  0.00000000000E+00 -0.53940437593E+03  0.23736605087E+04  0.23115594584E+04 0.  0.
        4    1    3    3  502    0 -0.22349756598E+03 -0.77822180307E+03 -0.11166295444E+04  0.13792909371E+04  0.12699999809E+01 0.  1.
       -4    1    3    3    0  502  0.22349756598E+03  0.77822180307E+03  0.57722516851E+03  0.99436957155E+03  0.12699999809E+01 0. -1.
</event>
<event>
 5   0  0.4713971E-05  0.2403710E+04  0.7818609E-02  0.8438116E-01
       -2   -1    0    0    0  501  0.00000000000E+00  0.00000000000E+00  0.63710948042E+03  0.63710948043E+03  0.25500000920E-02 0. -1.
        2   -1    0    0  501    0  0.00000000000E+00  0.00000000000E+00 -0.22672017618E+04  0.22672017618E+04  0.25500000920E-02 0.  1.
    10030    2    1    2    0    0  0.00000000000E+00  0.00000000000E+00 -0.16300922814E+04  0.29043112422E+04  0.24037102458E+04 0.  0.
        5    1    3    3  502    0  0.55756652339E+03 -0.40176364866E+03 -0.20063574557E+04  0.21207986202E+04  0.46999998093E+01 0.  1.
       -5    1    3    3    0  502 -0.55756652339E+03  0.40176364866E+03  0.37626517436E+03  0.78351262200E+03  0.46999998093E+01 0. -1.
</event>
<event>
 5   0  0.2090039E-05  0.2421884E+04  0.7818609E-02  0.8431356E-01
        1   -1    0    0  501    0  0.00000000000E+00  0.00000000000E+00  0.20734192984E+04  0.20734192984E+04  0.50400001928E-02 0.  1.
       -1   -1    0    0    0  501  0.00000000000E+00  0.00000000000E+00 -0.70722842151E+03  0.70722842153E+03  0.50400001928E-02 0. -1.
    10030    2    1    2    0    0  0.00000000000E+00  0.00000000000E+00  0.13661908769E+04  0.27806477199E+04  0.24218844379E+04 0.  0.
        1    1    3    3  502    0  0.53412838778E+03 -0.19874166338E+03 -0.54363056402E+03  0.78760749968E+03  0.50400001928E-02 0. -1.
       -1    1    3    3    0  502 -0.53412838778E+03  0.19874166338E+03  0.19098214409E+04  0.19930402203E+04  0.50400001928E-02 0.  1.
</event>
<event>
 5   0  0.2057599E-05  0.2014548E+04  0.7818609E-02  0.8599849E-01
       -1   -1    0    0    0  501  0.00000000000E+00  0.00000000000E+00  0.13687422684E+04  0.13687422684E+04  0.50400001928E-02 0.  1.
        1   -1    0    0  501    0  0.00000000000E+00  0.00000000000E+00 -0.74126487532E+03  0.74126487534E+03  0.50400001928E-02 0. -1.
    10030    2    1    2    0    0  0.00000000000E+00  0.00000000000E+00  0.62747739311E+03  0.21100071438E+04  0.20145476584E+04 0.  0.
        4    1    3    3  502    0  0.96009739026E+03  0.28165135658E+03  0.43536382124E+03  0.10911726514E+04  0.12699999809E+01 0.  1.
       -4    1    3    3    0  502 -0.96009739026E+03 -0.28165135658E+03  0.19211357187E+03  0.10188344924E+04  0.12699999809E+01 0. -1.
</event>
<event>
 5   0  0.4914005E-05  0.2218308E+04  0.7818609E-02  0.8510846E-01
        2   -1    0    0  501    0  0.00000000000E+00  0.00000000000E+00  0.14994525796E+04  0.14994525796E+04  0.25500000920E-02 0. -1.
       -2   -1    0    0    0  501  0.00000000000E+00  0.00000000000E+00 -0.82044770208E+03  0.82044770208E+03  0.25500000920E-02 0.  1.
    10030    2    1    2    0    0  0.00000000000E+00  0.00000000000E+00  0.67900487751E+03  0.23199002817E+04  0.22183078446E+04 0.  0.
        2    1    3    3  502    0  0.43222208380E+03  0.16296866479E+03 -0.71506767563E+03  0.85129107605E+03  0.25500000920E-02 0.  1.
       -2    1    3    3    0  502 -0.43222208380E+03 -0.16296866479E+03  0.13940725531E+04  0.14686092056E+04  0.25500000920E-02 0. -1.
</event>
<event>
 5   0  0.4856882E-05  0.2417971E+04  0.7818609E-02  0.8432806E-01
       -2   -1    0    0    0  501  0.00000000000E+00  0.00000000000E+00  0.16614768620E+04  0.16614768620E+04  0.25500000920E-02 0.  1.
        2   -1    0    0  501    0  0.00000000000E+00  0.00000000000E+00 -0.87972716469E+03  0.87972716469E+03  0.25500000920E-02 0. -1.
    10030    2    1    2    0    0  0.00000000000E+00  0.00000000000E+00  0.78174969730E+03  0.25412040267E+04  0.24179713224E+04 0.  0.
        1    1    3    3  502    0 -0.37085250055E+03 -0.24386462982E+03 -0.79100320799E+03  0.90702128416E+03  0.50400001928E-02 0. -1.
       -1    1    3    3    0  502  0.37085250055E+03  0.24386462982E+03  0.15727529053E+04  0.16341827425E+04  0.50400001928E-02 0.  1.
</event>
<event>
 5   0  0.4856882E-05  0.2418570E+04  0.7818609E-02  0.8432584E-01
       -2   -1    0    0    0  501  0.00000000000E+00  0.00000000000E+00  0.27251437049E+04  0.27251437049E+04  0.25500000920E-02 0.  1.
        2   -1    0    0  501    0  0.00000000000E+00  0.00000000000E+00 -0.53662130839E+03  0.53662130839E+03  0.25500000920E-02 0. -1.
    10030    2    1    2    0    0  0.00000000000E+00  0.00000000000E+00  0.21885223966E+04  0.32617650133E+04  0.24185699746E+04 0.  0.
        1    1    3    3  502    0  0.20581033803E+03 -0.83780120582E+03  0.22371050790E+04  0.23976880302E+04  0.50400001928E-02 0.  1.
       -1    1    3    3    0  502 -0.20581033803E+03  0.83780120582E+03 -0.48582682447E+02  0.86407698312E+03  0.50400001928E-02 0. -1.
</event>
<event>
 5   0  0.2139556E-05  0.2507368E+04  0.7818609E-02  0.8400365E-01
       -1   -1    0    0    0  501  0.00000000000E+00  0.00000000000E+00  0.88324563187E+03  0.88324563188E+03  0.50400001928E-02 0. -1.
        1   -1    0    0  501    0  0.00000000000E+00  0.00000000000E+00 -0.17794858017E+04  0.17794858017E+04  0.50400001928E-02 0.  1.
    10030    2    1    2    0    0  0.00000000000E+00  0.00000000000E+00 -0.89624016981E+03  0.26627314336E+04  0.25073675928E+04 0.  0.
        2    1    3    3  502    0 -0.46571881502E+03  0.91979974113E+03 -0.12056186837E+04  0.15863297226E+04  0.25500000920E-02 0.  1.
       -2    1    3    3    0  502  0.46571881502E+03 -0.91979974113E+03  0.30937851387E+03  0.10764017109E+04  0.25500000920E-02 0. -1.
</event>
<event>
 5   0  0.4713971E-05  0.2415821E+04  0.7818609E-02  0.8433604E-01
       -2   -1    0    0    0  501  0.00000000000E+00  0.00000000000E+00  0.15827529160E+04  0.15827529160E+04  0.25500000920E-02 0. -1.
        2   -1    0    0  501    0  0.00000000000E+00  0.00000000000E+00 -0.92184145071E+03  0.92184145071E+03  0.25500000920E-02 0.  1.
    10030    2    1    2    0    0  0.00000000000E+00  0.00000000000E+00  0.66091146530E+03  0.25045943667E+04  0.24158205597E+04 0.  0.
        5    1    3    3  502    0  0.57890637949E+03 -0.64596414590E+03  0.12019540928E+04  0.14822678588E+04  0.46999998093E+01 0. -1.
       -5    1    3    3    0  502 -0.57890637949E+03  0.64596414590E+03 -0.54104262752E+03  0.10223265079E+04  0.46999998093E+01 0.  1.
</event>
<event>
 5   0  0.2057599E-05  0.2471780E+04  0.7818609E-02  0.8413109E-01
        1   -1    0    0  501    0  0.00000000000E+00  0.00000000000E+00  0.13448012006E+04  0.13448012006E+04  0.50400001928E-02 0.  1.
       -1   -1    0    0    0  501  0.00000000000E+00  0.00000000000E+00 -0.11357988793E+04  0.11357988793E+04  0.50400001928E-02 0. -1.
    10030    2    1    2    0    0  0.00000000000E+00  0.00000000000E+00  0.20900232131E+03  0.24806000799E+04  0.24717796799E+04 0.  0.
        4    1    3    3  502    0 -0.99156623059E+03 -0.39216154759E+03  0.73157310502E+03  0.12931338252E+04  0.12699999809E+01 0.  1.
       -4    1    3    3    0  502  0.99156623059E+03  0.39216154759E+03 -0.52257078371E+03  0.11874662547E+04  0.12699999809E+01 0. -1.
</event>
<event>
 5   0  0.2090039E-05  0.2409529E+04  0.7818609E-02  0.8435945E-01
        1   -1    0    0  501    0  0.00000000000E+00  0.00000000000E+00  0.23527654378E+04  0.23527654378E+04  0.50400001928E-02 0.  1.
       -1   -1    0    0    0  501  0.00000000000E+00  0.00000000000E+00 -0.61691526427E+03  0.61691526429E+03  0.50400001928E-02 0. -1.
    10030    2    1    2    0    0  0.00000000000E+00  0.00000000000E+00  0.17358501735E+04  0.29696807021E+04  0.24095285114E+04 0.  0.
        1    1    3    3  502    0  0.10325306886E+04  0.10381544688E+03  0.16222147874E+04  0.19257409189E+04  0.50400001928E-02 0. -1.
       -1    1    3    3    0  502 -0.10325306886E+04 -0.10381544688E+03  0.11363538609E+03  0.10439397832E+04  0.50400001928E-02 0.  1.
</event>
<event>
 5   0  0.2090039E-05  0.2378923E+04  0.7818609E-02  0.8447437E-01
        1   -1    0    0  501    0  0.00000000000E+00  0.00000000000E+00  0.97637009725E+03  0.97637009727E+03  0.50400001928E-02 0. -1.
       -1   -1    0    0    0  501  0.00000000000E+00  0.00000000000E+00 -0.14490602803E+04  0.14490602803E+04  0.50400001928E-02 0.  1.
    10030    2    1    2    0    0  0.00000000000E+00  0.00000000000E+00 -0.47269018301E+03  0.24254303775E+04  0.23789233925E+04 0.  0.
        1    1    3    3  502    0 -0.64730623523E+03  0.67025976451E+03 -0.99009888004E+03  0.13596136607E+04  0.50400001928E-02 0.  1.
       -1    1    3    3    0  502  0.64730623523E+03 -0.67025976451E+03  0.51740869703E+03  0.10658167168E+04  0.50400001928E-02 0. -1.
</event>
<event>
 5   0  0.2139556E-05  0.2388322E+04  0.7818609E-02  0.8443888E-01
       -1   -1    0    0    0  501  0.00000000000E+00  0.00000000000E+00  0.59848507254E+03  0.59848507256E+03  0.50400001928E-02 0.  1.
        1   -1    0    0  501    0  0.00000000000E+00  0.00000000000E+00 -0.23827175078E+04  0.23827175078E+04  0.50400001928E-02 0. -1.
    10030    2    1    2    0    0  0.00000000000E+00  0.00000000000E+00 -0.17842324352E+04  0.29812025803E+04  0.23883223070E+04 0.  0.
        2    1    3    3  502    0  0.67340947788E+02  0.10353562045E+04 -0.15414946204E+03  0.10489324717E+04  0.25500000920E-02 0.  1.
       -2    1    3    3    0  502 -0.67340947788E+02 -0.10353562045E+04 -0.16300829732E+04  0.19322701087E+04  0.25500000920E-02 0. -1.
</event>
<event>
 5   0  0.2090039E-05  0.2055481E+04  0.7818609E-02  0.8581112E-01
        1   -1    0    0  501    0  0.00000000000E+00  0.00000000000E+00  0.13884039027E+04  0.13884039027E+04  0.50400001928E-02 0.  1.
       -1   -1    0    0    0  501  0.00000000000E+00  0.00000000000E+00 -0.76076606932E+03  0.76076606934E+03  0.50400001928E-02 0. -1.
    10030    2    1    2    0    0  0.00000000000E+00  0.00000000000E+00  0.62763783340E+03  0.21491699721E+04  0.20554810432E+04 0.  0.
        1    1    3    3  502    0 -0.79771581100E+03 -0.53302946418E+03 -0.71459462706E+02  0.96206932164E+03  0.50400001928E-02 0. -1.
       -1    1    3    3    0  502  0.79771581100E+03  0.53302946418E+03  0.69909729610E+03  0.11871006504E+04  0.50400001928E-02 0.  1.
</event>
<event>
 5   0  0.4756705E-05  0.2400829E+04  0.7818609E-02  0.8439193E-01
        2   -1    0    0  501    0  0.00000000000E+00  0.00000000000E+00  0.15139956834E+04  0.15139956834E+04  0.25500000920E-02 0.  1.
       -2   -1    0    0    0  501  0.00000000000E+00  0.00000000000E+00 -0.95178299780E+03  0.95178299780E+03  0.25500000920E-02 0. -1.
    10030    2    1    2    0    0  0.00000000000E+00  0.00000000000E+00  0.56221268557E+03  0.24657786812E+04  0.24008293152E+04 0.  0.
        3    1    3    3  502    0 -0.31446862042E+03  0.96218304458E+03 -0.38156853607E+03  0.10817953977E+04  0.10100000352E+00 0. -1.
       -3    1    3    3    0  502  0.31446862042E+03 -0.96218304458E+03  0.94378122164E+03  0.13839832835E+04  0.10100000352E+00 0.  1.
</event>
<event>
 5   0  0.2065692E-05  0.2425901E+04  0.7818609E-02  0.8429870E-01
        1   -1    0    0  501    0  0.00000000000E+00  0.00000000000E+00  0.10994165424E+04  0.10994165424E+04  0.50400001928E-02 0. -1.
       -1   -1    0    0    0  501  0.00000000000E+00  0.00000000000E+00 -0.13382088986E+04  0.13382088986E+04  0.50400001928E-02 0.  1.
    10030    2    1    2    0    0  0.00000000000E+00  0.00000000000E+00 -0.23879235619E+03  0.24376254410E+04  0.24259010700E+04 0.  0.
        3    1    3    3  502    0 -0.61194573063E+02  0.75717434006E+03 -0.10695831942E+04  0.13118940416E+04  0.10100000352E+00 0.  1.
       -3    1    3    3    0  502  0.61194573063E+02 -0.75717434006E+03  0.83079083797E+03  0.11257313994E+04  0.10100000352E+00 0. -1.
</event>
<event>
 5   0  0.4664127E-05  0.2424472E+04  0.7818609E-02  0.8430398E-01
        2   -1    0    0  501    0  0.00000000000E+00  0.00000000000E+00  0.19984726557E+04  0.19984726557E+04  0.25500000920E-02 0.  1.
       -2   -1    0    0    0  501  0.00000000000E+00  0.00000000000E+00 -0.73531988427E+03  0.73531988427E+03  0.25500000920E-02 0. -1.
    10030    2    1    2    0    0  0.00000000000E+00  0.00000000000E+00  0.12631527714E+04  0.27337925400E+04  0.24244724638E+04 0.  0.
        4    1    3    3  502    0  0.57035392969E+03 -0.69290570143E+03  0.15504648498E+04  0.17914700052E+04  0.12699999809E+01 0.  1.
       -4    1    3    3    0  502 -0.57035392969E+03  0.69290570143E+03 -0.28731207840E+03  0.94232253474E+03  0.12699999809E+01 0. -1.
</event>
<event>
 5   0  0.4756705E-05  0.2319181E+04  0.7818609E-02  0.8470396E-01
       -2   -1    0    0    0  501  0.00000000000E+00  0.00000000000E+00  0.88404440816E+03  0.88404440816E+03  0.25500000920E-02 0. -1.
        2   -1    0    0  501    0  0.00000000000E+00  0.00000000000E+00 -0.15210210589E+04  0.15210210589E+04  0.25500000920E-02 0.  1.
    10030    2    1    2    0    0  0.00000000000E+00  0.00000000000E+00 -0.63697665072E+03  0.24050654670E+04  0.23191810294E+04 0.  0.
        3    1    3    3  502    0 -0.66693569105E+03 -0.64617821997E+03  0.40170845153E+03  0.10117900959E+04  0.10100000352E+00 0. -1.
       -3    1    3    3    0  502  0.66693569105E+03  0.64617821997E+03 -0.10386851022E+04  0.13932753711E+04  0.10100000352E+00 0.  1.
</event>
<event>
 5   0  0.4914005E-05  0.2378723E+04  0.7818609E-02  0.8447513E-01
       -2   -1    0    0    0  501  0.00000000000E+00  0.00000000000E+00  0.12545494652E+04  0.12545494652E+04  0.25500000920E-02 0. -1.
        2   -1    0    0  501    0  0.00000000000E+00  0.00000000000E+00 -0.11275604609E+04  0.11275604609E+04  0.25500000920E-02 0.  1.
    10030    2    1    2    0    0  0.00000000000E+00  0.00000000000E+00  0.12698900432E+03  0.23821099261E+04  0.23787226599E+04 0.  0.
        2    1    3    3  502    0  0.89896339055E+03 -0.41274719587E+03 -0.59781313378E+03  0.11558010072E+04  0.25500000920E-02 0.  1.
       -2    1    3    3    0  502 -0.89896339055E+03  0.41274719587E+03  0.72480213810E+03  0.12263089189E+04  0.25500000920E-02 0. -1.
</event>
<event>
 5   0  0.2149920E-05  0.2389868E+04  0.7818609E-02  0.8443307E-01
       -1   -1    0    0    0  501  0.00000000000E+00  0.00000000000E+00  0.87475370040E+03  0.87475370041E+03  0.50400001928E-02 0.  1.
        1   -1    0    0  501    0  0.00000000000E+00  0.00000000000E+00 -0.16323075612E+04  0.16323075612E+04  0.50400001928E-02 0. -1.
    10030    2    1    2    0    0  0.00000000000E+00  0.00000000000E+00 -0.75755386076E+03  0.25070612616E+04  0.23898678452E+04 0.  0.
        5    1    3    3  502    0 -0.88176965233E+02  0.10775641685E+04  0.15502271795E+03  0.10922334217E+04  0.46999998093E+01 0.  1.
       -5    1    3    3    0  502  0.88176965233E+02 -0.10775641685E+04 -0.91257657871E+03  0.14148278399E+04  0.46999998093E+01 0. -1.
</event>
<event>
 5   0  0.2090039E-05  0.2423181E+04  0.7818609E-02  0.8430875E-01
        1   -1    0    0  501    0  0.00000000000E+00  0.00000000000E+00  0.20841777136E+04  0.20841777136E+04  0.50400001928E-02 0. -1.
       -1   -1    0    0    0  501  0.00000000000E+00  0.00000000000E+00 -0.70433145382E+03  0.70433145383E+03  0.50400001928E-02 0.  1.
    10030    2    1    2    0    0  0.00000000000E+00  0.00000000000E+00  0.13798462598E+04  0.27885091675E+04  0.24231813131E+04 0.  0.
        1    1    3    3  502    0 -0.10649309298E+03 -0.35276568676E+03  0.20181295779E+04  0.20514949188E+04  0.50400001928E-02 0. -1.
       -1    1    3    3    0  502  0.10649309298E+03  0.35276568676E+03 -0.63828331808E+03  0.73701424869E+03  0.50400001928E-02 0.  1.
</event>
<event>
 5   0  0.4664127E-05  0.2396658E+04  0.7818609E-02  0.8440756E-01
        2   -1    0    0  501    0  0.00000000000E+00  0.00000000000E+00  0.25445051341E+04  0.25445051341E+04  0.25500000920E-02 0.  1.
       -2   -1    0    0    0  501  0.00000000000E+00  0.00000000000E+00 -0.56435019323E+03  0.56435019324E+03  0.25500000920E-02 0. -1.
    10030    2    1    2    0    0  0.00000000000E+00  0.00000000000E+00  0.19801549409E+04  0.31088553274E+04  0.23966576427E+04 0.  0.
        4    1    3    3  502    0  0.67633471720E+03  0.93263509633E+03  0.14178531507E+04  0.18268951920E+04  0.12699999809E+01 0.  1.
       -4    1    3    3    0  502 -0.67633471720E+03 -0.93263509633E+03  0.56230179022E+03  0.12819601354E+04  0.12699999809E+01 0. -1.
</event>
<event>
 5   0  0.4664127E-05  0.2404630E+04  0.7818609E-02  0.8437772E-01
       -2   -1    0    0    0  501  0.00000000000E+00  0.00000000000E+00  0.23859199819E+04  0.23859199819E+04  0.25500000920E-02 0.  1.
        2   -1    0    0  501    0  0.00000000000E+00  0.00000000000E+00 -0.60587179518E+03  0.60587179518E+03  0.25500000920E-02 0. -1.
    10030    2    1    2    0    0  0.00000000000E+00  0.00000000000E+00  0.17800481867E+04  0.29917917771E+04  0.24046302190E+04 0.  0.
        4    1    3    3  502    0 -0.41700754770E+03 -0.15406786345E+03  0.22799056590E+04  0.23228438666E+04  0.12699999809E+01 0.  1.
       -4    1    3    3    0  502  0.41700754770E+03  0.15406786345E+03 -0.49985747235E+03  0.66894791049E+03  0.12699999809E+01 0. -1.
</event>
<event>
 5   0  0.4713971E-05  0.2386252E+04  0.7818609E-02  0.8444668E-01
        2   -1    0    0  501    0  0.00000000000E+00  0.00000000000E+00  0.13111731816E+04  0.13111731816E+04  0.25500000920E-02 0. -1.
       -2   -1    0    0    0  501  0.00000000000E+00  0.00000000000E+00 -0.10857070620E+04  0.10857070620E+04  0.25500000920E-02 0.  1.
    10030    2    1    2    0    0  0.00000000000E+00  0.00000000000E+00  0.22546611956E+03  0.23968802436E+04  0.23862522773E+04 0.  0.
        5    1    3    3  502    0 -0.54963008334E+03  0.98739911326E+03 -0.27169552228E+03  0.11622782731E+04  0.46999998093E+01 0.  1.
       -5    1    3    3    0  502  0.54963008334E+03 -0.98739911326E+03  0.49716164183E+03  0.12346019705E+04  0.46999998093E+01 0. -1.
</event>
<event>
 5   0  0.4756705E-05  0.2403436E+04  0.7818609E-02  0.8438218E-01
        2   -1    0    0  501    0  0.00000000000E+00  0.00000000000E+00  0.23162297117E+04  0.23162297117E+04  0.25500000920E-02 0. -1.
       -2   -1    0    0    0  501  0.00000000000E+00  0.00000000000E+00 -0.62348142179E+03  0.62348142180E+03  0.25500000920E-02 0.  1.
    10030    2    1    2    0    0  0.00000000000E+00  0.00000000000E+00  0.16927482899E+04  0.29397111335E+04  0.24034360352E+04 0.  0.
        3    1    3    3  502    0  0.11947978649E+04 -0.86759770879E+02  0.72997119664E+03  0.14028282696E+04  0.10100000352E+00 0. -1.
       -3    1    3    3    0  502 -0.11947978649E+04  0.86759770879E+02  0.96277709325E+03  0.15368828639E+04  0.10100000352E+00 0.  1.
</event>
<event>
 5   0  0.4664127E-05  0.2468610E+04  0.7818609E-02  0.8414255E-01
        2   -1    0    0  501    0  0.00000000000E+00  0.00000000000E+00  0.13066903214E+04  0.13066903214E+04  0.25500000920E-02 0.  1.
       -2   -1    0    0    0  501  0.00000000000E+00  0.00000000000E+00 -0.11659291552E+04  0.11659291553E+04  0.25500000920E-02 0. -1.
    10030    2    1    2    0    0  0.00000000000E+00  0.00000000000E+00  0.14076116613E+03  0.24726194766E+04  0.24686096027E+04 0.  0.
        4    1    3    3  502    0 -0.69762122011E+03  0.10057659527E+04 -0.88831100236E+02  0.12272461430E+04  0.12699999809E+01 0.  1.
       -4    1    3    3    0  502  0.69762122011E+03 -0.10057659527E+04  0.22959226637E+03  0.12453733336E+04  0.12699999809E+01 0. -1.
</event>
<event>
 5   0  0.2149920E-05  0.2486887E+04  0.7818609E-02  0.8407672E-01
        1   -1    0    0  501    0  0.00000000000E+00  0.00000000000E+00  0.16318889316E+04  0.16318889316E+04  0.50400001928E-02 0. -1.
       -1   -1    0    0    0  501  0.00000000000E+00  0.00000000000E+00 -0.94746120697E+03  0.94746120699E+03  0.50400001928E-02 0.  1.
    10030    2    1    2    0    0  0.00000000000E+00  0.00000000000E+00  0.68442772463E+03  0.25793501386E+04  0.24868867741E+04 0.  0.
        5    1    3    3  502    0  0.78245390453E+02  0.12151825923E+04  0.81185640562E+02  0.12204115175E+04  0.46999998093E+01 0. -1.
       -5    1    3    3    0  502 -0.78245390453E+02 -0.12151825923E+04  0.60324208406E+03  0.13589386211E+04  0.46999998093E+01 0.  1.
</event>
<event>
 5   0  0.2139556E-05  0.2416224E+04  0.7818609E-02  0.8433455E-01
        1   -1    0    0  501    0  0.00000000000E+00  0.00000000000E+00  0.17009761764E+04  0.17009761764E+04  0.50400001928E-02 0.  1.
       -1   -1    0    0    0  501  0.00000000000E+00  0.00000000000E+00 -0.85805671747E+03  0.85805671749E+03  0.50400001928E-02 0. -1.
    10030    2    1    2    0    0  0.00000000000E+00  0.00000000000E+00  0.84291945891E+03  0.25590328939E+04  0.24162235281E+04 0.  0.
        2    1    3    3  502    0 -0.50525730308E+03 -0.55978676645E+03 -0.57819559115E+03  0.95024013167E+03  0.25500000920E-02 0. -1.
       -2    1    3    3    0  502  0.50525730308E+03  0.55978676645E+03  0.14211150501E+04  0.16087927622E+04  0.25500000920E-02 0.  1.
</event>
<event>
 5   0  0.4664127E-05  0.2405405E+04  0.7818609E-02  0.8437483E-01
       -2   -1    0    0    0  501  0.00000000000E+00  0.00000000000E+00  0.11908856060E+04  0.11908856060E+04  0.25500000920E-02 0.  1.
        2   -1    0    0  501    0  0.00000000000E+00  0.00000000000E+00 -0.12146370765E+04  0.12146370765E+04  0.25500000920E-02 0. -1.
    10030    2    1    2    0    0  0.00000000000E+00  0.00000000000E+00 -0.23751470485E+02  0.24055226825E+04  0.24054054219E+04 0.  0.
        4    1    3    3  502    0 -0.43682840160E+03  0.42324006638E+03  0.10257397786E+04  0.11925162106E+04  0.12699999809E+01 0.  1.
       -4    1    3    3    0  502  0.43682840160E+03 -0.42324006638E+03 -0.10494912490E+04  0.12130064719E+04  0.12699999809E+01 0. -1.
</event>
<event>
 5   0  0.4756705E-05  0.2393256E+04  0.7818609E-02  0.8442033E-01
       -2   -1    0    0    0  501  0.00000000000E+00  0.00000000000E+00  0.83260479209E+03  0.83260479209E+03  0.25500000920E-02 0. -1.
        2   -1    0    0  501    0  0.00000000000E+00  0.00000000000E+00 -0.17198057587E+04  0.17198057587E+04  0.25500000920E-02 0.  1.
    10030    2    1    2    0    0  0.00000000000E+00  0.00000000000E+00 -0.88720096663E+03  0.25524105508E+04  0.23932559547E+04 0.  0.
        3    1    3    3  502    0 -0.11418110220E+04  0.23655839839E+03 -0.15697894210E+03  0.11765775300E+04  0.10100000352E+00 0. -1.
       -3    1    3    3    0  502  0.11418110220E+04 -0.23655839839E+03 -0.73022202453E+03  0.13758330208E+04  0.10100000352E+00 0.  1.
</event>
<event>
 5   0  0.1672125E-05  0.2377984E+04  0.7818609E-02  0.8447792E-01
       -3   -1    0    0    0  501  0.00000000000E+00  0.00000000000E+00  0.61464762518E+03  0.61464763347E+03  0.10100000352E+00 0.  1.
        3   -1    0    0  501    0  0.00000000000E+00  0.00000000000E+00 -0.23000199925E+04  0.23000199947E+04  0.10100000352E+00 0. -1.
    10030    2    1    2    0    0  0.00000000000E+00  0.00000000000E+00 -0.16853723673E+04  0.29146676282E+04  0.23779838869E+04 0.  0.
        4    1    3    3  502    0 -0.31132475258E+02  0.45351905920E+03 -0.21892998662E+04  0.22359973804E+04  0.12699999809E+01 0. -1.
       -4    1    3    3    0  502  0.31132475258E+02 -0.45351905920E+03  0.50392749894E+03  0.67867024774E+03  0.12699999809E+01 0.  1.
</event>
<event>
 5   0  0.4914005E-05  0.2355574E+04  0.7818609E-02  0.8456326E-01
        2   -1    0    0  501    0  0.00000000000E+00  0.00000000000E+00  0.10580181337E+04  0.10580181337E+04  0.25500000920E-02 0. -1.
       -2   -1    0    0    0  501  0.00000000000E+00  0.00000000000E+00 -0.13111140784E+04  0.13111140785E+04  0.25500000920E-02 0.  1.
    10030    2    1    2    0    0  0.00000000000E+00  0.00000000000E+00 -0.25309594477E+03  0.23691322121E+04  0.23555742148E+04 0.  0.
        2    1    3    3  502    0 -0.93406202875E+03  0.71724381086E+03 -0.10996329053E+03  0.11827943537E+04  0.25500000920E-02 0. -1.
       -2    1    3    3    0  502  0.93406202875E+03 -0.71724381086E+03 -0.14313265424E+03  0.11863378585E+04  0.25500000920E-02 0.  1.
</event>
<event>
 5   0  0.4664127E-05  0.2312810E+04  0.7818609E-02  0.8472887E-01
        2   -1    0    0  501    0  0.00000000000E+00  0.00000000000E+00  0.21182372025E+04  0.21182372025E+04  0.25500000920E-02 0. -1.
       -2   -1    0    0    0  501  0.00000000000E+00  0.00000000000E+00 -0.63131396010E+03  0.63131396011E+03  0.25500000920E-02 0.  1.
    10030    2    1    2    0    0  0.00000000000E+00  0.00000000000E+00  0.14869232424E+04  0.27495511626E+04  0.23128101667E+04 0.  0.
        4    1    3    3  502    0  0.51188376587E+03 -0.95355301837E+03  0.25911831471E+03  0.11128487150E+04  0.12699999809E+01 0.  1.
       -4    1    3    3    0  502 -0.51188376587E+03  0.95355301837E+03  0.12278049277E+04  0.16367024476E+04  0.12699999809E+01 0. -1.
</event>
<event>
 5   0  0.2090039E-05  0.2434433E+04  0.7818609E-02  0.8426724E-01
       -1   -1    0    0    0  501  0.00000000000E+00  0.00000000000E+00  0.13217953882E+04  0.13217953882E+04  0.50400001928E-02 0. -1.
        1   -1    0    0  501    0  0.00000000000E+00  0.00000000000E+00 -0.11209117011E+04  0.11209117011E+04  0.50400001928E-02 0.  1.
    10030    2    1    2    0    0  0.00000000000E+00  0.00000000000E+00  0.20088368706E+03  0.24427070894E+04  0.24344329255E+04 0.  0.
        1    1    3    3  502    0 -0.11103481373E+04  0.22245646099E+03 -0.34745638270E+03  0.11845192277E+04  0.50400001928E-02 0.  1.
       -1    1    3    3    0  502  0.11103481373E+04 -0.22245646099E+03  0.54834006976E+03  0.12581878616E+04  0.50400001928E-02 0. -1.
</event>
<event>
 5   0  0.4914005E-05  0.2456246E+04  0.7818609E-02  0.8418741E-01
       -2   -1    0    0    0  501  0.00000000000E+00  0.00000000000E+00  0.14605281348E+04  0.14605281348E+04  0.25500000920E-02 0.  1.
        2   -1    0    0  501    0  0.00000000000E+00  0.00000000000E+00 -0.10326989363E+04  0.10326989364E+04  0.25500000920E-02 0. -1.
    10030    2    1    2    0    0  0.00000000000E+00  0.00000000000E+00  0.42782919843E+03  0.24932270711E+04  0.24562457949E+04 0.  0.
        2    1    3    3  502    0  0.48459548523E+03  0.42631930462E+03  0.12744926693E+04  0.14286050881E+04  0.25500000920E-02 0.  1.
       -2    1    3    3    0  502 -0.48459548523E+03 -0.42631930462E+03 -0.84666347085E+03  0.10646219830E+04  0.25500000920E-02 0. -1.
</event>
<event>
 5   0  0.2149920E-05  0.2413086E+04  0.7818609E-02  0.8434621E-01
        1   -1    0    0  501    0  0.00000000000E+00  0.00000000000E+00  0.16993784870E+04  0.16993784871E+04  0.50400001928E-02 0.  1.
       -1   -1    0    0    0  501  0.00000000000E+00  0.00000000000E+00 -0.85663406967E+03  0.85663406969E+03  0.50400001928E-02 0. -1.
    10030    2    1    2    0    0  0.00000000000E+00  0.00000000000E+00  0.84274441737E+03  0.25560125567E+04  0.24130855843E+04 0.  0.
        5    1    3    3  502    0 -0.93032691808E+03 -0.37895048203E+03 -0.28650078439E+03  0.10446130536E+04  0.46999998093E+01 0.  1.
       -5    1    3    3    0  502  0.93032691808E+03  0.37895048203E+03  0.11292452018E+04  0.15113995031E+04  0.46999998093E+01 0. -1.
</event>
<event>
 5   0  0.2065692E-05  0.2340613E+04  0.7818609E-02  0.8462078E-01
       -1   -1    0    0    0  501  0.00000000000E+00  0.00000000000E+00  0.85385651317E+03  0.85385651318E+03  0.50400001928E-02 0.  1.
        1   -1    0    0  501    0  0.00000000000E+00  0.00000000000E+00 -0.16040373872E+04  0.16040373872E+04  0.50400001928E-02 0. -1.
    10030    2    1    2    0    0  0.00000000000E+00  0.00000000000E+00 -0.75018087400E+03  0.24578939004E+04  0.23406133986E+04 0.  0.
        3    1    3    3  502    0 -0.52225405186E+03  0.10015048052E+04 -0.69680137898E+03  0.13271372730E+04  0.10100000352E+00 0.  1.
       -3    1    3    3    0  502  0.52225405186E+03 -0.10015048052E+04 -0.53379495021E+02  0.11307566273E+04  0.10100000352E+00 0. -1.
</event>
<event>
 5   0  0.4713971E-05  0.2393497E+04  0.7818609E-02  0.8441942E-01
       -2   -1    0    0    0  501  0.00000000000E+00  0.00000000000E+00  0.17299067215E+04  0.17299067215E+04  0.25500000920E-02 0.  1.
        2   -1    0    0  501    0  0.00000000000E+00  0.00000000000E+00 -0.82790997503E+03  0.82790997503E+03  0.25500000920E-02 0. -1.
    10030    2    1    2    0    0  0.00000000000E+00  0.00000000000E+00  0.90199674645E+03  0.25578166965E+04  0.23934970487E+04 0.  0.
        5    1    3    3  502    0  0.84769582465E+03 -0.63774387683E+03 -0.14099990597E+03  0.10701441618E+04  0.46999998093E+01 0. -1.
       -5    1    3    3    0  502 -0.84769582465E+03  0.63774387683E+03  0.10429966524E+04  0.14876725347E+04  0.46999998093E+01 0.  1.
</event>
<event>
 5   0  0.2149920E-05  0.2424675E+04  0.7818609E-02  0.8430323E-01
       -1   -1    0    0    0  501  0.00000000000E+00  0.00000000000E+00  0.20095650144E+04  0.20095650144E+04  0.50400001928E-02 0.  1.
        1   -1    0    0  501    0  0.00000000000E+00  0.00000000000E+00 -0.73138309780E+03  0.73138309781E+03  0.50400001928E-02 0. -1.
    10030    2    1    2    0    0  0.00000000000E+00  0.00000000000E+00  0.12781819166E+04  0.27409481122E+04  0.24246747291E+04 0.  0.
        5    1    3    3  502    0 -0.24664107208E+03  0.40153044742E+03  0.19017879827E+04  0.19593055249E+04  0.46999998093E+01 0.  1.
       -5    1    3    3    0  502  0.24664107208E+03 -0.40153044742E+03 -0.62360606612E+03  0.78164258733E+03  0.46999998093E+01 0. -1.
</event>
<event>
 5   0  0.4756705E-05  0.2424507E+04  0.7818609E-02  0.8430385E-01
        2   -1    0    0  501    0  0.00000000000E+00  0.00000000000E+00  0.95227276974E+03  0.95227276974E+03  0.25500000920E-02 0.  1.
       -2   -1    0    0    0  501  0.00000000000E+00  0.00000000000E+00 -0.15432122999E+04  0.15432122999E+04  0.25500000920E-02 0. -1.
    10030    2    1    2    0    0  0.00000000000E+00  0.00000000000E+00 -0.59093953020E+03  0.24954850697E+04  0.24245074148E+04 0.  0.
        3    1    3    3  502    0 -0.11683371956E+04  0.17739558919E+03 -0.17226337818E+02  0.11818535250E+04  0.10100000352E+00 0.  1.
       -3    1    3    3    0  502  0.11683371956E+04 -0.17739558919E+03 -0.57371319238E+03  0.13136315446E+04  0.10100000352E+00 0. -1.
</event>
<event>
 5   0  0.2090039E-05  0.2390619E+04  0.7818609E-02  0.8443024E-01
        1   -1    0    0  501    0  0.00000000000E+00  0.00000000000E+00  0.12212650793E+04  0.12212650793E+04  0.50400001928E-02 0.  1.
       -1   -1    0    0    0  501  0.00000000000E+00  0.00000000000E+00 -0.11699053319E+04  0.11699053319E+04  0.50400001928E-02 0. -1.
    10030    2    1    2    0    0  0.00000000000E+00  0.00000000000E+00  0.51359747413E+02  0.23911704113E+04  0.23906187718E+04 0.  0.
        1    1    3    3  502    0  0.10137422160E+04  0.60892864732E+02 -0.60484904834E+03  0.11820421281E+04  0.50400001928E-02 0. -1.
       -1    1    3    3    0  502 -0.10137422160E+04 -0.60892864732E+02  0.65620879575E+03  0.12091282831E+04  0.50400001928E-02 0.  1.
</event>
<event>
 5   0  0.2149920E-05  0.2432874E+04  0.7818609E-02  0.8427298E-01
       -1   -1    0    0    0  501  0.00000000000E+00  0.00000000000E+00  0.11437346437E+04  0.11437346437E+04  0.50400001928E-02 0. -1.
        1   -1    0    0  501    0  0.00000000000E+00  0.00000000000E+00 -0.12937605573E+04  0.12937605573E+04  0.50400001928E-02 0.  1.
    10030    2    1    2    0    0  0.00000000000E+00  0.00000000000E+00 -0.15002591359E+03  0.24374952011E+04  0.24328738316E+04 0.  0.
        5    1    3    3  502    0  0.72196773280E+03 -0.12831000591E+03  0.89739536984E+03  0.11588966324E+04  0.46999998093E+01 0. -1.
       -5    1    3    3    0  502 -0.72196773280E+03  0.12831000591E+03 -0.10474212834E+04  0.12785985687E+04  0.46999998093E+01 0.  1.
</event>
<event>
 5   0  0.4756705E-05  0.2359454E+04  0.7818609E-02  0.8454841E-01
       -2   -1    0    0    0  501  0.00000000000E+00  0.00000000000E+00  0.93440063619E+03  0.93440063620E+03  0.25500000920E-02 0.  1.
        2   -1    0    0  501    0  0.00000000000E+00  0.00000000000E+00 -0.14894634735E+04  0.14894634735E+04  0.25500000920E-02 0. -1.
    10030    2    1    2    0    0  0.00000000000E+00  0.00000000000E+00 -0.55506283728E+03  0.24238641097E+04  0.23594538497E+04 0.  0.
        3    1    3    3  502    0 -0.85401977964E+03 -0.29446334436E+03 -0.10569914044E+04  0.13904277343E+04  0.10100000352E+00 0. -1.
       -3    1    3    3    0  502  0.85401977964E+03  0.29446334436E+03  0.50192856712E+03  0.10334363753E+04  0.10100000352E+00 0.  1.
</event>
<event>
 5   0  0.4713971E-05  0.2375284E+04  0.7818609E-02  0.8448815E-01
       -2   -1    0    0    0  501  0.00000000000E+00  0.00000000000E+00  0.12091268009E+04  0.12091268009E+04  0.25500000920E-02 0.  1.
        2   -1    0    0  501    0  0.00000000000E+00  0.00000000000E+00 -0.11665386045E+04  0.11665386045E+04  0.25500000920E-02 0. -1.
    10030    2    1    2    0    0  0.00000000000E+00  0.00000000000E+00  0.42588196350E+02  0.23756654054E+04  0.23752836386E+04 0.  0.
        5    1    3    3  502    0 -0.31561613339E+03 -0.46047532977E+03  0.10697086972E+04  0.12066274735E+04  0.46999998093E+01 0.  1.
       -5    1    3    3    0  502  0.31561613339E+03  0.46047532977E+03 -0.10271205008E+04  0.11690379319E+04  0.46999998093E+01 0. -1.
</event>
<event>
 5   0  0.4713971E-05  0.2316748E+04  0.7818609E-02  0.8471347E-01
        2   -1    0    0  501    0  0.00000000000E+00  0.00000000000E+00  0.18935262885E+04  0.18935262885E+04  0.25500000920E-02 0. -1.
       -2   -1    0    0    0  501  0.00000000000E+00  0.00000000000E+00 -0.70864090461E+03  0.70864090461E+03  0.25500000920E-02 0.  1.
    10030    2    1    2    0    0  0.00000000000E+00  0.00000000000E+00  0.11848853839E+04  0.26021671931E+04  0.23167478775E+04 0.  0.
        5    1    3    3  502    0 -0.23189928101E+03  0.74747079551E+03  0.15516554724E+04  0.17378569164E+04  0.46999998093E+01 0. -1.
       -5    1    3    3    0  502  0.23189928101E+03 -0.74747079551E+03 -0.36677008852E+03  0.86431027676E+03  0.46999998093E+01 0.  1.
</event>
<event>
 5   0  0.2057599E-05  0.2392093E+04  0.7818609E-02  0.8442470E-01
        1   -1    0    0  501    0  0.00000000000E+00  0.00000000000E+00  0.25390738994E+04  0.25390738994E+04  0.50400001928E-02 0. -1.
       -1   -1    0    0    0  501  0.00000000000E+00  0.00000000000E+00 -0.56340498303E+03  0.56340498305E+03  0.50400001928E-02 0.  1.
    10030    2    1    2    0    0  0.00000000000E+00  0.00000000000E+00  0.19756689164E+04  0.31024788825E+04  0.23920927133E+04 0.  0.
        4    1    3    3  502    0 -0.52443902564E+03  0.10493222135E+04  0.12903708841E+04  0.17438956479E+04  0.12699999809E+01 0. -1.
       -4    1    3    3    0  502  0.52443902564E+03 -0.10493222135E+04  0.68529803229E+03  0.13585832346E+04  0.12699999809E+01 0.  1.
</event>
<event>
 5   0  0.2149920E-05  0.2386906E+04  0.7818609E-02  0.8444422E-01
       -1   -1    0    0    0  501  0.00000000000E+00  0.00000000000E+00  0.85620034364E+03  0.85620034366E+03  0.50400001928E-02 0.  1.
        1   -1    0    0  501    0  0.00000000000E+00  0.00000000000E+00 -0.16635471084E+04  0.16635471084E+04  0.50400001928E-02 0. -1.
    10030    2    1    2    0    0  0.00000000000E+00  0.00000000000E+00 -0.80734676471E+03  0.25197474520E+04  0.23869056168E+04 0.  0.
        5    1    3    3  502    0 -0.31692209542E+03 -0.96291107415E+03  0.26119631014E+03  0.10468442834E+04  0.46999998093E+01 0.  1.
       -5    1    3    3    0  502  0.31692209542E+03  0.96291107415E+03 -0.10685430749E+04  0.14729031686E+04  0.46999998093E+01 0. -1.
</event>
<event>
 5   0  0.2057599E-05  0.2424790E+04  0.7818609E-02  0.8430280E-01
        1   -1    0    0  501    0  0.00000000000E+00  0.00000000000E+00  0.18673002509E+04  0.18673002509E+04  0.50400001928E-02 0. -1.
       -1   -1    0    0    0  501  0.00000000000E+00  0.00000000000E+00 -0.78718016070E+03  0.78718016072E+03  0.50400001928E-02 0.  1.
    10030    2    1    2    0    0  0.00000000000E+00  0.00000000000E+00  0.10801200902E+04  0.26544804117E+04  0.24247900624E+04 0.  0.
        4    1    3    3  502    0  0.40633276799E+03  0.45279102891E+03  0.16881003048E+04  0.17943829820E+04  0.12699999809E+01 0. -1.
       -4    1    3    3    0  502 -0.40633276799E+03 -0.45279102891E+03 -0.60798021459E+03  0.86009742962E+03  0.12699999809E+01 0.  1.
</event>
<event>
 5   0  0.2065692E-05  0.2413370E+04  0.7818609E-02  0.8434515E-01
        1   -1    0    0  501    0  0.00000000000E+00  0.00000000000E+00  0.21239535502E+04  0.21239535502E+04  0.50400001928E-02 0. -1.
       -1   -1    0    0    0  501  0.00000000000E+00  0.00000000000E+00 -0.68555588486E+03  0.68555588488E+03  0.50400001928E-02 0.  1.
    10030    2    1    2    0    0  0.00000000000E+00  0.00000000000E+00  0.14383976654E+04  0.28095094351E+04  0.24133701378E+04 0.  0.
        3    1    3    3  502    0 -0.11866385833E+04 -0.20625434225E+03  0.80503707320E+03  0.14487017224E+04  0.10100000352E+00 0.  1.
       -3    1    3    3    0  502  0.11866385833E+04  0.20625434225E+03  0.63336059216E+03  0.13608077127E+04  0.10100000352E+00 0. -1.
</event>
<event>
 5   0  0.2057599E-05  0.2381236E+04  0.7818609E-02  0.8446562E-01
       -1   -1    0    0    0  501  0.00000000000E+00  0.00000000000E+00  0.58986102870E+03  0.58986102872E+03  0.50400001928E-02 0. -1.
        1   -1    0    0  501    0  0.00000000000E+00  0.00000000000E+00 -0.24032296003E+04  0.24032296003E+04  0.50400001928E-02 0.  1.
    10030    2    1    2    0    0  0.00000000000E+00  0.00000000000E+00 -0.18133685716E+04  0.29930906290E+04  0.23812362204E+04 0.  0.
        4    1    3    3  502    0  0.96075261983E+03  0.47544540119E+03 -0.25540078301E+03  0.11019642004E+04  0.12699999809E+01 0.  1.
       -4    1    3    3    0  502 -0.96075261983E+03 -0.47544540119E+03 -0.15579677886E+04  0.18911264287E+04  0.12699999809E+01 0. -1.
</event>
<event>
 5   0  0.4756705E-05  0.2447189E+04  0.7818609E-02  0.8422045E-01
       -2   -1    0    0    0  501  0.00000000000E+00  0.00000000000E+00  0.12751705132E+04  0.12751705132E+04  0.25500000920E-02 0.  1.
        2   -1    0    0  501    0  0.00000000000E+00  0.00000000000E+00 -0.11741049568E+04  0.11741049568E+04  0.25500000920E-02 0. -1.
    10030    2    1    2    0    0  0.00000000000E+00  0.00000000000E+00  0.10106555635E+03  0.24492754700E+04  0.24471894249E+04 0.  0.
        3    1    3    3  502    0 -0.78461417849E+03  0.88819767168E+03  0.35520892095E+03  0.12372097238E+04  0.10100000352E+00 0.  1.
       -3    1    3    3    0  502  0.78461417849E+03 -0.88819767168E+03 -0.25414336460E+03  0.12120657462E+04  0.10100000352E+00 0. -1.
</event>
<event>
 5   0  0.4713971E-05  0.2437811E+04  0.7818609E-02  0.8425482E-01
       -2   -1    0    0    0  501  0.00000000000E+00  0.00000000000E+00  0.62723073582E+03  0.62723073582E+03  0.25500000920E-02 0.  1.
        2   -1    0    0  501    0  0.00000000000E+00  0.00000000000E+00 -0.23687152160E+04  0.23687152160E+04  0.25500000920E-02 0. -1.
    10030    2    1    2    0    0  0.00000000000E+00  0.00000000000E+00 -0.17414844802E+04  0.29959459518E+04  0.24378113035E+04 0.  0.
        5    1    3    3  502    0  0.88401602243E+03 -0.55098964088E+03 -0.92869909599E+02  0.10458110835E+04  0.46999998093E+01 0.  1.
       -5    1    3    3    0  502 -0.88401602243E+03  0.55098964088E+03 -0.16486145706E+04  0.19501348683E+04  0.46999998093E+01 0. -1.
</event>
<event>
 5   0  0.4713971E-05  0.2407197E+04  0.7818609E-02  0.8436814E-01
        2   -1    0    0  501    0  0.00000000000E+00  0.00000000000E+00  0.12094590951E+04  0.12094590951E+04  0.25500000920E-02 0. -1.
       -2   -1    0    0    0  501  0.00000000000E+00  0.00000000000E+00 -0.11977665705E+04  0.11977665705E+04  0.25500000920E-02 0.  1.
    10030    2    1    2    0    0  0.00000000000E+00  0.00000000000E+00  0.11692524596E+02  0.24072256657E+04  0.24071972687E+04 0.  0.
        5    1    3    3  502    0  0.37038903389E+03 -0.38328454363E+03 -0.10733015405E+04  0.11983711297E+04  0.46999998093E+01 0.  1.
       -5    1    3    3    0  502 -0.37038903389E+03  0.38328454363E+03  0.10849940651E+04  0.12088545359E+04  0.46999998093E+01 0. -1.
</event>
<event>
 5   0  0.2090039E-05  0.2219831E+04  0.7818609E-02  0.8510219E-01
       -1   -1    0    0    0  501  0.00000000000E+00  0.00000000000E+00  0.60156027001E+03  0.60156027003E+03  0.50400001928E-02 0.  1.
        1   -1    0    0  501    0  0.00000000000E+00  0.00000000000E+00 -0.20478614803E+04  0.20478614803E+04  0.50400001928E-02 0. -1.
    10030    2    1    2    0    0  0.00000000000E+00  0.00000000000E+00 -0.14463012103E+04  0.26494217503E+04  0.22198307188E+04 0.  0.
        1    1    3    3  502    0 -0.33590844581E+03  0.83593401383E+03  0.50610284089E+02  0.90232009860E+03  0.50400001928E-02 0.  1.
       -1    1    3    3    0  502  0.33590844581E+03 -0.83593401383E+03 -0.14969114944E+04  0.17471016517E+04  0.50400001928E-02 0. -1.
</event>
<event>
 5   0  0.4856882E-05  0.2343717E+04  0.7818609E-02  0.8460881E-01
       -2   -1    0    0    0  501  0.00000000000E+00  0.00000000000E+00  0.12159223034E+04  0.12159223034E+04  0.25500000920E-02 0.  1.
        2   -1    0    0  501    0  0.00000000000E+00  0.00000000000E+00 -0.11293915374E+04  0.11293915374E+04  0.25500000920E-02 0. -1.
    10030    2    1    2    0    0  0.00000000000E+00  0.00000000000E+00  0.86530766023E+02  0.23453138408E+04  0.23437170133E+04 0.  0.
        1    1    3    3  502    0  0.96064668785E+03 -0.48949944090E+03  0.50270846147E+03  0.11896081535E+04  0.50400001928E-02 0.  1.
       -1    1    3    3    0  502 -0.96064668785E+03  0.48949944090E+03 -0.41617769545E+03  0.11557056873E+04  0.50400001928E-02 0. -1.
</event>
<event>
 5   0  0.4856882E-05  0.2445880E+04  0.7818609E-02  0.8422524E-01
       -2   -1    0    0    0  501  0.00000000000E+00  0.00000000000E+00  0.11709996619E+04  0.11709996619E+04  0.25500000920E-02 0. -1.
        2   -1    0    0  501    0  0.00000000000E+00  0.00000000000E+00 -0.12771843921E+04  0.12771843921E+04  0.25500000920E-02 0.  1.
    10030    2    1    2    0    0  0.00000000000E+00  0.00000000000E+00 -0.10618473022E+03  0.24481840540E+04  0.24458802026E+04 0.  0.
        1    1    3    3  502    0 -0.87608893756E+03 -0.85228623134E+03 -0.12325084245E+02  0.12223238337E+04  0.50400001928E-02 0.  1.
       -1    1    3    3    0  502  0.87608893756E+03  0.85228623134E+03 -0.93859645971E+02  0.12258602203E+04  0.50400001928E-02 0. -1.
</event>
<event>
 5   0  0.2065692E-05  0.2343285E+04  0.7818609E-02  0.8461047E-01
        1   -1    0    0  501    0  0.00000000000E+00  0.00000000000E+00  0.11622902538E+04  0.11622902539E+04  0.50400001928E-02 0.  1.
       -1   -1    0    0    0  501  0.00000000000E+00  0.00000000000E+00 -0.11810700709E+04  0.11810700710E+04  0.50400001928E-02 0. -1.
    10030    2    1    2    0    0  0.00000000000E+00  0.00000000000E+00 -0.18779817099E+02  0.23433603248E+04  0.23432850724E+04 0.  0.
        3    1    3    3  502    0 -0.87338677900E+03  0.59572629531E+03  0.49565298024E+03  0.11676327212E+04  0.10100000352E+00 0.  1.
       -3    1    3    3    0  502  0.87338677900E+03 -0.59572629531E+03 -0.51443279734E+03  0.11757276036E+04  0.10100000352E+00 0. -1.
</event>
<event>
 5   0  0.4664127E-05  0.2399516E+04  0.7818609E-02  0.8439685E-01
       -2   -1    0    0    0  501  0.00000000000E+00  0.00000000000E+00  0.52944908688E+03  0.52944908689E+03  0.25500000920E-02 0.  1.
        2   -1    0    0  501    0  0.00000000000E+00  0.00000000000E+00 -0.27187122901E+04  0.27187122901E+04  0.25500000920E-02 0. -1.
    10030    2    1    2    0    0  0.00000000000E+00  0.00000000000E+00 -0.21892632032E+04  0.32481613770E+04  0.23995164009E+04 0.  0.
        4    1    3    3  502    0 -0.39276612924E+03  0.82569209803E+03 -0.21461364833E+04  0.23327957670E+04  0.12699999809E+01 0. -1.
       -4    1    3    3    0  502  0.39276612924E+03 -0.82569209803E+03 -0.43126719962E+02  0.91536560996E+03  0.12699999809E+01 0.  1.
</event>
<event>
 5   0  0.2139556E-05  0.2359528E+04  0.7818609E-02  0.8454813E-01
       -1   -1    0    0    0  501  0.00000000000E+00  0.00000000000E+00  0.80658426530E+03  0.80658426531E+03  0.50400001928E-02 0. -1.
        1   -1    0    0  501    0  0.00000000000E+00  0.00000000000E+00 -0.17256010146E+04  0.17256010146E+04  0.50400001928E-02 0.  1.
    10030    2    1    2    0    0  0.00000000000E+00  0.00000000000E+00 -0.91901674930E+03  0.25321852799E+04  0.23595276024E+04 0.  0.
        2    1    3    3  502    0 -0.37672579660E+03 -0.35464324842E+03 -0.15973511437E+04  0.16790547447E+04  0.25500000920E-02 0.  1.
       -2    1    3    3    0  502  0.37672579660E+03  0.35464324842E+03  0.67833439439E+03  0.85313053520E+03  0.25500000920E-02 0. -1.
</event>
<event>
 5   0  0.4914005E-05  0.2194627E+04  0.7818609E-02  0.8520668E-01
       -2   -1    0    0    0  501  0.00000000000E+00  0.00000000000E+00  0.91659291219E+03  0.91659291219E+03  0.25500000920E-02 0.  1.
        2   -1    0    0  501    0  0.00000000000E+00  0.00000000000E+00 -0.13136660710E+04  0.13136660710E+04  0.25500000920E-02 0. -1.
    10030    2    1    2    0    0  0.00000000000E+00  0.00000000000E+00 -0.39707315882E+03  0.22302589832E+04  0.21946270842E+04 0.  0.
        2    1    3    3  502    0  0.56405757023E+03  0.68729149575E+03 -0.85206912734E+03  0.12314837963E+04  0.25500000920E-02 0. -1.
       -2    1    3    3    0  502 -0.56405757023E+03 -0.68729149575E+03  0.45499596852E+03  0.99877518694E+03  0.25500000920E-02 0.  1.
</event>
<event>
 5   0  0.2090039E-05  0.2376534E+04  0.7818609E-02  0.8448341E-01
        1   -1    0    0  501    0  0.00000000000E+00  0.00000000000E+00  0.17444188431E+04  0.17444188431E+04  0.50400001928E-02 0.  1.
       -1   -1    0    0    0  501  0.00000000000E+00  0.00000000000E+00 -0.80942637065E+03  0.80942637066E+03  0.50400001928E-02 0. -1.
    10030    2    1    2    0    0  0.00000000000E+00  0.00000000000E+00  0.93499247242E+03  0.25538452137E+04  0.23765341260E+04 0.  0.
        1    1    3    3  502    0 -0.30191397796E+03  0.38047537308E+03  0.16328725562E+04  0.17035804485E+04  0.50400001928E-02 0.  1.
       -1    1    3    3    0  502  0.30191397796E+03 -0.38047537308E+03 -0.69788008380E+03  0.85026476524E+03  0.50400001928E-02 0. -1.
</event>
<event>
 5   0  0.4914005E-05  0.2329785E+04  0.7818609E-02  0.8466269E-01
       -2   -1    0    0    0  501  0.00000000000E+00  0.00000000000E+00  0.42082722920E+03  0.42082722921E+03  0.25500000920E-02 0.  1.
        2   -1    0    0  501    0  0.00000000000E+00  0.00000000000E+00 -0.32245404924E+04  0.32245404924E+04  0.25500000920E-02 0. -1.
    10030    2    1    2    0    0  0.00000000000E+00  0.00000000000E+00 -0.28037132632E+04  0.36453677216E+04  0.23297849179E+04 0.  0.
        2    1    3    3  502    0 -0.54765116755E+02 -0.79621879731E+03 -0.27295415886E+04  0.28438285594E+04  0.25500000920E-02 0. -1.
       -2    1    3    3    0  502  0.54765116755E+02  0.79621879731E+03 -0.74171674553E+02  0.80153916219E+03  0.25500000920E-02 0.  1.
</event>
<event>
 5   0  0.4713971E-05  0.2425267E+04  0.7818609E-02  0.8430104E-01
        2   -1    0    0  501    0  0.00000000000E+00  0.00000000000E+00  0.18517425648E+04  0.18517425648E+04  0.25500000920E-02 0. -1.
       -2   -1    0    0    0  501  0.00000000000E+00  0.00000000000E+00 -0.79410625033E+03  0.79410625033E+03  0.25500000920E-02 0.  1.
    10030    2    1    2    0    0  0.00000000000E+00  0.00000000000E+00  0.10576363145E+04  0.26458488152E+04  0.24252672799E+04 0.  0.
        5    1    3    3  502    0 -0.10574474641E+04  0.12526972603E+03  0.11617304239E+04  0.15759210993E+04  0.46999998093E+01 0. -1.
       -5    1    3    3    0  502  0.10574474641E+04 -0.12526972603E+03 -0.10409410934E+03  0.10699277159E+04  0.46999998093E+01 0.  1.
</event>
<event>
 5   0  0.4713971E-05  0.2418547E+04  0.7818609E-02  0.8432592E-01
       -2   -1    0    0    0  501  0.00000000000E+00  0.00000000000E+00  0.65062227488E+03  0.65062227488E+03  0.25500000920E-02 0.  1.
        2   -1    0    0  501    0  0.00000000000E+00  0.00000000000E+00 -0.22476064512E+04  0.22476064512E+04  0.25500000920E-02 0. -1.
    10030    2    1    2    0    0  0.00000000000E+00  0.00000000000E+00 -0.15969841763E+04  0.28982287260E+04  0.24185473510E+04 0.  0.
        5    1    3    3  502    0 -0.53641200724E+03  0.47899140564E+03 -0.19634988873E+04  0.20910572873E+04  0.46999998093E+01 0. -1.
       -5    1    3    3    0  502  0.53641200724E+03 -0.47899140564E+03  0.36651471102E+03  0.80717143878E+03  0.46999998093E+01 0.  1.
</event>
<event>
 5   0  0.4713971E-05  0.2190614E+04  0.7818609E-02  0.8522345E-01
       -2   -1    0    0    0  501  0.00000000000E+00  0.00000000000E+00  0.52366746068E+03  0.52366746069E+03  0.25500000920E-02 0. -1.
        2   -1    0    0  501    0  0.00000000000E+00  0.00000000000E+00 -0.22909523172E+04  0.22909523172E+04  0.25500000920E-02 0.  1.
    10030    2    1    2    0    0  0.00000000000E+00  0.00000000000E+00 -0.17672848565E+04  0.28146197779E+04  0.21906137793E+04 0.  0.
        5    1    3    3  502    0 -0.36752522567E+03 -0.10177117327E+04 -0.11019283032E+04  0.15443704341E+04  0.46999998093E+01 0. -1.
       -5    1    3    3    0  502  0.36752522567E+03  0.10177117327E+04 -0.66535655331E+03  0.12702493438E+04  0.46999998093E+01 0.  1.
</event>
<event>
 5   0  0.2090039E-05  0.2397116E+04  0.7818609E-02  0.8440584E-01
        1   -1    0    0  501    0  0.00000000000E+00  0.00000000000E+00  0.81164578776E+03  0.81164578777E+03  0.50400001928E-02 0.  1.
       -1   -1    0    0    0  501  0.00000000000E+00  0.00000000000E+00 -0.17699118306E+04  0.17699118306E+04  0.50400001928E-02 0. -1.
    10030    2    1    2    0    0  0.00000000000E+00  0.00000000000E+00 -0.95826604283E+03  0.25815576184E+04  0.23971161691E+04 0.  0.
        1    1    3    3  502    0 -0.50313663902E+03  0.57887747511E+03 -0.14710296598E+04  0.16589677118E+04  0.50400001928E-02 0. -1.
       -1    1    3    3    0  502  0.50313663902E+03 -0.57887747511E+03  0.51276361701E+03  0.92258990655E+03  0.50400001928E-02 0.  1.
</event>
<event>
 5   0  0.2065692E-05  0.2076843E+04  0.7818609E-02  0.8571513E-01
        1   -1    0    0  501    0  0.00000000000E+00  0.00000000000E+00  0.16198973186E+04  0.16198973187E+04  0.50400001928E-02 0.  1.
       -1   -1    0    0    0  501  0.00000000000E+00  0.00000000000E+00 -0.66567132957E+03  0.66567132959E+03  0.50400001928E-02 0. -1.
    10030    2    1    2    0    0  0.00000000000E+00  0.00000000000E+00  0.95422598908E+03  0.22855686482E+04  0.20768429906E+04 0.  0.
        3    1    3    3  502    0 -0.13348613069E+03  0.90690884129E+03  0.10140144631E+04  0.13669409406E+04  0.10100000352E+00 0.  1.
       -3    1    3    3    0  502  0.13348613069E+03 -0.90690884129E+03 -0.59788473988E+02  0.91862770768E+03  0.10100000352E+00 0. -1.
</event>
<event>
 5   0  0.2065692E-05  0.1840453E+04  0.7818609E-02  0.8685078E-01
       -1   -1    0    0    0  501  0.00000000000E+00  0.00000000000E+00  0.11591223128E+04  0.11591223128E+04  0.50400001928E-02 0.  1.
        1   -1    0    0  501    0  0.00000000000E+00  0.00000000000E+00 -0.73056709784E+03  0.73056709786E+03  0.50400001928E-02 0. -1.
    10030    2    1    2    0    0  0.00000000000E+00  0.00000000000E+00  0.42855521494E+03  0.18896894106E+04  0.18404527966E+04 0.  0.
        3    1    3    3  502    0 -0.47844574961E+02 -0.91834942048E+03  0.24927544703E+03  0.95278172744E+03  0.10100000352E+00 0. -1.
       -3    1    3    3    0  502  0.47844574961E+02  0.91834942048E+03  0.17927976790E+03  0.93690768320E+03  0.10100000352E+00 0.  1.
</event>
<event>
 5   0  0.4856882E-05  0.2420715E+04  0.7818609E-02  0.8431789E-01
       -2   -1    0    0    0  501  0.00000000000E+00  0.00000000000E+00  0.67649332798E+03  0.67649332798E+03  0.25500000920E-02 0. -1.
        2   -1    0    0  501    0  0.00000000000E+00  0.00000000000E+00 -0.21655282337E+04  0.21655282337E+04  0.25500000920E-02 0.  1.
    10030    2    1    2    0    0  0.00000000000E+00  0.00000000000E+00 -0.14890349057E+04  0.28420215616E+04  0.24207151023E+04 0.  0.
        1    1    3    3  502    0  0.57977029731E+03  0.20961397665E+03 -0.19673790298E+04  0.20617109069E+04  0.50400001928E-02 0.  1.
       -1    1    3    3    0  502 -0.57977029731E+03 -0.20961397665E+03  0.47834412408E+03  0.78031065475E+03  0.50400001928E-02 0. -1.
</event>
<event>
 5   0  0.2149920E-05  0.2409067E+04  0.7818609E-02  0.8436117E-01
       -1   -1    0    0    0  501  0.00000000000E+00  0.00000000000E+00  0.13273362604E+04  0.13273362604E+04  0.50400001928E-02 0. -1.
        1   -1    0    0  501    0  0.00000000000E+00  0.00000000000E+00 -0.10930919269E+04  0.10930919269E+04  0.50400001928E-02 0.  1.
    10030    2    1    2    0    0  0.00000000000E+00  0.00000000000E+00  0.23424433353E+03  0.24204281873E+04  0.24090666661E+04 0.  0.
        5    1    3    3  502    0 -0.86100757171E+03  0.58679052779E+02  0.96138341480E+03  0.12919200556E+04  0.46999998093E+01 0. -1.
       -5    1    3    3    0  502  0.86100757171E+03 -0.58679052779E+02 -0.72713908126E+03  0.11285081317E+04  0.46999998093E+01 0.  1.
</event>
<event>
 5   0  0.4856882E-05  0.2502762E+04  0.7818609E-02  0.8402002E-01
        2   -1    0    0  501    0  0.00000000000E+00  0.00000000000E+00  0.11181044376E+04  0.11181044376E+04  0.25500000920E-02 0. -1.
       -2   -1    0    0    0  501  0.00000000000E+00  0.00000000000E+00 -0.14005437594E+04  0.14005437594E+04  0.25500000920E-02 0.  1.
    10030    2    1    2    0    0  0.00000000000E+00  0.00000000000E+00 -0.28243932176E+03  0.25186481970E+04  0.25027618284E+04 0.  0.
        1    1    3    3  502    0 -0.86199612853E+03 -0.90504368940E+03 -0.79079944535E+02  0.12523557973E+04  0.50400001928E-02 0. -1.
       -1    1    3    3    0  502  0.86199612853E+03  0.90504368940E+03 -0.20335937723E+03  0.12662923997E+04  0.50400001928E-02 0.  1.
</event>
<event>
 5   0  0.4756705E-05  0.2400115E+04  0.7818609E-02  0.8439460E-01
        2   -1    0    0  501    0  0.00000000000E+00  0.00000000000E+00  0.14708775537E+04  0.14708775537E+04  0.25500000920E-02 0. -1.
       -2   -1    0    0    0  501  0.00000000000E+00  0.00000000000E+00 -0.97910142260E+03  0.97910142260E+03  0.25500000920E-02 0.  1.
    10030    2    1    2    0    0  0.00000000000E+00  0.00000000000E+00  0.49177613110E+03  0.24499789763E+04  0.24001152516E+04 0.  0.
        3    1    3    3  502    0 -0.34419362948E+03  0.96751365208E+03  0.87974478675E+03  0.13522214395E+04  0.10100000352E+00 0. -1.
       -3    1    3    3    0  502  0.34419362948E+03 -0.96751365208E+03 -0.38796865565E+03  0.10977575368E+04  0.10100000352E+00 0.  1.
</event>
<event>
 5   0  0.4914005E-05  0.2372512E+04  0.7818609E-02  0.8449867E-01
        2   -1    0    0  501    0  0.00000000000E+00  0.00000000000E+00  0.12933452397E+04  0.12933452397E+04  0.25500000920E-02 0. -1.
       -2   -1    0    0    0  501  0.00000000000E+00  0.00000000000E+00 -0.10880335598E+04  0.10880335598E+04  0.25500000920E-02 0.  1.
    10030    2    1    2    0    0  0.00000000000E+00  0.00000000000E+00  0.20531167999E+03  0.23813787995E+04  0.23725117704E+04 0.  0.
        2    1    3    3  502    0 -0.89406894422E+03  0.47159527136E+03 -0.52050395693E+03  0.11369633882E+04  0.25500000920E-02 0.  1.
       -2    1    3    3    0  502  0.89406894422E+03 -0.47159527136E+03  0.72581563692E+03  0.12444154113E+04  0.25500000920E-02 0. -1.
</event>
<event>
 5   0  0.2139556E-05  0.2383104E+04  0.7818609E-02  0.8445856E-01
        1   -1    0    0  501    0  0.00000000000E+00  0.00000000000E+00  0.19260759386E+04  0.19260759386E+04  0.50400001928E-02 0.  1.
       -1   -1    0    0    0  501  0.00000000000E+00  0.00000000000E+00 -0.73714453625E+03  0.73714453627E+03  0.50400001928E-02 0. -1.
    10030    2    1    2    0    0  0.00000000000E+00  0.00000000000E+00  0.11889314023E+04  0.26632204748E+04  0.23831041560E+04 0.  0.
        2    1    3    3  502    0 -0.11152662203E+04  0.40710118688E+03  0.70758749234E+03  0.13821107691E+04  0.25500000920E-02 0.  1.
       -2    1    3    3    0  502  0.11152662203E+04 -0.40710118688E+03  0.48134390997E+03  0.12811097058E+04  0.25500000920E-02 0. -1.
</event>
<event>
 5   0  0.4713971E-05  0.2415096E+04  0.7818609E-02  0.8433873E-01
       -2   -1    0    0    0  501  0.00000000000E+00  0.00000000000E+00  0.62000611498E+03  0.62000611498E+03  0.25500000920E-02 0. -1.
        2   -1    0    0  501    0  0.00000000000E+00  0.00000000000E+00 -0.23518670295E+04  0.23518670295E+04  0.25500000920E-02 0.  1.
    10030    2    1    2    0    0  0.00000000000E+00  0.00000000000E+00 -0.17318609145E+04  0.29718731445E+04  0.24150958075E+04 0.  0.
        5    1    3    3  502    0  0.66773779874E+03  0.96062880163E+03 -0.12340007008E+04  0.17004297345E+04  0.46999998093E+01 0.  1.
       -5    1    3    3    0  502 -0.66773779874E+03 -0.96062880163E+03 -0.49786021374E+03  0.12714434100E+04  0.46999998093E+01 0. -1.
</event>
<event>
 5   0  0.1672125E-05  0.1729721E+04  0.7818609E-02  0.8744592E-01
       -3   -1    0    0    0  501  0.00000000000E+00  0.00000000000E+00  0.10769614959E+04  0.10769615006E+04  0.10100000352E+00 0. -1.
        3   -1    0    0  501    0  0.00000000000E+00  0.00000000000E+00 -0.69453167516E+03  0.69453168250E+03  0.10100000352E+00 0.  1.
    10030    2    1    2    0    0  0.00000000000E+00  0.00000000000E+00  0.38242982072E+03  0.17714931831E+04  0.17297212290E+04 0.  0.
        3    1    3    3  502    0 -0.19527198629E+03 -0.39187054956E+03 -0.57264562506E+03  0.72084443422E+03  0.10100000352E+00 0.  1.
       -3    1    3    3    0  502  0.19527198629E+03  0.39187054956E+03  0.95507544578E+03  0.10506487489E+04  0.10100000352E+00 0. -1.
</event>
<event>
 5   0  0.4713971E-05  0.2391110E+04  0.7818609E-02  0.8442839E-01
        2   -1    0    0  501    0  0.00000000000E+00  0.00000000000E+00  0.12596133271E+04  0.12596133271E+04  0.25500000920E-02 0.  1.
       -2   -1    0    0    0  501  0.00000000000E+00  0.00000000000E+00 -0.11347541856E+04  0.11347541856E+04  0.25500000920E-02 0. -1.
    10030    2    1    2    0    0  0.00000000000E+00  0.00000000000E+00  0.12485914146E+03  0.23943675127E+04  0.23911097802E+04 0.  0.
        5    1    3    3  502    0 -0.86214879625E+03 -0.71992608777E+03 -0.34768340740E+03  0.11757975848E+04  0.46999998093E+01 0.  1.
       -5    1    3    3    0  502  0.86214879625E+03  0.71992608777E+03  0.47254254886E+03  0.12185699279E+04  0.46999998093E+01 0. -1.
</event>
<event>
 5   0  0.4856882E-05  0.2379423E+04  0.7818609E-02  0.8447248E-01
       -2   -1    0    0    0  501  0.00000000000E+00  0.00000000000E+00  0.84992124965E+03  0.84992124965E+03  0.25500000920E-02 0. -1.
        2   -1    0    0  501    0  0.00000000000E+00  0.00000000000E+00 -0.16653460008E+04  0.16653460008E+04  0.25500000920E-02 0.  1.
    10030    2    1    2    0    0  0.00000000000E+00  0.00000000000E+00 -0.81542475112E+03  0.25152672504E+04  0.23794225804E+04 0.  0.
        1    1    3    3  502    0 -0.34307137517E+03  0.10433162741E+04 -0.89121603852E+03  0.14143807279E+04  0.50400001928E-02 0.  1.
       -1    1    3    3    0  502  0.34307137517E+03 -0.10433162741E+04  0.75791287400E+02  0.11008865225E+04  0.50400001928E-02 0. -1.
</event>
<event>
 5   0  0.4664127E-05  0.2368566E+04  0.7818609E-02  0.8451367E-01
        2   -1    0    0  501    0  0.00000000000E+00  0.00000000000E+00  0.15051621931E+04  0.15051621931E+04  0.25500000920E-02 0. -1.
       -2   -1    0    0    0  501  0.00000000000E+00  0.00000000000E+00 -0.93181049232E+03  0.93181049232E+03  0.25500000920E-02 0.  1.
    10030    2    1    2    0    0  0.00000000000E+00  0.00000000000E+00  0.57335170075E+03  0.24369726854E+04  0.23685657467E+04 0.  0.
        4    1    3    3  502    0  0.94258081066E+03  0.21006171700E+03  0.99199606615E+03  0.13844285167E+04  0.12699999809E+01 0. -1.
       -4    1    3    3    0  502 -0.94258081066E+03 -0.21006171700E+03 -0.41864436540E+03  0.10525441687E+04  0.12699999809E+01 0.  1.
</event>
<event>
 5   0  0.2139556E-05  0.2410154E+04  0.7818609E-02  0.8435712E-01
        1   -1    0    0  501    0  0.00000000000E+00  0.00000000000E+00  0.15334243592E+04  0.15334243592E+04  0.50400001928E-02 0.  1.
       -1   -1    0    0    0  501  0.00000000000E+00  0.00000000000E+00 -0.94703778897E+03  0.94703778898E+03  0.50400001928E-02 0. -1.
    10030    2    1    2    0    0  0.00000000000E+00  0.00000000000E+00  0.58638657027E+03  0.24804621482E+04  0.24101541982E+04 0.  0.
        2    1    3    3  502    0  0.24994590712E+03  0.17016950449E+02  0.15063278254E+04  0.15270186806E+04  0.25500000920E-02 0.  1.
       -2    1    3    3    0  502 -0.24994590712E+03 -0.17016950449E+02 -0.91994125516E+03  0.95344346767E+03  0.25500000920E-02 0. -1.
</event>
<event>
 5   0  0.2139556E-05  0.2407479E+04  0.7818609E-02  0.8436709E-01
        1   -1    0    0  501    0  0.00000000000E+00  0.00000000000E+00  0.18837998080E+04  0.18837998080E+04  0.50400001928E-02 0. -1.
       -1   -1    0    0    0  501  0.00000000000E+00  0.00000000000E+00 -0.76918430359E+03  0.76918430361E+03  0.50400001928E-02 0.  1.
    10030    2    1    2    0    0  0.00000000000E+00  0.00000000000E+00  0.11146155044E+04  0.26529841116E+04  0.24074793818E+04 0.  0.
        2    1    3    3  502    0 -0.32395828654E+03 -0.26287318880E+03 -0.68696788684E+03  0.80372642258E+03  0.25500000920E-02 0.  1.
       -2    1    3    3    0  502  0.32395828654E+03  0.26287318880E+03  0.18015833912E+04  0.18492576890E+04  0.25500000920E-02 0. -1.
</event>
<event>
 5   0  0.4713971E-05  0.2417470E+04  0.7818609E-02  0.8432992E-01
       -2   -1    0    0    0  501  0.00000000000E+00  0.00000000000E+00  0.96931719302E+03  0.96931719303E+03  0.25500000920E-02 0.  1.
        2   -1    0    0  501    0  0.00000000000E+00  0.00000000000E+00 -0.15072880363E+04  0.15072880363E+04  0.25500000920E-02 0. -1.
    10030    2    1    2    0    0  0.00000000000E+00  0.00000000000E+00 -0.53797084328E+03  0.24766052293E+04  0.24174699241E+04 0.  0.
        5    1    3    3  502    0 -0.52024514705E+03 -0.52496355581E+03  0.71085008893E+03  0.10254616945E+04  0.46999998093E+01 0.  1.
       -5    1    3    3    0  502  0.52024514705E+03  0.52496355581E+03 -0.12488209322E+04  0.14511435348E+04  0.46999998093E+01 0. -1.
</event>
<event>
 5   0  0.4756705E-05  0.2387397E+04  0.7818609E-02  0.8444237E-01
        2   -1    0    0  501    0  0.00000000000E+00  0.00000000000E+00  0.15688652940E+04  0.15688652940E+04  0.25500000920E-02 0.  1.
       -2   -1    0    0    0  501  0.00000000000E+00  0.00000000000E+00 -0.90824662386E+03  0.90824662387E+03  0.25500000920E-02 0. -1.
    10030    2    1    2    0    0  0.00000000000E+00  0.00000000000E+00  0.66061867010E+03  0.24771119178E+04  0.23873974169E+04 0.  0.
        3    1    3    3  502    0  0.18664914936E+03 -0.10894170487E+04  0.79808251319E+03  0.13633059521E+04  0.10100000352E+00 0.  1.
       -3    1    3    3    0  502 -0.18664914936E+03  0.10894170487E+04 -0.13746384309E+03  0.11138059657E+04  0.10100000352E+00 0. -1.
</event>
<event>
 5   0  0.2139556E-05  0.2381920E+04  0.7818609E-02  0.8446304E-01
       -1   -1    0    0    0  501  0.00000000000E+00  0.00000000000E+00  0.74342210956E+03  0.74342210958E+03  0.50400001928E-02 0. -1.
        1   -1    0    0  501    0  0.00000000000E+00  0.00000000000E+00 -0.19079140716E+04  0.19079140716E+04  0.50400001928E-02 0.  1.
    10030    2    1    2    0    0  0.00000000000E+00  0.00000000000E+00 -0.11644919620E+04  0.26513361812E+04  0.23819198173E+04 0.  0.
        2    1    3    3  502    0 -0.33578816421E+03  0.15987169214E+03 -0.18416207981E+04  0.18787974380E+04  0.25500000920E-02 0.  1.
       -2    1    3    3    0  502  0.33578816421E+03 -0.15987169214E+03  0.67712883601E+03  0.77253874319E+03  0.25500000920E-02 0. -1.
</event>
<event>
 5   0  0.4664127E-05  0.2445070E+04  0.7818609E-02  0.8422820E-01
        2   -1    0    0  501    0  0.00000000000E+00  0.00000000000E+00  0.21848785782E+04  0.21848785782E+04  0.25500000920E-02 0. -1.
       -2   -1    0    0    0  501  0.00000000000E+00  0.00000000000E+00 -0.68406160947E+03  0.68406160947E+03  0.25500000920E-02 0.  1.
    10030    2    1    2    0    0  0.00000000000E+00  0.00000000000E+00  0.15008169687E+04  0.28689401877E+04  0.24450697795E+04 0.  0.
        4    1    3    3  502    0 -0.63719165042E+03 -0.17277701413E+02 -0.47364446889E+03  0.79413626925E+03  0.12699999809E+01 0.  1.
       -4    1    3    3    0  502  0.63719165042E+03  0.17277701413E+02  0.19744614376E+04  0.20748039184E+04  0.12699999809E+01 0. -1.
</event>
<event>
 5   0  0.2057599E-05  0.2421389E+04  0.7818609E-02  0.8431539E-01
        1   -1    0    0  501    0  0.00000000000E+00  0.00000000000E+00  0.15312398383E+04  0.15312398383E+04  0.50400001928E-02 0.  1.
       -1   -1    0    0    0  501  0.00000000000E+00  0.00000000000E+00 -0.95725112645E+03  0.95725112646E+03  0.50400001928E-02 0. -1.
    10030    2    1    2    0    0  0.00000000000E+00  0.00000000000E+00  0.57398871183E+03  0.24884909647E+04  0.24213889073E+04 0.  0.
        4    1    3    3  502    0  0.81725964354E+03 -0.72727376573E+02 -0.62794479446E+03  0.10332080497E+04  0.12699999809E+01 0. -1.
       -4    1    3    3    0  502 -0.81725964354E+03  0.72727376573E+02  0.12019335063E+04  0.14552829150E+04  0.12699999809E+01 0.  1.
</event>
<event>
 5   0  0.2065692E-05  0.2413259E+04  0.7818609E-02  0.8434556E-01
       -1   -1    0    0    0  501  0.00000000000E+00  0.00000000000E+00  0.11864002576E+04  0.11864002576E+04  0.50400001928E-02 0. -1.
        1   -1    0    0  501    0  0.00000000000E+00  0.00000000000E+00 -0.12272035120E+04  0.12272035120E+04  0.50400001928E-02 0.  1.
    10030    2    1    2    0    0  0.00000000000E+00  0.00000000000E+00 -0.40803254421E+02  0.24136037696E+04  0.24132588447E+04 0.  0.
        3    1    3    3  502    0  0.22519533085E+03  0.91046312488E+03 -0.77965340711E+03  0.12196374397E+04  0.10100000352E+00 0.  1.
       -3    1    3    3    0  502 -0.22519533085E+03 -0.91046312488E+03  0.73885015269E+03  0.11939663300E+04  0.10100000352E+00 0. -1.
</event>
<event>
 5   0  0.4856882E-05  0.2060375E+04  0.7818609E-02  0.8578902E-01
       -2   -1    0    0    0  501  0.00000000000E+00  0.00000000000E+00  0.71519000254E+03  0.71519000255E+03  0.25500000920E-02 0.  1.
        2   -1    0    0  501    0  0.00000000000E+00  0.00000000000E+00 -0.14839219097E+04  0.14839219097E+04  0.25500000920E-02 0. -1.
    10030    2    1    2    0    0  0.00000000000E+00  0.00000000000E+00 -0.76873190715E+03  0.21991119122E+04  0.20603748342E+04 0.  0.
        1    1    3    3  502    0 -0.51985972796E+03 -0.38104091649E+03  0.47338951595E+03  0.79971491834E+03  0.50400001928E-02 0.  1.
       -1    1    3    3    0  502  0.51985972796E+03  0.38104091649E+03 -0.12421214231E+04  0.13993969939E+04  0.50400001928E-02 0. -1.
</event>
<event>
 5   0  0.2139556E-05  0.2400632E+04  0.7818609E-02  0.8439267E-01
       -1   -1    0    0    0  501  0.00000000000E+00  0.00000000000E+00  0.13788784616E+04  0.13788784616E+04  0.50400001928E-02 0. -1.
        1   -1    0    0  501    0  0.00000000000E+00  0.00000000000E+00 -0.10448773214E+04  0.10448773214E+04  0.50400001928E-02 0.  1.
    10030    2    1    2    0    0  0.00000000000E+00  0.00000000000E+00  0.33400114019E+03  0.24237557831E+04  0.24006322780E+04 0.  0.
        2    1    3    3  502    0 -0.17401837294E+03  0.11767915524E+04  0.32866183773E+03  0.12341553207E+04  0.25500000920E-02 0.  1.
       -2    1    3    3    0  502  0.17401837294E+03 -0.11767915524E+04  0.53393024547E+01  0.11896004624E+04  0.25500000920E-02 0. -1.
</event>
<event>
 5   0  0.4856882E-05  0.2347045E+04  0.7818609E-02  0.8459600E-01
        2   -1    0    0  501    0  0.00000000000E+00  0.00000000000E+00  0.15986400023E+04  0.15986400023E+04  0.25500000920E-02 0.  1.
       -2   -1    0    0    0  501  0.00000000000E+00  0.00000000000E+00 -0.86145386034E+03  0.86145386035E+03  0.25500000920E-02 0. -1.
    10030    2    1    2    0    0  0.00000000000E+00  0.00000000000E+00  0.73718614197E+03  0.24600938627E+04  0.23470446108E+04 0.  0.
        1    1    3    3  502    0 -0.24696369271E+03 -0.10096610401E+04 -0.20239143179E+03  0.10589470115E+04  0.50400001928E-02 0. -1.
       -1    1    3    3    0  502  0.24696369271E+03  0.10096610401E+04  0.93957757376E+03  0.14011468512E+04  0.50400001928E-02 0.  1.
</event>
<event>
 5   0  0.4756705E-05  0.2418504E+04  0.7818609E-02  0.8432608E-01
        2   -1    0    0  501    0  0.00000000000E+00  0.00000000000E+00  0.16225999709E+04  0.16225999709E+04  0.25500000920E-02 0. -1.
       -2   -1    0    0    0  501  0.00000000000E+00  0.00000000000E+00 -0.90120182218E+03  0.90120182218E+03  0.25500000920E-02 0.  1.
    10030    2    1    2    0    0  0.00000000000E+00  0.00000000000E+00  0.72139814869E+03  0.25238017931E+04  0.24185037113E+04 0.  0.
        3    1    3    3  502    0  0.99785439707E+03 -0.27109924342E+03 -0.29356033618E+03  0.10748887750E+04  0.10100000352E+00 0.  1.
       -3    1    3    3    0  502 -0.99785439707E+03  0.27109924342E+03  0.10149584849E+04  0.14489130180E+04  0.10100000352E+00 0. -1.
</event>
<event>
 5   0  0.2090039E-05  0.2391479E+04  0.7818609E-02  0.8442700E-01
        1   -1    0    0  501    0  0.00000000000E+00  0.00000000000E+00  0.13813480387E+04  0.13813480388E+04  0.50400001928E-02 0. -1.
       -1   -1    0    0    0  501  0.00000000000E+00  0.00000000000E+00 -0.10350710418E+04  0.10350710418E+04  0.50400001928E-02 0.  1.
    10030    2    1    2    0    0  0.00000000000E+00  0.00000000000E+00  0.34627699694E+03  0.24164190806E+04  0.23914793360E+04 0.  0.
        1    1    3    3  502    0 -0.61082988027E+03 -0.73866468638E+03  0.89547458796E+03  0.13117215403E+04  0.50400001928E-02 0. -1.
       -1    1    3    3    0  502  0.61082988027E+03  0.73866468638E+03 -0.54919759102E+03  0.11046975403E+04  0.50400001928E-02 0.  1.
</event>
<event>
 5   0  0.2090039E-05  0.2272979E+04  0.7818609E-02  0.8488652E-01
        1   -1    0    0  501    0  0.00000000000E+00  0.00000000000E+00  0.89026607213E+03  0.89026607214E+03  0.50400001928E-02 0. -1.
       -1   -1    0    0    0  501  0.00000000000E+00  0.00000000000E+00 -0.14508116105E+04  0.14508116105E+04  0.50400001928E-02 0.  1.
    10030    2    1    2    0    0  0.00000000000E+00  0.00000000000E+00 -0.56054553832E+03  0.23410776826E+04  0.22729789738E+04 0.  0.
        1    1    3    3  502    0 -0.48455957105E+03  0.16312240762E+03 -0.13256703392E+04  0.14208478968E+04  0.50400001928E-02 0.  1.
       -1    1    3    3    0  502  0.48455957105E+03 -0.16312240762E+03  0.76512480083E+03  0.92022978578E+03  0.50400001928E-02 0. -1.
</event>
<event>
 5   0  0.4856882E-05  0.2399254E+04  0.7818609E-02  0.8439783E-01
       -2   -1    0    0    0  501  0.00000000000E+00  0.00000000000E+00  0.10445302855E+04  0.10445302855E+04  0.25500000920E-02 0. -1.
        2   -1    0    0  501    0  0.00000000000E+00  0.00000000000E+00 -0.13777530450E+04  0.13777530450E+04  0.25500000920E-02 0.  1.
    10030    2    1    2    0    0  0.00000000000E+00  0.00000000000E+00 -0.33322275944E+03  0.24222833305E+04  0.23992538686E+04 0.  0.
        1    1    3    3  502    0  0.46675390139E+02 -0.11947619092E+04 -0.26486026240E+03  0.12246573277E+04  0.50400001928E-02 0.  1.
       -1    1    3    3    0  502 -0.46675390139E+02  0.11947619092E+04 -0.68362497042E+02  0.11976260028E+04  0.50400001928E-02 0. -1.
</event>
<event>
 5   0  0.2139556E-05  0.2368380E+04  0.7818609E-02  0.8451437E-01
       -1   -1    0    0    0  501  0.00000000000E+00  0.00000000000E+00  0.70924900948E+03  0.70924900950E+03  0.50400001928E-02 0.  1.
        1   -1    0    0  501    0  0.00000000000E+00  0.00000000000E+00 -0.19771706247E+04  0.19771706247E+04  0.50400001928E-02 0. -1.
    10030    2    1    2    0    0  0.00000000000E+00  0.00000000000E+00 -0.12679216152E+04  0.26864196342E+04  0.23683802964E+04 0.  0.
        2    1    3    3  502    0  0.66775332356E+03 -0.53097188167E+03  0.29759132934E+03  0.90354094515E+03  0.25500000920E-02 0.  1.
       -2    1    3    3    0  502 -0.66775332356E+03  0.53097188167E+03 -0.15655129445E+04  0.17828786890E+04  0.25500000920E-02 0. -1.
</event>
<event>
 5   0  0.2090039E-05  0.2407729E+04  0.7818609E-02  0.8436616E-01
       -1   -1    0    0    0  501  0.00000000000E+00  0.00000000000E+00  0.58884281898E+03  0.58884281900E+03  0.50400001928E-02 0.  1.
        1   -1    0    0  501    0  0.00000000000E+00  0.00000000000E+00 -0.24612502510E+04  0.24612502510E+04  0.50400001928E-02 0. -1.
    10030    2    1    2    0    0  0.00000000000E+00  0.00000000000E+00 -0.18724074320E+04  0.30500930700E+04  0.24077288353E+04 0.  0.
        1    1    3    3  502    0 -0.10603091026E+04  0.61335251191E+02 -0.16542328132E+04  0.19658340740E+04  0.50400001928E-02 0. -1.
       -1    1    3    3    0  502  0.10603091026E+04 -0.61335251191E+02 -0.21817461886E+03  0.10842589960E+04  0.50400001928E-02 0.  1.
</event>
<event>
 5   0  0.4756705E-05  0.2304083E+04  0.7818609E-02  0.8476313E-01
       -2   -1    0    0    0  501  0.00000000000E+00  0.00000000000E+00  0.12072989024E+04  0.12072989024E+04  0.25500000920E-02 0. -1.
        2   -1    0    0  501    0  0.00000000000E+00  0.00000000000E+00 -0.10993133926E+04  0.10993133926E+04  0.25500000920E-02 0.  1.
    10030    2    1    2    0    0  0.00000000000E+00  0.00000000000E+00  0.10798550972E+03  0.23066122950E+04  0.23040832036E+04 0.  0.
        3    1    3    3  502    0 -0.21052675489E+02 -0.30153977535E+02 -0.10987256025E+04  0.10993409104E+04  0.10100000352E+00 0.  1.
       -3    1    3    3    0  502  0.21052675489E+02  0.30153977535E+02  0.12067111122E+04  0.12072713846E+04  0.10100000352E+00 0. -1.
</event>
<event>
 5   0  0.2057599E-05  0.2325406E+04  0.7818609E-02  0.8467971E-01
       -1   -1    0    0    0  501  0.00000000000E+00  0.00000000000E+00  0.92464079834E+03  0.92464079836E+03  0.50400001928E-02 0.  1.
        1   -1    0    0  501    0  0.00000000000E+00  0.00000000000E+00 -0.14620578308E+04  0.14620578308E+04  0.50400001928E-02 0. -1.
    10030    2    1    2    0    0  0.00000000000E+00  0.00000000000E+00 -0.53741703249E+03  0.23866986292E+04  0.23254060462E+04 0.  0.
        4    1    3    3  502    0 -0.86926043193E+03  0.70182990495E+03 -0.59921770879E+03  0.12677706376E+04  0.12699999809E+01 0. -1.
       -4    1    3    3    0  502  0.86926043193E+03 -0.70182990495E+03  0.61800676303E+02  0.11189279917E+04  0.12699999809E+01 0.  1.
</event>
<event>
 5   0  0.2090039E-05  0.2455724E+04  0.7818609E-02  0.8418931E-01
        1   -1    0    0  501    0  0.00000000000E+00  0.00000000000E+00  0.23682869723E+04  0.23682869723E+04  0.50400001928E-02 0.  1.
       -1   -1    0    0    0  501  0.00000000000E+00  0.00000000000E+00 -0.63659750281E+03  0.63659750283E+03  0.50400001928E-02 0. -1.
    10030    2    1    2    0    0  0.00000000000E+00  0.00000000000E+00  0.17316894695E+04  0.30048844752E+04  0.24557243921E+04 0.  0.
        1    1    3    3  502    0  0.58744388934E+03 -0.61793330087E+03 -0.21532542824E+03  0.87937303092E+03  0.50400001928E-02 0. -1.
       -1    1    3    3    0  502 -0.58744388934E+03  0.61793330087E+03  0.19470148978E+04  0.21255114442E+04  0.50400001928E-02 0.  1.
</event>
<event>
 5   0  0.2057599E-05  0.2384644E+04  0.7818609E-02  0.8445275E-01
       -1   -1    0    0    0  501  0.00000000000E+00  0.00000000000E+00  0.88946261668E+03  0.88946261669E+03  0.50400001928E-02 0.  1.
        1   -1    0    0  501    0  0.00000000000E+00  0.00000000000E+00 -0.15983042354E+04  0.15983042354E+04  0.50400001928E-02 0. -1.
    10030    2    1    2    0    0  0.00000000000E+00  0.00000000000E+00 -0.70884161870E+03  0.24877668521E+04  0.23846440971E+04 0.  0.
        4    1    3    3  502    0  0.50218054822E+02  0.66223035709E+03  0.67863325328E+03  0.94953441445E+03  0.12699999809E+01 0.  1.
       -4    1    3    3    0  502 -0.50218054822E+02 -0.66223035709E+03 -0.13874748720E+04  0.15382324376E+04  0.12699999809E+01 0. -1.
</event>
<event>
 5   0  0.4914005E-05  0.2439026E+04  0.7818609E-02  0.8425036E-01
        2   -1    0    0  501    0  0.00000000000E+00  0.00000000000E+00  0.23845799575E+04  0.23845799575E+04  0.25500000920E-02 0. -1.
       -2   -1    0    0    0  501  0.00000000000E+00  0.00000000000E+00 -0.62367889576E+03  0.62367889577E+03  0.25500000920E-02 0.  1.
    10030    2    1    2    0    0  0.00000000000E+00  0.00000000000E+00  0.17609010618E+04  0.30082588533E+04  0.24390261948E+04 0.  0.
        2    1    3    3  502    0 -0.11601623940E+04 -0.19036257088E+03  0.48079278881E+03  0.12701875431E+04  0.25500000920E-02 0.  1.
       -2    1    3    3    0  502  0.11601623940E+04  0.19036257088E+03  0.12801082729E+04  0.17380713102E+04  0.25500000920E-02 0. -1.
</event>
<event>
 5   0  0.4664127E-05  0.2357359E+04  0.7818609E-02  0.8455642E-01
       -2   -1    0    0    0  501  0.00000000000E+00  0.00000000000E+00  0.79616736812E+03  0.79616736813E+03  0.25500000920E-02 0.  1.
        2   -1    0    0  501    0  0.00000000000E+00  0.00000000000E+00 -0.17449667777E+04  0.17449667777E+04  0.25500000920E-02 0. -1.
    10030    2    1    2    0    0  0.00000000000E+00  0.00000000000E+00 -0.94879940960E+03  0.25411341459E+04  0.23573592063E+04 0.  0.
        4    1    3    3  502    0 -0.93978217362E+03 -0.24071163660E+03 -0.11960290597E+04  0.15400064124E+04  0.12699999809E+01 0. -1.
       -4    1    3    3    0  502  0.93978217362E+03  0.24071163660E+03  0.24722965008E+03  0.10011277334E+04  0.12699999809E+01 0.  1.
</event>
<event>
 5   0  0.4756705E-05  0.2373901E+04  0.7818609E-02  0.8449340E-01
       -2   -1    0    0    0  501  0.00000000000E+00  0.00000000000E+00  0.54564907745E+03  0.54564907745E+03  0.25500000920E-02 0. -1.
        2   -1    0    0  501    0  0.00000000000E+00  0.00000000000E+00 -0.25819725847E+04  0.25819725847E+04  0.25500000920E-02 0.  1.
    10030    2    1    2    0    0  0.00000000000E+00  0.00000000000E+00 -0.20363235072E+04  0.31276216621E+04  0.23739005529E+04 0.  0.
        3    1    3    3  502    0 -0.25356305315E+03  0.92895961719E+03 -0.10385745409E+03  0.96852804465E+03  0.10100000352E+00 0.  1.
       -3    1    3    3    0  502  0.25356305315E+03 -0.92895961719E+03 -0.19324660531E+04  0.21590936175E+04  0.10100000352E+00 0. -1.
</event>
<event>
 5   0  0.2065692E-05  0.2392833E+04  0.7818609E-02  0.8442192E-01
       -1   -1    0    0    0  501  0.00000000000E+00  0.00000000000E+00  0.88981995555E+03  0.88981995557E+03  0.50400001928E-02 0. -1.
        1   -1    0    0  501    0  0.00000000000E+00  0.00000000000E+00 -0.16086533418E+04  0.16086533418E+04  0.50400001928E-02 0.  1.
    10030    2    1    2    0    0  0.00000000000E+00  0.00000000000E+00 -0.71883338623E+03  0.24984732974E+04  0.23928325015E+04 0.  0.
        3    1    3    3  502    0  0.11947919622E+04  0.24708948410E+02 -0.41915688015E+03  0.12664244413E+04  0.10100000352E+00 0.  1.
       -3    1    3    3    0  502 -0.11947919622E+04 -0.24708948410E+02 -0.29967650608E+03  0.12320488560E+04  0.10100000352E+00 0. -1.
</event>
<event>
 5   0  0.4756705E-05  0.2392499E+04  0.7818609E-02  0.8442317E-01
       -2   -1    0    0    0  501  0.00000000000E+00  0.00000000000E+00  0.16937013355E+04  0.16937013355E+04  0.25500000920E-02 0. -1.
        2   -1    0    0  501    0  0.00000000000E+00  0.00000000000E+00 -0.84490247959E+03  0.84490247960E+03  0.25500000920E-02 0.  1.
    10030    2    1    2    0    0  0.00000000000E+00  0.00000000000E+00  0.84879885592E+03  0.25386038151E+04  0.23924986588E+04 0.  0.
        3    1    3    3  502    0 -0.98718215926E+03  0.21387814282E+03 -0.25562843912E+03  0.10419301246E+04  0.10100000352E+00 0.  1.
       -3    1    3    3    0  502  0.98718215926E+03 -0.21387814282E+03  0.11044272950E+04  0.14966736905E+04  0.10100000352E+00 0. -1.
</event>
<event>
 5   0  0.4914005E-05  0.2227816E+04  0.7818609E-02  0.8506939E-01
        2   -1    0    0  501    0  0.00000000000E+00  0.00000000000E+00  0.18213999076E+04  0.18213999076E+04  0.25500000920E-02 0. -1.
       -2   -1    0    0    0  501  0.00000000000E+00  0.00000000000E+00 -0.68122906195E+03  0.68122906195E+03  0.25500000920E-02 0.  1.
    10030    2    1    2    0    0  0.00000000000E+00  0.00000000000E+00  0.11401708456E+04  0.25026289695E+04  0.22278155673E+04 0.  0.
        2    1    3    3  502    0 -0.10734909671E+04  0.18241297502E+03  0.83385447302E+03  0.13714848275E+04  0.25500000920E-02 0. -1.
       -2    1    3    3    0  502  0.10734909671E+04 -0.18241297502E+03  0.30631637262E+03  0.11311441420E+04  0.25500000920E-02 0.  1.
</event>
<event>
 5   0  0.2065692E-05  0.2389128E+04  0.7818609E-02  0.8443585E-01
       -1   -1    0    0    0  501  0.00000000000E+00  0.00000000000E+00  0.82595163452E+03  0.82595163453E+03  0.50400001928E-02 0.  1.
        1   -1    0    0  501    0  0.00000000000E+00  0.00000000000E+00 -0.17276836085E+04  0.17276836085E+04  0.50400001928E-02 0. -1.
    10030    2    1    2    0    0  0.00000000000E+00  0.00000000000E+00 -0.90173197395E+03  0.25536352430E+04  0.23891279584E+04 0.  0.
        3    1    3    3  502    0  0.69326697348E+02 -0.10856592610E+04  0.76591601263E+02  0.10905633890E+04  0.10100000352E+00 0.  1.
       -3    1    3    3    0  502 -0.69326697348E+02  0.10856592610E+04 -0.97832357521E+03  0.14630718540E+04  0.10100000352E+00 0. -1.
</event>
<event>
 5   0  0.4713971E-05  0.2405608E+04  0.7818609E-02  0.8437407E-01
       -2   -1    0    0    0  501  0.00000000000E+00  0.00000000000E+00  0.10737835059E+04  0.10737835059E+04  0.25500000920E-02 0. -1.
        2   -1    0    0  501    0  0.00000000000E+00  0.00000000000E+00 -0.13473269559E+04  0.13473269559E+04  0.25500000920E-02 0.  1.
    10030    2    1    2    0    0  0.00000000000E+00  0.00000000000E+00 -0.27354345001E+03  0.24211104618E+04  0.24056079999E+04 0.  0.
        5    1    3    3  502    0 -0.53528318125E+03 -0.30154030634E+03  0.90394265130E+03  0.10929725739E+04  0.46999998093E+01 0. -1.
       -5    1    3    3    0  502  0.53528318125E+03  0.30154030634E+03 -0.11774861013E+04  0.13281378879E+04  0.46999998093E+01 0.  1.
</event>
<event>
 5   0  0.1672125E-05  0.2388447E+04  0.7818609E-02  0.8443842E-01
       -3   -1    0    0    0  501  0.00000000000E+00  0.00000000000E+00  0.14468466273E+04  0.14468466308E+04  0.10100000352E+00 0.  1.
        3   -1    0    0  501    0  0.00000000000E+00  0.00000000000E+00 -0.98570878565E+03  0.98570879082E+03  0.10100000352E+00 0. -1.
    10030    2    1    2    0    0  0.00000000000E+00  0.00000000000E+00  0.46113784165E+03  0.24325554216E+04  0.23884467276E+04 0.  0.
        2    1    3    3  502    0  0.30258321278E+03 -0.52405994249E+03 -0.81799472080E+03  0.10175022296E+04  0.25500000920E-02 0. -1.
       -2    1    3    3    0  502 -0.30258321278E+03  0.52405994249E+03  0.12791325625E+04  0.14150531920E+04  0.25500000920E-02 0.  1.
</event>
<event>
 5   0  0.4713971E-05  0.2427373E+04  0.7818609E-02  0.8429326E-01
       -2   -1    0    0    0  501  0.00000000000E+00  0.00000000000E+00  0.94607390209E+03  0.94607390209E+03  0.25500000920E-02 0.  1.
        2   -1    0    0  501    0  0.00000000000E+00  0.00000000000E+00 -0.15569977129E+04  0.15569977129E+04  0.25500000920E-02 0. -1.
    10030    2    1    2    0    0  0.00000000000E+00  0.00000000000E+00 -0.61092381079E+03  0.25030716150E+04  0.24273729847E+04 0.  0.
        5    1    3    3  502    0  0.80062688627E+03  0.74876422740E+03  0.23170704657E+03  0.11204291699E+04  0.46999998093E+01 0.  1.
       -5    1    3    3    0  502 -0.80062688627E+03 -0.74876422740E+03 -0.84263085735E+03  0.13826424451E+04  0.46999998093E+01 0. -1.
</event>
<event>
 5   0  0.4856882E-05  0.2205374E+04  0.7818609E-02  0.8516195E-01
        2   -1    0    0  501    0  0.00000000000E+00  0.00000000000E+00  0.29794748955E+04  0.29794748955E+04  0.25500000920E-02 0.  1.
       -2   -1    0    0    0  501  0.00000000000E+00  0.00000000000E+00 -0.40809830601E+03  0.40809830602E+03  0.25500000920E-02 0. -1.
    10030    2    1    2    0    0  0.00000000000E+00  0.00000000000E+00  0.25713765895E+04  0.33875732016E+04  0.22053740342E+04 0.  0.
        1    1    3    3  502    0 -0.84017437021E+03  0.29546126819E+03  0.28698356724E+03  0.93570823511E+03  0.50400001928E-02 0. -1.
       -1    1    3    3    0  502  0.84017437021E+03 -0.29546126819E+03  0.22843930223E+04  0.24518649664E+04  0.50400001928E-02 0.  1.
</event>
<event>
 5   0  0.4664127E-05  0.2423586E+04  0.7818609E-02  0.8430726E-01
        2   -1    0    0  501    0  0.00000000000E+00  0.00000000000E+00  0.18369284297E+04  0.18369284297E+04  0.25500000920E-02 0.  1.
       -2   -1    0    0    0  501  0.00000000000E+00  0.00000000000E+00 -0.79940088437E+03  0.79940088437E+03  0.25500000920E-02 0. -1.
    10030    2    1    2    0    0  0.00000000000E+00  0.00000000000E+00  0.10375275453E+04  0.26363293140E+04  0.24235859475E+04 0.  0.
        4    1    3    3  502    0  0.64909172198E+03  0.87724439119E+01 -0.59430913458E+03  0.88011475369E+03  0.12699999809E+01 0. -1.
       -4    1    3    3    0  502 -0.64909172198E+03 -0.87724439119E+01  0.16318366799E+04  0.17562145604E+04  0.12699999809E+01 0.  1.
</event>
<event>
 5   0  0.2065692E-05  0.2438079E+04  0.7818609E-02  0.8425383E-01
        1   -1    0    0  501    0  0.00000000000E+00  0.00000000000E+00  0.12369873052E+04  0.12369873052E+04  0.50400001928E-02 0.  1.
       -1   -1    0    0    0  501  0.00000000000E+00  0.00000000000E+00 -0.12013524807E+04  0.12013524807E+04  0.50400001928E-02 0. -1.
    10030    2    1    2    0    0  0.00000000000E+00  0.00000000000E+00  0.35634824509E+02  0.24383397859E+04  0.24380793816E+04 0.  0.
        3    1    3    3  502    0  0.74436619863E+03 -0.85354575695E+03 -0.43326996277E+03  0.12125775306E+04  0.10100000352E+00 0. -1.
       -3    1    3    3    0  502 -0.74436619863E+03  0.85354575695E+03  0.46890478728E+03  0.12257622553E+04  0.10100000352E+00 0.  1.
</event>
<event>
 5   0  0.2057599E-05  0.2342348E+04  0.7818609E-02  0.8461409E-01
        1   -1    0    0  501    0  0.00000000000E+00  0.00000000000E+00  0.18546150542E+04  0.18546150542E+04  0.50400001928E-02 0. -1.
       -1   -1    0    0    0  501  0.00000000000E+00  0.00000000000E+00 -0.73958661444E+03  0.73958661446E+03  0.50400001928E-02 0.  1.
    10030    2    1    2    0    0  0.00000000000E+00  0.00000000000E+00  0.11150284398E+04  0.25942016687E+04  0.23423479409E+04 0.  0.
        4    1    3    3  502    0 -0.33088210873E+02  0.15761090361E+03  0.18422925439E+04  0.18493186466E+04  0.12699999809E+01 0. -1.
       -4    1    3    3    0  502  0.33088210873E+02 -0.15761090361E+03 -0.72726410407E+03  0.74488302209E+03  0.12699999809E+01 0.  1.
</event>
<event>
 5   0  0.4856882E-05  0.2390386E+04  0.7818609E-02  0.8443112E-01
        2   -1    0    0  501    0  0.00000000000E+00  0.00000000000E+00  0.13773356768E+04  0.13773356768E+04  0.25500000920E-02 0. -1.
       -2   -1    0    0    0  501  0.00000000000E+00  0.00000000000E+00 -0.10371375740E+04  0.10371375740E+04  0.25500000920E-02 0.  1.
    10030    2    1    2    0    0  0.00000000000E+00  0.00000000000E+00  0.34019810280E+03  0.24144732508E+04  0.23903862302E+04 0.  0.
        1    1    3    3  502    0 -0.53003097711E+03  0.40404942968E+03 -0.83201598370E+03  0.10660391060E+04  0.50400001928E-02 0.  1.
       -1    1    3    3    0  502  0.53003097711E+03 -0.40404942968E+03  0.11722140865E+04  0.13484341448E+04  0.50400001928E-02 0. -1.
</event>
<event>
 5   0  0.2090039E-05  0.2421126E+04  0.7818609E-02  0.8431636E-01
       -1   -1    0    0    0  501  0.00000000000E+00  0.00000000000E+00  0.16110027299E+04  0.16110027299E+04  0.50400001928E-02 0.  1.
        1   -1    0    0  501    0  0.00000000000E+00  0.00000000000E+00 -0.90965878522E+03  0.90965878524E+03  0.50400001928E-02 0. -1.
    10030    2    1    2    0    0  0.00000000000E+00  0.00000000000E+00  0.70134394469E+03  0.25206615152E+04  0.24211260077E+04 0.  0.
        1    1    3    3  502    0  0.45134604163E+03  0.96626702447E+02  0.15157925957E+04  0.15845116478E+04  0.50400001928E-02 0.  1.
       -1    1    3    3    0  502 -0.45134604163E+03 -0.96626702447E+02 -0.81444865101E+03  0.93614986732E+03  0.50400001928E-02 0. -1.
</event>
<event>
 5   0  0.4664127E-05  0.2416813E+04  0.7818609E-02  0.8433236E-01
        2   -1    0    0  501    0  0.00000000000E+00  0.00000000000E+00  0.24035640364E+04  0.24035640364E+04  0.25500000920E-02 0.  1.
       -2   -1    0    0    0  501  0.00000000000E+00  0.00000000000E+00 -0.60753355762E+03  0.60753355763E+03  0.25500000920E-02 0. -1.
    10030    2    1    2    0    0  0.00000000000E+00  0.00000000000E+00  0.17960304787E+04  0.30110975940E+04  0.24168126200E+04 0.  0.
        4    1    3    3  502    0  0.78461788728E+02 -0.11577324462E+04  0.13182047422E+04  0.17561793828E+04  0.12699999809E+01 0.  1.
       -4    1    3    3    0  502 -0.78461788728E+02  0.11577324462E+04  0.47782573653E+03  0.12549182112E+04  0.12699999809E+01 0. -1.
</event>
<event>
 5   0  0.4713971E-05  0.2359980E+04  0.7818609E-02  0.8454640E-01
        2   -1    0    0  501    0  0.00000000000E+00  0.00000000000E+00  0.14170506034E+04  0.14170506034E+04  0.25500000920E-02 0. -1.
       -2   -1    0    0    0  501  0.00000000000E+00  0.00000000000E+00 -0.98258743411E+03  0.98258743411E+03  0.25500000920E-02 0.  1.
    10030    2    1    2    0    0  0.00000000000E+00  0.00000000000E+00  0.43446316932E+03  0.23996380375E+04  0.23599797596E+04 0.  0.
        5    1    3    3  502    0  0.30533879394E+03  0.84784310912E+03 -0.55733342310E+03  0.10595812150E+04  0.46999998093E+01 0.  1.
       -5    1    3    3    0  502 -0.30533879394E+03 -0.84784310912E+03  0.99179659242E+03  0.13400568225E+04  0.46999998093E+01 0. -1.
</event>
<event>
 5   0  0.4713971E-05  0.2422603E+04  0.7818609E-02  0.8431089E-01
       -2   -1    0    0    0  501  0.00000000000E+00  0.00000000000E+00  0.61411351660E+03  0.61411351660E+03  0.25500000920E-02 0. -1.
        2   -1    0    0  501    0  0.00000000000E+00  0.00000000000E+00 -0.23892185207E+04  0.23892185207E+04  0.25500000920E-02 0.  1.
    10030    2    1    2    0    0  0.00000000000E+00  0.00000000000E+00 -0.17751050041E+04  0.30033320373E+04  0.24226030527E+04 0.  0.
        5    1    3    3  502    0  0.43150935315E+03  0.18313398019E+03  0.49709678223E+03  0.68327569653E+03  0.46999998093E+01 0. -1.
       -5    1    3    3    0  502 -0.43150935315E+03 -0.18313398019E+03 -0.22722017863E+04  0.23200563408E+04  0.46999998093E+01 0.  1.
</event>
<event>
 5   0  0.2057599E-05  0.1925157E+04  0.7818609E-02  0.8642435E-01
        1   -1    0    0  501    0  0.00000000000E+00  0.00000000000E+00  0.74303666065E+03  0.74303666067E+03  0.50400001928E-02 0.  1.
       -1   -1    0    0    0  501  0.00000000000E+00  0.00000000000E+00 -0.12469872167E+04  0.12469872167E+04  0.50400001928E-02 0. -1.
    10030    2    1    2    0    0  0.00000000000E+00  0.00000000000E+00 -0.50395055604E+03  0.19900238774E+04  0.19251568429E+04 0.  0.
        4    1    3    3  502    0 -0.89493605465E+03 -0.81388711142E+02  0.10464321336E+03  0.90470242579E+03  0.12699999809E+01 0.  1.
       -4    1    3    3    0  502  0.89493605465E+03  0.81388711142E+02 -0.60859376940E+03  0.10853214516E+04  0.12699999809E+01 0. -1.
</event>
<event>
 5   0  0.2057599E-05  0.2403860E+04  0.7818609E-02  0.8438060E-01
        1   -1    0    0  501    0  0.00000000000E+00  0.00000000000E+00  0.11200718999E+04  0.11200718999E+04  0.50400001928E-02 0. -1.
       -1   -1    0    0    0  501  0.00000000000E+00  0.00000000000E+00 -0.12897702103E+04  0.12897702103E+04  0.50400001928E-02 0.  1.
    10030    2    1    2    0    0  0.00000000000E+00  0.00000000000E+00 -0.16969831045E+03  0.24098421102E+04  0.24038597046E+04 0.  0.
        4    1    3    3  502    0  0.13164316553E+03  0.11773354095E+03  0.11069925191E+04  0.11209929348E+04  0.12699999809E+01 0. -1.
       -4    1    3    3    0  502 -0.13164316553E+03 -0.11773354095E+03 -0.12766908296E+04  0.12888491754E+04  0.12699999809E+01 0.  1.
</event>
<event>
 5   0  0.2090039E-05  0.2343704E+04  0.7818609E-02  0.8460886E-01
        1   -1    0    0  501    0  0.00000000000E+00  0.00000000000E+00  0.13548383358E+04  0.13548383358E+04  0.50400001928E-02 0.  1.
       -1   -1    0    0    0  501  0.00000000000E+00  0.00000000000E+00 -0.10135802027E+04  0.10135802027E+04  0.50400001928E-02 0. -1.
    10030    2    1    2    0    0  0.00000000000E+00  0.00000000000E+00  0.34125813312E+03  0.23684185385E+04  0.23437041750E+04 0.  0.
        1    1    3    3  502    0 -0.23009256923E+03  0.81868624294E+03  0.98538629923E+03  0.13016051297E+04  0.50400001928E-02 0.  1.
       -1    1    3    3    0  502  0.23009256923E+03 -0.81868624294E+03 -0.64412816611E+03  0.10668134088E+04  0.50400001928E-02 0. -1.
</event>
<event>
 5   0  0.4713971E-05  0.2406030E+04  0.7818609E-02  0.8437249E-01
        2   -1    0    0  501    0  0.00000000000E+00  0.00000000000E+00  0.23714962451E+04  0.23714962451E+04  0.25500000920E-02 0.  1.
       -2   -1    0    0    0  501  0.00000000000E+00  0.00000000000E+00 -0.61026677759E+03  0.61026677760E+03  0.25500000920E-02 0. -1.
    10030    2    1    2    0    0  0.00000000000E+00  0.00000000000E+00  0.17612294675E+04  0.29817630227E+04  0.24060302339E+04 0.  0.
        5    1    3    3  502    0 -0.74179127414E+03  0.29034634710E+03 -0.23657933193E+03  0.83099167623E+03  0.46999998093E+01 0. -1.
       -5    1    3    3    0  502  0.74179127414E+03 -0.29034634710E+03  0.19978087994E+04  0.21507713464E+04  0.46999998093E+01 0.  1.
</event>
<event>
 5   0  0.4664127E-05  0.2423742E+04  0.7818609E-02  0.8430668E-01
        2   -1    0    0  501    0  0.00000000000E+00  0.00000000000E+00  0.90259720416E+03  0.90259720416E+03  0.25500000920E-02 0.  1.
       -2   -1    0    0    0  501  0.00000000000E+00  0.00000000000E+00 -0.16271170230E+04  0.16271170230E+04  0.25500000920E-02 0. -1.
    10030    2    1    2    0    0  0.00000000000E+00  0.00000000000E+00 -0.72451981882E+03  0.25297142271E+04  0.24237419630E+04 0.  0.
        4    1    3    3  502    0  0.26287710443E+03 -0.47926050411E+03  0.76661890705E+03  0.94154190793E+03  0.12699999809E+01 0.  1.
       -4    1    3    3    0  502 -0.26287710443E+03  0.47926050411E+03 -0.14911387259E+04  0.15881723192E+04  0.12699999809E+01 0. -1.
</event>
<event>
 5   0  0.4856882E-05  0.2437360E+04  0.7818609E-02  0.8425648E-01
        2   -1    0    0  501    0  0.00000000000E+00  0.00000000000E+00  0.15190122540E+04  0.15190122540E+04  0.25500000920E-02 0.  1.
       -2   -1    0    0    0  501  0.00000000000E+00  0.00000000000E+00 -0.97772801848E+03  0.97772801849E+03  0.25500000920E-02 0. -1.
    10030    2    1    2    0    0  0.00000000000E+00  0.00000000000E+00  0.54128423547E+03  0.24967402724E+04  0.24373599169E+04 0.  0.
        1    1    3    3  502    0 -0.56289908022E+03 -0.14942452763E+03  0.13672354210E+04  0.14861075871E+04  0.50400001928E-02 0.  1.
       -1    1    3    3    0  502  0.56289908022E+03  0.14942452763E+03 -0.82595118548E+03  0.10106326854E+04  0.50400001928E-02 0. -1.
</event>
<event>
 5   0  0.4856882E-05  0.2359979E+04  0.7818609E-02  0.8454641E-01
        2   -1    0    0  501    0  0.00000000000E+00  0.00000000000E+00  0.16229543264E+04  0.16229543264E+04  0.25500000920E-02 0. -1.
       -2   -1    0    0    0  501  0.00000000000E+00  0.00000000000E+00 -0.85792643086E+03  0.85792643086E+03  0.25500000920E-02 0.  1.
    10030    2    1    2    0    0  0.00000000000E+00  0.00000000000E+00  0.76502789551E+03  0.24808807572E+04  0.23599791632E+04 0.  0.
        1    1    3    3  502    0 -0.65278902810E+03  0.14439730590E+03  0.14046378075E+04  0.15556321762E+04  0.50400001928E-02 0. -1.
       -1    1    3    3    0  502  0.65278902810E+03 -0.14439730590E+03 -0.63960991203E+03  0.92524858105E+03  0.50400001928E-02 0.  1.
</event>
<event>
 5   0  0.2139556E-05  0.2387014E+04  0.7818609E-02  0.8444381E-01
        1   -1    0    0  501    0  0.00000000000E+00  0.00000000000E+00  0.23518386019E+04  0.23518386019E+04  0.50400001928E-02 0.  1.
       -1   -1    0    0    0  501  0.00000000000E+00  0.00000000000E+00 -0.60567882597E+03  0.60567882599E+03  0.50400001928E-02 0. -1.
    10030    2    1    2    0    0  0.00000000000E+00  0.00000000000E+00  0.17461597759E+04  0.29575174279E+04  0.23870139030E+04 0.  0.
        2    1    3    3  502    0  0.28710925853E+03  0.22990261311E+03 -0.53370527803E+03  0.64817301830E+03  0.25500000920E-02 0. -1.
       -2    1    3    3    0  502 -0.28710925853E+03 -0.22990261311E+03  0.22798650540E+04  0.23093444096E+04  0.25500000920E-02 0.  1.
</event>
<event>
 5   0  0.2149920E-05  0.2205400E+04  0.7818609E-02  0.8516184E-01
        1   -1    0    0  501    0  0.00000000000E+00  0.00000000000E+00  0.16476895399E+04  0.16476895399E+04  0.50400001928E-02 0. -1.
       -1   -1    0    0    0  501  0.00000000000E+00  0.00000000000E+00 -0.73797119755E+03  0.73797119756E+03  0.50400001928E-02 0.  1.
    10030    2    1    2    0    0  0.00000000000E+00  0.00000000000E+00  0.90971834237E+03  0.23856607375E+04  0.22054001206E+04 0.  0.
        5    1    3    3  502    0 -0.45228614193E+03 -0.48432094909E+03  0.14082582384E+04  0.15563877704E+04  0.46999998093E+01 0. -1.
       -5    1    3    3    0  502  0.45228614193E+03  0.48432094909E+03 -0.49853989606E+03  0.82927296704E+03  0.46999998093E+01 0.  1.
</event>
<event>
 5   0  0.4713971E-05  0.2389070E+04  0.7818609E-02  0.8443607E-01
        2   -1    0    0  501    0  0.00000000000E+00  0.00000000000E+00  0.17345570799E+04  0.17345570799E+04  0.25500000920E-02 0. -1.
       -2   -1    0    0    0  501  0.00000000000E+00  0.00000000000E+00 -0.82263892857E+03  0.82263892857E+03  0.25500000920E-02 0.  1.
    10030    2    1    2    0    0  0.00000000000E+00  0.00000000000E+00  0.91191815134E+03  0.25571960085E+04  0.23890702608E+04 0.  0.
        5    1    3    3  502    0  0.10491467069E+03  0.10964210018E+04  0.95082104596E+03  0.14550700508E+04  0.46999998093E+01 0.  1.
       -5    1    3    3    0  502 -0.10491467069E+03 -0.10964210018E+04 -0.38902894620E+02  0.11021259577E+04  0.46999998093E+01 0. -1.
</event>
<event>
 5   0  0.2057599E-05  0.2373980E+04  0.7818609E-02  0.8449310E-01
       -1   -1    0    0    0  501  0.00000000000E+00  0.00000000000E+00  0.71838001387E+03  0.71838001389E+03  0.50400001928E-02 0.  1.
        1   -1    0    0  501    0  0.00000000000E+00  0.00000000000E+00 -0.19612819060E+04  0.19612819060E+04  0.50400001928E-02 0. -1.
    10030    2    1    2    0    0  0.00000000000E+00  0.00000000000E+00 -0.12429018922E+04  0.26796619199E+04  0.23739803899E+04 0.  0.
        4    1    3    3  502    0  0.18557642988E+03 -0.11679957936E+04 -0.73595965584E+03  0.13929432914E+04  0.12699999809E+01 0. -1.
       -4    1    3    3    0  502 -0.18557642988E+03  0.11679957936E+04 -0.50694223632E+03  0.12867186285E+04  0.12699999809E+01 0.  1.
</event>
<event>
 5   0  0.4914005E-05  0.2372759E+04  0.7818609E-02  0.8449773E-01
        2   -1    0    0  501    0  0.00000000000E+00  0.00000000000E+00  0.12893616945E+04  0.12893616945E+04  0.25500000920E-02 0. -1.
       -2   -1    0    0    0  501  0.00000000000E+00  0.00000000000E+00 -0.10916221640E+04  0.10916221640E+04  0.25500000920E-02 0.  1.
    10030    2    1    2    0    0  0.00000000000E+00  0.00000000000E+00  0.19773953052E+03  0.23809838585E+04  0.23727585660E+04 0.  0.
        2    1    3    3  502    0  0.83091608345E+03  0.83981479356E+03 -0.10067045660E+02  0.11814447810E+04  0.25500000920E-02 0.  1.
       -2    1    3    3    0  502 -0.83091608345E+03 -0.83981479356E+03  0.20780657618E+03  0.11995390774E+04  0.25500000920E-02 0. -1.
</event>
<event>
 5   0  0.2090039E-05  0.2521716E+04  0.7818609E-02  0.8395290E-01
        1   -1    0    0  501    0  0.00000000000E+00  0.00000000000E+00  0.90769004886E+03  0.90769004887E+03  0.50400001928E-02 0.  1.
       -1   -1    0    0    0  501  0.00000000000E+00  0.00000000000E+00 -0.17514384200E+04  0.17514384200E+04  0.50400001928E-02 0. -1.
    10030    2    1    2    0    0  0.00000000000E+00  0.00000000000E+00 -0.84374837110E+03  0.26591284688E+04  0.25217162608E+04 0.  0.
        1    1    3    3  502    0 -0.25808077630E+03 -0.64870035005E+03 -0.15290126683E+04  0.16808621511E+04  0.50400001928E-02 0. -1.
       -1    1    3    3    0  502  0.25808077630E+03  0.64870035005E+03  0.68526429722E+03  0.97826631769E+03  0.50400001928E-02 0.  1.
</event>
<event>
 5   0  0.4756705E-05  0.2499701E+04  0.7818609E-02  0.8403092E-01
        2   -1    0    0  501    0  0.00000000000E+00  0.00000000000E+00  0.12169645030E+04  0.12169645030E+04  0.25500000920E-02 0.  1.
       -2   -1    0    0    0  501  0.00000000000E+00  0.00000000000E+00 -0.12836254890E+04  0.12836254890E+04  0.25500000920E-02 0. -1.
    10030    2    1    2    0    0  0.00000000000E+00  0.00000000000E+00 -0.66660986038E+02  0.25005899920E+04  0.24997013064E+04 0.  0.
        3    1    3    3  502    0  0.62035621507E+03  0.83666911968E+03  0.65776212786E+03  0.12318717776E+04  0.10100000352E+00 0.  1.
       -3    1    3    3    0  502 -0.62035621507E+03 -0.83666911968E+03 -0.72442311390E+03  0.12687182144E+04  0.10100000352E+00 0. -1.
</event>
<event>
 5   0  0.4713971E-05  0.1899125E+04  0.7818609E-02  0.8655292E-01
       -2   -1    0    0    0  501  0.00000000000E+00  0.00000000000E+00  0.65042632582E+03  0.65042632583E+03  0.25500000920E-02 0.  1.
        2   -1    0    0  501    0  0.00000000000E+00  0.00000000000E+00 -0.13862734726E+04  0.13862734726E+04  0.25500000920E-02 0. -1.
    10030    2    1    2    0    0  0.00000000000E+00  0.00000000000E+00 -0.73584714681E+03  0.20366997985E+04  0.18991248104E+04 0.  0.
        5    1    3    3  502    0  0.50794006530E+03 -0.24672121129E+03 -0.11866200628E+04  0.13141399201E+04  0.46999998093E+01 0. -1.
       -5    1    3    3    0  502 -0.50794006530E+03  0.24672121129E+03  0.45077291602E+03  0.72255987838E+03  0.46999998093E+01 0.  1.
</event>
<event>
 5   0  0.2090039E-05  0.2435526E+04  0.7818609E-02  0.8426322E-01
        1   -1    0    0  501    0  0.00000000000E+00  0.00000000000E+00  0.11680370402E+04  0.11680370402E+04  0.50400001928E-02 0.  1.
       -1   -1    0    0    0  501  0.00000000000E+00  0.00000000000E+00 -0.12696060934E+04  0.12696060935E+04  0.50400001928E-02 0. -1.
    10030    2    1    2    0    0  0.00000000000E+00  0.00000000000E+00 -0.10156905322E+03  0.24376431337E+04  0.24355261802E+04 0.  0.
        1    1    3    3  502    0  0.66838409092E+03 -0.13761357834E+02 -0.10695200522E+04  0.12612691267E+04  0.50400001928E-02 0. -1.
       -1    1    3    3    0  502 -0.66838409092E+03  0.13761357834E+02  0.96795099893E+03  0.11763740070E+04  0.50400001928E-02 0.  1.
</event>
<event>
 5   0  0.2057599E-05  0.2452210E+04  0.7818609E-02  0.8420212E-01
       -1   -1    0    0    0  501  0.00000000000E+00  0.00000000000E+00  0.97211093682E+03  0.97211093683E+03  0.50400001928E-02 0. -1.
        1   -1    0    0  501    0  0.00000000000E+00  0.00000000000E+00 -0.15464628082E+04  0.15464628082E+04  0.50400001928E-02 0.  1.
    10030    2    1    2    0    0  0.00000000000E+00  0.00000000000E+00 -0.57435187134E+03  0.25185737450E+04  0.24522099496E+04 0.  0.
        4    1    3    3  502    0 -0.63261684588E+03  0.10056064937E+04  0.24150012684E+02  0.11882900866E+04  0.12699999809E+01 0. -1.
       -4    1    3    3    0  502  0.63261684588E+03 -0.10056064937E+04 -0.59850188402E+03  0.13302836584E+04  0.12699999809E+01 0.  1.
</event>
<event>
 5   0  0.1672125E-05  0.2405636E+04  0.7818609E-02  0.8437397E-01
        3   -1    0    0  501    0  0.00000000000E+00  0.00000000000E+00  0.16154655807E+04  0.16154655838E+04  0.10100000352E+00 0.  1.
       -3   -1    0    0    0  501  0.00000000000E+00  0.00000000000E+00 -0.89557532622E+03  0.89557533192E+03  0.10100000352E+00 0. -1.
    10030    2    1    2    0    0  0.00000000000E+00  0.00000000000E+00  0.71989025443E+03  0.25110409157E+04  0.24056359870E+04 0.  0.
        2    1    3    3  502    0  0.52500343674E+03 -0.25428422898E+03  0.14579292583E+04  0.15703014997E+04  0.25500000920E-02 0.  1.
       -2    1    3    3    0  502 -0.52500343674E+03  0.25428422898E+03 -0.73803900386E+03  0.94073941606E+03  0.25500000920E-02 0. -1.
</event>
<event>
 5   0  0.2149920E-05  0.2392763E+04  0.7818609E-02  0.8442218E-01
       -1   -1    0    0    0  501  0.00000000000E+00  0.00000000000E+00  0.13232551090E+04  0.13232551090E+04  0.50400001928E-02 0. -1.
        1   -1    0    0  501    0  0.00000000000E+00  0.00000000000E+00 -0.10816729253E+04  0.10816729253E+04  0.50400001928E-02 0.  1.
    10030    2    1    2    0    0  0.00000000000E+00  0.00000000000E+00  0.24158218372E+03  0.24049280343E+04  0.23927634439E+04 0.  0.
        5    1    3    3  502    0  0.53001373622E+03 -0.10520885513E+04  0.33042339290E+03  0.12235222061E+04  0.46999998093E+01 0.  1.
       -5    1    3    3    0  502 -0.53001373622E+03  0.10520885513E+04 -0.88841209174E+02  0.11814058281E+04  0.46999998093E+01 0. -1.
</event>
<event>
 5   0  0.4713971E-05  0.2380531E+04  0.7818609E-02  0.8446829E-01
       -2   -1    0    0    0  501  0.00000000000E+00  0.00000000000E+00  0.79240906362E+03  0.79240906362E+03  0.25500000920E-02 0.  1.
        2   -1    0    0  501    0  0.00000000000E+00  0.00000000000E+00 -0.17878796579E+04  0.17878796579E+04  0.25500000920E-02 0. -1.
    10030    2    1    2    0    0  0.00000000000E+00  0.00000000000E+00 -0.99547059430E+03  0.25802887215E+04  0.23805310715E+04 0.  0.
        5    1    3    3  502    0 -0.23895720553E+03  0.10798757436E+04 -0.97450648935E+03  0.14740818008E+04  0.46999998093E+01 0.  1.
       -5    1    3    3    0  502  0.23895720553E+03 -0.10798757436E+04 -0.20964104955E+02  0.11062069207E+04  0.46999998093E+01 0. -1.
</event>
<event>
 5   0  0.4713971E-05  0.2379354E+04  0.7818609E-02  0.8447274E-01
       -2   -1    0    0    0  501  0.00000000000E+00  0.00000000000E+00  0.52855069412E+03  0.52855069413E+03  0.25500000920E-02 0. -1.
        2   -1    0    0  501    0  0.00000000000E+00  0.00000000000E+00 -0.26777585633E+04  0.26777585634E+04  0.25500000920E-02 0.  1.
    10030    2    1    2    0    0  0.00000000000E+00  0.00000000000E+00 -0.21492078692E+04  0.32063092575E+04  0.23793538176E+04 0.  0.
        5    1    3    3  502    0 -0.87449842910E+03 -0.79909642434E+03 -0.12222608735E+04  0.17021299395E+04  0.46999998093E+01 0. -1.
       -5    1    3    3    0  502  0.87449842910E+03  0.79909642434E+03 -0.92694699571E+03  0.15041793180E+04  0.46999998093E+01 0.  1.
</event>
<event>
 5   0  0.4756705E-05  0.2400175E+04  0.7818609E-02  0.8439438E-01
       -2   -1    0    0    0  501  0.00000000000E+00  0.00000000000E+00  0.74994283506E+03  0.74994283506E+03  0.25500000920E-02 0.  1.
        2   -1    0    0  501    0  0.00000000000E+00  0.00000000000E+00 -0.19204259957E+04  0.19204259957E+04  0.25500000920E-02 0. -1.
    10030    2    1    2    0    0  0.00000000000E+00  0.00000000000E+00 -0.11704831607E+04  0.26703688308E+04  0.24001747568E+04 0.  0.
        3    1    3    3  502    0 -0.85723542177E+02  0.22462437332E+03  0.72287378024E+03  0.76180781509E+03  0.10100000352E+00 0.  1.
       -3    1    3    3    0  502  0.85723542177E+02 -0.22462437332E+03 -0.18933569409E+04  0.19085610157E+04  0.10100000352E+00 0. -1.
</event>
<event>
 5   0  0.4713971E-05  0.2396240E+04  0.7818609E-02  0.8440913E-01
       -2   -1    0    0    0  501  0.00000000000E+00  0.00000000000E+00  0.97997950075E+03  0.97997950075E+03  0.25500000920E-02 0.  1.
        2   -1    0    0  501    0  0.00000000000E+00  0.00000000000E+00 -0.14648174349E+04  0.14648174349E+04  0.25500000920E-02 0. -1.
    10030    2    1    2    0    0  0.00000000000E+00  0.00000000000E+00 -0.48483793416E+03  0.24447969357E+04  0.23962396028E+04 0.  0.
        5    1    3    3  502    0  0.77172600795E+03 -0.85047843909E+03  0.10595951768E+03  0.11533100694E+04  0.46999998093E+01 0.  1.
       -5    1    3    3    0  502 -0.77172600795E+03  0.85047843909E+03 -0.59079745184E+03  0.12914868663E+04  0.46999998093E+01 0. -1.
</event>
<event>
 5   0  0.2139556E-05  0.2399832E+04  0.7818609E-02  0.8439566E-01
        1   -1    0    0  501    0  0.00000000000E+00  0.00000000000E+00  0.19180653365E+04  0.19180653365E+04  0.50400001928E-02 0. -1.
       -1   -1    0    0    0  501  0.00000000000E+00  0.00000000000E+00 -0.75065138910E+03  0.75065138911E+03  0.50400001928E-02 0.  1.
    10030    2    1    2    0    0  0.00000000000E+00  0.00000000000E+00  0.11674139474E+04  0.26687167256E+04  0.23998320018E+04 0.  0.
        2    1    3    3  502    0 -0.10336438528E+04  0.27756370293E+03 -0.19608138004E+02  0.10704418260E+04  0.25500000920E-02 0.  1.
       -2    1    3    3    0  502  0.10336438528E+04 -0.27756370293E+03  0.11870220854E+04  0.15982748997E+04  0.25500000920E-02 0. -1.
</event>
<event>
 5   0  0.4756705E-05  0.2371702E+04  0.7818609E-02  0.8450174E-01
        2   -1    0    0  501    0  0.00000000000E+00  0.00000000000E+00  0.11347961859E+04  0.11347961859E+04  0.25500000920E-02 0. -1.
       -2   -1    0    0    0  501  0.00000000000E+00  0.00000000000E+00 -0.12392030197E+04  0.12392030197E+04  0.25500000920E-02 0.  1.
    10030    2    1    2    0    0  0.00000000000E+00  0.00000000000E+00 -0.10440683384E+03  0.23739992057E+04  0.23717022245E+04 0.  0.
        3    1    3    3  502    0 -0.36942761020E+03  0.62523597103E+03  0.88617242011E+03  0.11457304862E+04  0.10100000352E+00 0. -1.
       -3    1    3    3    0  502  0.36942761020E+03 -0.62523597103E+03 -0.99057925395E+03  0.12282687195E+04  0.10100000352E+00 0.  1.
</event>
<event>
 5   0  0.4664127E-05  0.2420972E+04  0.7818609E-02  0.8431694E-01
        2   -1    0    0  501    0  0.00000000000E+00  0.00000000000E+00  0.16077946243E+04  0.16077946243E+04  0.25500000920E-02 0. -1.
       -2   -1    0    0    0  501  0.00000000000E+00  0.00000000000E+00 -0.91135755268E+03  0.91135755269E+03  0.25500000920E-02 0.  1.
    10030    2    1    2    0    0  0.00000000000E+00  0.00000000000E+00  0.69643707158E+03  0.25191521770E+04  0.24209715190E+04 0.  0.
        4    1    3    3  502    0 -0.22707875046E+03  0.52225453734E+02 -0.88780131254E+03  0.91786983847E+03  0.12699999809E+01 0.  1.
       -4    1    3    3    0  502  0.22707875046E+03 -0.52225453734E+02  0.15842383841E+04  0.16012823385E+04  0.12699999809E+01 0. -1.
</event>
<event>
 5   0  0.4756705E-05  0.2419682E+04  0.7818609E-02  0.8432171E-01
        2   -1    0    0  501    0  0.00000000000E+00  0.00000000000E+00  0.16046205284E+04  0.16046205284E+04  0.25500000920E-02 0. -1.
       -2   -1    0    0    0  501  0.00000000000E+00  0.00000000000E+00 -0.91218789663E+03  0.91218789663E+03  0.25500000920E-02 0.  1.
    10030    2    1    2    0    0  0.00000000000E+00  0.00000000000E+00  0.69243263176E+03  0.25168084250E+04  0.24196821483E+04 0.  0.
        3    1    3    3  502    0 -0.78462068632E+03  0.15770693221E+03 -0.59751484686E+03  0.99876178355E+03  0.10100000352E+00 0.  1.
       -3    1    3    3    0  502  0.78462068632E+03 -0.15770693221E+03  0.12899474786E+04  0.15180466415E+04  0.10100000352E+00 0. -1.
</event>
<event>
 5   0  0.2139556E-05  0.2373324E+04  0.7818609E-02  0.8449559E-01
       -1   -1    0    0    0  501  0.00000000000E+00  0.00000000000E+00  0.21641409927E+04  0.21641409927E+04  0.50400001928E-02 0. -1.
        1   -1    0    0  501    0  0.00000000000E+00  0.00000000000E+00 -0.65068169205E+03  0.65068169207E+03  0.50400001928E-02 0.  1.
    10030    2    1    2    0    0  0.00000000000E+00  0.00000000000E+00  0.15134593007E+04  0.28148226848E+04  0.23733241860E+04 0.  0.
        2    1    3    3  502    0  0.64157450961E+03  0.90531875380E+03  0.25782723012E+03  0.11391640698E+04  0.25500000920E-02 0.  1.
       -2    1    3    3    0  502 -0.64157450961E+03 -0.90531875380E+03  0.12556320705E+04  0.16756586150E+04  0.25500000920E-02 0. -1.
</event>
<event>
 5   0  0.4914005E-05  0.2380937E+04  0.7818609E-02  0.8446675E-01
        2   -1    0    0  501    0  0.00000000000E+00  0.00000000000E+00  0.19993432535E+04  0.19993432535E+04  0.25500000920E-02 0.  1.
       -2   -1    0    0    0  501  0.00000000000E+00  0.00000000000E+00 -0.70884056437E+03  0.70884056438E+03  0.25500000920E-02 0. -1.
    10030    2    1    2    0    0  0.00000000000E+00  0.00000000000E+00  0.12905026891E+04  0.27081838178E+04  0.23809372946E+04 0.  0.
        2    1    3    3  502    0 -0.97405317730E+03 -0.57307623471E+03  0.10708739196E+04  0.15569094112E+04  0.25500000920E-02 0.  1.
       -2    1    3    3    0  502  0.97405317730E+03  0.57307623471E+03  0.21962876947E+03  0.11512744066E+04  0.25500000920E-02 0. -1.
</event>
<event>
 5   0  0.2057599E-05  0.2396523E+04  0.7818609E-02  0.8440807E-01
       -1   -1    0    0    0  501  0.00000000000E+00  0.00000000000E+00  0.72431687815E+03  0.72431687817E+03  0.50400001928E-02 0.  1.
        1   -1    0    0  501    0  0.00000000000E+00  0.00000000000E+00 -0.19823231547E+04  0.19823231547E+04  0.50400001928E-02 0. -1.
    10030    2    1    2    0    0  0.00000000000E+00  0.00000000000E+00 -0.12580062765E+04  0.27066400328E+04  0.23965225798E+04 0.  0.
        4    1    3    3  502    0  0.63356663224E+02  0.97202673726E+03 -0.14171440144E+04  0.17196362450E+04  0.12699999809E+01 0. -1.
       -4    1    3    3    0  502 -0.63356663224E+02 -0.97202673726E+03  0.15913773786E+03  0.98700378785E+03  0.12699999809E+01 0.  1.
</event>
<event>
 5   0  0.2057599E-05  0.2423692E+04  0.7818609E-02  0.8430687E-01
        1   -1    0    0  501    0  0.00000000000E+00  0.00000000000E+00  0.13349535290E+04  0.13349535290E+04  0.50400001928E-02 0. -1.
       -1   -1    0    0    0  501  0.00000000000E+00  0.00000000000E+00 -0.11000908382E+04  0.11000908382E+04  0.50400001928E-02 0.  1.
    10030    2    1    2    0    0  0.00000000000E+00  0.00000000000E+00  0.23486269087E+03  0.24350443672E+04  0.24236915205E+04 0.  0.
        4    1    3    3  502    0 -0.95374467738E+03 -0.55535986457E+03  0.62029059357E+03  0.12660235078E+04  0.12699999809E+01 0.  1.
       -4    1    3    3    0  502  0.95374467738E+03  0.55535986457E+03 -0.38542790270E+03  0.11690208595E+04  0.12699999809E+01 0. -1.
</event>
<event>
 5   0  0.4664127E-05  0.2398813E+04  0.7818609E-02  0.8439948E-01
       -2   -1    0    0    0  501  0.00000000000E+00  0.00000000000E+00  0.97528268000E+03  0.97528268000E+03  0.25500000920E-02 0.  1.
        2   -1    0    0  501    0  0.00000000000E+00  0.00000000000E+00 -0.14750342827E+04  0.14750342828E+04  0.25500000920E-02 0. -1.
    10030    2    1    2    0    0  0.00000000000E+00  0.00000000000E+00 -0.49975160275E+03  0.24503169628E+04  0.23988125299E+04 0.  0.
        4    1    3    3  502    0  0.20844320715E+03  0.10331184985E+03  0.95201465992E+03  0.98002828251E+03  0.12699999809E+01 0.  1.
       -4    1    3    3    0  502 -0.20844320715E+03 -0.10331184985E+03 -0.14517662627E+04  0.14702886802E+04  0.12699999809E+01 0. -1.
</event>
<event>
 5   0  0.2065692E-05  0.2408184E+04  0.7818609E-02  0.8436446E-01
       -1   -1    0    0    0  501  0.00000000000E+00  0.00000000000E+00  0.91426244163E+03  0.91426244164E+03  0.50400001928E-02 0. -1.
        1   -1    0    0  501    0  0.00000000000E+00  0.00000000000E+00 -0.15858002760E+04  0.15858002760E+04  0.50400001928E-02 0.  1.
    10030    2    1    2    0    0  0.00000000000E+00  0.00000000000E+00 -0.67153783432E+03  0.25000627176E+04  0.24081840729E+04 0.  0.
        3    1    3    3  502    0  0.10401278291E+03 -0.66547109728E+02  0.90767210479E+03  0.91603266145E+03  0.10100000352E+00 0. -1.
       -3    1    3    3    0  502 -0.10401278291E+03  0.66547109728E+02 -0.15792099391E+04  0.15840300562E+04  0.10100000352E+00 0.  1.
</event>
<event>
 5   0  0.1672125E-05  0.2509649E+04  0.7818609E-02  0.8399556E-01
       -4   -1    0    0    0  501  0.00000000000E+00  0.00000000000E+00  0.13951531964E+04  0.13951537744E+04  0.12699999809E+01 0. -1.
        4   -1    0    0  501    0  0.00000000000E+00  0.00000000000E+00 -0.11286089915E+04  0.11286097060E+04  0.12699999809E+01 0.  1.
    10030    2    1    2    0    0  0.00000000000E+00  0.00000000000E+00  0.26654420493E+03  0.25237634805E+04  0.25096486392E+04 0.  0.
        5    1    3    3  502    0 -0.11930774687E+04 -0.34513120434E+03 -0.46654808753E+02  0.12428789787E+04  0.46999998093E+01 0.  1.
       -5    1    3    3    0  502  0.11930774687E+04  0.34513120434E+03  0.31319901368E+03  0.12808845017E+04  0.46999998093E+01 0. -1.
</event>
<event>
 5   0  0.4856882E-05  0.2427541E+04  0.7818609E-02  0.8429264E-01
        2   -1    0    0  501    0  0.00000000000E+00  0.00000000000E+00  0.13343025662E+04  0.13343025662E+04  0.25500000920E-02 0. -1.
       -2   -1    0    0    0  501  0.00000000000E+00  0.00000000000E+00 -0.11041262653E+04  0.11041262653E+04  0.25500000920E-02 0.  1.
    10030    2    1    2    0    0  0.00000000000E+00  0.00000000000E+00  0.23017630086E+03  0.24384288314E+04  0.24275407384E+04 0.  0.
        1    1    3    3  502    0 -0.52178214826E+03  0.82695190330E+03 -0.60725648612E+03  0.11510284534E+04  0.50400001928E-02 0.  1.
       -1    1    3    3    0  502  0.52178214826E+03 -0.82695190330E+03  0.83743278699E+03  0.12874003780E+04  0.50400001928E-02 0. -1.
</event>
<event>
 5   0  0.4756705E-05  0.2383719E+04  0.7818609E-02  0.8445624E-01
       -2   -1    0    0    0  501  0.00000000000E+00  0.00000000000E+00  0.69281295312E+03  0.69281295312E+03  0.25500000920E-02 0. -1.
        2   -1    0    0  501    0  0.00000000000E+00  0.00000000000E+00 -0.20503794351E+04  0.20503794351E+04  0.25500000920E-02 0.  1.
    10030    2    1    2    0    0  0.00000000000E+00  0.00000000000E+00 -0.13575664820E+04  0.27431923882E+04  0.23837193051E+04 0.  0.
        3    1    3    3  502    0  0.10001471368E+04  0.32573527711E+03 -0.13237792163E+04  0.16907954310E+04  0.10100000352E+00 0.  1.
       -3    1    3    3    0  502 -0.10001471368E+04 -0.32573527711E+03 -0.33787265667E+02  0.10523969572E+04  0.10100000352E+00 0. -1.
</event>
<event>
 5   0  0.4664127E-05  0.2394510E+04  0.7818609E-02  0.8441562E-01
        2   -1    0    0  501    0  0.00000000000E+00  0.00000000000E+00  0.12743041776E+04  0.12743041776E+04  0.25500000920E-02 0. -1.
       -2   -1    0    0    0  501  0.00000000000E+00  0.00000000000E+00 -0.11248641045E+04  0.11248641045E+04  0.25500000920E-02 0.  1.
    10030    2    1    2    0    0  0.00000000000E+00  0.00000000000E+00  0.14944007309E+03  0.23991682821E+04  0.23945095761E+04 0.  0.
        4    1    3    3  502    0 -0.47440940356E+03  0.98757081668E+03  0.55841907318E+03  0.12297129236E+04  0.12699999809E+01 0. -1.
       -4    1    3    3    0  502  0.47440940356E+03 -0.98757081668E+03 -0.40897900010E+03  0.11694553585E+04  0.12699999809E+01 0.  1.
</event>
<event>
 5   0  0.2090039E-05  0.2442331E+04  0.7818609E-02  0.8423824E-01
       -1   -1    0    0    0  501  0.00000000000E+00  0.00000000000E+00  0.84987831175E+03  0.84987831176E+03  0.50400001928E-02 0. -1.
        1   -1    0    0  501    0  0.00000000000E+00  0.00000000000E+00 -0.17546566292E+04  0.17546566292E+04  0.50400001928E-02 0.  1.
    10030    2    1    2    0    0  0.00000000000E+00  0.00000000000E+00 -0.90477831741E+03  0.26045349409E+04  0.24423305376E+04 0.  0.
        1    1    3    3  502    0  0.34004394525E+03  0.46122370418E+03  0.69760222191E+03  0.90277685506E+03  0.50400001928E-02 0. -1.
       -1    1    3    3    0  502 -0.34004394525E+03 -0.46122370418E+03 -0.16023805393E+04  0.17017580859E+04  0.50400001928E-02 0.  1.
</event>
<event>
 5   0  0.4664127E-05  0.2387999E+04  0.7818609E-02  0.8444010E-01
       -2   -1    0    0    0  501  0.00000000000E+00  0.00000000000E+00  0.75690279297E+03  0.75690279297E+03  0.25500000920E-02 0.  1.
        2   -1    0    0  501    0  0.00000000000E+00  0.00000000000E+00 -0.18835111230E+04  0.18835111230E+04  0.25500000920E-02 0. -1.
    10030    2    1    2    0    0  0.00000000000E+00  0.00000000000E+00 -0.11266083301E+04  0.26404139160E+04  0.23879990198E+04 0.  0.
        4    1    3    3  502    0  0.80061555472E+03 -0.21311071158E+03 -0.15139706466E+04  0.17258360795E+04  0.12699999809E+01 0. -1.
       -4    1    3    3    0  502 -0.80061555472E+03  0.21311071158E+03  0.38736231649E+03  0.91457783649E+03  0.12699999809E+01 0.  1.
</event>
<event>
 5   0  0.2065692E-05  0.2421324E+04  0.7818609E-02  0.8431563E-01
       -1   -1    0    0    0  501  0.00000000000E+00  0.00000000000E+00  0.12748112794E+04  0.12748112794E+04  0.50400001928E-02 0. -1.
        1   -1    0    0  501    0  0.00000000000E+00  0.00000000000E+00 -0.11497404962E+04  0.11497404962E+04  0.50400001928E-02 0.  1.
    10030    2    1    2    0    0  0.00000000000E+00  0.00000000000E+00  0.12507078323E+03  0.24245517756E+04  0.24213237313E+04 0.  0.
        3    1    3    3  502    0 -0.11944456695E+03  0.95162671427E+02 -0.11400566634E+04  0.11502400378E+04  0.10100000352E+00 0.  1.
       -3    1    3    3    0  502  0.11944456695E+03 -0.95162671427E+02  0.12651274467E+04  0.12743117378E+04  0.10100000352E+00 0. -1.
</event>
<event>
 5   0  0.4756705E-05  0.2360284E+04  0.7818609E-02  0.8454524E-01
        2   -1    0    0  501    0  0.00000000000E+00  0.00000000000E+00  0.89816447487E+03  0.89816447487E+03  0.25500000920E-02 0.  1.
       -2   -1    0    0    0  501  0.00000000000E+00  0.00000000000E+00 -0.15506461253E+04  0.15506461253E+04  0.25500000920E-02 0. -1.
    10030    2    1    2    0    0  0.00000000000E+00  0.00000000000E+00 -0.65248165048E+03  0.24488106002E+04  0.23602841040E+04 0.  0.
        3    1    3    3  502    0 -0.47735692756E+03  0.18142252925E+03 -0.14300775050E+04  0.15185208101E+04  0.10100000352E+00 0. -1.
       -3    1    3    3    0  502  0.47735692756E+03 -0.18142252925E+03  0.77759585449E+03  0.93028979008E+03  0.10100000352E+00 0.  1.
</event>
<event>
 5   0  0.4756705E-05  0.2398135E+04  0.7818609E-02  0.8440202E-01
        2   -1    0    0  501    0  0.00000000000E+00  0.00000000000E+00  0.18584937698E+04  0.18584937698E+04  0.25500000920E-02 0.  1.
       -2   -1    0    0    0  501  0.00000000000E+00  0.00000000000E+00 -0.77361701468E+03  0.77361701468E+03  0.25500000920E-02 0. -1.
    10030    2    1    2    0    0  0.00000000000E+00  0.00000000000E+00  0.10848767551E+04  0.26321107845E+04  0.23981346101E+04 0.  0.
        3    1    3    3  502    0  0.28342163946E+03 -0.32600418475E+03  0.17701215723E+04  0.18220694128E+04  0.10100000352E+00 0.  1.
       -3    1    3    3    0  502 -0.28342163946E+03  0.32600418475E+03 -0.68524481716E+03  0.81004137168E+03  0.10100000352E+00 0. -1.
</event>
<event>
 5   0  0.2057599E-05  0.2349161E+04  0.7818609E-02  0.8458786E-01
       -1   -1    0    0    0  501  0.00000000000E+00  0.00000000000E+00  0.70800420597E+03  0.70800420598E+03  0.50400001928E-02 0.  1.
        1   -1    0    0  501    0  0.00000000000E+00  0.00000000000E+00 -0.19486317531E+04  0.19486317531E+04  0.50400001928E-02 0. -1.
    10030    2    1    2    0    0  0.00000000000E+00  0.00000000000E+00 -0.12406275471E+04  0.26566359591E+04  0.23491611074E+04 0.  0.
        4    1    3    3  502    0  0.86464081119E+02  0.79219048099E+03  0.35552846924E+03  0.87260752967E+03  0.12699999809E+01 0.  1.
       -4    1    3    3    0  502 -0.86464081119E+02 -0.79219048099E+03 -0.15961560164E+04  0.17840284294E+04  0.12699999809E+01 0. -1.
</event>
<event>
 5   0  0.2090039E-05  0.2413452E+04  0.7818609E-02  0.8434484E-01
        1   -1    0    0  501    0  0.00000000000E+00  0.00000000000E+00  0.21423464930E+04  0.21423464930E+04  0.50400001928E-02 0. -1.
       -1   -1    0    0    0  501  0.00000000000E+00  0.00000000000E+00 -0.67971638239E+03  0.67971638241E+03  0.50400001928E-02 0.  1.
    10030    2    1    2    0    0  0.00000000000E+00  0.00000000000E+00  0.14626301106E+04  0.28220628754E+04  0.24134523058E+04 0.  0.
        1    1    3    3  502    0  0.44928666950E+03  0.51696308121E+03 -0.43041131672E+03  0.80892721571E+03  0.50400001928E-02 0.  1.
       -1    1    3    3    0  502 -0.44928666950E+03 -0.51696308121E+03  0.18930414273E+04  0.20131356597E+04  0.50400001928E-02 0. -1.
</event>
<event>
 5   0  0.4856882E-05  0.2464711E+04  0.7818609E-02  0.8415666E-01
       -2   -1    0    0    0  501  0.00000000000E+00  0.00000000000E+00  0.84669153409E+03  0.84669153409E+03  0.25500000920E-02 0.  1.
        2   -1    0    0  501    0  0.00000000000E+00  0.00000000000E+00 -0.17936872686E+04  0.17936872686E+04  0.25500000920E-02 0. -1.
    10030    2    1    2    0    0  0.00000000000E+00  0.00000000000E+00 -0.94699573448E+03  0.26403788027E+04  0.24647107945E+04 0.  0.
        1    1    3    3  502    0 -0.24518431923E+03  0.93324388518E+03  0.34771560537E+03  0.10256537632E+04  0.50400001928E-02 0.  1.
       -1    1    3    3    0  502  0.24518431923E+03 -0.93324388518E+03 -0.12947113399E+04  0.16147250395E+04  0.50400001928E-02 0. -1.
</event>
<event>
 5   0  0.2057599E-05  0.2377886E+04  0.7818609E-02  0.8447830E-01
       -1   -1    0    0    0  501  0.00000000000E+00  0.00000000000E+00  0.10902461587E+04  0.10902461587E+04  0.50400001928E-02 0. -1.
        1   -1    0    0  501    0  0.00000000000E+00  0.00000000000E+00 -0.12965740829E+04  0.12965740829E+04  0.50400001928E-02 0.  1.
    10030    2    1    2    0    0  0.00000000000E+00  0.00000000000E+00 -0.20632792426E+03  0.23868202416E+04  0.23778855425E+04 0.  0.
        4    1    3    3  502    0  0.15631090532E+03  0.11725705560E+04 -0.22289540326E+03  0.12037602675E+04  0.12699999809E+01 0. -1.
       -4    1    3    3    0  502 -0.15631090532E+03 -0.11725705560E+04  0.16567478997E+02  0.11830599741E+04  0.12699999809E+01 0.  1.
</event>
<event>
 5   0  0.4713971E-05  0.2414020E+04  0.7818609E-02  0.8434273E-01
       -2   -1    0    0    0  501  0.00000000000E+00  0.00000000000E+00  0.91075858269E+03  0.91075858270E+03  0.25500000920E-02 0. -1.
        2   -1    0    0  501    0  0.00000000000E+00  0.00000000000E+00 -0.15996255218E+04  0.15996255218E+04  0.25500000920E-02 0.  1.
    10030    2    1    2    0    0  0.00000000000E+00  0.00000000000E+00 -0.68886693907E+03  0.25103841045E+04  0.24140196131E+04 0.  0.
        5    1    3    3  502    0 -0.14982518552E+03 -0.37187599938E+03 -0.15283484617E+04  0.15800665985E+04  0.46999998093E+01 0.  1.
       -5    1    3    3    0  502  0.14982518552E+03  0.37187599938E+03  0.83948152264E+03  0.93031750601E+03  0.46999998093E+01 0. -1.
</event>
<event>
 5   0  0.2139556E-05  0.2420746E+04  0.7818609E-02  0.8431777E-01
        1   -1    0    0  501    0  0.00000000000E+00  0.00000000000E+00  0.14818476437E+04  0.14818476437E+04  0.50400001928E-02 0.  1.
       -1   -1    0    0    0  501  0.00000000000E+00  0.00000000000E+00 -0.98863288061E+03  0.98863288062E+03  0.50400001928E-02 0. -1.
    10030    2    1    2    0    0  0.00000000000E+00  0.00000000000E+00  0.49321476308E+03  0.24704805243E+04  0.24207464176E+04 0.  0.
        2    1    3    3  502    0  0.69094962470E+03 -0.26293258093E+03  0.12246592270E+04  0.14305017121E+04  0.25500000920E-02 0.  1.
       -2    1    3    3    0  502 -0.69094962470E+03  0.26293258093E+03 -0.73144446395E+03  0.10399788122E+04  0.25500000920E-02 0. -1.
</event>
<event>
 5   0  0.2149920E-05  0.2040795E+04  0.7818609E-02  0.8587781E-01
       -1   -1    0    0    0  501  0.00000000000E+00  0.00000000000E+00  0.10270911205E+04  0.10270911205E+04  0.50400001928E-02 0.  1.
        1   -1    0    0  501    0  0.00000000000E+00  0.00000000000E+00 -0.10137479466E+04  0.10137479466E+04  0.50400001928E-02 0. -1.
    10030    2    1    2    0    0  0.00000000000E+00  0.00000000000E+00  0.13343173854E+02  0.20408390671E+04  0.20407954473E+04 0.  0.
        5    1    3    3  502    0  0.51613933351E+03  0.62825899493E+02 -0.87132355622E+03  0.10146791290E+04  0.46999998093E+01 0. -1.
       -5    1    3    3    0  502 -0.51613933351E+03 -0.62825899493E+02  0.88466673007E+03  0.10261599381E+04  0.46999998093E+01 0.  1.
</event>
<event>
 5   0  0.2090039E-05  0.2398902E+04  0.7818609E-02  0.8439915E-01
        1   -1    0    0  501    0  0.00000000000E+00  0.00000000000E+00  0.19558183899E+04  0.19558183899E+04  0.50400001928E-02 0.  1.
       -1   -1    0    0    0  501  0.00000000000E+00  0.00000000000E+00 -0.73559129912E+03  0.73559129914E+03  0.50400001928E-02 0. -1.
    10030    2    1    2    0    0  0.00000000000E+00  0.00000000000E+00  0.12202270908E+04  0.26914096891E+04  0.23989022409E+04 0.  0.
        1    1    3    3  502    0 -0.72810613435E+02 -0.41338981093E+03 -0.65049810210E+03  0.77417071894E+03  0.50400001928E-02 0. -1.
       -1    1    3    3    0  502  0.72810613435E+02  0.41338981093E+03  0.18707251929E+04  0.19172389701E+04  0.50400001928E-02 0.  1.
</event>
<event>
 5   0  0.4713971E-05  0.2421943E+04  0.7818609E-02  0.8431334E-01
       -2   -1    0    0    0  501  0.00000000000E+00  0.00000000000E+00  0.10188134833E+04  0.10188134833E+04  0.25500000920E-02 0.  1.
        2   -1    0    0  501    0  0.00000000000E+00  0.00000000000E+00 -0.14393728762E+04  0.14393728762E+04  0.25500000920E-02 0. -1.
    10030    2    1    2    0    0  0.00000000000E+00  0.00000000000E+00 -0.42055939288E+03  0.24581863596E+04  0.24219434294E+04 0.  0.
        5    1    3    3  502    0 -0.40429621819E+03  0.72978972736E+03  0.68056880151E+03  0.10766821545E+04  0.46999998093E+01 0.  1.
       -5    1    3    3    0  502  0.40429621819E+03 -0.72978972736E+03 -0.11011281944E+04  0.13815042051E+04  0.46999998093E+01 0. -1.
</event>
<event>
 5   0  0.2139556E-05  0.2042347E+04  0.7818609E-02  0.8587074E-01
       -1   -1    0    0    0  501  0.00000000000E+00  0.00000000000E+00  0.97474216002E+03  0.97474216003E+03  0.50400001928E-02 0. -1.
        1   -1    0    0  501    0  0.00000000000E+00  0.00000000000E+00 -0.10698160498E+04  0.10698160498E+04  0.50400001928E-02 0.  1.
    10030    2    1    2    0    0  0.00000000000E+00  0.00000000000E+00 -0.95073889791E+02  0.20445582098E+04  0.20423465007E+04 0.  0.
        2    1    3    3  502    0  0.89450413995E+03  0.48446930408E+03 -0.13677743347E+03  0.10264288720E+04  0.25500000920E-02 0.  1.
       -2    1    3    3    0  502 -0.89450413995E+03 -0.48446930408E+03  0.41703543683E+02  0.10181293378E+04  0.25500000920E-02 0. -1.
</event>
<event>
 5   0  0.2065692E-05  0.2381797E+04  0.7818609E-02  0.8446350E-01
       -1   -1    0    0    0  501  0.00000000000E+00  0.00000000000E+00  0.83898652262E+03  0.83898652264E+03  0.50400001928E-02 0. -1.
        1   -1    0    0  501    0  0.00000000000E+00  0.00000000000E+00 -0.16904189589E+04  0.16904189589E+04  0.50400001928E-02 0.  1.
    10030    2    1    2    0    0  0.00000000000E+00  0.00000000000E+00 -0.85143243624E+03  0.25294054815E+04  0.23817965691E+04 0.  0.
        3    1    3    3  502    0  0.13006633402E+03  0.11799215706E+04 -0.32437392558E+03  0.12305895408E+04  0.10100000352E+00 0. -1.
       -3    1    3    3    0  502 -0.13006633402E+03 -0.11799215706E+04 -0.52705851066E+03  0.12988159407E+04  0.10100000352E+00 0.  1.
</event>
<event>
 5   0  0.4756705E-05  0.2413644E+04  0.7818609E-02  0.8434413E-01
       -2   -1    0    0    0  501  0.00000000000E+00  0.00000000000E+00  0.87912131788E+03  0.87912131789E+03  0.25500000920E-02 0. -1.
        2   -1    0    0  501    0  0.00000000000E+00  0.00000000000E+00 -0.16566766873E+04  0.16566766873E+04  0.25500000920E-02 0.  1.
    10030    2    1    2    0    0  0.00000000000E+00  0.00000000000E+00 -0.77755536942E+03  0.25357980052E+04  0.24136443753E+04 0.  0.
        3    1    3    3  502    0  0.53266508618E+03 -0.10425101397E+04 -0.80928811992E+02  0.11735028624E+04  0.10100000352E+00 0. -1.
       -3    1    3    3    0  502 -0.53266508618E+03  0.10425101397E+04 -0.69662655743E+03  0.13622951428E+04  0.10100000352E+00 0.  1.
</event>
<event>
 5   0  0.4713971E-05  0.2309409E+04  0.7818609E-02  0.8474220E-01
       -2   -1    0    0    0  501  0.00000000000E+00  0.00000000000E+00  0.10341608124E+04  0.10341608125E+04  0.25500000920E-02 0. -1.
        2   -1    0    0  501    0  0.00000000000E+00  0.00000000000E+00 -0.12892992135E+04  0.12892992135E+04  0.25500000920E-02 0.  1.
    10030    2    1    2    0    0  0.00000000000E+00  0.00000000000E+00 -0.25513840104E+03  0.23234600259E+04  0.23094092077E+04 0.  0.
        5    1    3    3  502    0 -0.55814063168E+03 -0.25602563589E+03 -0.11113994216E+04  0.12697640943E+04  0.46999998093E+01 0.  1.
       -5    1    3    3    0  502  0.55814063168E+03  0.25602563589E+03  0.85626102055E+03  0.10536959316E+04  0.46999998093E+01 0. -1.
</event>
<event>
 5   0  0.4856882E-05  0.2292403E+04  0.7818609E-02  0.8480923E-01
       -2   -1    0    0    0  501  0.00000000000E+00  0.00000000000E+00  0.95889052180E+03  0.95889052181E+03  0.25500000920E-02 0.  1.
        2   -1    0    0  501    0  0.00000000000E+00  0.00000000000E+00 -0.13701017642E+04  0.13701017642E+04  0.25500000920E-02 0. -1.
    10030    2    1    2    0    0  0.00000000000E+00  0.00000000000E+00 -0.41121124237E+03  0.23289922860E+04  0.22924027531E+04 0.  0.
        1    1    3    3  502    0 -0.43802494523E+03 -0.25206889681E+03  0.83958741547E+03  0.97995490183E+03  0.50400001928E-02 0.  1.
       -1    1    3    3    0  502  0.43802494523E+03  0.25206889681E+03 -0.12507986578E+04  0.13490373842E+04  0.50400001928E-02 0. -1.
</event>
<event>
 5   0  0.2057599E-05  0.2415438E+04  0.7818609E-02  0.8433747E-01
       -1   -1    0    0    0  501  0.00000000000E+00  0.00000000000E+00  0.72138567350E+03  0.72138567352E+03  0.50400001928E-02 0.  1.
        1   -1    0    0  501    0  0.00000000000E+00  0.00000000000E+00 -0.20219206951E+04  0.20219206951E+04  0.50400001928E-02 0. -1.
    10030    2    1    2    0    0  0.00000000000E+00  0.00000000000E+00 -0.13005350216E+04  0.27433063687E+04  0.24154375359E+04 0.  0.
        4    1    3    3  502    0 -0.89179140472E+03 -0.46591749904E+02  0.27319389556E+03  0.93386252637E+03  0.12699999809E+01 0.  1.
       -4    1    3    3    0  502  0.89179140472E+03  0.46591749904E+02 -0.15737289172E+04  0.18094438423E+04  0.12699999809E+01 0. -1.
</event>
<event>
 5   0  0.2065692E-05  0.2380096E+04  0.7818609E-02  0.8446993E-01
       -1   -1    0    0    0  501  0.00000000000E+00  0.00000000000E+00  0.10647705223E+04  0.10647705223E+04  0.50400001928E-02 0.  1.
        1   -1    0    0  501    0  0.00000000000E+00  0.00000000000E+00 -0.13300654721E+04  0.13300654721E+04  0.50400001928E-02 0. -1.
    10030    2    1    2    0    0  0.00000000000E+00  0.00000000000E+00 -0.26529494982E+03  0.23948359944E+04  0.23800962228E+04 0.  0.
        3    1    3    3  502    0 -0.80220027907E+02 -0.34719456956E+03 -0.12751241309E+04  0.13239791846E+04  0.10100000352E+00 0. -1.
       -3    1    3    3    0  502  0.80220027907E+02  0.34719456956E+03  0.10098291810E+04  0.10708568098E+04  0.10100000352E+00 0.  1.
</event>
<event>
 5   0  0.2090039E-05  0.2453685E+04  0.7818609E-02  0.8419674E-01
       -1   -1    0    0    0  501  0.00000000000E+00  0.00000000000E+00  0.97639652619E+03  0.97639652620E+03  0.50400001928E-02 0.  1.
        1   -1    0    0  501    0  0.00000000000E+00  0.00000000000E+00 -0.15415283760E+04  0.15415283760E+04  0.50400001928E-02 0. -1.
    10030    2    1    2    0    0  0.00000000000E+00  0.00000000000E+00 -0.56513184977E+03  0.25179249022E+04  0.24536853517E+04 0.  0.
        1    1    3    3  502    0 -0.71642754599E+03 -0.71037845550E+03  0.43373254069E+03  0.10981939244E+04  0.50400001928E-02 0.  1.
       -1    1    3    3    0  502  0.71642754599E+03  0.71037845550E+03 -0.99886439047E+03  0.14197309778E+04  0.50400001928E-02 0. -1.
</event>
<event>
 5   0  0.4914005E-05  0.1989688E+04  0.7818609E-02  0.8611457E-01
        2   -1    0    0  501    0  0.00000000000E+00  0.00000000000E+00  0.14992023086E+04  0.14992023086E+04  0.25500000920E-02 0.  1.
       -2   -1    0    0    0  501  0.00000000000E+00  0.00000000000E+00 -0.66016082828E+03  0.66016082829E+03  0.25500000920E-02 0. -1.
    10030    2    1    2    0    0  0.00000000000E+00  0.00000000000E+00  0.83904148035E+03  0.21593631369E+04  0.19896880538E+04 0.  0.
        2    1    3    3  502    0 -0.64766974028E+03 -0.39504864473E+03 -0.27892502869E+03  0.80829369403E+03  0.25500000920E-02 0. -1.
       -2    1    3    3    0  502  0.64766974028E+03  0.39504864473E+03  0.11179665090E+04  0.13510694429E+04  0.25500000920E-02 0.  1.
</event>
<event>
 5   0  0.2090039E-05  0.2415735E+04  0.7818609E-02  0.8433636E-01
       -1   -1    0    0    0  501  0.00000000000E+00  0.00000000000E+00  0.95410730203E+03  0.95410730204E+03  0.50400001928E-02 0. -1.
        1   -1    0    0  501    0  0.00000000000E+00  0.00000000000E+00 -0.15291187312E+04  0.15291187312E+04  0.50400001928E-02 0.  1.
    10030    2    1    2    0    0  0.00000000000E+00  0.00000000000E+00 -0.57501142916E+03  0.24832260332E+04  0.24157345443E+04 0.  0.
        1    1    3    3  502    0  0.52369296453E+01 -0.11067891261E+04 -0.78468552709E+03  0.13567390948E+04  0.50400001928E-02 0.  1.
       -1    1    3    3    0  502 -0.52369296453E+01  0.11067891261E+04  0.20967409793E+03  0.11264869384E+04  0.50400001928E-02 0. -1.
</event>
<event>
 5   0  0.1672125E-05  0.2380682E+04  0.7818609E-02  0.8446772E-01
        4   -1    0    0  501    0  0.00000000000E+00  0.00000000000E+00  0.15957986712E+04  0.15957991766E+04  0.12699999809E+01 0.  1.
       -4   -1    0    0    0  501  0.00000000000E+00  0.00000000000E+00 -0.88789999736E+03  0.88790090563E+03  0.12699999809E+01 0. -1.
    10030    2    1    2    0    0  0.00000000000E+00  0.00000000000E+00  0.70789867383E+03  0.24837000822E+04  0.23806817439E+04 0.  0.
        1    1    3    3  502    0 -0.98114426865E+03 -0.19381642325E+03 -0.31950920865E+03  0.10499023842E+04  0.50400001928E-02 0. -1.
       -1    1    3    3    0  502  0.98114426865E+03  0.19381642325E+03  0.10274078825E+04  0.14337976980E+04  0.50400001928E-02 0.  1.
</event>
<event>
 5   0  0.2057599E-05  0.2371431E+04  0.7818609E-02  0.8450277E-01
        1   -1    0    0  501    0  0.00000000000E+00  0.00000000000E+00  0.14420893990E+04  0.14420893990E+04  0.50400001928E-02 0.  1.
       -1   -1    0    0    0  501  0.00000000000E+00  0.00000000000E+00 -0.97491960261E+03  0.97491960263E+03  0.50400001928E-02 0. -1.
    10030    2    1    2    0    0  0.00000000000E+00  0.00000000000E+00  0.46716979637E+03  0.24170090016E+04  0.23714309805E+04 0.  0.
        4    1    3    3  502    0  0.87788783922E+03 -0.73250985784E+03 -0.86556936708E+02  0.11466261231E+04  0.12699999809E+01 0. -1.
       -4    1    3    3    0  502 -0.87788783922E+03  0.73250985784E+03  0.55372673308E+03  0.12703828785E+04  0.12699999809E+01 0.  1.
</event>
<event>
 5   0  0.4856882E-05  0.2410143E+04  0.7818609E-02  0.8435716E-01
       -2   -1    0    0    0  501  0.00000000000E+00  0.00000000000E+00  0.87222119819E+03  0.87222119819E+03  0.25500000920E-02 0. -1.
        2   -1    0    0  501    0  0.00000000000E+00  0.00000000000E+00 -0.16649418878E+04  0.16649418878E+04  0.25500000920E-02 0.  1.
    10030    2    1    2    0    0  0.00000000000E+00  0.00000000000E+00 -0.79272068959E+03  0.25371630860E+04  0.24101432391E+04 0.  0.
        1    1    3    3  502    0 -0.29566786154E+03 -0.33963563408E+03  0.78032611955E+03  0.90093323902E+03  0.50400001928E-02 0. -1.
       -1    1    3    3    0  502  0.29566786154E+03  0.33963563408E+03 -0.15730468091E+04  0.16362298470E+04  0.50400001928E-02 0.  1.
</event>
<event>
 5   0  0.4756705E-05  0.2279794E+04  0.7818609E-02  0.8485931E-01
       -2   -1    0    0    0  501  0.00000000000E+00  0.00000000000E+00  0.11046308957E+04  0.11046308957E+04  0.25500000920E-02 0.  1.
        2   -1    0    0  501    0  0.00000000000E+00  0.00000000000E+00 -0.11762887442E+04  0.11762887442E+04  0.25500000920E-02 0. -1.
    10030    2    1    2    0    0  0.00000000000E+00  0.00000000000E+00 -0.71657848451E+02  0.22809196399E+04  0.22797937531E+04 0.  0.
        3    1    3    3  502    0  0.31707438401E+02  0.14364259042E+03  0.10950948829E+04  0.11049304811E+04  0.10100000352E+00 0.  1.
       -3    1    3    3    0  502 -0.31707438401E+02 -0.14364259042E+03 -0.11667527313E+04  0.11759891588E+04  0.10100000352E+00 0. -1.
</event>
<event>
 5   0  0.2139556E-05  0.2387315E+04  0.7818609E-02  0.8444268E-01
        1   -1    0    0  501    0  0.00000000000E+00  0.00000000000E+00  0.14079885795E+04  0.14079885796E+04  0.50400001928E-02 0.  1.
       -1   -1    0    0    0  501  0.00000000000E+00  0.00000000000E+00 -0.10119528944E+04  0.10119528944E+04  0.50400001928E-02 0. -1.
    10030    2    1    2    0    0  0.00000000000E+00  0.00000000000E+00  0.39603568512E+03  0.24199414740E+04  0.23873149088E+04 0.  0.
        2    1    3    3  502    0 -0.99361761009E+03  0.65551621766E+03  0.28777544301E+03  0.12246600232E+04  0.25500000920E-02 0.  1.
       -2    1    3    3    0  502  0.99361761009E+03 -0.65551621766E+03  0.10826024211E+03  0.11952814508E+04  0.25500000920E-02 0. -1.
</event>
<event>
 5   0  0.2149920E-05  0.2406047E+04  0.7818609E-02  0.8437243E-01
        1   -1    0    0  501    0  0.00000000000E+00  0.00000000000E+00  0.97380202937E+03  0.97380202939E+03  0.50400001928E-02 0.  1.
       -1   -1    0    0    0  501  0.00000000000E+00  0.00000000000E+00 -0.14862006928E+04  0.14862006928E+04  0.50400001928E-02 0. -1.
    10030    2    1    2    0    0  0.00000000000E+00  0.00000000000E+00 -0.51239866341E+03  0.24600027222E+04  0.24060467582E+04 0.  0.
        5    1    3    3  502    0  0.10370129754E+04 -0.39337628189E+03 -0.73259059412E+03  0.13292298066E+04  0.46999998093E+01 0. -1.
       -5    1    3    3    0  502 -0.10370129754E+04  0.39337628189E+03  0.22019193071E+03  0.11307729156E+04  0.46999998093E+01 0.  1.
</event>
<event>
 5   0  0.4713971E-05  0.2412517E+04  0.7818609E-02  0.8434832E-01
       -2   -1    0    0    0  501  0.00000000000E+00  0.00000000000E+00  0.95879437410E+03  0.95879437411E+03  0.25500000920E-02 0. -1.
        2   -1    0    0  501    0  0.00000000000E+00  0.00000000000E+00 -0.15175933410E+04  0.15175933410E+04  0.25500000920E-02 0.  1.
    10030    2    1    2    0    0  0.00000000000E+00  0.00000000000E+00 -0.55879896690E+03  0.24763877151E+04  0.24125173222E+04 0.  0.
        5    1    3    3  502    0 -0.91780200682E+03  0.57429171657E+03 -0.82533186852E+03  0.13613839586E+04  0.46999998093E+01 0.  1.
       -5    1    3    3    0  502  0.91780200682E+03 -0.57429171657E+03  0.26653290163E+03  0.11150037565E+04  0.46999998093E+01 0. -1.
</event>
<event>
 5   0  0.4856882E-05  0.2275649E+04  0.7818609E-02  0.8487585E-01
        2   -1    0    0  501    0  0.00000000000E+00  0.00000000000E+00  0.11161367892E+04  0.11161367892E+04  0.25500000920E-02 0.  1.
       -2   -1    0    0    0  501  0.00000000000E+00  0.00000000000E+00 -0.11599337062E+04  0.11599337063E+04  0.25500000920E-02 0. -1.
    10030    2    1    2    0    0  0.00000000000E+00  0.00000000000E+00 -0.43796917092E+02  0.22760704954E+04  0.22756490789E+04 0.  0.
        1    1    3    3  502    0  0.44512697799E+03  0.18691275247E+03 -0.10524145863E+04  0.11578647870E+04  0.50400001928E-02 0. -1.
       -1    1    3    3    0  502 -0.44512697799E+03 -0.18691275247E+03  0.10086176692E+04  0.11182057084E+04  0.50400001928E-02 0.  1.
</event>
<event>
 5   0  0.1672125E-05  0.2372191E+04  0.7818609E-02  0.8449989E-01
       -3   -1    0    0    0  501  0.00000000000E+00  0.00000000000E+00  0.65331547054E+03  0.65331547835E+03  0.10100000352E+00 0.  1.
        3   -1    0    0  501    0  0.00000000000E+00  0.00000000000E+00 -0.21533583870E+04  0.21533583894E+04  0.10100000352E+00 0. -1.
    10030    2    1    2    0    0  0.00000000000E+00  0.00000000000E+00 -0.15000429165E+04  0.28066738677E+04  0.23721908542E+04 0.  0.
        2    1    3    3  502    0 -0.28455967988E+03  0.11063667642E+04 -0.37252074374E+03  0.12015795159E+04  0.25500000920E-02 0. -1.
       -2    1    3    3    0  502  0.28455967988E+03 -0.11063667642E+04 -0.11275221727E+04  0.16050943519E+04  0.25500000920E-02 0.  1.
</event>
<event>
 5   0  0.2057599E-05  0.2355613E+04  0.7818609E-02  0.8456311E-01
        1   -1    0    0  501    0  0.00000000000E+00  0.00000000000E+00  0.25841554687E+04  0.25841554687E+04  0.50400001928E-02 0.  1.
       -1   -1    0    0    0  501  0.00000000000E+00  0.00000000000E+00 -0.53682055782E+03  0.53682055784E+03  0.50400001928E-02 0. -1.
    10030    2    1    2    0    0  0.00000000000E+00  0.00000000000E+00  0.20473349109E+04  0.31209760265E+04  0.23556126848E+04 0.  0.
        4    1    3    3  502    0  0.86317628560E+03 -0.79404007761E+03  0.88064324225E+03  0.14666652917E+04  0.12699999809E+01 0.  1.
       -4    1    3    3    0  502 -0.86317628560E+03  0.79404007761E+03  0.11666916686E+04  0.16543107348E+04  0.12699999809E+01 0. -1.
</event>
<event>
 5   0  0.4664127E-05  0.2407041E+04  0.7818609E-02  0.8436872E-01
       -2   -1    0    0    0  501  0.00000000000E+00  0.00000000000E+00  0.61356011030E+03  0.61356011031E+03  0.25500000920E-02 0.  1.
        2   -1    0    0  501    0  0.00000000000E+00  0.00000000000E+00 -0.23607488739E+04  0.23607488739E+04  0.25500000920E-02 0. -1.
    10030    2    1    2    0    0  0.00000000000E+00  0.00000000000E+00 -0.17471887636E+04  0.29743089843E+04  0.24070407886E+04 0.  0.
        4    1    3    3  502    0 -0.10225120976E+04  0.63300890759E+03 -0.81526262700E+03  0.14528888569E+04  0.12699999809E+01 0.  1.
       -4    1    3    3    0  502  0.10225120976E+04 -0.63300890759E+03 -0.93192613664E+03  0.15214201273E+04  0.12699999809E+01 0. -1.
</event>
<event>
 5   0  0.4856882E-05  0.2307504E+04  0.7818609E-02  0.8474968E-01
        2   -1    0    0  501    0  0.00000000000E+00  0.00000000000E+00  0.67713951619E+03  0.67713951620E+03  0.25500000920E-02 0.  1.
       -2   -1    0    0    0  501  0.00000000000E+00  0.00000000000E+00 -0.19658331606E+04  0.19658331606E+04  0.25500000920E-02 0. -1.
    10030    2    1    2    0    0  0.00000000000E+00  0.00000000000E+00 -0.12886936444E+04  0.26429726768E+04  0.23075036861E+04 0.  0.
        1    1    3    3  502    0  0.32985657781E+03 -0.73057718860E+02  0.61921254708E+03  0.70538427165E+03  0.50400001928E-02 0.  1.
       -1    1    3    3    0  502 -0.32985657781E+03  0.73057718860E+02 -0.19079061915E+04  0.19375884051E+04  0.50400001928E-02 0. -1.
</event>
<event>
 5   0  0.4713971E-05  0.2432123E+04  0.7818609E-02  0.8427574E-01
        2   -1    0    0  501    0  0.00000000000E+00  0.00000000000E+00  0.16529306776E+04  0.16529306776E+04  0.25500000920E-02 0. -1.
       -2   -1    0    0    0  501  0.00000000000E+00  0.00000000000E+00 -0.89465646575E+03  0.89465646575E+03  0.25500000920E-02 0.  1.
    10030    2    1    2    0    0  0.00000000000E+00  0.00000000000E+00  0.75827421187E+03  0.25475871434E+04  0.24321226270E+04 0.  0.
        5    1    3    3  502    0 -0.10418541455E+04  0.49886058570E+02  0.10339842577E+04  0.14687049447E+04  0.46999998093E+01 0.  1.
       -5    1    3    3    0  502  0.10418541455E+04 -0.49886058570E+02 -0.27571004579E+03  0.10788821987E+04  0.46999998093E+01 0. -1.
</event>
<event>
 5   0  0.4713971E-05  0.2316185E+04  0.7818609E-02  0.8471567E-01
       -2   -1    0    0    0  501  0.00000000000E+00  0.00000000000E+00  0.12072951761E+04  0.12072951761E+04  0.25500000920E-02 0.  1.
        2   -1    0    0  501    0  0.00000000000E+00  0.00000000000E+00 -0.11108950116E+04  0.11108950116E+04  0.25500000920E-02 0. -1.
    10030    2    1    2    0    0  0.00000000000E+00  0.00000000000E+00  0.96400164472E+02  0.23181901878E+04  0.23161849570E+04 0.  0.
        5    1    3    3  502    0 -0.10743371827E+04  0.15918556251E+03  0.45056264401E+03  0.11758270330E+04  0.46999998093E+01 0.  1.
       -5    1    3    3    0  502  0.10743371827E+04 -0.15918556251E+03 -0.35416247954E+03  0.11423631547E+04  0.46999998093E+01 0. -1.
</event>
<event>
 5   0  0.4713971E-05  0.2248181E+04  0.7818609E-02  0.8498638E-01
       -2   -1    0    0    0  501  0.00000000000E+00  0.00000000000E+00  0.10013705057E+04  0.10013705057E+04  0.25500000920E-02 0. -1.
        2   -1    0    0  501    0  0.00000000000E+00  0.00000000000E+00 -0.12618498084E+04  0.12618498084E+04  0.25500000920E-02 0.  1.
    10030    2    1    2    0    0  0.00000000000E+00  0.00000000000E+00 -0.26047930275E+03  0.22632203141E+04  0.22481807585E+04 0.  0.
        5    1    3    3  502    0  0.87123803506E+03  0.13380724585E+02 -0.84514690978E+03  0.12138905003E+04  0.46999998093E+01 0.  1.
       -5    1    3    3    0  502 -0.87123803506E+03 -0.13380724585E+02  0.58466760702E+03  0.10493298138E+04  0.46999998093E+01 0. -1.
</event>
<event>
 5   0  0.2149920E-05  0.2456856E+04  0.7818609E-02  0.8418519E-01
        1   -1    0    0  501    0  0.00000000000E+00  0.00000000000E+00  0.78936349871E+03  0.78936349873E+03  0.50400001928E-02 0.  1.
       -1   -1    0    0    0  501  0.00000000000E+00  0.00000000000E+00 -0.19117119616E+04  0.19117119616E+04  0.50400001928E-02 0. -1.
    10030    2    1    2    0    0  0.00000000000E+00  0.00000000000E+00 -0.11223484628E+04  0.27010754603E+04  0.24568562372E+04 0.  0.
        5    1    3    3  502    0 -0.41010930006E+03  0.63752099037E+03  0.50155168863E+03  0.90895480500E+03  0.46999998093E+01 0.  1.
       -5    1    3    3    0  502  0.41010930006E+03 -0.63752099037E+03 -0.16239001515E+04  0.17921206553E+04  0.46999998093E+01 0. -1.
</event>
<event>
 5   0  0.4856882E-05  0.2477934E+04  0.7818609E-02  0.8410889E-01
        2   -1    0    0  501    0  0.00000000000E+00  0.00000000000E+00  0.12033121007E+04  0.12033121007E+04  0.25500000920E-02 0. -1.
       -2   -1    0    0    0  501  0.00000000000E+00  0.00000000000E+00 -0.12756783273E+04  0.12756783273E+04  0.25500000920E-02 0.  1.
    10030    2    1    2    0    0  0.00000000000E+00  0.00000000000E+00 -0.72366226650E+02  0.24789904280E+04  0.24779339522E+04 0.  0.
        1    1    3    3  502    0 -0.88786151915E+03  0.84444919851E+03 -0.21969152899E+03  0.12448521575E+04  0.50400001928E-02 0.  1.
       -1    1    3    3    0  502  0.88786151915E+03 -0.84444919851E+03  0.14732530234E+03  0.12341382705E+04  0.50400001928E-02 0. -1.
</event>
<event>
 5   0  0.2139556E-05  0.2396268E+04  0.7818609E-02  0.8440902E-01
       -1   -1    0    0    0  501  0.00000000000E+00  0.00000000000E+00  0.75370369538E+03  0.75370369539E+03  0.50400001928E-02 0.  1.
        1   -1    0    0  501    0  0.00000000000E+00  0.00000000000E+00 -0.19046271595E+04  0.19046271595E+04  0.50400001928E-02 0. -1.
    10030    2    1    2    0    0  0.00000000000E+00  0.00000000000E+00 -0.11509234641E+04  0.26583308549E+04  0.23962675380E+04 0.  0.
        2    1    3    3  502    0  0.11295189151E+04 -0.26009176638E+02 -0.13305657373E+03  0.11376262605E+04  0.25500000920E-02 0. -1.
       -2    1    3    3    0  502 -0.11295189151E+04  0.26009176638E+02 -0.10178668904E+04  0.15207045944E+04  0.25500000920E-02 0.  1.
</event>
<event>
 5   0  0.2139556E-05  0.2394215E+04  0.7818609E-02  0.8441673E-01
       -1   -1    0    0    0  501  0.00000000000E+00  0.00000000000E+00  0.15759767834E+04  0.15759767834E+04  0.50400001928E-02 0.  1.
        1   -1    0    0  501    0  0.00000000000E+00  0.00000000000E+00 -0.90931921166E+03  0.90931921167E+03  0.50400001928E-02 0. -1.
    10030    2    1    2    0    0  0.00000000000E+00  0.00000000000E+00  0.66665757174E+03  0.24852959951E+04  0.23942146656E+04 0.  0.
        2    1    3    3  502    0  0.10424873975E+03  0.54872091660E+03  0.14324305167E+04  0.15374718304E+04  0.25500000920E-02 0.  1.
       -2    1    3    3    0  502 -0.10424873975E+03 -0.54872091660E+03 -0.76577294492E+03  0.94782416472E+03  0.25500000920E-02 0. -1.
</event>
<event>
 5   0  0.2065692E-05  0.2396386E+04  0.7818609E-02  0.8440858E-01
       -1   -1    0    0    0  501  0.00000000000E+00  0.00000000000E+00  0.86951627782E+03  0.86951627783E+03  0.50400001928E-02 0. -1.
        1   -1    0    0  501    0  0.00000000000E+00  0.00000000000E+00 -0.16511099191E+04  0.16511099191E+04  0.50400001928E-02 0.  1.
    10030    2    1    2    0    0  0.00000000000E+00  0.00000000000E+00 -0.78159364128E+03  0.25206261969E+04  0.23963864055E+04 0.  0.
        3    1    3    3  502    0  0.97154157774E+03  0.38167896745E+03  0.22800175381E+03  0.10684365594E+04  0.10100000352E+00 0. -1.
       -3    1    3    3    0  502 -0.97154157774E+03 -0.38167896745E+03 -0.10095953951E+04  0.14521896376E+04  0.10100000352E+00 0.  1.
</event>
<event>
 5   0  0.4856882E-05  0.2396212E+04  0.7818609E-02  0.8440923E-01
       -2   -1    0    0    0  501  0.00000000000E+00  0.00000000000E+00  0.96492813315E+03  0.96492813315E+03  0.25500000920E-02 0.  1.
        2   -1    0    0  501    0  0.00000000000E+00  0.00000000000E+00 -0.14876320822E+04  0.14876320822E+04  0.25500000920E-02 0. -1.
    10030    2    1    2    0    0  0.00000000000E+00  0.00000000000E+00 -0.52270394900E+03  0.24525602153E+04  0.23962120506E+04 0.  0.
        1    1    3    3  502    0  0.64122713862E+03  0.30081009427E+03 -0.12504085957E+04  0.14370736280E+04  0.50400001928E-02 0. -1.
       -1    1    3    3    0  502 -0.64122713862E+03 -0.30081009427E+03  0.72770464669E+03  0.10154865873E+04  0.50400001928E-02 0.  1.
</event>
<event>
 5   0  0.2057599E-05  0.2390529E+04  0.7818609E-02  0.8443058E-01
        1   -1    0    0  501    0  0.00000000000E+00  0.00000000000E+00  0.28955084743E+04  0.28955084743E+04  0.50400001928E-02 0. -1.
       -1   -1    0    0    0  501  0.00000000000E+00  0.00000000000E+00 -0.49340443531E+03  0.49340443533E+03  0.50400001928E-02 0.  1.
    10030    2    1    2    0    0  0.00000000000E+00  0.00000000000E+00  0.24021040390E+04  0.33889129097E+04  0.23905285807E+04 0.  0.
        4    1    3    3  502    0 -0.70651592210E+03 -0.88068042530E+03  0.64492373304E+03  0.13002657398E+04  0.12699999809E+01 0. -1.
       -4    1    3    3    0  502  0.70651592210E+03  0.88068042530E+03  0.17571803060E+04  0.20886471699E+04  0.12699999809E+01 0.  1.
</event>
<event>
 5   0  0.2057599E-05  0.2324850E+04  0.7818609E-02  0.8468187E-01
       -1   -1    0    0    0  501  0.00000000000E+00  0.00000000000E+00  0.80903290569E+03  0.80903290570E+03  0.50400001928E-02 0.  1.
        1   -1    0    0  501    0  0.00000000000E+00  0.00000000000E+00 -0.16701821722E+04  0.16701821722E+04  0.50400001928E-02 0. -1.
    10030    2    1    2    0    0  0.00000000000E+00  0.00000000000E+00 -0.86114926647E+03  0.24792150779E+04  0.23248503916E+04 0.  0.
        4    1    3    3  502    0  0.23454247479E+02 -0.57017051134E+03 -0.15105286900E+04  0.16147269274E+04  0.12699999809E+01 0. -1.
       -4    1    3    3    0  502 -0.23454247479E+02  0.57017051134E+03  0.64937942355E+03  0.86448815050E+03  0.12699999809E+01 0.  1.
</event>
<event>
 5   0  0.2149920E-05  0.2356705E+04  0.7818609E-02  0.8455893E-01
        1   -1    0    0  501    0  0.00000000000E+00  0.00000000000E+00  0.18980408724E+04  0.18980408724E+04  0.50400001928E-02 0.  1.
       -1   -1    0    0    0  501  0.00000000000E+00  0.00000000000E+00 -0.73155176604E+03  0.73155176605E+03  0.50400001928E-02 0. -1.
    10030    2    1    2    0    0  0.00000000000E+00  0.00000000000E+00  0.11664891064E+04  0.26295926385E+04  0.23567054566E+04 0.  0.
        5    1    3    3  502    0 -0.52985521705E+03  0.90405825074E+03 -0.18068053946E+02  0.10480536324E+04  0.46999998093E+01 0. -1.
       -5    1    3    3    0  502  0.52985521705E+03 -0.90405825074E+03  0.11845571603E+04  0.15815390061E+04  0.46999998093E+01 0.  1.
</event>
<event>
 5   0  0.4914005E-05  0.2411799E+04  0.7818609E-02  0.8435099E-01
       -2   -1    0    0    0  501  0.00000000000E+00  0.00000000000E+00  0.10921642699E+04  0.10921642699E+04  0.25500000920E-02 0.  1.
        2   -1    0    0  501    0  0.00000000000E+00  0.00000000000E+00 -0.13314785147E+04  0.13314785147E+04  0.25500000920E-02 0. -1.
    10030    2    1    2    0    0  0.00000000000E+00  0.00000000000E+00 -0.23931424484E+03  0.24236427846E+04  0.24117987146E+04 0.  0.
        2    1    3    3  502    0  0.14740785084E+03 -0.64777726305E+03  0.89168910952E+03  0.11119594979E+04  0.25500000920E-02 0.  1.
       -2    1    3    3    0  502 -0.14740785084E+03  0.64777726305E+03 -0.11310033544E+04  0.13116832867E+04  0.25500000920E-02 0. -1.
</event>
<event>
 5   0  0.4664127E-05  0.2468128E+04  0.7818609E-02  0.8414429E-01
        2   -1    0    0  501    0  0.00000000000E+00  0.00000000000E+00  0.25939349936E+04  0.25939349936E+04  0.25500000920E-02 0.  1.
       -2   -1    0    0    0  501  0.00000000000E+00  0.00000000000E+00 -0.58710553714E+03  0.58710553715E+03  0.25500000920E-02 0. -1.
    10030    2    1    2    0    0  0.00000000000E+00  0.00000000000E+00  0.20068294565E+04  0.31810405308E+04  0.24681277096E+04 0.  0.
        4    1    3    3  502    0 -0.56767224170E+03  0.65372566754E+02  0.24131493048E+04  0.24798823614E+04  0.12699999809E+01 0.  1.
       -4    1    3    3    0  502  0.56767224170E+03 -0.65372566754E+02 -0.40631984827E+03  0.70115816937E+03  0.12699999809E+01 0. -1.
</event>
<event>
 5   0  0.4713971E-05  0.2374532E+04  0.7818609E-02  0.8449100E-01
       -2   -1    0    0    0  501  0.00000000000E+00  0.00000000000E+00  0.56530196161E+03  0.56530196162E+03  0.25500000920E-02 0.  1.
        2   -1    0    0  501    0  0.00000000000E+00  0.00000000000E+00 -0.24935349016E+04  0.24935349016E+04  0.25500000920E-02 0. -1.
    10030    2    1    2    0    0  0.00000000000E+00  0.00000000000E+00 -0.19282329400E+04  0.30588368633E+04  0.23745316770E+04 0.  0.
        5    1    3    3  502    0  0.38742211641E+03  0.11177737511E+04 -0.83488620628E+03  0.14479541161E+04  0.46999998093E+01 0.  1.
       -5    1    3    3    0  502 -0.38742211641E+03 -0.11177737511E+04 -0.10933467337E+04  0.16108827472E+04  0.46999998093E+01 0. -1.
</event>
<event>
 5   0  0.4756705E-05  0.2053283E+04  0.7818609E-02  0.8582106E-01
        2   -1    0    0  501    0  0.00000000000E+00  0.00000000000E+00  0.21996234416E+04  0.21996234416E+04  0.25500000920E-02 0. -1.
       -2   -1    0    0    0  501  0.00000000000E+00  0.00000000000E+00 -0.47916965518E+03  0.47916965519E+03  0.25500000920E-02 0.  1.
    10030    2    1    2    0    0  0.00000000000E+00  0.00000000000E+00  0.17204537864E+04  0.26787930968E+04  0.20532830356E+04 0.  0.
        3    1    3    3  502    0  0.36192713660E+03 -0.95950128277E+03  0.79686343696E+03  0.12987013942E+04  0.10100000352E+00 0.  1.
       -3    1    3    3    0  502 -0.36192713660E+03  0.95950128277E+03  0.92359034948E+03  0.13800917026E+04  0.10100000352E+00 0. -1.
</event>
<event>
 5   0  0.4713971E-05  0.2396561E+04  0.7818609E-02  0.8440792E-01
        2   -1    0    0  501    0  0.00000000000E+00  0.00000000000E+00  0.11549125645E+04  0.11549125645E+04  0.25500000920E-02 0. -1.
       -2   -1    0    0    0  501  0.00000000000E+00  0.00000000000E+00 -0.12432770098E+04  0.12432770098E+04  0.25500000920E-02 0.  1.
    10030    2    1    2    0    0  0.00000000000E+00  0.00000000000E+00 -0.88364445303E+02  0.23981895744E+04  0.23965610694E+04 0.  0.
        5    1    3    3  502    0 -0.81484434707E+03  0.47777721150E+03 -0.78198356071E+03  0.12262800467E+04  0.46999998093E+01 0.  1.
       -5    1    3    3    0  502  0.81484434707E+03 -0.47777721150E+03  0.69361911541E+03  0.11719095277E+04  0.46999998093E+01 0. -1.
</event>
<event>
 5   0  0.4914005E-05  0.2402879E+04  0.7818609E-02  0.8438427E-01
       -2   -1    0    0    0  501  0.00000000000E+00  0.00000000000E+00  0.85511550799E+03  0.85511550799E+03  0.25500000920E-02 0. -1.
        2   -1    0    0  501    0  0.00000000000E+00  0.00000000000E+00 -0.16880254301E+04  0.16880254301E+04  0.25500000920E-02 0.  1.
    10030    2    1    2    0    0  0.00000000000E+00  0.00000000000E+00 -0.83290992214E+03  0.25431409381E+04  0.24028788760E+04 0.  0.
        2    1    3    3  502    0  0.39112454558E+03 -0.11333852113E+04 -0.33504777256E+03  0.12449086140E+04  0.25500000920E-02 0.  1.
       -2    1    3    3    0  502 -0.39112454558E+03  0.11333852113E+04 -0.49786214958E+03  0.12982323241E+04  0.25500000920E-02 0. -1.
</event>
<event>
 5   0  0.2090039E-05  0.2025623E+04  0.7818609E-02  0.8594734E-01
       -1   -1    0    0    0  501  0.00000000000E+00  0.00000000000E+00  0.11398331428E+04  0.11398331429E+04  0.50400001928E-02 0. -1.
        1   -1    0    0  501    0  0.00000000000E+00  0.00000000000E+00 -0.89994528627E+03  0.89994528628E+03  0.50400001928E-02 0.  1.
    10030    2    1    2    0    0  0.00000000000E+00  0.00000000000E+00  0.23988785657E+03  0.20397784291E+04  0.20256233254E+04 0.  0.
        1    1    3    3  502    0 -0.20186070156E+03 -0.94837477857E+03  0.41460624504E+03  0.10545429351E+04  0.50400001928E-02 0. -1.
       -1    1    3    3    0  502  0.20186070156E+03  0.94837477857E+03 -0.17471838847E+03  0.98523549406E+03  0.50400001928E-02 0.  1.
</event>
<event>
 5   0  0.2057599E-05  0.2359816E+04  0.7818609E-02  0.8454703E-01
       -1   -1    0    0    0  501  0.00000000000E+00  0.00000000000E+00  0.14176666097E+04  0.14176666097E+04  0.50400001928E-02 0.  1.
        1   -1    0    0  501    0  0.00000000000E+00  0.00000000000E+00 -0.98202402568E+03  0.98202402569E+03  0.50400001928E-02 0. -1.
    10030    2    1    2    0    0  0.00000000000E+00  0.00000000000E+00  0.43564258405E+03  0.23996906354E+04  0.23598158159E+04 0.  0.
        4    1    3    3  502    0  0.62088631699E+02  0.37516775153E+03  0.13536439263E+04  0.14060438585E+04  0.12699999809E+01 0.  1.
       -4    1    3    3    0  502 -0.62088631699E+02 -0.37516775153E+03 -0.91800134225E+03  0.99364677691E+03  0.12699999809E+01 0. -1.
</event>
<event>
 5   0  0.4664127E-05  0.2392967E+04  0.7818609E-02  0.8442141E-01
       -2   -1    0    0    0  501  0.00000000000E+00  0.00000000000E+00  0.11373451456E+04  0.11373451456E+04  0.25500000920E-02 0.  1.
        2   -1    0    0  501    0  0.00000000000E+00  0.00000000000E+00 -0.12586964962E+04  0.12586964962E+04  0.25500000920E-02 0. -1.
    10030    2    1    2    0    0  0.00000000000E+00  0.00000000000E+00 -0.12135135056E+03  0.23960416418E+04  0.23929666523E+04 0.  0.
        4    1    3    3  502    0 -0.57741789870E+03 -0.12392015612E+03  0.98123973335E+03  0.11452513532E+04  0.12699999809E+01 0.  1.
       -4    1    3    3    0  502  0.57741789870E+03  0.12392015612E+03 -0.11025910839E+04  0.12507902886E+04  0.12699999809E+01 0. -1.
</event>
<event>
 5   0  0.4664127E-05  0.2342206E+04  0.7818609E-02  0.8461463E-01
       -2   -1    0    0    0  501  0.00000000000E+00  0.00000000000E+00  0.53242488974E+03  0.53242488974E+03  0.25500000920E-02 0.  1.
        2   -1    0    0  501    0  0.00000000000E+00  0.00000000000E+00 -0.25759165991E+04  0.25759165991E+04  0.25500000920E-02 0. -1.
    10030    2    1    2    0    0  0.00000000000E+00  0.00000000000E+00 -0.20434917093E+04  0.31083414888E+04  0.23422058929E+04 0.  0.
        4    1    3    3  502    0  0.30573206839E+03  0.11079110430E+04 -0.13200970700E+04  0.17503133617E+04  0.12699999809E+01 0. -1.
       -4    1    3    3    0  502 -0.30573206839E+03 -0.11079110430E+04 -0.72339463929E+03  0.13580281271E+04  0.12699999809E+01 0.  1.
</event>
<event>
 5   0  0.2139556E-05  0.2364611E+04  0.7818609E-02  0.8452873E-01
        1   -1    0    0  501    0  0.00000000000E+00  0.00000000000E+00  0.13603686589E+04  0.13603686589E+04  0.50400001928E-02 0. -1.
       -1   -1    0    0    0  501  0.00000000000E+00  0.00000000000E+00 -0.10275495245E+04  0.10275495246E+04  0.50400001928E-02 0.  1.
    10030    2    1    2    0    0  0.00000000000E+00  0.00000000000E+00  0.33281913439E+03  0.23879181835E+04  0.23646108929E+04 0.  0.
        2    1    3    3  502    0 -0.28705707110E+03  0.20583095613E+03  0.13058385640E+04  0.13527684576E+04  0.25500000920E-02 0. -1.
       -2    1    3    3    0  502  0.28705707110E+03 -0.20583095613E+03 -0.97301942964E+03  0.10351497259E+04  0.25500000920E-02 0.  1.
</event>
<event>
 5   0  0.2139556E-05  0.2408326E+04  0.7818609E-02  0.8436393E-01
       -1   -1    0    0    0  501  0.00000000000E+00  0.00000000000E+00  0.89965151527E+03  0.89965151529E+03  0.50400001928E-02 0. -1.
        1   -1    0    0  501    0  0.00000000000E+00  0.00000000000E+00 -0.16117445600E+04  0.16117445600E+04  0.50400001928E-02 0.  1.
    10030    2    1    2    0    0  0.00000000000E+00  0.00000000000E+00 -0.71209304475E+03  0.25113960753E+04  0.24083259212E+04 0.  0.
        2    1    3    3  502    0 -0.83430431993E+03  0.55798491587E+03 -0.10497988676E+04  0.14524078377E+04  0.25500000920E-02 0.  1.
       -2    1    3    3    0  502  0.83430431993E+03 -0.55798491587E+03  0.33770582286E+03  0.10589882376E+04  0.25500000920E-02 0. -1.
</event>
<event>
 5   0  0.4914005E-05  0.2395793E+04  0.7818609E-02  0.8441080E-01
       -2   -1    0    0    0  501  0.00000000000E+00  0.00000000000E+00  0.77526937775E+03  0.77526937775E+03  0.25500000920E-02 0.  1.
        2   -1    0    0  501    0  0.00000000000E+00  0.00000000000E+00 -0.18509135181E+04  0.18509135181E+04  0.25500000920E-02 0. -1.
    10030    2    1    2    0    0  0.00000000000E+00  0.00000000000E+00 -0.10756441404E+04  0.26261828959E+04  0.23957934564E+04 0.  0.
        2    1    3    3  502    0  0.42360302196E+03 -0.51489250115E+03 -0.16287134647E+04  0.17599037922E+04  0.25500000920E-02 0. -1.
       -2    1    3    3    0  502 -0.42360302196E+03  0.51489250115E+03  0.55306932427E+03  0.86627910365E+03  0.25500000920E-02 0.  1.
</event>
<event>
 5   0  0.4756705E-05  0.2371563E+04  0.7818609E-02  0.8450227E-01
       -2   -1    0    0    0  501  0.00000000000E+00  0.00000000000E+00  0.62379730228E+03  0.62379730229E+03  0.25500000920E-02 0.  1.
        2   -1    0    0  501    0  0.00000000000E+00  0.00000000000E+00 -0.22540612906E+04  0.22540612906E+04  0.25500000920E-02 0. -1.
    10030    2    1    2    0    0  0.00000000000E+00  0.00000000000E+00 -0.16302639883E+04  0.28778585928E+04  0.23715626513E+04 0.  0.
        3    1    3    3  502    0 -0.11505704285E+04  0.13860477289E+03 -0.51041947186E+03  0.12663141954E+04  0.10100000352E+00 0.  1.
       -3    1    3    3    0  502  0.11505704285E+04 -0.13860477289E+03 -0.11198445164E+04  0.16115443975E+04  0.10100000352E+00 0. -1.
</event>
<event>
 5   0  0.4914005E-05  0.2439103E+04  0.7818609E-02  0.8425007E-01
       -2   -1    0    0    0  501  0.00000000000E+00  0.00000000000E+00  0.93619279564E+03  0.93619279564E+03  0.25500000920E-02 0. -1.
        2   -1    0    0  501    0  0.00000000000E+00  0.00000000000E+00 -0.15886746016E+04  0.15886746016E+04  0.25500000920E-02 0.  1.
    10030    2    1    2    0    0  0.00000000000E+00  0.00000000000E+00 -0.65248180592E+03  0.25248673972E+04  0.24391028815E+04 0.  0.
        2    1    3    3  502    0 -0.27831926215E+03 -0.94359399972E+03 -0.10723297689E+04  0.14552396302E+04  0.25500000920E-02 0.  1.
       -2    1    3    3    0  502  0.27831926215E+03  0.94359399972E+03  0.41984796296E+03  0.10696277670E+04  0.25500000920E-02 0. -1.
</event>
<event>
 5   0  0.4856882E-05  0.2395253E+04  0.7818609E-02  0.8441283E-01
       -2   -1    0    0    0  501  0.00000000000E+00  0.00000000000E+00  0.81408181080E+03  0.81408181081E+03  0.25500000920E-02 0.  1.
        2   -1    0    0  501    0  0.00000000000E+00  0.00000000000E+00 -0.17618735244E+04  0.17618735244E+04  0.25500000920E-02 0. -1.
    10030    2    1    2    0    0  0.00000000000E+00  0.00000000000E+00 -0.94779171362E+03  0.25759553352E+04  0.23952529630E+04 0.  0.
        1    1    3    3  502    0  0.94193393876E+03 -0.54942794769E+02 -0.12671397225E+04  0.15798421858E+04  0.50400001928E-02 0. -1.
       -1    1    3    3    0  502 -0.94193393876E+03  0.54942794769E+02  0.31934800887E+03  0.99611314944E+03  0.50400001928E-02 0.  1.
</event>
<event>
 5   0  0.2149920E-05  0.2454944E+04  0.7818609E-02  0.8419215E-01
       -1   -1    0    0    0  501  0.00000000000E+00  0.00000000000E+00  0.71607069708E+03  0.71607069709E+03  0.50400001928E-02 0. -1.
        1   -1    0    0  501    0  0.00000000000E+00  0.00000000000E+00 -0.21041050865E+04  0.21041050865E+04  0.50400001928E-02 0.  1.
    10030    2    1    2    0    0  0.00000000000E+00  0.00000000000E+00 -0.13880343894E+04  0.28201757836E+04  0.24549443953E+04 0.  0.
        5    1    3    3  502    0  0.67769910526E+03 -0.14505252828E+03  0.46979305163E+03  0.83728365240E+03  0.46999998093E+01 0. -1.
       -5    1    3    3    0  502 -0.67769910526E+03  0.14505252828E+03 -0.18578274410E+04  0.19828921312E+04  0.46999998093E+01 0.  1.
</event>
<event>
 5   0  0.4713971E-05  0.2368236E+04  0.7818609E-02  0.8451492E-01
       -2   -1    0    0    0  501  0.00000000000E+00  0.00000000000E+00  0.11735274544E+04  0.11735274544E+04  0.25500000920E-02 0.  1.
        2   -1    0    0  501    0  0.00000000000E+00  0.00000000000E+00 -0.11948040035E+04  0.11948040035E+04  0.25500000920E-02 0. -1.
    10030    2    1    2    0    0  0.00000000000E+00  0.00000000000E+00 -0.21276549106E+02  0.23683314578E+04  0.23682358841E+04 0.  0.
        5    1    3    3  502    0  0.10025971668E+04  0.40190747109E+03 -0.49582021499E+03  0.11885244927E+04  0.46999998093E+01 0. -1.
       -5    1    3    3    0  502 -0.10025971668E+04 -0.40190747109E+03  0.47454366589E+03  0.11798069651E+04  0.46999998093E+01 0.  1.
</event>
<event>
 5   0  0.4664127E-05  0.2409164E+04  0.7818609E-02  0.8436081E-01
        2   -1    0    0  501    0  0.00000000000E+00  0.00000000000E+00  0.13472041472E+04  0.13472041472E+04  0.25500000920E-02 0.  1.
       -2   -1    0    0    0  501  0.00000000000E+00  0.00000000000E+00 -0.10770582473E+04  0.10770582473E+04  0.25500000920E-02 0. -1.
    10030    2    1    2    0    0  0.00000000000E+00  0.00000000000E+00  0.27014589991E+03  0.24242623945E+04  0.24091636205E+04 0.  0.
        4    1    3    3  502    0 -0.10120350713E+04 -0.37257425470E+03  0.67508245189E+03  0.12723067596E+04  0.12699999809E+01 0.  1.
       -4    1    3    3    0  502  0.10120350713E+04  0.37257425470E+03 -0.40493655197E+03  0.11519556349E+04  0.12699999809E+01 0. -1.
</event>
<event>
 5   0  0.4914005E-05  0.2170513E+04  0.7818609E-02  0.8530802E-01
        2   -1    0    0  501    0  0.00000000000E+00  0.00000000000E+00  0.18319749994E+04  0.18319749994E+04  0.25500000920E-02 0.  1.
       -2   -1    0    0    0  501  0.00000000000E+00  0.00000000000E+00 -0.64290292176E+03  0.64290292176E+03  0.25500000920E-02 0. -1.
    10030    2    1    2    0    0  0.00000000000E+00  0.00000000000E+00  0.11890720776E+04  0.24748779212E+04  0.21705133768E+04 0.  0.
        2    1    3    3  502    0 -0.83469603389E+03  0.48303330289E+03  0.27001371056E+02  0.96476303553E+03  0.25500000920E-02 0. -1.
       -2    1    3    3    0  502  0.83469603389E+03 -0.48303330289E+03  0.11620707066E+04  0.15101148856E+04  0.25500000920E-02 0.  1.
</event>
<event>
 5   0  0.2065692E-05  0.2413031E+04  0.7818609E-02  0.8434641E-01
       -1   -1    0    0    0  501  0.00000000000E+00  0.00000000000E+00  0.12049988274E+04  0.12049988275E+04  0.50400001928E-02 0. -1.
        1   -1    0    0  501    0  0.00000000000E+00  0.00000000000E+00 -0.12080338235E+04  0.12080338236E+04  0.50400001928E-02 0.  1.
    10030    2    1    2    0    0  0.00000000000E+00  0.00000000000E+00 -0.30349960906E+01  0.24130326510E+04  0.24130307424E+04 0.  0.
        3    1    3    3  502    0 -0.60458427463E+03 -0.96914258082E+03  0.38696684188E+03  0.12060277086E+04  0.10100000352E+00 0. -1.
       -3    1    3    3    0  502  0.60458427463E+03  0.96914258082E+03 -0.39000183797E+03  0.12070049424E+04  0.10100000352E+00 0.  1.
</event>
<event>
 5   0  0.2149920E-05  0.2399134E+04  0.7818609E-02  0.8439828E-01
       -1   -1    0    0    0  501  0.00000000000E+00  0.00000000000E+00  0.16027180261E+04  0.16027180261E+04  0.50400001928E-02 0. -1.
        1   -1    0    0  501    0  0.00000000000E+00  0.00000000000E+00 -0.89782531155E+03  0.89782531156E+03  0.50400001928E-02 0.  1.
    10030    2    1    2    0    0  0.00000000000E+00  0.00000000000E+00  0.70489271451E+03  0.25005433376E+04  0.23991338530E+04 0.  0.
        5    1    3    3  502    0  0.69787129135E+03 -0.41975903922E+03  0.12704226938E+04  0.15090453609E+04  0.46999998093E+01 0. -1.
       -5    1    3    3    0  502 -0.69787129135E+03  0.41975903922E+03 -0.56552997933E+03  0.99149797671E+03  0.46999998093E+01 0.  1.
</event>
<event>
 5   0  0.4856882E-05  0.2293629E+04  0.7818609E-02  0.8480437E-01
       -2   -1    0    0    0  501  0.00000000000E+00  0.00000000000E+00  0.89806581341E+03  0.89806581341E+03  0.25500000920E-02 0.  1.
        2   -1    0    0  501    0  0.00000000000E+00  0.00000000000E+00 -0.14644626499E+04  0.14644626499E+04  0.25500000920E-02 0. -1.
    10030    2    1    2    0    0  0.00000000000E+00  0.00000000000E+00 -0.56639683645E+03  0.23625284633E+04  0.22936292995E+04 0.  0.
        1    1    3    3  502    0 -0.28421732616E+03 -0.30232113188E+03  0.81803182775E+03  0.91725330553E+03  0.50400001928E-02 0.  1.
       -1    1    3    3    0  502  0.28421732616E+03  0.30232113188E+03 -0.13844286642E+04  0.14452751577E+04  0.50400001928E-02 0. -1.
</event>
<event>
 5   0  0.4713971E-05  0.2392183E+04  0.7818609E-02  0.8442436E-01
        2   -1    0    0  501    0  0.00000000000E+00  0.00000000000E+00  0.16667504152E+04  0.16667504152E+04  0.25500000920E-02 0. -1.
       -2   -1    0    0    0  501  0.00000000000E+00  0.00000000000E+00 -0.85833793044E+03  0.85833793045E+03  0.25500000920E-02 0.  1.
    10030    2    1    2    0    0  0.00000000000E+00  0.00000000000E+00  0.80841248476E+03  0.25250883456E+04  0.23921831886E+04 0.  0.
        5    1    3    3  502    0  0.19311925564E+03  0.11137911789E+04  0.81680279368E+03  0.13946378494E+04  0.46999998093E+01 0. -1.
       -5    1    3    3    0  502 -0.19311925564E+03 -0.11137911789E+04 -0.83903089259E+01  0.11304504963E+04  0.46999998093E+01 0.  1.
</event>
<event>
 5   0  0.4713971E-05  0.2392621E+04  0.7818609E-02  0.8442271E-01
        2   -1    0    0  501    0  0.00000000000E+00  0.00000000000E+00  0.16601676402E+04  0.16601676402E+04  0.25500000920E-02 0.  1.
       -2   -1    0    0    0  501  0.00000000000E+00  0.00000000000E+00 -0.86205699146E+03  0.86205699146E+03  0.25500000920E-02 0. -1.
    10030    2    1    2    0    0  0.00000000000E+00  0.00000000000E+00  0.79811064877E+03  0.25222246317E+04  0.23926212582E+04 0.  0.
        5    1    3    3  502    0 -0.10881308547E+03 -0.57884274571E+03  0.14967260489E+04  0.16084496161E+04  0.46999998093E+01 0.  1.
       -5    1    3    3    0  502  0.10881308547E+03  0.57884274571E+03 -0.69861540017E+03  0.91377501563E+03  0.46999998093E+01 0. -1.
</event>
<event>
 5   0  0.2057599E-05  0.2375612E+04  0.7818609E-02  0.8448691E-01
       -1   -1    0    0    0  501  0.00000000000E+00  0.00000000000E+00  0.13034626002E+04  0.13034626002E+04  0.50400001928E-02 0.  1.
        1   -1    0    0  501    0  0.00000000000E+00  0.00000000000E+00 -0.10824114264E+04  0.10824114264E+04  0.50400001928E-02 0. -1.
    10030    2    1    2    0    0  0.00000000000E+00  0.00000000000E+00  0.22105117376E+03  0.23858740266E+04  0.23756117632E+04 0.  0.
        4    1    3    3  502    0  0.11882884213E+03 -0.11483890594E+04 -0.16989999763E+03  0.11669555893E+04  0.12699999809E+01 0.  1.
       -4    1    3    3    0  502 -0.11882884213E+03  0.11483890594E+04  0.39095117139E+03  0.12189184373E+04  0.12699999809E+01 0. -1.
</event>
<event>
 5   0  0.2057599E-05  0.2402554E+04  0.7818609E-02  0.8438548E-01
       -1   -1    0    0    0  501  0.00000000000E+00  0.00000000000E+00  0.78661066489E+03  0.78661066491E+03  0.50400001928E-02 0. -1.
        1   -1    0    0  501    0  0.00000000000E+00  0.00000000000E+00 -0.18345365122E+04  0.18345365122E+04  0.50400001928E-02 0.  1.
    10030    2    1    2    0    0  0.00000000000E+00  0.00000000000E+00 -0.10479258473E+04  0.26211471771E+04  0.24025536295E+04 0.  0.
        4    1    3    3  502    0 -0.12804000189E+03  0.10182146792E+03  0.77440067313E+03  0.79149217865E+03  0.12699999809E+01 0. -1.
       -4    1    3    3    0  502  0.12804000189E+03 -0.10182146792E+03 -0.18223265205E+04  0.18296549985E+04  0.12699999809E+01 0.  1.
</event>
<event>
 5   0  0.2139556E-05  0.2387201E+04  0.7818609E-02  0.8444311E-01
       -1   -1    0    0    0  501  0.00000000000E+00  0.00000000000E+00  0.74079877345E+03  0.74079877347E+03  0.50400001928E-02 0.  1.
        1   -1    0    0  501    0  0.00000000000E+00  0.00000000000E+00 -0.19231700071E+04  0.19231700071E+04  0.50400001928E-02 0. -1.
    10030    2    1    2    0    0  0.00000000000E+00  0.00000000000E+00 -0.11823712336E+04  0.26639687806E+04  0.23872008566E+04 0.  0.
        2    1    3    3  502    0  0.71088972574E+03  0.47404918742E+02 -0.16598505131E+04  0.18062987445E+04  0.25500000920E-02 0. -1.
       -2    1    3    3    0  502 -0.71088972574E+03 -0.47404918742E+02  0.47747927946E+03  0.85767003608E+03  0.25500000920E-02 0.  1.
</event>
<event>
 5   0  0.4856882E-05  0.2413765E+04  0.7818609E-02  0.8434368E-01
       -2   -1    0    0    0  501  0.00000000000E+00  0.00000000000E+00  0.96350928141E+03  0.96350928141E+03  0.25500000920E-02 0.  1.
        2   -1    0    0  501    0  0.00000000000E+00  0.00000000000E+00 -0.15117293143E+04  0.15117293143E+04  0.25500000920E-02 0. -1.
    10030    2    1    2    0    0  0.00000000000E+00  0.00000000000E+00 -0.54822003291E+03  0.24752385957E+04  0.24137648811E+04 0.  0.
        1    1    3    3  502    0 -0.21289532094E+03 -0.36990412548E+03  0.88353921215E+03  0.98122118768E+03  0.50400001928E-02 0.  1.
       -1    1    3    3    0  502  0.21289532094E+03  0.36990412548E+03 -0.14317592451E+04  0.14940174080E+04  0.50400001928E-02 0. -1.
</event>
<event>
 5   0  0.4713971E-05  0.2373423E+04  0.7818609E-02  0.8449521E-01
        2   -1    0    0  501    0  0.00000000000E+00  0.00000000000E+00  0.14421659946E+04  0.14421659946E+04  0.25500000920E-02 0.  1.
       -2   -1    0    0    0  501  0.00000000000E+00  0.00000000000E+00 -0.97650598036E+03  0.97650598036E+03  0.25500000920E-02 0. -1.
    10030    2    1    2    0    0  0.00000000000E+00  0.00000000000E+00  0.46566001426E+03  0.24186719750E+04  0.23734226075E+04 0.  0.
        5    1    3    3  502    0  0.36916436665E+03  0.11257543936E+04  0.16329164879E+03  0.11959479658E+04  0.46999998093E+01 0.  1.
       -5    1    3    3    0  502 -0.36916436665E+03 -0.11257543936E+04  0.30236836547E+03  0.12227240092E+04  0.46999998093E+01 0. -1.
</event>
<event>
 5   0  0.4756705E-05  0.2433542E+04  0.7818609E-02  0.8427052E-01
       -2   -1    0    0    0  501  0.00000000000E+00  0.00000000000E+00  0.12370868774E+04  0.12370868774E+04  0.25500000920E-02 0.  1.
        2   -1    0    0  501    0  0.00000000000E+00  0.00000000000E+00 -0.11967890442E+04  0.11967890442E+04  0.25500000920E-02 0. -1.
    10030    2    1    2    0    0  0.00000000000E+00  0.00000000000E+00  0.40297833270E+02  0.24338759216E+04  0.24335422919E+04 0.  0.
        3    1    3    3  502    0 -0.57300308348E+03 -0.95185446687E+03 -0.47607689383E+03  0.12087219196E+04  0.10100000352E+00 0. -1.
       -3    1    3    3    0  502  0.57300308348E+03  0.95185446687E+03  0.51637472710E+03  0.12251540021E+04  0.10100000352E+00 0.  1.
</event>
<event>
 5   0  0.2057599E-05  0.2513866E+04  0.7818609E-02  0.8398062E-01
        1   -1    0    0  501    0  0.00000000000E+00  0.00000000000E+00  0.15059337021E+04  0.15059337021E+04  0.50400001928E-02 0. -1.
       -1   -1    0    0    0  501  0.00000000000E+00  0.00000000000E+00 -0.10491038186E+04  0.10491038186E+04  0.50400001928E-02 0.  1.
    10030    2    1    2    0    0  0.00000000000E+00  0.00000000000E+00  0.45682988345E+03  0.25550375207E+04  0.25138661838E+04 0.  0.
        4    1    3    3  502    0 -0.80303750767E+03  0.25764780169E+03 -0.71885101028E+03  0.11081516215E+04  0.12699999809E+01 0.  1.
       -4    1    3    3    0  502  0.80303750767E+03 -0.25764780169E+03  0.11756808937E+04  0.14468858992E+04  0.12699999809E+01 0. -1.
</event>
<event>
 5   0  0.4856882E-05  0.2383579E+04  0.7818609E-02  0.8445677E-01
        2   -1    0    0  501    0  0.00000000000E+00  0.00000000000E+00  0.19431565306E+04  0.19431565306E+04  0.25500000920E-02 0.  1.
       -2   -1    0    0    0  501  0.00000000000E+00  0.00000000000E+00 -0.73095604468E+03  0.73095604469E+03  0.25500000920E-02 0. -1.
    10030    2    1    2    0    0  0.00000000000E+00  0.00000000000E+00  0.12122004859E+04  0.26741125753E+04  0.23835788318E+04 0.  0.
        1    1    3    3  502    0  0.51417206733E+03  0.86989797205E+03 -0.10279435271E+03  0.10157076723E+04  0.50400001928E-02 0. -1.
       -1    1    3    3    0  502 -0.51417206733E+03 -0.86989797205E+03  0.13149948386E+04  0.16584049030E+04  0.50400001928E-02 0.  1.
</event>
<event>
 5   0  0.2057599E-05  0.2409993E+04  0.7818609E-02  0.8435772E-01
       -1   -1    0    0    0  501  0.00000000000E+00  0.00000000000E+00  0.11513742352E+04  0.11513742352E+04  0.50400001928E-02 0.  1.
        1   -1    0    0  501    0  0.00000000000E+00  0.00000000000E+00 -0.12611162043E+04  0.12611162043E+04  0.50400001928E-02 0. -1.
    10030    2    1    2    0    0  0.00000000000E+00  0.00000000000E+00 -0.10974196912E+03  0.24124904395E+04  0.24099931163E+04 0.  0.
        4    1    3    3  502    0  0.86038017347E+03  0.78083386908E+03 -0.37466958291E+03  0.12207925636E+04  0.12699999809E+01 0. -1.
       -4    1    3    3    0  502 -0.86038017347E+03 -0.78083386908E+03  0.26492761379E+03  0.11916978759E+04  0.12699999809E+01 0.  1.
</event>
<event>
 5   0  0.4756705E-05  0.2393957E+04  0.7818609E-02  0.8441770E-01
       -2   -1    0    0    0  501  0.00000000000E+00  0.00000000000E+00  0.94906450095E+03  0.94906450095E+03  0.25500000920E-02 0. -1.
        2   -1    0    0  501    0  0.00000000000E+00  0.00000000000E+00 -0.15096518413E+04  0.15096518413E+04  0.25500000920E-02 0.  1.
    10030    2    1    2    0    0  0.00000000000E+00  0.00000000000E+00 -0.56058734037E+03  0.24587163423E+04  0.23939565338E+04 0.  0.
        3    1    3    3  502    0 -0.71751599035E+03 -0.90695984233E+03  0.36850096819E+02  0.11570493904E+04  0.10100000352E+00 0. -1.
       -3    1    3    3    0  502  0.71751599035E+03  0.90695984233E+03 -0.59743743719E+03  0.13016669519E+04  0.10100000352E+00 0.  1.
</event>
<event>
 5   0  0.4664127E-05  0.2437328E+04  0.7818609E-02  0.8425659E-01
       -2   -1    0    0    0  501  0.00000000000E+00  0.00000000000E+00  0.77823932842E+03  0.77823932842E+03  0.25500000920E-02 0. -1.
        2   -1    0    0  501    0  0.00000000000E+00  0.00000000000E+00 -0.19083365305E+04  0.19083365306E+04  0.25500000920E-02 0.  1.
    10030    2    1    2    0    0  0.00000000000E+00  0.00000000000E+00 -0.11300972021E+04  0.26865758590E+04  0.24373284883E+04 0.  0.
        4    1    3    3  502    0 -0.38668886387E+03  0.24733405669E+03  0.67930694283E+03  0.81985483381E+03  0.12699999809E+01 0. -1.
       -4    1    3    3    0  502  0.38668886387E+03 -0.24733405669E+03 -0.18094041450E+04  0.18667210252E+04  0.12699999809E+01 0.  1.
</event>
<event>
 5   0  0.2090039E-05  0.2378448E+04  0.7818609E-02  0.8447617E-01
        1   -1    0    0  501    0  0.00000000000E+00  0.00000000000E+00  0.89736259544E+03  0.89736259546E+03  0.50400001928E-02 0. -1.
       -1   -1    0    0    0  501  0.00000000000E+00  0.00000000000E+00 -0.15760111637E+04  0.15760111637E+04  0.50400001928E-02 0.  1.
    10030    2    1    2    0    0  0.00000000000E+00  0.00000000000E+00 -0.67864856826E+03  0.24733737592E+04  0.23784477865E+04 0.  0.
        1    1    3    3  502    0  0.10471607711E+04 -0.14891586131E+03 -0.90464939439E+03  0.13918017607E+04  0.50400001928E-02 0.  1.
       -1    1    3    3    0  502 -0.10471607711E+04  0.14891586131E+03  0.22600082613E+03  0.10815719984E+04  0.50400001928E-02 0. -1.
</event>
<event>
 5   0  0.4856882E-05  0.2298343E+04  0.7818609E-02  0.8478575E-01
        2   -1    0    0  501    0  0.00000000000E+00  0.00000000000E+00  0.12711495867E+04  0.12711495867E+04  0.25500000920E-02 0.  1.
       -2   -1    0    0    0  501  0.00000000000E+00  0.00000000000E+00 -0.10388985948E+04  0.10388985948E+04  0.25500000920E-02 0. -1.
    10030    2    1    2    0    0  0.00000000000E+00  0.00000000000E+00  0.23225099185E+03  0.23100481815E+04  0.22983433333E+04 0.  0.
        1    1    3    3  502    0  0.67581704675E+02 -0.49819927656E+03  0.11547446322E+04  0.12594462957E+04  0.50400001928E-02 0.  1.
       -1    1    3    3    0  502 -0.67581704675E+02  0.49819927656E+03 -0.92249364038E+03  0.10506018858E+04  0.50400001928E-02 0. -1.
</event>
<event>
 5   0  0.2149920E-05  0.2412594E+04  0.7818609E-02  0.8434804E-01
       -1   -1    0    0    0  501  0.00000000000E+00  0.00000000000E+00  0.95912700033E+03  0.95912700034E+03  0.50400001928E-02 0.  1.
        1   -1    0    0  501    0  0.00000000000E+00  0.00000000000E+00 -0.15171629368E+04  0.15171629368E+04  0.50400001928E-02 0. -1.
    10030    2    1    2    0    0  0.00000000000E+00  0.00000000000E+00 -0.55803593650E+03  0.24762899372E+04  0.24125935726E+04 0.  0.
        5    1    3    3  502    0 -0.51383721895E+03 -0.10713814545E+04 -0.65578405084E+02  0.11900460183E+04  0.46999998093E+01 0.  1.
       -5    1    3    3    0  502  0.51383721895E+03  0.10713814545E+04 -0.49245753142E+03  0.12862439188E+04  0.46999998093E+01 0. -1.
</event>
<event>
 5   0  0.2149920E-05  0.2329664E+04  0.7818609E-02  0.8466316E-01
       -1   -1    0    0    0  501  0.00000000000E+00  0.00000000000E+00  0.66356120200E+03  0.66356120201E+03  0.50400001928E-02 0.  1.
        1   -1    0    0  501    0  0.00000000000E+00  0.00000000000E+00 -0.20447745279E+04  0.20447745279E+04  0.50400001928E-02 0. -1.
    10030    2    1    2    0    0  0.00000000000E+00  0.00000000000E+00 -0.13812133259E+04  0.27083357299E+04  0.23296635324E+04 0.  0.
        5    1    3    3  502    0 -0.24019357871E+03 -0.98150739114E+03 -0.16971765658E+02  0.10106234932E+04  0.46999998093E+01 0.  1.
       -5    1    3    3    0  502  0.24019357871E+03  0.98150739114E+03 -0.13642415603E+04  0.16977122368E+04  0.46999998093E+01 0. -1.
</event>
<event>
 5   0  0.2057599E-05  0.2397688E+04  0.7818609E-02  0.8440370E-01
        1   -1    0    0  501    0  0.00000000000E+00  0.00000000000E+00  0.13992111307E+04  0.13992111307E+04  0.50400001928E-02 0.  1.
       -1   -1    0    0    0  501  0.00000000000E+00  0.00000000000E+00 -0.10271691179E+04  0.10271691179E+04  0.50400001928E-02 0. -1.
    10030    2    1    2    0    0  0.00000000000E+00  0.00000000000E+00  0.37204201279E+03  0.24263802487E+04  0.23976876051E+04 0.  0.
        4    1    3    3  502    0 -0.11306205743E+04  0.33472152884E+03  0.40513802787E+03  0.12467878004E+04  0.12699999809E+01 0. -1.
       -4    1    3    3    0  502  0.11306205743E+04 -0.33472152884E+03 -0.33096015088E+02  0.11795924482E+04  0.12699999809E+01 0.  1.
</event>
<event>
 5   0  0.2065692E-05  0.2400614E+04  0.7818609E-02  0.8439274E-01
        1   -1    0    0  501    0  0.00000000000E+00  0.00000000000E+00  0.19847755474E+04  0.19847755474E+04  0.50400001928E-02 0.  1.
       -1   -1    0    0    0  501  0.00000000000E+00  0.00000000000E+00 -0.72589390384E+03  0.72589390386E+03  0.50400001928E-02 0. -1.
    10030    2    1    2    0    0  0.00000000000E+00  0.00000000000E+00  0.12588816436E+04  0.27106694513E+04  0.24006136469E+04 0.  0.
        3    1    3    3  502    0  0.87365453823E+03 -0.95176960191E+02 -0.29371351832E+03  0.92660592863E+03  0.10100000352E+00 0. -1.
       -3    1    3    3    0  502 -0.87365453823E+03  0.95176960191E+02  0.15525951619E+04  0.17840635227E+04  0.10100000352E+00 0.  1.
</event>
<event>
 5   0  0.2065692E-05  0.2398308E+04  0.7818609E-02  0.8440137E-01
        1   -1    0    0  501    0  0.00000000000E+00  0.00000000000E+00  0.12429663627E+04  0.12429663627E+04  0.50400001928E-02 0. -1.
       -1   -1    0    0    0  501  0.00000000000E+00  0.00000000000E+00 -0.11568862662E+04  0.11568862662E+04  0.50400001928E-02 0.  1.
    10030    2    1    2    0    0  0.00000000000E+00  0.00000000000E+00  0.86080096511E+02  0.23998526289E+04  0.23983083325E+04 0.  0.
        3    1    3    3  502    0 -0.10877820166E+04  0.50453411435E+03  0.30936141787E+02  0.11994921605E+04  0.10100000352E+00 0.  1.
       -3    1    3    3    0  502  0.10877820166E+04 -0.50453411435E+03  0.55143954724E+02  0.12003604684E+04  0.10100000352E+00 0. -1.
</event>
<event>
 5   0  0.2057599E-05  0.2381632E+04  0.7818609E-02  0.8446412E-01
        1   -1    0    0  501    0  0.00000000000E+00  0.00000000000E+00  0.26325657064E+04  0.26325657064E+04  0.50400001928E-02 0.  1.
       -1   -1    0    0    0  501  0.00000000000E+00  0.00000000000E+00 -0.53865435311E+03  0.53865435313E+03  0.50400001928E-02 0. -1.
    10030    2    1    2    0    0  0.00000000000E+00  0.00000000000E+00  0.20939113533E+04  0.31712200595E+04  0.23816321946E+04 0.  0.
        4    1    3    3  502    0  0.91252285433E+03  0.72334357478E+03  0.13788184930E+04  0.18047343119E+04  0.12699999809E+01 0. -1.
       -4    1    3    3    0  502 -0.91252285433E+03 -0.72334357478E+03  0.71509286027E+03  0.13664857477E+04  0.12699999809E+01 0.  1.
</event>
<event>
 5   0  0.2065692E-05  0.2173608E+04  0.7818609E-02  0.8529494E-01
       -1   -1    0    0    0  501  0.00000000000E+00  0.00000000000E+00  0.61069013959E+03  0.61069013961E+03  0.50400001928E-02 0.  1.
        1   -1    0    0  501    0  0.00000000000E+00  0.00000000000E+00 -0.19341120875E+04  0.19341120875E+04  0.50400001928E-02 0. -1.
    10030    2    1    2    0    0  0.00000000000E+00  0.00000000000E+00 -0.13234219479E+04  0.25448022271E+04  0.21736082266E+04 0.  0.
        3    1    3    3  502    0 -0.37575150834E+03 -0.14045439123E+03 -0.18442652294E+04  0.18873873154E+04  0.10100000352E+00 0. -1.
       -3    1    3    3    0  502  0.37575150834E+03  0.14045439123E+03  0.52084328146E+03  0.65741491166E+03  0.10100000352E+00 0.  1.
</event>
<event>
 5   0  0.2090039E-05  0.2247296E+04  0.7818609E-02  0.8498996E-01
        1   -1    0    0  501    0  0.00000000000E+00  0.00000000000E+00  0.13853972038E+04  0.13853972039E+04  0.50400001928E-02 0.  1.
       -1   -1    0    0    0  501  0.00000000000E+00  0.00000000000E+00 -0.91135239942E+03  0.91135239944E+03  0.50400001928E-02 0. -1.
    10030    2    1    2    0    0  0.00000000000E+00  0.00000000000E+00  0.47404480443E+03  0.22967496033E+04  0.22472962118E+04 0.  0.
        1    1    3    3  502    0  0.64489112641E+02 -0.10037481054E+04 -0.27491572394E+03  0.10427117339E+04  0.50400001928E-02 0.  1.
       -1    1    3    3    0  502 -0.64489112641E+02  0.10037481054E+04  0.74896052837E+03  0.12540378694E+04  0.50400001928E-02 0. -1.
</event>
<event>
 5   0  0.2149920E-05  0.2418376E+04  0.7818609E-02  0.8432656E-01
        1   -1    0    0  501    0  0.00000000000E+00  0.00000000000E+00  0.12775241543E+04  0.12775241543E+04  0.50400001928E-02 0.  1.
       -1   -1    0    0    0  501  0.00000000000E+00  0.00000000000E+00 -0.11445073334E+04  0.11445073334E+04  0.50400001928E-02 0. -1.
    10030    2    1    2    0    0  0.00000000000E+00  0.00000000000E+00  0.13301682090E+03  0.24220314877E+04  0.24183761190E+04 0.  0.
        5    1    3    3  502    0  0.79694052858E+03  0.79724089525E+03 -0.37165306654E+03  0.11869521233E+04  0.46999998093E+01 0. -1.
       -5    1    3    3    0  502 -0.79694052858E+03 -0.79724089525E+03  0.50466988744E+03  0.12350793644E+04  0.46999998093E+01 0.  1.
</event>
<event>
 5   0  0.4756705E-05  0.2386542E+04  0.7818609E-02  0.8444559E-01
       -2   -1    0    0    0  501  0.00000000000E+00  0.00000000000E+00  0.14682867437E+04  0.14682867437E+04  0.25500000920E-02 0.  1.
        2   -1    0    0  501    0  0.00000000000E+00  0.00000000000E+00 -0.96976645410E+03  0.96976645411E+03  0.25500000920E-02 0. -1.
    10030    2    1    2    0    0  0.00000000000E+00  0.00000000000E+00  0.49852028957E+03  0.24380531978E+04  0.23865416225E+04 0.  0.
        3    1    3    3  502    0  0.77689913001E+02  0.77808253555E+03 -0.67155340501E+03  0.10307434893E+04  0.10100000352E+00 0. -1.
       -3    1    3    3    0  502 -0.77689913001E+02 -0.77808253555E+03  0.11700736946E+04  0.14073097085E+04  0.10100000352E+00 0.  1.
</event>
<event>
 5   0  0.4914005E-05  0.2435681E+04  0.7818609E-02  0.8426265E-01
        2   -1    0    0  501    0  0.00000000000E+00  0.00000000000E+00  0.20603599910E+04  0.20603599910E+04  0.25500000920E-02 0. -1.
       -2   -1    0    0    0  501  0.00000000000E+00  0.00000000000E+00 -0.71984264951E+03  0.71984264951E+03  0.25500000920E-02 0.  1.
    10030    2    1    2    0    0  0.00000000000E+00  0.00000000000E+00  0.13405173415E+04  0.27802026405E+04  0.24356805988E+04 0.  0.
        2    1    3    3  502    0  0.47031596129E+03 -0.10997149576E+04  0.40855847343E+03  0.12639185566E+04  0.25500000920E-02 0.  1.
       -2    1    3    3    0  502 -0.47031596129E+03  0.10997149576E+04  0.93195886802E+03  0.15162840839E+04  0.25500000920E-02 0. -1.
</event>
<event>
 5   0  0.2149920E-05  0.2364674E+04  0.7818609E-02  0.8452849E-01
        1   -1    0    0  501    0  0.00000000000E+00  0.00000000000E+00  0.13832441603E+04  0.13832441603E+04  0.50400001928E-02 0. -1.
       -1   -1    0    0    0  501  0.00000000000E+00  0.00000000000E+00 -0.10106106875E+04  0.10106106875E+04  0.50400001928E-02 0.  1.
    10030    2    1    2    0    0  0.00000000000E+00  0.00000000000E+00  0.37263347279E+03  0.23938548479E+04  0.23646744655E+04 0.  0.
        5    1    3    3  502    0  0.73143153365E+03 -0.92873497881E+03  0.16714918853E+03  0.11939437552E+04  0.46999998093E+01 0.  1.
       -5    1    3    3    0  502 -0.73143153365E+03  0.92873497881E+03  0.20548428425E+03  0.11999110927E+04  0.46999998093E+01 0. -1.
</event>
<event>
 5   0  0.4756705E-05  0.2381199E+04  0.7818609E-02  0.8446576E-01
       -2   -1    0    0    0  501  0.00000000000E+00  0.00000000000E+00  0.59910378659E+03  0.59910378660E+03  0.25500000920E-02 0. -1.
        2   -1    0    0  501    0  0.00000000000E+00  0.00000000000E+00 -0.23660803721E+04  0.23660803721E+04  0.25500000920E-02 0.  1.
    10030    2    1    2    0    0  0.00000000000E+00  0.00000000000E+00 -0.17669765855E+04  0.29651841587E+04  0.23811994543E+04 0.  0.
        3    1    3    3  502    0  0.66633544086E+03  0.29464935812E+03 -0.20560773900E+04  0.21813471544E+04  0.10100000352E+00 0.  1.
       -3    1    3    3    0  502 -0.66633544086E+03 -0.29464935812E+03  0.28910080450E+03  0.78383700433E+03  0.10100000352E+00 0. -1.
</event>
<event>
 5   0  0.4856882E-05  0.2370629E+04  0.7818609E-02  0.8450582E-01
        2   -1    0    0  501    0  0.00000000000E+00  0.00000000000E+00  0.14742675006E+04  0.14742675006E+04  0.25500000920E-02 0.  1.
       -2   -1    0    0    0  501  0.00000000000E+00  0.00000000000E+00 -0.95299527226E+03  0.95299527226E+03  0.25500000920E-02 0. -1.
    10030    2    1    2    0    0  0.00000000000E+00  0.00000000000E+00  0.52127222832E+03  0.24272627728E+04  0.23706285733E+04 0.  0.
        1    1    3    3  502    0  0.16879814889E+03 -0.10641075193E+04  0.76655829164E+03  0.13222818316E+04  0.50400001928E-02 0.  1.
       -1    1    3    3    0  502 -0.16879814889E+03  0.10641075193E+04 -0.24528606333E+03  0.11049809412E+04  0.50400001928E-02 0. -1.
</event>
<event>
 5   0  0.4664127E-05  0.2408297E+04  0.7818609E-02  0.8436404E-01
        2   -1    0    0  501    0  0.00000000000E+00  0.00000000000E+00  0.13895755387E+04  0.13895755387E+04  0.25500000920E-02 0. -1.
       -2   -1    0    0    0  501  0.00000000000E+00  0.00000000000E+00 -0.10434648691E+04  0.10434648691E+04  0.25500000920E-02 0.  1.
    10030    2    1    2    0    0  0.00000000000E+00  0.00000000000E+00  0.34611066967E+03  0.24330404078E+04  0.24082967073E+04 0.  0.
        4    1    3    3  502    0  0.23596487327E+02  0.63723331284E+03 -0.85888369692E+03  0.10697223504E+04  0.12699999809E+01 0.  1.
       -4    1    3    3    0  502 -0.23596487327E+02 -0.63723331284E+03  0.12049943666E+04  0.13633180574E+04  0.12699999809E+01 0. -1.
</event>
<event>
 5   0  0.4914005E-05  0.2419404E+04  0.7818609E-02  0.8432274E-01
        2   -1    0    0  501    0  0.00000000000E+00  0.00000000000E+00  0.14379946207E+04  0.14379946207E+04  0.25500000920E-02 0.  1.
       -2   -1    0    0    0  501  0.00000000000E+00  0.00000000000E+00 -0.10176527797E+04  0.10176527797E+04  0.25500000920E-02 0. -1.
    10030    2    1    2    0    0  0.00000000000E+00  0.00000000000E+00  0.42034184104E+03  0.24556474004E+04  0.24194042432E+04 0.  0.
        2    1    3    3  502    0  0.11419026073E+03 -0.26001355519E+03  0.14036826618E+04  0.14321213215E+04  0.25500000920E-02 0.  1.
       -2    1    3    3    0  502 -0.11419026073E+03  0.26001355519E+03 -0.98334082074E+03  0.10235260789E+04  0.25500000920E-02 0. -1.
</event>
<event>
 5   0  0.2149920E-05  0.2341936E+04  0.7818609E-02  0.8461567E-01
       -1   -1    0    0    0  501  0.00000000000E+00  0.00000000000E+00  0.55203346923E+03  0.55203346925E+03  0.50400001928E-02 0.  1.
        1   -1    0    0  501    0  0.00000000000E+00  0.00000000000E+00 -0.24838462628E+04  0.24838462628E+04  0.50400001928E-02 0. -1.
    10030    2    1    2    0    0  0.00000000000E+00  0.00000000000E+00 -0.19318127936E+04  0.30358797321E+04  0.23419361815E+04 0.  0.
        5    1    3    3  502    0 -0.91747118606E+03 -0.59213082771E+03 -0.41780726208E+03  0.11691694884E+04  0.46999998093E+01 0.  1.
       -5    1    3    3    0  502  0.91747118606E+03  0.59213082771E+03 -0.15140055315E+04  0.18667102437E+04  0.46999998093E+01 0. -1.
</event>
<event>
 5   0  0.4914005E-05  0.2416440E+04  0.7818609E-02  0.8433374E-01
       -2   -1    0    0    0  501  0.00000000000E+00  0.00000000000E+00  0.81259124550E+03  0.81259124551E+03  0.25500000920E-02 0. -1.
        2   -1    0    0  501    0  0.00000000000E+00  0.00000000000E+00 -0.17964692861E+04  0.17964692861E+04  0.25500000920E-02 0.  1.
    10030    2    1    2    0    0  0.00000000000E+00  0.00000000000E+00 -0.98387804057E+03  0.26090605316E+04  0.24164397072E+04 0.  0.
        2    1    3    3  502    0  0.49313944850E+03  0.10523150379E+04 -0.84880285325E+03  0.14391037969E+04  0.25500000920E-02 0.  1.
       -2    1    3    3    0  502 -0.49313944850E+03 -0.10523150379E+04 -0.13507518732E+03  0.11699567346E+04  0.25500000920E-02 0. -1.
</event>
<event>
 5   0  0.2149920E-05  0.2386692E+04  0.7818609E-02  0.8444503E-01
        1   -1    0    0  501    0  0.00000000000E+00  0.00000000000E+00  0.10360303561E+04  0.10360303561E+04  0.50400001928E-02 0. -1.
       -1   -1    0    0    0  501  0.00000000000E+00  0.00000000000E+00 -0.13745486695E+04  0.13745486696E+04  0.50400001928E-02 0.  1.
    10030    2    1    2    0    0  0.00000000000E+00  0.00000000000E+00 -0.33851831346E+03  0.24105790256E+04  0.23866915574E+04 0.  0.
        5    1    3    3  502    0  0.57586248045E+03 -0.10124414378E+04 -0.43146641088E+03  0.12421113538E+04  0.46999998093E+01 0.  1.
       -5    1    3    3    0  502 -0.57586248045E+03  0.10124414378E+04  0.92948097410E+02  0.11684676719E+04  0.46999998093E+01 0. -1.
</event>
<event>
 5   0  0.2057599E-05  0.2480315E+04  0.7818609E-02  0.8410032E-01
        1   -1    0    0  501    0  0.00000000000E+00  0.00000000000E+00  0.21653024170E+04  0.21653024170E+04  0.50400001928E-02 0.  1.
       -1   -1    0    0    0  501  0.00000000000E+00  0.00000000000E+00 -0.71028917214E+03  0.71028917216E+03  0.50400001928E-02 0. -1.
    10030    2    1    2    0    0  0.00000000000E+00  0.00000000000E+00  0.14550132448E+04  0.28755915892E+04  0.24803151906E+04 0.  0.
        4    1    3    3  502    0  0.82615976224E+03 -0.52517673485E+03 -0.15516469783E+03  0.99117518731E+03  0.12699999809E+01 0. -1.
       -4    1    3    3    0  502 -0.82615976224E+03  0.52517673485E+03  0.16101779427E+04  0.18844164019E+04  0.12699999809E+01 0.  1.
</event>
<event>
 5   0  0.2139556E-05  0.2436863E+04  0.7818609E-02  0.8425830E-01
       -1   -1    0    0    0  501  0.00000000000E+00  0.00000000000E+00  0.12638906346E+04  0.12638906346E+04  0.50400001928E-02 0. -1.
        1   -1    0    0  501    0  0.00000000000E+00  0.00000000000E+00 -0.11746077906E+04  0.11746077906E+04  0.50400001928E-02 0.  1.
    10030    2    1    2    0    0  0.00000000000E+00  0.00000000000E+00  0.89282843937E+02  0.24384984252E+04  0.24368633822E+04 0.  0.
        2    1    3    3  502    0  0.34930368010E+03  0.69451133004E+03 -0.89418674006E+03  0.11848750882E+04  0.25500000920E-02 0.  1.
       -2    1    3    3    0  502 -0.34930368010E+03 -0.69451133004E+03  0.98346958400E+03  0.12536233370E+04  0.25500000920E-02 0. -1.
</event>
<event>
 5   0  0.2057599E-05  0.2400008E+04  0.7818609E-02  0.8439500E-01
        1   -1    0    0  501    0  0.00000000000E+00  0.00000000000E+00  0.18099598455E+04  0.18099598455E+04  0.50400001928E-02 0.  1.
       -1   -1    0    0    0  501  0.00000000000E+00  0.00000000000E+00 -0.79560323926E+03  0.79560323928E+03  0.50400001928E-02 0. -1.
    10030    2    1    2    0    0  0.00000000000E+00  0.00000000000E+00  0.10143566062E+04  0.26055630848E+04  0.24000082633E+04 0.  0.
        4    1    3    3  502    0 -0.37794783311E+03 -0.90153284738E+03 -0.24842167656E+03  0.10086233101E+04  0.12699999809E+01 0. -1.
       -4    1    3    3    0  502  0.37794783311E+03  0.90153284738E+03  0.12627782828E+04  0.15969397746E+04  0.12699999809E+01 0.  1.
</event>
<event>
 5   0  0.4856882E-05  0.2387265E+04  0.7818609E-02  0.8444287E-01
        2   -1    0    0  501    0  0.00000000000E+00  0.00000000000E+00  0.13359351507E+04  0.13359351507E+04  0.25500000920E-02 0.  1.
       -2   -1    0    0    0  501  0.00000000000E+00  0.00000000000E+00 -0.10664878412E+04  0.10664878412E+04  0.25500000920E-02 0. -1.
    10030    2    1    2    0    0  0.00000000000E+00  0.00000000000E+00  0.26944730950E+03  0.24024229919E+04  0.23872650417E+04 0.  0.
        1    1    3    3  502    0 -0.91096194854E+03  0.35444464854E+03 -0.55466315448E+03  0.11238922971E+04  0.50400001928E-02 0. -1.
       -1    1    3    3    0  502  0.91096194854E+03 -0.35444464854E+03  0.82411046398E+03  0.12785306948E+04  0.50400001928E-02 0.  1.
</event>
<event>
 5   0  0.4664127E-05  0.2351473E+04  0.7818609E-02  0.8457898E-01
        2   -1    0    0  501    0  0.00000000000E+00  0.00000000000E+00  0.11543854525E+04  0.11543854525E+04  0.25500000920E-02 0. -1.
       -2   -1    0    0    0  501  0.00000000000E+00  0.00000000000E+00 -0.11974828187E+04  0.11974828187E+04  0.25500000920E-02 0.  1.
    10030    2    1    2    0    0  0.00000000000E+00  0.00000000000E+00 -0.43097366191E+02  0.23518682712E+04  0.23514733641E+04 0.  0.
        4    1    3    3  502    0  0.34368014419E+03 -0.13878260967E+03  0.10944247384E+04  0.11554842168E+04  0.12699999809E+01 0. -1.
       -4    1    3    3    0  502 -0.34368014419E+03  0.13878260967E+03 -0.11375221046E+04  0.11963840544E+04  0.12699999809E+01 0.  1.
</event>
<event>
 5   0  0.2065692E-05  0.2390563E+04  0.7818609E-02  0.8443045E-01
       -1   -1    0    0    0  501  0.00000000000E+00  0.00000000000E+00  0.50071449690E+03  0.50071449693E+03  0.50400001928E-02 0.  1.
        1   -1    0    0  501    0  0.00000000000E+00  0.00000000000E+00 -0.28533179067E+04  0.28533179067E+04  0.50400001928E-02 0. -1.
    10030    2    1    2    0    0  0.00000000000E+00  0.00000000000E+00 -0.23526034098E+04  0.33540324036E+04  0.23905628125E+04 0.  0.
        3    1    3    3  502    0  0.10141914255E+04 -0.34347797516E+03 -0.43106103169E+03  0.11542854891E+04  0.10100000352E+00 0.  1.
       -3    1    3    3    0  502 -0.10141914255E+04  0.34347797516E+03 -0.19215423781E+04  0.21997469145E+04  0.10100000352E+00 0. -1.
</event>
<event>
 5   0  0.4756705E-05  0.2303972E+04  0.7818609E-02  0.8476357E-01
       -2   -1    0    0    0  501  0.00000000000E+00  0.00000000000E+00  0.10144296497E+04  0.10144296497E+04  0.25500000920E-02 0. -1.
        2   -1    0    0  501    0  0.00000000000E+00  0.00000000000E+00 -0.13081953455E+04  0.13081953455E+04  0.25500000920E-02 0.  1.
    10030    2    1    2    0    0  0.00000000000E+00  0.00000000000E+00 -0.29376569579E+03  0.23226249951E+04  0.23039723488E+04 0.  0.
        3    1    3    3  502    0 -0.63613471467E+03  0.90885076519E+03  0.16610623751E+03  0.11217256264E+04  0.10100000352E+00 0. -1.
       -3    1    3    3    0  502  0.63613471467E+03 -0.90885076519E+03 -0.45987193330E+03  0.12008993687E+04  0.10100000352E+00 0.  1.
</event>
<event>
 5   0  0.2065692E-05  0.2986904E+04  0.7818609E-02  0.8247481E-01
        1   -1    0    0  501    0  0.00000000000E+00  0.00000000000E+00  0.78155573045E+03  0.78155573046E+03  0.50400001928E-02 0. -1.
       -1   -1    0    0    0  501  0.00000000000E+00  0.00000000000E+00 -0.28537932110E+04  0.28537932110E+04  0.50400001928E-02 0.  1.
    10030    2    1    2    0    0  0.00000000000E+00  0.00000000000E+00 -0.20722374806E+04  0.36353489415E+04  0.29869037063E+04 0.  0.
        3    1    3    3  502    0  0.35776693443E+03  0.17239067988E+03  0.71611199107E+03  0.81886025660E+03  0.10100000352E+00 0. -1.
       -3    1    3    3    0  502 -0.35776693443E+03 -0.17239067988E+03 -0.27883494717E+04  0.28164886849E+04  0.10100000352E+00 0.  1.
</event>
<event>
 5   0  0.2139556E-05  0.2372719E+04  0.7818609E-02  0.8449788E-01
       -1   -1    0    0    0  501  0.00000000000E+00  0.00000000000E+00  0.10681096511E+04  0.10681096511E+04  0.50400001928E-02 0.  1.
        1   -1    0    0  501    0  0.00000000000E+00  0.00000000000E+00 -0.13177007350E+04  0.13177007350E+04  0.50400001928E-02 0. -1.
    10030    2    1    2    0    0  0.00000000000E+00  0.00000000000E+00 -0.24959108391E+03  0.23858103860E+04  0.23727190076E+04 0.  0.
        2    1    3    3  502    0 -0.62896603583E+03  0.40058253371E+03  0.80300028904E+03  0.10958440148E+04  0.25500000920E-02 0.  1.
       -2    1    3    3    0  502  0.62896603583E+03 -0.40058253371E+03 -0.10525913729E+04  0.12899663713E+04  0.25500000920E-02 0. -1.
</event>
<event>
 5   0  0.4914005E-05  0.2370255E+04  0.7818609E-02  0.8450724E-01
        2   -1    0    0  501    0  0.00000000000E+00  0.00000000000E+00  0.25415880970E+04  0.25415880970E+04  0.25500000920E-02 0.  1.
       -2   -1    0    0    0  501  0.00000000000E+00  0.00000000000E+00 -0.55261790207E+03  0.55261790208E+03  0.25500000920E-02 0. -1.
    10030    2    1    2    0    0  0.00000000000E+00  0.00000000000E+00  0.19889701949E+04  0.30942059990E+04  0.23702549079E+04 0.  0.
        2    1    3    3  502    0 -0.65140933943E+03 -0.91608035184E+03  0.14846564542E+04  0.18621874571E+04  0.25500000920E-02 0. -1.
       -2    1    3    3    0  502  0.65140933943E+03  0.91608035184E+03  0.50431374071E+03  0.12320185419E+04  0.25500000920E-02 0.  1.
</event>
<event>
 5   0  0.2149920E-05  0.2290700E+04  0.7818609E-02  0.8481597E-01
        1   -1    0    0  501    0  0.00000000000E+00  0.00000000000E+00  0.13969708770E+04  0.13969708770E+04  0.50400001928E-02 0.  1.
       -1   -1    0    0    0  501  0.00000000000E+00  0.00000000000E+00 -0.93905093951E+03  0.93905093953E+03  0.50400001928E-02 0. -1.
    10030    2    1    2    0    0  0.00000000000E+00  0.00000000000E+00  0.45791993747E+03  0.23360218165E+04  0.22907001677E+04 0.  0.
        5    1    3    3  502    0  0.92567711814E+03 -0.64446201827E+03  0.26037335039E+02  0.11282328895E+04  0.46999998093E+01 0. -1.
       -5    1    3    3    0  502 -0.92567711814E+03  0.64446201827E+03  0.43188260243E+03  0.12077889271E+04  0.46999998093E+01 0.  1.
</event>
<event>
 5   0  0.2090039E-05  0.2402418E+04  0.7818609E-02  0.8438599E-01
       -1   -1    0    0    0  501  0.00000000000E+00  0.00000000000E+00  0.11180346059E+04  0.11180346060E+04  0.50400001928E-02 0.  1.
        1   -1    0    0  501    0  0.00000000000E+00  0.00000000000E+00 -0.12905709224E+04  0.12905709224E+04  0.50400001928E-02 0. -1.
    10030    2    1    2    0    0  0.00000000000E+00  0.00000000000E+00 -0.17253631647E+03  0.24086055284E+04  0.24024179093E+04 0.  0.
        1    1    3    3  502    0 -0.26997342769E+03 -0.14617084805E+03 -0.12505737235E+04  0.12877057918E+04  0.50400001928E-02 0. -1.
       -1    1    3    3    0  502  0.26997342769E+03  0.14617084805E+03  0.10780374070E+04  0.11208997365E+04  0.50400001928E-02 0.  1.
</event>
<event>
 5   0  0.4664127E-05  0.2399044E+04  0.7818609E-02  0.8439862E-01
        2   -1    0    0  501    0  0.00000000000E+00  0.00000000000E+00  0.11873256429E+04  0.11873256429E+04  0.25500000920E-02 0. -1.
       -2   -1    0    0    0  501  0.00000000000E+00  0.00000000000E+00 -0.12118434759E+04  0.12118434759E+04  0.25500000920E-02 0.  1.
    10030    2    1    2    0    0  0.00000000000E+00  0.00000000000E+00 -0.24517832998E+02  0.23991691188E+04  0.23990438379E+04 0.  0.
        4    1    3    3  502    0  0.11603886748E+04  0.77552310874E+02  0.28158458077E+03  0.11965816840E+04  0.12699999809E+01 0.  1.
       -4    1    3    3    0  502 -0.11603886748E+04 -0.77552310874E+02 -0.30610241376E+03  0.12025874347E+04  0.12699999809E+01 0. -1.
</event>
<event>
 5   0  0.2090039E-05  0.2414102E+04  0.7818609E-02  0.8434243E-01
       -1   -1    0    0    0  501  0.00000000000E+00  0.00000000000E+00  0.73613180539E+03  0.73613180540E+03  0.50400001928E-02 0.  1.
        1   -1    0    0  501    0  0.00000000000E+00  0.00000000000E+00 -0.19792279311E+04  0.19792279311E+04  0.50400001928E-02 0. -1.
    10030    2    1    2    0    0  0.00000000000E+00  0.00000000000E+00 -0.12430961257E+04  0.27153597365E+04  0.24141024255E+04 0.  0.
        1    1    3    3  502    0  0.98423709490E+03  0.23624274302E+03 -0.13612117163E+04  0.16962990978E+04  0.50400001928E-02 0. -1.
       -1    1    3    3    0  502 -0.98423709490E+03 -0.23624274302E+03  0.11811559058E+03  0.10190606387E+04  0.50400001928E-02 0.  1.
</event>
<event>
 5   0  0.4664127E-05  0.2338504E+04  0.7818609E-02  0.8462893E-01
       -2   -1    0    0    0  501  0.00000000000E+00  0.00000000000E+00  0.87356097972E+03  0.87356097973E+03  0.25500000920E-02 0. -1.
        2   -1    0    0  501    0  0.00000000000E+00  0.00000000000E+00 -0.15650309300E+04  0.15650309300E+04  0.25500000920E-02 0.  1.
    10030    2    1    2    0    0  0.00000000000E+00  0.00000000000E+00 -0.69146995023E+03  0.24385919097E+04  0.23385037545E+04 0.  0.
        4    1    3    3  502    0 -0.10599885203E+04 -0.18706499711E+03  0.13051692976E+03  0.10842533183E+04  0.12699999809E+01 0. -1.
       -4    1    3    3    0  502  0.10599885203E+04  0.18706499711E+03 -0.82198687999E+03  0.13543385914E+04  0.12699999809E+01 0.  1.
</event>
<event>
 5   0  0.4713971E-05  0.2396237E+04  0.7818609E-02  0.8440914E-01
       -2   -1    0    0    0  501  0.00000000000E+00  0.00000000000E+00  0.13686904169E+04  0.13686904169E+04  0.25500000920E-02 0. -1.
        2   -1    0    0  501    0  0.00000000000E+00  0.00000000000E+00 -0.10488036054E+04  0.10488036054E+04  0.25500000920E-02 0.  1.
    10030    2    1    2    0    0  0.00000000000E+00  0.00000000000E+00  0.31988681149E+03  0.24174940224E+04  0.23962365860E+04 0.  0.
        5    1    3    3  502    0  0.49379123675E+03  0.35777560625E+03 -0.88053111391E+03  0.10710697001E+04  0.46999998093E+01 0.  1.
       -5    1    3    3    0  502 -0.49379123675E+03 -0.35777560625E+03  0.12004179254E+04  0.13464243223E+04  0.46999998093E+01 0. -1.
</event>
<event>
 5   0  0.2057599E-05  0.2581576E+04  0.7818609E-02  0.8374487E-01
        1   -1    0    0  501    0  0.00000000000E+00  0.00000000000E+00  0.14495776456E+04  0.14495776456E+04  0.50400001928E-02 0.  1.
       -1   -1    0    0    0  501  0.00000000000E+00  0.00000000000E+00 -0.11493921775E+04  0.11493921775E+04  0.50400001928E-02 0. -1.
    10030    2    1    2    0    0  0.00000000000E+00  0.00000000000E+00  0.30018546816E+03  0.25989698231E+04  0.25815756480E+04 0.  0.
        4    1    3    3  502    0 -0.47340646957E+03  0.34972306174E+03  0.13066200978E+04  0.14330658039E+04  0.12699999809E+01 0.  1.
       -4    1    3    3    0  502  0.47340646957E+03 -0.34972306174E+03 -0.10064346297E+04  0.11659040192E+04  0.12699999809E+01 0. -1.
</event>
<event>
 5   0  0.4713971E-05  0.2376643E+04  0.7818609E-02  0.8448300E-01
        2   -1    0    0  501    0  0.00000000000E+00  0.00000000000E+00  0.12101275446E+04  0.12101275447E+04  0.25500000920E-02 0.  1.
       -2   -1    0    0    0  501  0.00000000000E+00  0.00000000000E+00 -0.11669087519E+04  0.11669087519E+04  0.25500000920E-02 0. -1.
    10030    2    1    2    0    0  0.00000000000E+00  0.00000000000E+00  0.43218792719E+02  0.23770362966E+04  0.23766433664E+04 0.  0.
        5    1    3    3  502    0 -0.60417743852E+03 -0.97891080380E+03  0.31963448822E+03  0.11939367802E+04  0.46999998093E+01 0.  1.
       -5    1    3    3    0  502  0.60417743852E+03  0.97891080380E+03 -0.27641569550E+03  0.11830995164E+04  0.46999998093E+01 0. -1.
</event>
<event>
 5   0  0.2139556E-05  0.2479161E+04  0.7818609E-02  0.8410447E-01
       -1   -1    0    0    0  501  0.00000000000E+00  0.00000000000E+00  0.89992391553E+03  0.89992391554E+03  0.50400001928E-02 0.  1.
        1   -1    0    0  501    0  0.00000000000E+00  0.00000000000E+00 -0.17074335650E+04  0.17074335650E+04  0.50400001928E-02 0. -1.
    10030    2    1    2    0    0  0.00000000000E+00  0.00000000000E+00 -0.80750964948E+03  0.26073574806E+04  0.24791613900E+04 0.  0.
        2    1    3    3  502    0 -0.32270588650E+03 -0.38792848214E+03 -0.15945262180E+04  0.16724656817E+04  0.25500000920E-02 0. -1.
       -2    1    3    3    0  502  0.32270588650E+03  0.38792848214E+03  0.78701656854E+03  0.93489179888E+03  0.25500000920E-02 0.  1.
</event>
<event>
 5   0  0.4914005E-05  0.2407515E+04  0.7818609E-02  0.8436696E-01
        2   -1    0    0  501    0  0.00000000000E+00  0.00000000000E+00  0.16596050356E+04  0.16596050356E+04  0.25500000920E-02 0.  1.
       -2   -1    0    0    0  501  0.00000000000E+00  0.00000000000E+00 -0.87311839833E+03  0.87311839834E+03  0.25500000920E-02 0. -1.
    10030    2    1    2    0    0  0.00000000000E+00  0.00000000000E+00  0.78648663722E+03  0.25327234339E+04  0.24075146442E+04 0.  0.
        2    1    3    3  502    0 -0.11629423696E+04 -0.81402195453E+02  0.70879369361E+03  0.13643495785E+04  0.25500000920E-02 0.  1.
       -2    1    3    3    0  502  0.11629423696E+04  0.81402195453E+02  0.77692943612E+02  0.11683738553E+04  0.25500000920E-02 0. -1.
</event>
<event>
 5   0  0.2149920E-05  0.2327134E+04  0.7818609E-02  0.8467299E-01
        1   -1    0    0  501    0  0.00000000000E+00  0.00000000000E+00  0.95573109893E+03  0.95573109895E+03  0.50400001928E-02 0. -1.
       -1   -1    0    0    0  501  0.00000000000E+00  0.00000000000E+00 -0.14165999520E+04  0.14165999520E+04  0.50400001928E-02 0.  1.
    10030    2    1    2    0    0  0.00000000000E+00  0.00000000000E+00 -0.46086885302E+03  0.23723310509E+04  0.23271343999E+04 0.  0.
        5    1    3    3  502    0  0.27409004222E+03  0.11206654078E+04 -0.38453318056E+03  0.12161020371E+04  0.46999998093E+01 0.  1.
       -5    1    3    3    0  502 -0.27409004222E+03 -0.11206654078E+04 -0.76335672464E+02  0.11562290139E+04  0.46999998093E+01 0. -1.
</event>
</LesHouchesEvents>
