<LesHouchesEvents version="3.0">
<header>
<!--
#*********************************************************************
#                                                                    *
#                        MadGraph5_aMC@NLO                           *
#                                                                    *
#                           Going Beyond                             *
#                                                                    *
#                   http://madgraph.hep.uiuc.edu                     *
#                   http://madgraph.phys.ucl.ac.be                   *
#                   http://amcatnlo.cern.ch                          *
#                                                                    *
#                     The MadGraph5_aMC@NLO team                     *
#                                                                    *
#....................................................................*
#                                                                    *
# This file contains all the information necessary to reproduce      *
# the events generated:                                              *
#                                                                    *
# 1. software version                                                *
# 2. proc_card          : code generation info including model       *
# 3. param_card         : model primary parameters in the LH format  *
# 4. run_card           : running parameters (collider and cuts)     *
# 5. pythia_card        : present only if pythia has been run        *
# 6. pgs_card           : present only if pgs has been run           *
# 7. delphes_cards      : present only if delphes has been run       *
#                                                                    *
#                                                                    *
#*********************************************************************
-->
<MGVersion>
#5.2.2.3
</MGVersion>
<MG5ProcCard>
#************************************************************
#*                     MadGraph5_aMC@NLO                    *
#*                                                          *
#*                *                       *                 *
#*                  *        * *        *                   *
#*                    * * * * 5 * * * *                     *
#*                  *        * *        *                   *
#*                *                       *                 *
#*                                                          *
#*                                                          *
#*         VERSION 2.2.3                 2015-02-10         *
#*                                                          *
#*    The MadGraph5_aMC@NLO Development Team - Find us at   *
#*    https://server06.fynu.ucl.ac.be/projects/madgraph     *
#*                                                          *
#************************************************************
#*                                                          *
#*               Command File for MadGraph5_aMC@NLO         *
#*                                                          *
#*     run as ./bin/mg5_aMC  filename                       *
#*                                                          *
#************************************************************
set group_subprocesses Auto
set ignore_six_quark_processes False
set loop_optimized_output True
set gauge unitary
set complex_mass_scheme False
import model sm
define p = g u c d s u~ c~ d~ s~
define j = g u c d s u~ c~ d~ s~
define l+ = e+ mu+
define l- = e- mu-
define vl = ve vm vt
define vl~ = ve~ vm~ vt~
import model Zprime_UFO
generate p p > zph, zph > j j
add process p p > zph, zph > b b~
output Dijet_signal
</MG5ProcCard>
<MGProcCard>
#*********************************************************************
#                        MadGraph/MadEvent                           *
#                   http://madgraph.hep.uiuc.edu                     *
#                                                                    *
#                          proc_card.dat                             *
#*********************************************************************
#                                                                    *
#            This Files is generated by MADGRAPH 5                   *
#                                                                    *
# WARNING: This Files is generated for MADEVENT (compatibility issue)*
#          This files is NOT a valid MG4 proc_card.dat               *
#          Running this in MG4 will NEVER reproduce the result of MG5*
#                                                                    *
#*********************************************************************
#*********************************************************************
# Process(es) requested : mg2 input                                  *
#*********************************************************************
# Begin PROCESS # This is TAG. Do not modify this line
p p > zph , zph > j j           #Process
# Be carefull the coupling are here in MG5 convention
          
end_coup           # End the couplings input

done               # this tells MG there are no more procs
# End PROCESS  # This is TAG. Do not modify this line
#*********************************************************************
# Model information                                                  *
#*********************************************************************
# Begin MODEL  # This is TAG. Do not modify this line
Zprime_UFO
# End   MODEL  # This is TAG. Do not modify this line
#*********************************************************************
# Start multiparticle definitions                                    *
#*********************************************************************
# Begin MULTIPARTICLES # This is TAG. Do not modify this line

# End  MULTIPARTICLES # This is TAG. Do not modify this line
</MGProcCard>
<MGRunCard>
#*********************************************************************
#                       MadGraph5_aMC@NLO                            *
#                                                                    *
#                     run_card.dat MadEvent                          *
#                                                                    *
#  This file is used to set the parameters of the run.               *
#                                                                    *
#  Some notation/conventions:                                        *
#                                                                    *
#   Lines starting with a '# ' are info or comments                  *
#                                                                    *
#   mind the format:   value    = variable     ! comment             *
#*********************************************************************
#
#*******************                                                 
# Running parameters
#*******************                                                 
#                                                                    
#*********************************************************************
# Tag name for the run (one word)                                    *
#*********************************************************************
  tag_1     = run_tag ! name of the run 
#*********************************************************************
# Run to generate the grid pack                                      *
#*********************************************************************
  .false.     = gridpack  !True = setting up the grid pack
#*********************************************************************
# Number of events and rnd seed                                      *
# Warning: Do not generate more than 1M events in a single run       *
# If you want to run Pythia, avoid more than 50k events in a run.    *
#*********************************************************************
  2000 = nevents ! Number of unweighted events requested 
 2685 = iseed   ! rnd seed (0=assigned automatically=default))
#*********************************************************************
# Collider type and energy                                           *
# lpp: 0=No PDF, 1=proton, -1=antiproton, 2=photon from proton,      *
#                                         3=photon from electron     *
#*********************************************************************
        1     = lpp1    ! beam 1 type 
        1     = lpp2    ! beam 2 type
     4000     = ebeam1  ! beam 1 total energy in GeV
     4000     = ebeam2  ! beam 2 total energy in GeV
#*********************************************************************
# Beam polarization from -100 (left-handed) to 100 (right-handed)    *
#*********************************************************************
        0     = polbeam1 ! beam polarization for beam 1
        0     = polbeam2 ! beam polarization for beam 2
#*********************************************************************
# PDF CHOICE: this automatically fixes also alpha_s and its evol.    *
#*********************************************************************
 'nn23lo1'    = pdlabel     ! PDF set                                     
 230000    = lhaid     ! if pdlabel=lhapdf, this is the lhapdf number
#*********************************************************************
# Renormalization and factorization scales                           *
#*********************************************************************
 F        = fixed_ren_scale  ! if .true. use fixed ren scale
 F        = fixed_fac_scale  ! if .true. use fixed fac scale
 91.1880  = scale            ! fixed ren scale
 91.1880  = dsqrt_q2fact1    ! fixed fact scale for pdf1
 91.1880  = dsqrt_q2fact2    ! fixed fact scale for pdf2
 1        = scalefact        ! scale factor for event-by-event scales
#*********************************************************************
# Matching - Warning! ickkw > 1 is still beta
#*********************************************************************
 0        = ickkw            ! 0 no matching, 1 MLM, 2 CKKW matching
 1        = highestmult      ! for ickkw=2, highest mult group
 1        = ktscheme         ! for ickkw=1, 1 Durham kT, 2 Pythia pTE
 1        = alpsfact         ! scale factor for QCD emission vx
 F        = chcluster        ! cluster only according to channel diag
 T        = pdfwgt           ! for ickkw=1, perform pdf reweighting
 5        = asrwgtflavor     ! highest quark flavor for a_s reweight
 T        = clusinfo         ! include clustering tag in output
 3.0      = lhe_version       ! Change the way clustering information pass to shower.        
#*********************************************************************
#**********************************************************
#
#**********************************************************
# Automatic ptj and mjj cuts if xqcut > 0
# (turn off for VBF and single top processes)
#**********************************************************
   T  = auto_ptj_mjj  ! Automatic setting of ptj and mjj
#**********************************************************
#                                                                    
#**********************************
# BW cutoff (M+/-bwcutoff*Gamma)
#**********************************
  15  = bwcutoff      ! (M+/-bwcutoff*Gamma)
#**********************************************************
# Apply pt/E/eta/dr/mij cuts on decay products or not
# (note that etmiss/ptll/ptheavy/ht/sorted cuts always apply)
#**********************************************************
   T  = cut_decays    ! Cut decay products 
#*************************************************************
# Number of helicities to sum per event (0 = all helicities)
# 0 gives more stable result, but longer run time (needed for
# long decay chains e.g.).
# Use >=2 if most helicities contribute, e.g. pure QCD.
#*************************************************************
   0  = nhel          ! Number of helicities used per event
#*******************                                                 
# Standard Cuts
#*******************                                                 
#                                                                    
#*********************************************************************
# Minimum and maximum pt's (for max, -1 means no cut)                *
#*********************************************************************
 20  = ptj       ! minimum pt for the jets 
  0  = ptb       ! minimum pt for the b 
 10  = pta       ! minimum pt for the photons 
 10  = ptl       ! minimum pt for the charged leptons 
  0  = misset    ! minimum missing Et (sum of neutrino's momenta)
  0  = ptheavy   ! minimum pt for one heavy final state
 1.0 = ptonium   ! minimum pt for the quarkonium states
 -1  = ptjmax    ! maximum pt for the jets
 -1  = ptbmax    ! maximum pt for the b
 -1  = ptamax    ! maximum pt for the photons
 -1  = ptlmax    ! maximum pt for the charged leptons
 -1  = missetmax ! maximum missing Et (sum of neutrino's momenta)
#*********************************************************************
# Minimum and maximum E's (in the center of mass frame)              *
#*********************************************************************
  0  = ej     ! minimum E for the jets 
  0  = eb     ! minimum E for the b 
  0  = ea     ! minimum E for the photons 
  0  = el     ! minimum E for the charged leptons 
 -1   = ejmax ! maximum E for the jets
 -1   = ebmax ! maximum E for the b
 -1   = eamax ! maximum E for the photons
 -1   = elmax ! maximum E for the charged leptons
#*********************************************************************
# Maximum and minimum absolute rapidity (for max, -1 means no cut)   *
#*********************************************************************
   5  = etaj    ! max rap for the jets 
  -1  = etab    ! max rap for the b
 2.5  = etaa    ! max rap for the photons 
 2.5  = etal    ! max rap for the charged leptons 
 0.6  = etaonium ! max rap for the quarkonium states
   0  = etajmin ! min rap for the jets
   0  = etabmin ! min rap for the b
   0  = etaamin ! min rap for the photons
   0  = etalmin ! main rap for the charged leptons
#*********************************************************************
# Minimum and maximum DeltaR distance                                *
#*********************************************************************
 0.4 = drjj    ! min distance between jets 
 0   = drbb    ! min distance between b's 
 0.4 = drll    ! min distance between leptons 
 0.4 = draa    ! min distance between gammas 
 0   = drbj    ! min distance between b and jet 
 0.4 = draj    ! min distance between gamma and jet 
 0.4 = drjl    ! min distance between jet and lepton 
 0   = drab    ! min distance between gamma and b 
 0   = drbl    ! min distance between b and lepton 
 0.4 = dral    ! min distance between gamma and lepton 
 -1  = drjjmax ! max distance between jets
 -1  = drbbmax ! max distance between b's
 -1  = drllmax ! max distance between leptons
 -1  = draamax ! max distance between gammas
 -1  = drbjmax ! max distance between b and jet
 -1  = drajmax ! max distance between gamma and jet
 -1  = drjlmax ! max distance between jet and lepton
 -1  = drabmax ! max distance between gamma and b
 -1  = drblmax ! max distance between b and lepton
 -1  = dralmax ! maxdistance between gamma and lepton
#*********************************************************************
# Minimum and maximum invariant mass for pairs                       *
# WARNING: for four lepton final state mmll cut require to have      *
#          different lepton masses for each flavor!                  *           
#*********************************************************************
 0   = mmjj    ! min invariant mass of a jet pair 
 0   = mmbb    ! min invariant mass of a b pair 
 0   = mmaa    ! min invariant mass of gamma gamma pair
 0   = mmll    ! min invariant mass of l+l- (same flavour) lepton pair
 -1  = mmjjmax ! max invariant mass of a jet pair
 -1  = mmbbmax ! max invariant mass of a b pair
 -1  = mmaamax ! max invariant mass of gamma gamma pair
 -1  = mmllmax ! max invariant mass of l+l- (same flavour) lepton pair
#*********************************************************************
# Minimum and maximum invariant mass for all letpons                 *
#*********************************************************************
 0   = mmnl    ! min invariant mass for all letpons (l+- and vl) 
 -1  = mmnlmax ! max invariant mass for all letpons (l+- and vl) 
#*********************************************************************
# Minimum and maximum pt for 4-momenta sum of leptons                *
#*********************************************************************
 0   = ptllmin  ! Minimum pt for 4-momenta sum of leptons(l and vl)
 -1  = ptllmax  ! Maximum pt for 4-momenta sum of leptons(l and vl)
#*********************************************************************
# Inclusive cuts                                                     *
#*********************************************************************
 0  = xptj ! minimum pt for at least one jet  
 0  = xptb ! minimum pt for at least one b 
 0  = xpta ! minimum pt for at least one photon 
 0  = xptl ! minimum pt for at least one charged lepton 
#*********************************************************************
# Control the pt's of the jets sorted by pt                          *
#*********************************************************************
 0   = ptj1min ! minimum pt for the leading jet in pt
 0   = ptj2min ! minimum pt for the second jet in pt
 0   = ptj3min ! minimum pt for the third jet in pt
 0   = ptj4min ! minimum pt for the fourth jet in pt
 -1  = ptj1max ! maximum pt for the leading jet in pt 
 -1  = ptj2max ! maximum pt for the second jet in pt
 -1  = ptj3max ! maximum pt for the third jet in pt
 -1  = ptj4max ! maximum pt for the fourth jet in pt
 0   = cutuse  ! reject event if fails any (0) / all (1) jet pt cuts
#*********************************************************************
# Control the pt's of leptons sorted by pt                           *
#*********************************************************************
 0   = ptl1min ! minimum pt for the leading lepton in pt
 0   = ptl2min ! minimum pt for the second lepton in pt
 0   = ptl3min ! minimum pt for the third lepton in pt
 0   = ptl4min ! minimum pt for the fourth lepton in pt
 -1  = ptl1max ! maximum pt for the leading lepton in pt 
 -1  = ptl2max ! maximum pt for the second lepton in pt
 -1  = ptl3max ! maximum pt for the third lepton in pt
 -1  = ptl4max ! maximum pt for the fourth lepton in pt
#*********************************************************************
# Control the Ht(k)=Sum of k leading jets                            *
#*********************************************************************
 0   = htjmin ! minimum jet HT=Sum(jet pt)
 -1  = htjmax ! maximum jet HT=Sum(jet pt)
 0   = ihtmin  !inclusive Ht for all partons (including b)
 -1  = ihtmax  !inclusive Ht for all partons (including b)
 0   = ht2min ! minimum Ht for the two leading jets
 0   = ht3min ! minimum Ht for the three leading jets
 0   = ht4min ! minimum Ht for the four leading jets
 -1  = ht2max ! maximum Ht for the two leading jets
 -1  = ht3max ! maximum Ht for the three leading jets
 -1  = ht4max ! maximum Ht for the four leading jets
#***********************************************************************
# Photon-isolation cuts, according to hep-ph/9801442                   *
# When ptgmin=0, all the other parameters are ignored                  *
# When ptgmin>0, pta and draj are not going to be used                 *
#***********************************************************************
   0 = ptgmin ! Min photon transverse momentum
 0.4 = R0gamma ! Radius of isolation code
 1.0 = xn ! n parameter of eq.(3.4) in hep-ph/9801442
 1.0 = epsgamma ! epsilon_gamma parameter of eq.(3.4) in hep-ph/9801442
 .true. = isoEM ! isolate photons from EM energy (photons and leptons)
#*********************************************************************
# WBF cuts                                                           *
#*********************************************************************
 0   = xetamin ! minimum rapidity for two jets in the WBF case  
 0   = deltaeta ! minimum rapidity for two jets in the WBF case 
#*********************************************************************
# KT DURHAM CUT                                                      *
#*********************************************************************
 -1    =  ktdurham        
 0.4  =  dparameter 
#*********************************************************************
# maximal pdg code for quark to be considered as a light jet         *
# (otherwise b cuts are applied)                                     *
#*********************************************************************
 4 = maxjetflavor    ! Maximum jet pdg code
#*********************************************************************
# Jet measure cuts                                                   *
#*********************************************************************
 0   = xqcut   ! minimum kt jet measure between partons
#*********************************************************************
#
#*********************************************************************
# Store info for systematics studies                                 *
# WARNING: If use_syst is T, matched Pythia output is                *
#          meaningful ONLY if plotted taking matchscale              *
#          reweighting into account!                                 *
#*********************************************************************
   F  = use_syst      ! Enable systematics studies
#
#**************************************
# Parameter of the systematics study
#  will be used by SysCalc (if installed)
#**************************************                                  
#
0.5 1 2 = sys_scalefact  # factorization/renormalization scale factor
0.5 1 2 = sys_alpsfact  # \alpha_s emission scale factors
30 50 = sys_matchscale # variation of merging scale
# PDF sets and number of members (0 or none for all members).
CT10nlo.LHgrid = sys_pdf # matching scales
# MSTW2008nlo68cl.LHgrid 1  = sys_pdf
</MGRunCard>
<slha>
######################################################################
## PARAM_CARD AUTOMATICALY GENERATED BY MG5 FOLLOWING UFO MODEL   ####
######################################################################
##                                                                  ##
##  Width set on Auto will be computed following the information    ##
##        present in the decay.py files of the model.               ##
##        See  arXiv:1402.1178 for more details.                    ##
##                                                                  ##
######################################################################

###################################
## INFORMATION FOR CKMBLOCK
###################################
Block ckmblock 
    1 2.277360e-01 # cabi 

###################################
## INFORMATION FOR FRBLOCK
###################################
Block frblock 
    1 1.400000e+00 # gz 

###################################
## INFORMATION FOR MASS
###################################
Block mass 
    1 5.040000e-03 # MD 
    2 2.550000e-03 # MU 
    3 1.010000e-01 # MS 
    4 1.270000e+00 # MC 
    5 4.700000e+00 # MB 
    6 1.720000e+02 # MT 
   11 5.110000e-04 # Me 
   13 1.056600e-01 # MM 
   15 1.777000e+00 # MTA 
   23 9.118760e+01 # MZ 
   25 1.200000e+02 # MH 
  10030 3.200000e+03 # MZph 
  10031 3.000000e+02 # MZpl 
## Dependent parameters, given by model restrictions.
## Those values should be edited following the 
## analytical expression. MG5 ignores those values 
## but they are important for interfacing the output of MG5
## to external program such as Pythia.
  12 0.000000 # ve : 0.0 
  14 0.000000 # vm : 0.0 
  16 0.000000 # vt : 0.0 
  21 0.000000 # g : 0.0 
  22 0.000000 # a : 0.0 
  24 79.824360 # w+ : cmath.sqrt(MZ__exp__2/2. + cmath.sqrt(MZ__exp__4/4. - (aEW*cmath.pi*MZ__exp__2)/(Gf*sqrt__2))) 

###################################
## INFORMATION FOR SMINPUTS
###################################
Block sminputs 
    1 1.279000e+02 # aEWM1 
    2 1.166370e-05 # Gf 
    3 1.184000e-01 # aS 

###################################
## INFORMATION FOR YUKAWA
###################################
Block yukawa 
    1 5.040000e-03 # ymdo 
    2 2.550000e-03 # ymup 
    3 1.010000e-01 # yms 
    4 1.270000e+00 # ymc 
    5 4.700000e+00 # ymb 
    6 1.720000e+02 # ymt 
   11 5.110000e-04 # yme 
   13 1.056600e-01 # ymm 
   15 1.777000e+00 # ymtau 

###################################
## INFORMATION FOR DECAY
###################################
DECAY   6 1.508336e+00 # WT 
DECAY  23 2.495200e+00 # WZ 
DECAY  24 2.085000e+00 # WW 
DECAY  25 5.753088e-03 # WH 
## Dependent parameters, given by model restrictions.
## Those values should be edited following the 
## analytical expression. MG5 ignores those values 
## but they are important for interfacing the output of MG5
## to external program such as Pythia.
DECAY  1 0.000000 # d : 0.0 
DECAY  2 0.000000 # u : 0.0 
DECAY  3 0.000000 # s : 0.0 
DECAY  4 0.000000 # c : 0.0 
DECAY  5 0.000000 # b : 0.0 
DECAY  11 0.000000 # e- : 0.0 
DECAY  12 0.000000 # ve : 0.0 
DECAY  13 0.000000 # mu- : 0.0 
DECAY  14 0.000000 # vm : 0.0 
DECAY  15 0.000000 # ta- : 0.0 
DECAY  16 0.000000 # vt : 0.0 
DECAY  21 0.000000 # g : 0.0 
DECAY  22 0.000000 # a : 0.0 
DECAY  10030 0.308725 # zph : (gz__exp__2*MZph*(5 + cmath.sqrt(1 - (4*MT__exp__2)/MZph__exp__2)))/(144.*cmath.pi) 
DECAY  10031 0.132629 # zpl : (5*gz__exp__2*MZpl)/(144.*cmath.pi) 
#===========================================================
# QUANTUM NUMBERS OF NEW STATE(S) (NON SM PDG CODE)
#===========================================================

Block QNUMBERS 10030  # zph 
        1 0  # 3 times electric charge
        2 3  # number of spin states (2S+1)
        3 1  # colour rep (1: singlet, 3: triplet, 8: octet)
        4 0  # Particle/Antiparticle distinction (0=own anti)
Block QNUMBERS 10031  # zpl 
        1 0  # 3 times electric charge
        2 3  # number of spin states (2S+1)
        3 1  # colour rep (1: singlet, 3: triplet, 8: octet)
        4 0  # Particle/Antiparticle distinction (0=own anti)
</slha>
## END BANNER##
<MGGenerationInfo>
#  Number of Events        :         3917
#  Integrated weight (pb)  :  0.13836E-02
#  Max wgt                 :  0.53731E-06
#  Average wgt             :  0.35323E-06
</MGGenerationInfo>
</header>
<init>
     2212     2212  0.40000000000E+04  0.40000000000E+04 0 0  247000  247000 2   1
  0.13851070875E-02  0.37384676984E-05  0.53730600000E-06   0
</init>
<event>
 5   0  0.5108810E-06  0.3167519E+04  0.7818609E-02  0.8197448E-01
        2   -1    0    0  501    0  0.00000000000E+00  0.00000000000E+00  0.23286297487E+04  0.23286297487E+04  0.25500000920E-02 0.  1.
       -2   -1    0    0    0  501  0.00000000000E+00  0.00000000000E+00 -0.10771546994E+04  0.10771546994E+04  0.25500000920E-02 0. -1.
    10030    2    1    2    0    0  0.00000000000E+00  0.00000000000E+00  0.12514750493E+04  0.34057844480E+04  0.31675192039E+04 0.  0.
        1    1    3    3  502    0 -0.31891101862E+01 -0.94225491108E+03  0.19944567814E+04  0.22058359732E+04  0.50400001928E-02 0.  1.
       -1    1    3    3    0  502  0.31891101862E+01  0.94225491108E+03 -0.74298173210E+03  0.11999484748E+04  0.50400001928E-02 0. -1.
</event>
<event>
 5   0  0.5108810E-06  0.3904829E+04  0.7818609E-02  0.8024026E-01
       -2   -1    0    0    0  501  0.00000000000E+00  0.00000000000E+00  0.29286727729E+04  0.29286727729E+04  0.25500000920E-02 0. -1.
        2   -1    0    0  501    0  0.00000000000E+00  0.00000000000E+00 -0.13015869827E+04  0.13015869827E+04  0.25500000920E-02 0.  1.
    10030    2    1    2    0    0  0.00000000000E+00  0.00000000000E+00  0.16270857902E+04  0.42302597555E+04  0.39048289887E+04 0.  0.
        1    1    3    3  502    0  0.17488979941E+04  0.57490774282E+03  0.15179302922E+04  0.23860585656E+04  0.50400001928E-02 0. -1.
       -1    1    3    3    0  502 -0.17488979941E+04 -0.57490774282E+03  0.10915549803E+03  0.18442011900E+04  0.50400001928E-02 0.  1.
</event>
<event>
 5   0  0.5131083E-06  0.3176421E+04  0.7818609E-02  0.8195072E-01
       -2   -1    0    0    0  501  0.00000000000E+00  0.00000000000E+00  0.12131775171E+04  0.12131775171E+04  0.25500000920E-02 0.  1.
        2   -1    0    0  501    0  0.00000000000E+00  0.00000000000E+00 -0.20791786777E+04  0.20791786777E+04  0.25500000920E-02 0. -1.
    10030    2    1    2    0    0  0.00000000000E+00  0.00000000000E+00 -0.86600116057E+03  0.32923561948E+04  0.31764211470E+04 0.  0.
        3    1    3    3  502    0  0.12751566850E+04  0.76546160404E+03  0.14452245096E+03  0.14942699849E+04  0.10100000352E+00 0. -1.
       -3    1    3    3    0  502 -0.12751566850E+04 -0.76546160404E+03 -0.10105236115E+04  0.17980862099E+04  0.10100000352E+00 0.  1.
</event>
<event>
 5   0  0.5108810E-06  0.3154254E+04  0.7818609E-02  0.8201004E-01
        2   -1    0    0  501    0  0.00000000000E+00  0.00000000000E+00  0.31514823865E+04  0.31514823865E+04  0.25500000920E-02 0.  1.
       -2   -1    0    0    0  501  0.00000000000E+00  0.00000000000E+00 -0.78925701292E+03  0.78925701293E+03  0.25500000920E-02 0. -1.
    10030    2    1    2    0    0  0.00000000000E+00  0.00000000000E+00  0.23622253736E+04  0.39407393995E+04  0.31542540004E+04 0.  0.
        1    1    3    3  502    0  0.97160820429E+03 -0.69845796287E+03  0.24646327820E+04  0.27397592556E+04  0.50400001928E-02 0.  1.
       -1    1    3    3    0  502 -0.97160820429E+03  0.69845796287E+03 -0.10240740842E+03  0.12009801438E+04  0.50400001928E-02 0. -1.
</event>
<event>
 5   0  0.5131083E-06  0.3118030E+04  0.7818609E-02  0.8210807E-01
        2   -1    0    0  501    0  0.00000000000E+00  0.00000000000E+00  0.11485471326E+04  0.11485471326E+04  0.25500000920E-02 0.  1.
       -2   -1    0    0    0  501  0.00000000000E+00  0.00000000000E+00 -0.21161754978E+04  0.21161754978E+04  0.25500000920E-02 0. -1.
    10030    2    1    2    0    0  0.00000000000E+00  0.00000000000E+00 -0.96762836523E+03  0.32647226304E+04  0.31180296984E+04 0.  0.
        3    1    3    3  502    0  0.14157373354E+03  0.18510711797E+03  0.11302073417E+04  0.11539828476E+04  0.10100000352E+00 0.  1.
       -3    1    3    3    0  502 -0.14157373354E+03 -0.18510711797E+03 -0.20978357069E+04  0.21107397828E+04  0.10100000352E+00 0. -1.
</event>
<event>
 5   0  0.1977015E-06  0.3051284E+04  0.7818609E-02  0.8229236E-01
       -1   -1    0    0    0  501  0.00000000000E+00  0.00000000000E+00  0.31341241595E+04  0.31341241595E+04  0.50400001928E-02 0.  1.
        1   -1    0    0  501    0  0.00000000000E+00  0.00000000000E+00 -0.74265813757E+03  0.74265813759E+03  0.50400001928E-02 0. -1.
    10030    2    1    2    0    0  0.00000000000E+00  0.00000000000E+00  0.23914660220E+04  0.38767822971E+04  0.30512835406E+04 0.  0.
        1    1    3    3  502    0  0.93781621231E+03 -0.42858751663E+03  0.26243981779E+04  0.28196901078E+04  0.50400001928E-02 0.  1.
       -1    1    3    3    0  502 -0.93781621231E+03  0.42858751663E+03 -0.23293215597E+03  0.10570921894E+04  0.50400001928E-02 0. -1.
</event>
<event>
 5   0  0.1881144E-06  0.3211385E+04  0.7818609E-02  0.8185817E-01
        1   -1    0    0  501    0  0.00000000000E+00  0.00000000000E+00  0.16193378657E+04  0.16193378657E+04  0.50400001928E-02 0. -1.
       -1   -1    0    0    0  501  0.00000000000E+00  0.00000000000E+00 -0.15921620056E+04  0.15921620056E+04  0.50400001928E-02 0.  1.
    10030    2    1    2    0    0  0.00000000000E+00  0.00000000000E+00  0.27175860130E+02  0.32114998713E+04  0.32113848876E+04 0.  0.
        3    1    3    3  502    0  0.22247755787E+03 -0.20107850002E+03  0.15910851817E+04  0.16190987902E+04  0.10100000352E+00 0. -1.
       -3    1    3    3    0  502 -0.22247755787E+03  0.20107850002E+03 -0.15639093215E+04  0.15924010811E+04  0.10100000352E+00 0.  1.
</event>
<event>
 5   0  0.5108810E-06  0.2721060E+04  0.7818609E-02  0.8328204E-01
       -2   -1    0    0    0  501  0.00000000000E+00  0.00000000000E+00  0.63005312915E+03  0.63005312916E+03  0.25500000920E-02 0.  1.
        2   -1    0    0  501    0  0.00000000000E+00  0.00000000000E+00 -0.29379142345E+04  0.29379142345E+04  0.25500000920E-02 0. -1.
    10030    2    1    2    0    0  0.00000000000E+00  0.00000000000E+00 -0.23078611054E+04  0.35679673637E+04  0.27210601292E+04 0.  0.
        1    1    3    3  502    0  0.50174237125E+03 -0.12111825620E+04 -0.67693145932E+03  0.14754473241E+04  0.50400001928E-02 0.  1.
       -1    1    3    3    0  502 -0.50174237125E+03  0.12111825620E+04 -0.16309296461E+04  0.20925200396E+04  0.50400001928E-02 0. -1.
</event>
<event>
 5   0  0.1969465E-06  0.3255825E+04  0.7818609E-02  0.8174228E-01
        1   -1    0    0  501    0  0.00000000000E+00  0.00000000000E+00  0.19711586046E+04  0.19711586046E+04  0.50400001928E-02 0. -1.
       -1   -1    0    0    0  501  0.00000000000E+00  0.00000000000E+00 -0.13444370882E+04  0.13444370882E+04  0.50400001928E-02 0.  1.
    10030    2    1    2    0    0  0.00000000000E+00  0.00000000000E+00  0.62672151638E+03  0.33155956928E+04  0.32558247710E+04 0.  0.
        2    1    3    3  502    0 -0.15295450028E+04 -0.50079684285E+03  0.56237658800E+03  0.17048673907E+04  0.25500000920E-02 0. -1.
       -2    1    3    3    0  502  0.15295450028E+04  0.50079684285E+03  0.64344928371E+02  0.16107283021E+04  0.25500000920E-02 0.  1.
</event>
<event>
 5   0  0.5108810E-06  0.3106324E+04  0.7818609E-02  0.8214004E-01
        2   -1    0    0  501    0  0.00000000000E+00  0.00000000000E+00  0.17813314227E+04  0.17813314227E+04  0.25500000920E-02 0.  1.
       -2   -1    0    0    0  501  0.00000000000E+00  0.00000000000E+00 -0.13542186578E+04  0.13542186578E+04  0.25500000920E-02 0. -1.
    10030    2    1    2    0    0  0.00000000000E+00  0.00000000000E+00  0.42711276491E+03  0.31355500804E+04  0.31063240322E+04 0.  0.
        1    1    3    3  502    0 -0.78745569380E+03 -0.23630996555E+03  0.15436732319E+04  0.17489585234E+04  0.50400001928E-02 0.  1.
       -1    1    3    3    0  502  0.78745569380E+03  0.23630996555E+03 -0.11165604670E+04  0.13865915570E+04  0.50400001928E-02 0. -1.
</event>
<event>
 5   0  0.5373060E-06  0.3184610E+04  0.7818609E-02  0.8192894E-01
        2   -1    0    0  501    0  0.00000000000E+00  0.00000000000E+00  0.16043501544E+04  0.16043501544E+04  0.25500000920E-02 0. -1.
       -2   -1    0    0    0  501  0.00000000000E+00  0.00000000000E+00 -0.15803499983E+04  0.15803499983E+04  0.25500000920E-02 0.  1.
    10030    2    1    2    0    0  0.00000000000E+00  0.00000000000E+00  0.24000156053E+02  0.31847001527E+04  0.31846097178E+04 0.  0.
        5    1    3    3  502    0 -0.54999243664E+03  0.35943197632E+03  0.14624652209E+04  0.16032808981E+04  0.46999998093E+01 0. -1.
       -5    1    3    3    0  502  0.54999243664E+03 -0.35943197632E+03 -0.14384650648E+04  0.15814192546E+04  0.46999998093E+01 0.  1.
</event>
<event>
 5   0  0.5373060E-06  0.2142809E+04  0.7818609E-02  0.8542616E-01
        2   -1    0    0  501    0  0.00000000000E+00  0.00000000000E+00  0.12041724498E+04  0.12041724498E+04  0.25500000920E-02 0.  1.
       -2   -1    0    0    0  501  0.00000000000E+00  0.00000000000E+00 -0.95327552362E+03  0.95327552362E+03  0.25500000920E-02 0. -1.
    10030    2    1    2    0    0  0.00000000000E+00  0.00000000000E+00  0.25089692622E+03  0.21574479735E+04  0.21428094854E+04 0.  0.
        5    1    3    3  502    0 -0.86458002371E+03 -0.61629786427E+03 -0.18933966867E+02  0.10619332653E+04  0.46999998093E+01 0. -1.
       -5    1    3    3    0  502  0.86458002371E+03  0.61629786427E+03  0.26983089309E+03  0.10955147081E+04  0.46999998093E+01 0.  1.
</event>
<event>
 5   0  0.1846850E-06  0.3194775E+04  0.7818609E-02  0.8190198E-01
        1   -1    0    0  501    0  0.00000000000E+00  0.00000000000E+00  0.13569146261E+04  0.13569146261E+04  0.50400001928E-02 0.  1.
       -1   -1    0    0    0  501  0.00000000000E+00  0.00000000000E+00 -0.18804775638E+04  0.18804775638E+04  0.50400001928E-02 0. -1.
    10030    2    1    2    0    0  0.00000000000E+00  0.00000000000E+00 -0.52356293762E+03  0.32373921899E+04  0.31947754290E+04 0.  0.
        5    1    3    3  502    0 -0.15533851142E+04 -0.76053718694E+01  0.11542355399E+03  0.15576931153E+04  0.46999998093E+01 0. -1.
       -5    1    3    3    0  502  0.15533851142E+04  0.76053718694E+01 -0.63898649161E+03  0.16796990746E+04  0.46999998093E+01 0.  1.
</event>
<event>
 5   0  0.1977015E-06  0.3195449E+04  0.7818609E-02  0.8190020E-01
        1   -1    0    0  501    0  0.00000000000E+00  0.00000000000E+00  0.22971126478E+04  0.22971126478E+04  0.50400001928E-02 0.  1.
       -1   -1    0    0    0  501  0.00000000000E+00  0.00000000000E+00 -0.11112748278E+04  0.11112748279E+04  0.50400001928E-02 0. -1.
    10030    2    1    2    0    0  0.00000000000E+00  0.00000000000E+00  0.11858378200E+04  0.34083874757E+04  0.31954489276E+04 0.  0.
        1    1    3    3  502    0  0.19705432564E+03 -0.78736663827E+03  0.20608341238E+04  0.22149072026E+04  0.50400001928E-02 0.  1.
       -1    1    3    3    0  502 -0.19705432564E+03  0.78736663827E+03 -0.87499630387E+03  0.11934802730E+04  0.50400001928E-02 0. -1.
</event>
<event>
 5   0  0.1881144E-06  0.3152912E+04  0.7818609E-02  0.8201365E-01
       -1   -1    0    0    0  501  0.00000000000E+00  0.00000000000E+00  0.15464867656E+04  0.15464867656E+04  0.50400001928E-02 0. -1.
        1   -1    0    0  501    0  0.00000000000E+00  0.00000000000E+00 -0.16070057656E+04  0.16070057656E+04  0.50400001928E-02 0.  1.
    10030    2    1    2    0    0  0.00000000000E+00  0.00000000000E+00 -0.60519000051E+02  0.31534925312E+04  0.31529117646E+04 0.  0.
        3    1    3    3  502    0  0.61517082748E+03 -0.10605935788E+04  0.96084141555E+03  0.15577259458E+04  0.10100000352E+00 0. -1.
       -3    1    3    3    0  502 -0.61517082748E+03  0.10605935788E+04 -0.10213604156E+04  0.15957665854E+04  0.10100000352E+00 0.  1.
</event>
<event>
 5   0  0.1881144E-06  0.3203605E+04  0.7818609E-02  0.8187866E-01
        1   -1    0    0  501    0  0.00000000000E+00  0.00000000000E+00  0.28478985219E+04  0.28478985219E+04  0.50400001928E-02 0. -1.
       -1   -1    0    0    0  501  0.00000000000E+00  0.00000000000E+00 -0.90093481684E+03  0.90093481685E+03  0.50400001928E-02 0.  1.
    10030    2    1    2    0    0  0.00000000000E+00  0.00000000000E+00  0.19469637050E+04  0.37488333387E+04  0.32036048028E+04 0.  0.
        3    1    3    3  502    0  0.14747025366E+04  0.26846782359E+03  0.16343539214E+04  0.22176418318E+04  0.10100000352E+00 0. -1.
       -3    1    3    3    0  502 -0.14747025366E+04 -0.26846782359E+03  0.31260978361E+03  0.15311915069E+04  0.10100000352E+00 0.  1.
</event>
<event>
 5   0  0.5108810E-06  0.3188197E+04  0.7818609E-02  0.8191941E-01
       -2   -1    0    0    0  501  0.00000000000E+00  0.00000000000E+00  0.12380796374E+04  0.12380796374E+04  0.25500000920E-02 0.  1.
        2   -1    0    0  501    0  0.00000000000E+00  0.00000000000E+00 -0.20524937308E+04  0.20524937308E+04  0.25500000920E-02 0. -1.
    10030    2    1    2    0    0  0.00000000000E+00  0.00000000000E+00 -0.81441409345E+03  0.32905733682E+04  0.31881974180E+04 0.  0.
        1    1    3    3  502    0 -0.14043557497E+03  0.27267871965E+03  0.12073373820E+04  0.12456883193E+04  0.50400001928E-02 0.  1.
       -1    1    3    3    0  502  0.14043557497E+03 -0.27267871965E+03 -0.20217514754E+04  0.20448850489E+04  0.50400001928E-02 0. -1.
</event>
<event>
 5   0  0.1886248E-06  0.3277543E+04  0.7818609E-02  0.8168633E-01
        1   -1    0    0  501    0  0.00000000000E+00  0.00000000000E+00  0.21918411950E+04  0.21918411950E+04  0.50400001928E-02 0. -1.
       -1   -1    0    0    0  501  0.00000000000E+00  0.00000000000E+00 -0.12252587747E+04  0.12252587747E+04  0.50400001928E-02 0.  1.
    10030    2    1    2    0    0  0.00000000000E+00  0.00000000000E+00  0.96658242032E+03  0.34170999697E+04  0.32775433831E+04 0.  0.
        4    1    3    3  502    0 -0.93176371452E+03 -0.11901949184E+04 -0.17677243457E+03  0.15218402249E+04  0.12699999809E+01 0.  1.
       -4    1    3    3    0  502  0.93176371452E+03  0.11901949184E+04  0.11433548549E+04  0.18952597449E+04  0.12699999809E+01 0. -1.
</event>
<event>
 5   0  0.1977015E-06  0.2901587E+04  0.7818609E-02  0.8272405E-01
        1   -1    0    0  501    0  0.00000000000E+00  0.00000000000E+00  0.12779217626E+04  0.12779217627E+04  0.50400001928E-02 0. -1.
       -1   -1    0    0    0  501  0.00000000000E+00  0.00000000000E+00 -0.16470506349E+04  0.16470506349E+04  0.50400001928E-02 0.  1.
    10030    2    1    2    0    0  0.00000000000E+00  0.00000000000E+00 -0.36912887228E+03  0.29249723976E+04  0.29015870489E+04 0.  0.
        1    1    3    3  502    0 -0.13890720547E+03 -0.28185631576E+03  0.12432064531E+04  0.12823028033E+04  0.50400001928E-02 0. -1.
       -1    1    3    3    0  502  0.13890720547E+03  0.28185631576E+03 -0.16123353253E+04  0.16426695942E+04  0.50400001928E-02 0.  1.
</event>
<event>
 5   0  0.5347280E-06  0.3278406E+04  0.7818609E-02  0.8168412E-01
        2   -1    0    0  501    0  0.00000000000E+00  0.00000000000E+00  0.11920770835E+04  0.11920770835E+04  0.25500000920E-02 0.  1.
       -2   -1    0    0    0  501  0.00000000000E+00  0.00000000000E+00 -0.22540381200E+04  0.22540381200E+04  0.25500000920E-02 0. -1.
    10030    2    1    2    0    0  0.00000000000E+00  0.00000000000E+00 -0.10619610364E+04  0.34461152035E+04  0.32784064350E+04 0.  0.
        2    1    3    3  502    0 -0.10424140682E+04  0.90322871632E+03  0.40007158614E+03  0.14361429168E+04  0.25500000920E-02 0.  1.
       -2    1    3    3    0  502  0.10424140682E+04 -0.90322871632E+03 -0.14620326226E+04  0.20099722866E+04  0.25500000920E-02 0. -1.
</event>
<event>
 5   0  0.1881144E-06  0.3237036E+04  0.7818609E-02  0.8179104E-01
       -1   -1    0    0    0  501  0.00000000000E+00  0.00000000000E+00  0.20846758401E+04  0.20846758401E+04  0.50400001928E-02 0.  1.
        1   -1    0    0  501    0  0.00000000000E+00  0.00000000000E+00 -0.12565986508E+04  0.12565986508E+04  0.50400001928E-02 0. -1.
    10030    2    1    2    0    0  0.00000000000E+00  0.00000000000E+00  0.82807718927E+03  0.33412744909E+04  0.32370362050E+04 0.  0.
        3    1    3    3  502    0  0.53254639403E+03  0.12035036365E+04 -0.55841061222E+03  0.14296325007E+04  0.10100000352E+00 0. -1.
       -3    1    3    3    0  502 -0.53254639403E+03 -0.12035036365E+04  0.13864878015E+04  0.19116419902E+04  0.10100000352E+00 0.  1.
</event>
<event>
 5   0  0.5131083E-06  0.2964694E+04  0.7818609E-02  0.8253885E-01
       -2   -1    0    0    0  501  0.00000000000E+00  0.00000000000E+00  0.14452693056E+04  0.14452693056E+04  0.25500000920E-02 0. -1.
        2   -1    0    0  501    0  0.00000000000E+00  0.00000000000E+00 -0.15203759838E+04  0.15203759838E+04  0.25500000920E-02 0.  1.
    10030    2    1    2    0    0  0.00000000000E+00  0.00000000000E+00 -0.75106678275E+02  0.29656452894E+04  0.29646940769E+04 0.  0.
        3    1    3    3  502    0  0.14742040420E+04 -0.12530854334E+03  0.53979810130E+02  0.14805045149E+04  0.10100000352E+00 0.  1.
       -3    1    3    3    0  502 -0.14742040420E+04  0.12530854334E+03 -0.12908648840E+03  0.14851407745E+04  0.10100000352E+00 0. -1.
</event>
<event>
 5   0  0.1977015E-06  0.3206050E+04  0.7818609E-02  0.8187221E-01
        1   -1    0    0  501    0  0.00000000000E+00  0.00000000000E+00  0.15175934241E+04  0.15175934241E+04  0.50400001928E-02 0.  1.
       -1   -1    0    0    0  501  0.00000000000E+00  0.00000000000E+00 -0.16932658918E+04  0.16932658918E+04  0.50400001928E-02 0. -1.
    10030    2    1    2    0    0  0.00000000000E+00  0.00000000000E+00 -0.17567246764E+03  0.32108593159E+04  0.32060500200E+04 0.  0.
        1    1    3    3  502    0 -0.10104210540E+04 -0.86301093079E+03 -0.98581417410E+03  0.16545598082E+04  0.50400001928E-02 0. -1.
       -1    1    3    3    0  502  0.10104210540E+04  0.86301093079E+03  0.81014170645E+03  0.15562995077E+04  0.50400001928E-02 0.  1.
</event>
<event>
 5   0  0.5347280E-06  0.3179622E+04  0.7818609E-02  0.8194220E-01
       -2   -1    0    0    0  501  0.00000000000E+00  0.00000000000E+00  0.94876535292E+03  0.94876535292E+03  0.25500000920E-02 0. -1.
        2   -1    0    0  501    0  0.00000000000E+00  0.00000000000E+00 -0.26639879548E+04  0.26639879548E+04  0.25500000920E-02 0.  1.
    10030    2    1    2    0    0  0.00000000000E+00  0.00000000000E+00 -0.17152226019E+04  0.36127533078E+04  0.31796222871E+04 0.  0.
        2    1    3    3  502    0 -0.77848670772E+03  0.24790110031E+03 -0.24072112480E+04  0.25420783823E+04  0.25500000920E-02 0.  1.
       -2    1    3    3    0  502  0.77848670772E+03 -0.24790110031E+03  0.69198864605E+03  0.10706749254E+04  0.25500000920E-02 0. -1.
</event>
<event>
 5   0  0.1969465E-06  0.2667273E+04  0.7818609E-02  0.8345703E-01
       -1   -1    0    0    0  501  0.00000000000E+00  0.00000000000E+00  0.84366272942E+03  0.84366272944E+03  0.50400001928E-02 0. -1.
        1   -1    0    0  501    0  0.00000000000E+00  0.00000000000E+00 -0.21081720177E+04  0.21081720177E+04  0.50400001928E-02 0.  1.
    10030    2    1    2    0    0  0.00000000000E+00  0.00000000000E+00 -0.12645092883E+04  0.29518347472E+04  0.26672728834E+04 0.  0.
        2    1    3    3  502    0  0.11396072996E+04  0.68175346840E+03 -0.76821759235E+03  0.15341612882E+04  0.25500000920E-02 0. -1.
       -2    1    3    3    0  502 -0.11396072996E+04 -0.68175346840E+03 -0.49629169596E+03  0.14176734590E+04  0.25500000920E-02 0.  1.
</event>
<event>
 5   0  0.5131083E-06  0.3177770E+04  0.7818609E-02  0.8194713E-01
        2   -1    0    0  501    0  0.00000000000E+00  0.00000000000E+00  0.22892602545E+04  0.22892602545E+04  0.25500000920E-02 0. -1.
       -2   -1    0    0    0  501  0.00000000000E+00  0.00000000000E+00 -0.11027824042E+04  0.11027824042E+04  0.25500000920E-02 0.  1.
    10030    2    1    2    0    0  0.00000000000E+00  0.00000000000E+00  0.11864778503E+04  0.33920426588E+04  0.31777702418E+04 0.  0.
        3    1    3    3  502    0  0.31807598553E+03 -0.14502529106E+04 -0.10731425048E+02  0.14847629477E+04  0.10100000352E+00 0. -1.
       -3    1    3    3    0  502 -0.31807598553E+03  0.14502529106E+04  0.11972092753E+04  0.19072797111E+04  0.10100000352E+00 0.  1.
</event>
<event>
 5   0  0.5373060E-06  0.2858921E+04  0.7818609E-02  0.8285206E-01
       -2   -1    0    0    0  501  0.00000000000E+00  0.00000000000E+00  0.17386727455E+04  0.17386727455E+04  0.25500000920E-02 0.  1.
        2   -1    0    0  501    0  0.00000000000E+00  0.00000000000E+00 -0.11752395425E+04  0.11752395425E+04  0.25500000920E-02 0. -1.
    10030    2    1    2    0    0  0.00000000000E+00  0.00000000000E+00  0.56343320295E+03  0.29139122880E+04  0.28589207488E+04 0.  0.
        5    1    3    3  502    0 -0.29821130579E+02 -0.10294811804E+04 -0.72861944486E+03  0.12615978702E+04  0.46999998093E+01 0. -1.
       -5    1    3    3    0  502  0.29821130579E+02  0.10294811804E+04  0.12920526478E+04  0.16523144178E+04  0.46999998093E+01 0.  1.
</event>
<event>
 5   0  0.1969465E-06  0.3212966E+04  0.7818609E-02  0.8185401E-01
       -1   -1    0    0    0  501  0.00000000000E+00  0.00000000000E+00  0.14793736298E+04  0.14793736298E+04  0.50400001928E-02 0.  1.
        1   -1    0    0  501    0  0.00000000000E+00  0.00000000000E+00 -0.17445140787E+04  0.17445140787E+04  0.50400001928E-02 0. -1.
    10030    2    1    2    0    0  0.00000000000E+00  0.00000000000E+00 -0.26514044891E+03  0.32238877085E+04  0.32129663085E+04 0.  0.
        2    1    3    3  502    0  0.82627375040E+03 -0.12878760360E+04 -0.62355459813E+03  0.16523236159E+04  0.25500000920E-02 0. -1.
       -2    1    3    3    0  502 -0.82627375040E+03  0.12878760360E+04  0.35841414922E+03  0.15715640926E+04  0.25500000920E-02 0.  1.
</event>
<event>
 5   0  0.5131083E-06  0.2167937E+04  0.7818609E-02  0.8531893E-01
        2   -1    0    0  501    0  0.00000000000E+00  0.00000000000E+00  0.27615976510E+04  0.27615976510E+04  0.25500000920E-02 0. -1.
       -2   -1    0    0    0  501  0.00000000000E+00  0.00000000000E+00 -0.42547389938E+03  0.42547389939E+03  0.25500000920E-02 0.  1.
    10030    2    1    2    0    0  0.00000000000E+00  0.00000000000E+00  0.23361237516E+04  0.31870715504E+04  0.21679370112E+04 0.  0.
        3    1    3    3  502    0 -0.17851410799E+03  0.47557458075E+03  0.25757868060E+04  0.26253982838E+04  0.10100000352E+00 0. -1.
       -3    1    3    3    0  502  0.17851410799E+03 -0.47557458075E+03 -0.23966305433E+03  0.56167326660E+03  0.10100000352E+00 0.  1.
</event>
<event>
 5   0  0.5108810E-06  0.3205232E+04  0.7818609E-02  0.8187437E-01
        2   -1    0    0  501    0  0.00000000000E+00  0.00000000000E+00  0.11966272965E+04  0.11966272965E+04  0.25500000920E-02 0.  1.
       -2   -1    0    0    0  501  0.00000000000E+00  0.00000000000E+00 -0.21463470516E+04  0.21463470516E+04  0.25500000920E-02 0. -1.
    10030    2    1    2    0    0  0.00000000000E+00  0.00000000000E+00 -0.94971975511E+03  0.33429743481E+04  0.32052316420E+04 0.  0.
        1    1    3    3  502    0  0.12132497004E+04  0.63474509309E+03 -0.13434147535E+04  0.19182386110E+04  0.50400001928E-02 0. -1.
       -1    1    3    3    0  502 -0.12132497004E+04 -0.63474509309E+03  0.39369499834E+03  0.14247357371E+04  0.50400001928E-02 0.  1.
</event>
<event>
 5   0  0.1846850E-06  0.3148538E+04  0.7818609E-02  0.8202542E-01
        1   -1    0    0  501    0  0.00000000000E+00  0.00000000000E+00  0.14342623231E+04  0.14342623231E+04  0.50400001928E-02 0.  1.
       -1   -1    0    0    0  501  0.00000000000E+00  0.00000000000E+00 -0.17279423505E+04  0.17279423505E+04  0.50400001928E-02 0. -1.
    10030    2    1    2    0    0  0.00000000000E+00  0.00000000000E+00 -0.29368002735E+03  0.31622046736E+04  0.31485378256E+04 0.  0.
        5    1    3    3  502    0 -0.15295464986E+02 -0.70011986541E+03 -0.15628887167E+04  0.17126135022E+04  0.46999998093E+01 0. -1.
       -5    1    3    3    0  502  0.15295464986E+02  0.70011986541E+03  0.12692086893E+04  0.14495911714E+04  0.46999998093E+01 0.  1.
</event>
<event>
 5   0  0.5131083E-06  0.3172791E+04  0.7818609E-02  0.8196040E-01
        2   -1    0    0  501    0  0.00000000000E+00  0.00000000000E+00  0.16843358087E+04  0.16843358087E+04  0.25500000920E-02 0.  1.
       -2   -1    0    0    0  501  0.00000000000E+00  0.00000000000E+00 -0.14941499020E+04  0.14941499020E+04  0.25500000920E-02 0. -1.
    10030    2    1    2    0    0  0.00000000000E+00  0.00000000000E+00  0.19018590672E+03  0.31784857107E+04  0.31727906855E+04 0.  0.
        3    1    3    3  502    0  0.12625710909E+04  0.76381212379E+03 -0.48832292359E+03  0.15543339435E+04  0.10100000352E+00 0. -1.
       -3    1    3    3    0  502 -0.12625710909E+04 -0.76381212379E+03  0.67850883032E+03  0.16241517672E+04  0.10100000352E+00 0.  1.
</event>
<event>
 5   0  0.1886248E-06  0.3183439E+04  0.7818609E-02  0.8193205E-01
        1   -1    0    0  501    0  0.00000000000E+00  0.00000000000E+00  0.13707534683E+04  0.13707534683E+04  0.50400001928E-02 0. -1.
       -1   -1    0    0    0  501  0.00000000000E+00  0.00000000000E+00 -0.18483057227E+04  0.18483057227E+04  0.50400001928E-02 0.  1.
    10030    2    1    2    0    0  0.00000000000E+00  0.00000000000E+00 -0.47755225437E+03  0.32190591910E+04  0.31834393224E+04 0.  0.
        4    1    3    3  502    0  0.92834548682E+03  0.11667685668E+04 -0.80214155111E+03  0.16931057003E+04  0.12699999809E+01 0.  1.
       -4    1    3    3    0  502 -0.92834548682E+03 -0.11667685668E+04  0.32458929674E+03  0.15259534907E+04  0.12699999809E+01 0. -1.
</event>
<event>
 5   0  0.1977015E-06  0.3125649E+04  0.7818609E-02  0.8208734E-01
       -1   -1    0    0    0  501  0.00000000000E+00  0.00000000000E+00  0.17488133772E+04  0.17488133772E+04  0.50400001928E-02 0. -1.
        1   -1    0    0  501    0  0.00000000000E+00  0.00000000000E+00 -0.13966160751E+04  0.13966160751E+04  0.50400001928E-02 0.  1.
    10030    2    1    2    0    0  0.00000000000E+00  0.00000000000E+00  0.35219730209E+03  0.31454294524E+04  0.31256492926E+04 0.  0.
        1    1    3    3  502    0 -0.12766238613E+04  0.56162890102E+02 -0.72931622228E+03  0.14713343963E+04  0.50400001928E-02 0.  1.
       -1    1    3    3    0  502  0.12766238613E+04 -0.56162890102E+02  0.10815135244E+04  0.16740950561E+04  0.50400001928E-02 0. -1.
</event>
<event>
 5   0  0.1881144E-06  0.3203514E+04  0.7818609E-02  0.8187890E-01
       -1   -1    0    0    0  501  0.00000000000E+00  0.00000000000E+00  0.10544514276E+04  0.10544514276E+04  0.50400001928E-02 0.  1.
        1   -1    0    0  501    0  0.00000000000E+00  0.00000000000E+00 -0.24331375490E+04  0.24331375490E+04  0.50400001928E-02 0. -1.
    10030    2    1    2    0    0  0.00000000000E+00  0.00000000000E+00 -0.13786861214E+04  0.34875889766E+04  0.32035139220E+04 0.  0.
        3    1    3    3  502    0 -0.14758771636E+04  0.21676566488E+02 -0.12135716204E+02  0.14760862310E+04  0.10100000352E+00 0.  1.
       -3    1    3    3    0  502  0.14758771636E+04 -0.21676566488E+02 -0.13665504052E+04  0.20115027456E+04  0.10100000352E+00 0. -1.
</event>
<event>
 5   0  0.5121624E-06  0.3429887E+04  0.7818609E-02  0.8130610E-01
        2   -1    0    0  501    0  0.00000000000E+00  0.00000000000E+00  0.14878093406E+04  0.14878093406E+04  0.25500000920E-02 0. -1.
       -2   -1    0    0    0  501  0.00000000000E+00  0.00000000000E+00 -0.19767524152E+04  0.19767524152E+04  0.25500000920E-02 0.  1.
    10030    2    1    2    0    0  0.00000000000E+00  0.00000000000E+00 -0.48894307461E+03  0.34645617559E+04  0.34298867080E+04 0.  0.
        4    1    3    3  502    0  0.12037839346E+03 -0.14418715855E+04  0.68545743519E+03  0.16010428273E+04  0.12699999809E+01 0. -1.
       -4    1    3    3    0  502 -0.12037839346E+03  0.14418715855E+04 -0.11744005098E+04  0.18635189285E+04  0.12699999809E+01 0.  1.
</event>
<event>
 5   0  0.5121624E-06  0.3134441E+04  0.7818609E-02  0.8206349E-01
        2   -1    0    0  501    0  0.00000000000E+00  0.00000000000E+00  0.14944831848E+04  0.14944831848E+04  0.25500000920E-02 0.  1.
       -2   -1    0    0    0  501  0.00000000000E+00  0.00000000000E+00 -0.16434984603E+04  0.16434984603E+04  0.25500000920E-02 0. -1.
    10030    2    1    2    0    0  0.00000000000E+00  0.00000000000E+00 -0.14901527547E+03  0.31379816451E+04  0.31344414579E+04 0.  0.
        4    1    3    3  502    0  0.29214819720E+03 -0.14897408715E+04  0.31516297275E+03  0.15504862933E+04  0.12699999809E+01 0.  1.
       -4    1    3    3    0  502 -0.29214819720E+03  0.14897408715E+04 -0.46417824822E+03  0.15874953519E+04  0.12699999809E+01 0. -1.
</event>
<event>
 5   0  0.1969465E-06  0.2768873E+04  0.7818609E-02  0.8312998E-01
       -1   -1    0    0    0  501  0.00000000000E+00  0.00000000000E+00  0.10134710047E+04  0.10134710047E+04  0.50400001928E-02 0. -1.
        1   -1    0    0  501    0  0.00000000000E+00  0.00000000000E+00 -0.18911882801E+04  0.18911882801E+04  0.50400001928E-02 0.  1.
    10030    2    1    2    0    0  0.00000000000E+00  0.00000000000E+00 -0.87771727543E+03  0.29046592848E+04  0.27688730460E+04 0.  0.
        2    1    3    3  502    0  0.24205292434E+03 -0.99074661701E+03  0.54326717380E+03  0.11555551477E+04  0.25500000920E-02 0. -1.
       -2    1    3    3    0  502 -0.24205292434E+03  0.99074661701E+03 -0.14209844492E+04  0.17491041371E+04  0.25500000920E-02 0.  1.
</event>
<event>
 5   0  0.1846850E-06  0.2190763E+04  0.7818609E-02  0.8522283E-01
       -1   -1    0    0    0  501  0.00000000000E+00  0.00000000000E+00  0.54734093521E+03  0.54734093524E+03  0.50400001928E-02 0.  1.
        1   -1    0    0  501    0  0.00000000000E+00  0.00000000000E+00 -0.21921628071E+04  0.21921628071E+04  0.50400001928E-02 0. -1.
    10030    2    1    2    0    0  0.00000000000E+00  0.00000000000E+00 -0.16448218719E+04  0.27395037423E+04  0.21907628270E+04 0.  0.
        5    1    3    3  502    0 -0.89924376990E+03  0.46416177444E+03 -0.13466479861E+04  0.16845083553E+04  0.46999998093E+01 0. -1.
       -5    1    3    3    0  502  0.89924376990E+03 -0.46416177444E+03 -0.29817388580E+03  0.10549953871E+04  0.46999998093E+01 0.  1.
</event>
<event>
 5   0  0.1846850E-06  0.3212322E+04  0.7818609E-02  0.8185571E-01
        1   -1    0    0  501    0  0.00000000000E+00  0.00000000000E+00  0.27475782330E+04  0.27475782331E+04  0.50400001928E-02 0.  1.
       -1   -1    0    0    0  501  0.00000000000E+00  0.00000000000E+00 -0.93891896581E+03  0.93891896583E+03  0.50400001928E-02 0. -1.
    10030    2    1    2    0    0  0.00000000000E+00  0.00000000000E+00  0.18086592672E+04  0.36864971989E+04  0.32123220966E+04 0.  0.
        5    1    3    3  502    0 -0.12738222634E+04 -0.40505122085E+03 -0.11765131608E+03  0.13418470749E+04  0.46999998093E+01 0. -1.
       -5    1    3    3    0  502  0.12738222634E+04  0.40505122085E+03  0.19263105833E+04  0.23446501239E+04  0.46999998093E+01 0.  1.
</event>
<event>
 5   0  0.5347280E-06  0.3235589E+04  0.7818609E-02  0.8179481E-01
       -2   -1    0    0    0  501  0.00000000000E+00  0.00000000000E+00  0.20177176951E+04  0.20177176951E+04  0.25500000920E-02 0.  1.
        2   -1    0    0  501    0  0.00000000000E+00  0.00000000000E+00 -0.12971384441E+04  0.12971384442E+04  0.25500000920E-02 0. -1.
    10030    2    1    2    0    0  0.00000000000E+00  0.00000000000E+00  0.72057925095E+03  0.33148561392E+04  0.32355890912E+04 0.  0.
        2    1    3    3  502    0 -0.14892578051E+04 -0.28164691685E+03 -0.21929534472E+03  0.15314386191E+04  0.25500000920E-02 0. -1.
       -2    1    3    3    0  502  0.14892578051E+04  0.28164691685E+03  0.93987459567E+03  0.17834175202E+04  0.25500000920E-02 0.  1.
</event>
<event>
 5   0  0.5131083E-06  0.2372030E+04  0.7818609E-02  0.8450050E-01
        2   -1    0    0  501    0  0.00000000000E+00  0.00000000000E+00  0.17008452233E+04  0.17008452233E+04  0.25500000920E-02 0. -1.
       -2   -1    0    0    0  501  0.00000000000E+00  0.00000000000E+00 -0.82701939171E+03  0.82701939171E+03  0.25500000920E-02 0.  1.
    10030    2    1    2    0    0  0.00000000000E+00  0.00000000000E+00  0.87382583161E+03  0.25278646150E+04  0.23720303387E+04 0.  0.
        3    1    3    3  502    0  0.10165626947E+04 -0.15715530166E+03  0.10660661592E+04  0.14814164057E+04  0.10100000352E+00 0. -1.
       -3    1    3    3    0  502 -0.10165626947E+04  0.15715530166E+03 -0.19224032759E+03  0.10464482093E+04  0.10100000352E+00 0.  1.
</event>
<event>
 5   0  0.5108810E-06  0.3189338E+04  0.7818609E-02  0.8191639E-01
        2   -1    0    0  501    0  0.00000000000E+00  0.00000000000E+00  0.16412215948E+04  0.16412215948E+04  0.25500000920E-02 0. -1.
       -2   -1    0    0    0  501  0.00000000000E+00  0.00000000000E+00 -0.15494366015E+04  0.15494366015E+04  0.25500000920E-02 0.  1.
    10030    2    1    2    0    0  0.00000000000E+00  0.00000000000E+00  0.91784993287E+02  0.31906581963E+04  0.31893377433E+04 0.  0.
        1    1    3    3  502    0  0.83384778517E+03 -0.13550274599E+04 -0.61703248683E+02  0.15922339140E+04  0.50400001928E-02 0.  1.
       -1    1    3    3    0  502 -0.83384778517E+03  0.13550274599E+04  0.15348824197E+03  0.15984242823E+04  0.50400001928E-02 0. -1.
</event>
<event>
 5   0  0.5347280E-06  0.3198083E+04  0.7818609E-02  0.8189324E-01
       -2   -1    0    0    0  501  0.00000000000E+00  0.00000000000E+00  0.14010056807E+04  0.14010056808E+04  0.25500000920E-02 0. -1.
        2   -1    0    0  501    0  0.00000000000E+00  0.00000000000E+00 -0.18250699659E+04  0.18250699659E+04  0.25500000920E-02 0.  1.
    10030    2    1    2    0    0  0.00000000000E+00  0.00000000000E+00 -0.42406428513E+03  0.32260756466E+04  0.31980827944E+04 0.  0.
        2    1    3    3  502    0  0.75006461460E+03 -0.11967353449E+04 -0.96836887312E+03  0.17124574991E+04  0.25500000920E-02 0.  1.
       -2    1    3    3    0  502 -0.75006461460E+03  0.11967353449E+04  0.54430458800E+03  0.15136181475E+04  0.25500000920E-02 0. -1.
</event>
<event>
 5   0  0.5131083E-06  0.3150366E+04  0.7818609E-02  0.8202050E-01
       -2   -1    0    0    0  501  0.00000000000E+00  0.00000000000E+00  0.13155195002E+04  0.13155195002E+04  0.25500000920E-02 0. -1.
        2   -1    0    0  501    0  0.00000000000E+00  0.00000000000E+00 -0.18860998312E+04  0.18860998312E+04  0.25500000920E-02 0.  1.
    10030    2    1    2    0    0  0.00000000000E+00  0.00000000000E+00 -0.57058033093E+03  0.32016193314E+04  0.31503657612E+04 0.  0.
        3    1    3    3  502    0 -0.81474483824E+03 -0.71827451573E+02 -0.16533834262E+04  0.18446260051E+04  0.10100000352E+00 0.  1.
       -3    1    3    3    0  502  0.81474483824E+03  0.71827451573E+02  0.10828030953E+04  0.13569933263E+04  0.10100000352E+00 0. -1.
</event>
<event>
 5   0  0.1881144E-06  0.3044095E+04  0.7818609E-02  0.8231250E-01
        1   -1    0    0  501    0  0.00000000000E+00  0.00000000000E+00  0.16398698567E+04  0.16398698567E+04  0.50400001928E-02 0.  1.
       -1   -1    0    0    0  501  0.00000000000E+00  0.00000000000E+00 -0.14126908074E+04  0.14126908074E+04  0.50400001928E-02 0. -1.
    10030    2    1    2    0    0  0.00000000000E+00  0.00000000000E+00  0.22717904933E+03  0.30525606641E+04  0.30440953152E+04 0.  0.
        3    1    3    3  502    0 -0.71141247344E+03  0.13109732663E+04 -0.19035475728E+03  0.15036600533E+04  0.10100000352E+00 0. -1.
       -3    1    3    3    0  502  0.71141247344E+03 -0.13109732663E+04  0.41753380661E+03  0.15489006108E+04  0.10100000352E+00 0.  1.
</event>
<event>
 5   0  0.5373060E-06  0.3215076E+04  0.7818609E-02  0.8184847E-01
        2   -1    0    0  501    0  0.00000000000E+00  0.00000000000E+00  0.22698105511E+04  0.22698105511E+04  0.25500000920E-02 0. -1.
       -2   -1    0    0    0  501  0.00000000000E+00  0.00000000000E+00 -0.11384996504E+04  0.11384996504E+04  0.25500000920E-02 0.  1.
    10030    2    1    2    0    0  0.00000000000E+00  0.00000000000E+00  0.11313109007E+04  0.34083102015E+04  0.32150760607E+04 0.  0.
        5    1    3    3  502    0 -0.18755789589E+03 -0.11278894764E+04  0.17635449215E+04  0.21017672125E+04  0.46999998093E+01 0. -1.
       -5    1    3    3    0  502  0.18755789589E+03  0.11278894764E+04 -0.63223402084E+03  0.13065429891E+04  0.46999998093E+01 0.  1.
</event>
<event>
 5   0  0.1846850E-06  0.2098535E+04  0.7818609E-02  0.8561889E-01
        1   -1    0    0  501    0  0.00000000000E+00  0.00000000000E+00  0.12743065806E+04  0.12743065806E+04  0.50400001928E-02 0. -1.
       -1   -1    0    0    0  501  0.00000000000E+00  0.00000000000E+00 -0.86397006935E+03  0.86397006936E+03  0.50400001928E-02 0.  1.
    10030    2    1    2    0    0  0.00000000000E+00  0.00000000000E+00  0.41033651124E+03  0.21382766500E+04  0.20985354368E+04 0.  0.
        5    1    3    3  502    0 -0.66252341062E+03 -0.56731015777E+02 -0.62185825200E+03  0.91043146549E+03  0.46999998093E+01 0.  1.
       -5    1    3    3    0  502  0.66252341062E+03  0.56731015777E+02  0.10321947632E+04  0.12278451845E+04  0.46999998093E+01 0. -1.
</event>
<event>
 5   0  0.1881144E-06  0.3178897E+04  0.7818609E-02  0.8194413E-01
       -1   -1    0    0    0  501  0.00000000000E+00  0.00000000000E+00  0.26406401923E+04  0.26406401923E+04  0.50400001928E-02 0. -1.
        1   -1    0    0  501    0  0.00000000000E+00  0.00000000000E+00 -0.95671718590E+03  0.95671718592E+03  0.50400001928E-02 0.  1.
    10030    2    1    2    0    0  0.00000000000E+00  0.00000000000E+00  0.16839230064E+04  0.35973573782E+04  0.31788965719E+04 0.  0.
        3    1    3    3  502    0 -0.15545543032E+04  0.25098872480E+03  0.59738274739E+03  0.16841913723E+04  0.10100000352E+00 0. -1.
       -3    1    3    3    0  502  0.15545543032E+04 -0.25098872480E+03  0.10865402590E+04  0.19131660059E+04  0.10100000352E+00 0.  1.
</event>
<event>
 5   0  0.5131083E-06  0.3259195E+04  0.7818609E-02  0.8173357E-01
       -2   -1    0    0    0  501  0.00000000000E+00  0.00000000000E+00  0.25347599004E+04  0.25347599004E+04  0.25500000920E-02 0.  1.
        2   -1    0    0  501    0  0.00000000000E+00  0.00000000000E+00 -0.10476684682E+04  0.10476684682E+04  0.25500000920E-02 0. -1.
    10030    2    1    2    0    0  0.00000000000E+00  0.00000000000E+00  0.14870914322E+04  0.35824283687E+04  0.32591950063E+04 0.  0.
        3    1    3    3  502    0  0.15728072794E+04  0.28058787017E+03  0.39054813975E+03  0.16446823860E+04  0.10100000352E+00 0. -1.
       -3    1    3    3    0  502 -0.15728072794E+04 -0.28058787017E+03  0.10965432925E+04  0.19377459827E+04  0.10100000352E+00 0.  1.
</event>
<event>
 5   0  0.1977015E-06  0.3124108E+04  0.7818609E-02  0.8209153E-01
        1   -1    0    0  501    0  0.00000000000E+00  0.00000000000E+00  0.27410129036E+04  0.27410129036E+04  0.50400001928E-02 0.  1.
       -1   -1    0    0    0  501  0.00000000000E+00  0.00000000000E+00 -0.89018632316E+03  0.89018632318E+03  0.50400001928E-02 0. -1.
    10030    2    1    2    0    0  0.00000000000E+00  0.00000000000E+00  0.18508265804E+04  0.36311992268E+04  0.31241076796E+04 0.  0.
        1    1    3    3  502    0 -0.13472000006E+04 -0.78549411190E+03  0.82104176630E+03  0.17624013231E+04  0.50400001928E-02 0.  1.
       -1    1    3    3    0  502  0.13472000006E+04  0.78549411190E+03  0.10297848141E+04  0.18687979037E+04  0.50400001928E-02 0. -1.
</event>
<event>
 5   0  0.1881144E-06  0.3184232E+04  0.7818609E-02  0.8192994E-01
       -1   -1    0    0    0  501  0.00000000000E+00  0.00000000000E+00  0.11720726562E+04  0.11720726563E+04  0.50400001928E-02 0.  1.
        1   -1    0    0  501    0  0.00000000000E+00  0.00000000000E+00 -0.21626934370E+04  0.21626934370E+04  0.50400001928E-02 0. -1.
    10030    2    1    2    0    0  0.00000000000E+00  0.00000000000E+00 -0.99062078075E+03  0.33347660933E+04  0.31842323039E+04 0.  0.
        3    1    3    3  502    0  0.88452499661E+03  0.42992991159E+03  0.81592177702E+03  0.12778703201E+04  0.10100000352E+00 0.  1.
       -3    1    3    3    0  502 -0.88452499661E+03 -0.42992991159E+03 -0.18065425578E+04  0.20568957732E+04  0.10100000352E+00 0. -1.
</event>
<event>
 5   0  0.1969465E-06  0.2402521E+04  0.7818609E-02  0.8438560E-01
        1   -1    0    0  501    0  0.00000000000E+00  0.00000000000E+00  0.84237818786E+03  0.84237818788E+03  0.50400001928E-02 0.  1.
       -1   -1    0    0    0  501  0.00000000000E+00  0.00000000000E+00 -0.17130390125E+04  0.17130390125E+04  0.50400001928E-02 0. -1.
    10030    2    1    2    0    0  0.00000000000E+00  0.00000000000E+00 -0.87066082463E+03  0.25554172004E+04  0.24025209253E+04 0.  0.
        2    1    3    3  502    0 -0.36698522911E+02 -0.25773661496E+03 -0.16826729656E+04  0.17026929417E+04  0.25500000920E-02 0. -1.
       -2    1    3    3    0  502  0.36698522911E+02  0.25773661496E+03  0.81201214100E+03  0.85272425872E+03  0.25500000920E-02 0.  1.
</event>
<event>
 5   0  0.1846850E-06  0.3199710E+04  0.7818609E-02  0.8188894E-01
       -1   -1    0    0    0  501  0.00000000000E+00  0.00000000000E+00  0.14648096806E+04  0.14648096807E+04  0.50400001928E-02 0. -1.
        1   -1    0    0  501    0  0.00000000000E+00  0.00000000000E+00 -0.17473506220E+04  0.17473506220E+04  0.50400001928E-02 0.  1.
    10030    2    1    2    0    0  0.00000000000E+00  0.00000000000E+00 -0.28254094131E+03  0.32121603026E+04  0.31997100535E+04 0.  0.
        5    1    3    3  502    0  0.78997498815E+02 -0.11995230481E+04 -0.12010380229E+04  0.16992970812E+04  0.46999998093E+01 0.  1.
       -5    1    3    3    0  502 -0.78997498815E+02  0.11995230481E+04  0.91849708159E+03  0.15128632214E+04  0.46999998093E+01 0. -1.
</event>
<event>
 5   0  0.5121624E-06  0.3139740E+04  0.7818609E-02  0.8204915E-01
        2   -1    0    0  501    0  0.00000000000E+00  0.00000000000E+00  0.90749717061E+03  0.90749717061E+03  0.25500000920E-02 0.  1.
       -2   -1    0    0    0  501  0.00000000000E+00  0.00000000000E+00 -0.27157026336E+04  0.27157026336E+04  0.25500000920E-02 0. -1.
    10030    2    1    2    0    0  0.00000000000E+00  0.00000000000E+00 -0.18082054630E+04  0.36231998042E+04  0.31397404073E+04 0.  0.
        4    1    3    3  502    0  0.10453053711E+04  0.92762336516E+03 -0.17292936730E+04  0.22234222826E+04  0.12699999809E+01 0. -1.
       -4    1    3    3    0  502 -0.10453053711E+04 -0.92762336516E+03 -0.78911790004E+02  0.13997775216E+04  0.12699999809E+01 0.  1.
</event>
<event>
 5   0  0.5108810E-06  0.3181899E+04  0.7818609E-02  0.8193614E-01
        2   -1    0    0  501    0  0.00000000000E+00  0.00000000000E+00  0.21538341629E+04  0.21538341629E+04  0.25500000920E-02 0. -1.
       -2   -1    0    0    0  501  0.00000000000E+00  0.00000000000E+00 -0.11751694403E+04  0.11751694403E+04  0.25500000920E-02 0.  1.
    10030    2    1    2    0    0  0.00000000000E+00  0.00000000000E+00  0.97866472257E+03  0.33290036031E+04  0.31818988593E+04 0.  0.
        1    1    3    3  502    0  0.15188493553E+04 -0.83776390649E+02  0.97692377044E+03  0.18078445455E+04  0.50400001928E-02 0. -1.
       -1    1    3    3    0  502 -0.15188493553E+04  0.83776390649E+02  0.17409521272E+01  0.15211590576E+04  0.50400001928E-02 0.  1.
</event>
<event>
 5   0  0.1886248E-06  0.3201740E+04  0.7818609E-02  0.8188358E-01
       -1   -1    0    0    0  501  0.00000000000E+00  0.00000000000E+00  0.99594156498E+03  0.99594156499E+03  0.50400001928E-02 0.  1.
        1   -1    0    0  501    0  0.00000000000E+00  0.00000000000E+00 -0.25732272739E+04  0.25732272739E+04  0.50400001928E-02 0. -1.
    10030    2    1    2    0    0  0.00000000000E+00  0.00000000000E+00 -0.15772857090E+04  0.35691688389E+04  0.32017395261E+04 0.  0.
        4    1    3    3  502    0  0.14871234880E+04  0.47428631220E+02 -0.13008835835E+03  0.14935562720E+04  0.12699999809E+01 0.  1.
       -4    1    3    3    0  502 -0.14871234880E+04 -0.47428631220E+02 -0.14471973506E+04  0.20756125670E+04  0.12699999809E+01 0. -1.
</event>
<event>
 5   0  0.5347280E-06  0.3219010E+04  0.7818609E-02  0.8183815E-01
       -2   -1    0    0    0  501  0.00000000000E+00  0.00000000000E+00  0.10949394948E+04  0.10949394949E+04  0.25500000920E-02 0. -1.
        2   -1    0    0  501    0  0.00000000000E+00  0.00000000000E+00 -0.23658902209E+04  0.23658902209E+04  0.25500000920E-02 0.  1.
    10030    2    1    2    0    0  0.00000000000E+00  0.00000000000E+00 -0.12709507260E+04  0.34608297157E+04  0.32190101853E+04 0.  0.
        2    1    3    3  502    0 -0.13013902704E+03 -0.85191917094E+03 -0.20969317364E+04  0.22671182474E+04  0.25500000920E-02 0.  1.
       -2    1    3    3    0  502  0.13013902704E+03  0.85191917094E+03  0.82598101041E+03  0.11937114684E+04  0.25500000920E-02 0. -1.
</event>
<event>
 5   0  0.1846850E-06  0.3248903E+04  0.7818609E-02  0.8176020E-01
       -1   -1    0    0    0  501  0.00000000000E+00  0.00000000000E+00  0.21440613367E+04  0.21440613367E+04  0.50400001928E-02 0.  1.
        1   -1    0    0  501    0  0.00000000000E+00  0.00000000000E+00 -0.12307684676E+04  0.12307684677E+04  0.50400001928E-02 0. -1.
    10030    2    1    2    0    0  0.00000000000E+00  0.00000000000E+00  0.91329286903E+03  0.33748298043E+04  0.32489032524E+04 0.  0.
        5    1    3    3  502    0 -0.52584267529E+03  0.11426296241E+04 -0.61116015979E+03  0.13984462120E+04  0.46999998093E+01 0. -1.
       -5    1    3    3    0  502  0.52584267529E+03 -0.11426296241E+04  0.15244530288E+04  0.19763835923E+04  0.46999998093E+01 0.  1.
</event>
<event>
 5   0  0.5347280E-06  0.3110186E+04  0.7818609E-02  0.8212948E-01
       -2   -1    0    0    0  501  0.00000000000E+00  0.00000000000E+00  0.21600689511E+04  0.21600689511E+04  0.25500000920E-02 0. -1.
        2   -1    0    0  501    0  0.00000000000E+00  0.00000000000E+00 -0.11195541590E+04  0.11195541590E+04  0.25500000920E-02 0.  1.
    10030    2    1    2    0    0  0.00000000000E+00  0.00000000000E+00  0.10405147921E+04  0.32796231101E+04  0.31101859609E+04 0.  0.
        2    1    3    3  502    0 -0.43405453695E+03  0.33715677231E+03  0.20542372131E+04  0.21264920780E+04  0.25500000920E-02 0. -1.
       -2    1    3    3    0  502  0.43405453695E+03 -0.33715677231E+03 -0.10137224210E+04  0.11531310320E+04  0.25500000920E-02 0.  1.
</event>
<event>
 5   0  0.1886248E-06  0.2174633E+04  0.7818609E-02  0.8529061E-01
        1   -1    0    0  501    0  0.00000000000E+00  0.00000000000E+00  0.18843972077E+04  0.18843972077E+04  0.50400001928E-02 0. -1.
       -1   -1    0    0    0  501  0.00000000000E+00  0.00000000000E+00 -0.62739296236E+03  0.62739296238E+03  0.50400001928E-02 0.  1.
    10030    2    1    2    0    0  0.00000000000E+00  0.00000000000E+00  0.12570042453E+04  0.25117901701E+04  0.21746333451E+04 0.  0.
        4    1    3    3  502    0 -0.29675220655E+03 -0.83765112548E+03  0.13521650336E+04  0.16180460967E+04  0.12699999809E+01 0. -1.
       -4    1    3    3    0  502  0.29675220655E+03  0.83765112548E+03 -0.95160788285E+02  0.89374407334E+03  0.12699999809E+01 0.  1.
</event>
<event>
 5   0  0.1886248E-06  0.3146164E+04  0.7818609E-02  0.8203181E-01
        1   -1    0    0  501    0  0.00000000000E+00  0.00000000000E+00  0.24720312290E+04  0.24720312290E+04  0.50400001928E-02 0.  1.
       -1   -1    0    0    0  501  0.00000000000E+00  0.00000000000E+00 -0.10010340971E+04  0.10010340972E+04  0.50400001928E-02 0. -1.
    10030    2    1    2    0    0  0.00000000000E+00  0.00000000000E+00  0.14709971319E+04  0.34730653262E+04  0.31461643628E+04 0.  0.
        4    1    3    3  502    0  0.72382996398E+03  0.15538374981E+03 -0.79670830375E+03  0.10875751287E+04  0.12699999809E+01 0. -1.
       -4    1    3    3    0  502 -0.72382996398E+03 -0.15538374981E+03  0.22677054356E+04  0.23854901975E+04  0.12699999809E+01 0.  1.
</event>
<event>
 5   0  0.1969465E-06  0.3193818E+04  0.7818609E-02  0.8190452E-01
       -1   -1    0    0    0  501  0.00000000000E+00  0.00000000000E+00  0.14315364697E+04  0.14315364697E+04  0.50400001928E-02 0. -1.
        1   -1    0    0  501    0  0.00000000000E+00  0.00000000000E+00 -0.17813857137E+04  0.17813857137E+04  0.50400001928E-02 0.  1.
    10030    2    1    2    0    0  0.00000000000E+00  0.00000000000E+00 -0.34984924398E+03  0.32129221834E+04  0.31938181638E+04 0.  0.
        2    1    3    3  502    0 -0.60729024666E+03  0.14761878382E+04 -0.12788340863E+03  0.16013388597E+04  0.25500000920E-02 0.  1.
       -2    1    3    3    0  502  0.60729024666E+03 -0.14761878382E+04 -0.22196583535E+03  0.16115833238E+04  0.25500000920E-02 0. -1.
</event>
<event>
 5   0  0.5347280E-06  0.3201799E+04  0.7818609E-02  0.8188342E-01
       -2   -1    0    0    0  501  0.00000000000E+00  0.00000000000E+00  0.11318663510E+04  0.11318663510E+04  0.25500000920E-02 0. -1.
        2   -1    0    0  501    0  0.00000000000E+00  0.00000000000E+00 -0.22642942916E+04  0.22642942916E+04  0.25500000920E-02 0.  1.
    10030    2    1    2    0    0  0.00000000000E+00  0.00000000000E+00 -0.11324279406E+04  0.33961606426E+04  0.32017985680E+04 0.  0.
        2    1    3    3  502    0  0.12321922269E+04  0.67368896521E+03 -0.13814559424E+04  0.19699175177E+04  0.25500000920E-02 0.  1.
       -2    1    3    3    0  502 -0.12321922269E+04 -0.67368896521E+03  0.24902800174E+03  0.14262431249E+04  0.25500000920E-02 0. -1.
</event>
<event>
 5   0  0.1729500E-06  0.3124208E+04  0.7818609E-02  0.8209125E-01
       -3   -1    0    0    0  501  0.00000000000E+00  0.00000000000E+00  0.97439652933E+03  0.97439653457E+03  0.10100000352E+00 0.  1.
        3   -1    0    0  501    0  0.00000000000E+00  0.00000000000E+00 -0.25042874562E+04  0.25042874582E+04  0.10100000352E+00 0. -1.
    10030    2    1    2    0    0  0.00000000000E+00  0.00000000000E+00 -0.15298909269E+04  0.34786839928E+04  0.31242080714E+04 0.  0.
        4    1    3    3  502    0 -0.13461688680E+04  0.78923702196E+03 -0.84447579724E+03  0.17743186532E+04  0.12699999809E+01 0. -1.
       -4    1    3    3    0  502  0.13461688680E+04 -0.78923702196E+03 -0.68541512963E+03  0.17043653396E+04  0.12699999809E+01 0.  1.
</event>
<event>
 5   0  0.5373060E-06  0.3237569E+04  0.7818609E-02  0.8178965E-01
        2   -1    0    0  501    0  0.00000000000E+00  0.00000000000E+00  0.18393486316E+04  0.18393486316E+04  0.25500000920E-02 0.  1.
       -2   -1    0    0    0  501  0.00000000000E+00  0.00000000000E+00 -0.14246690486E+04  0.14246690486E+04  0.25500000920E-02 0. -1.
    10030    2    1    2    0    0  0.00000000000E+00  0.00000000000E+00  0.41467958302E+03  0.32640176802E+04  0.32375688812E+04 0.  0.
        5    1    3    3  502    0  0.15847560790E+04 -0.12537181013E+02 -0.12525214751E+03  0.15897544469E+04  0.46999998093E+01 0.  1.
       -5    1    3    3    0  502 -0.15847560790E+04  0.12537181013E+02  0.53993173053E+03  0.16742632333E+04  0.46999998093E+01 0. -1.
</event>
<event>
 5   0  0.5373060E-06  0.3304920E+04  0.7818609E-02  0.8161645E-01
        2   -1    0    0  501    0  0.00000000000E+00  0.00000000000E+00  0.21573995884E+04  0.21573995884E+04  0.25500000920E-02 0.  1.
       -2   -1    0    0    0  501  0.00000000000E+00  0.00000000000E+00 -0.12657012319E+04  0.12657012319E+04  0.25500000920E-02 0. -1.
    10030    2    1    2    0    0  0.00000000000E+00  0.00000000000E+00  0.89169835658E+03  0.34231008203E+04  0.33049195553E+04 0.  0.
        5    1    3    3  502    0 -0.44283565468E+02  0.10817530676E+04 -0.84717100231E+03  0.13747259838E+04  0.46999998093E+01 0. -1.
       -5    1    3    3    0  502  0.44283565468E+02 -0.10817530676E+04  0.17388693589E+04  0.20483748365E+04  0.46999998093E+01 0.  1.
</event>
<event>
 5   0  0.5121624E-06  0.3046113E+04  0.7818609E-02  0.8230684E-01
        2   -1    0    0  501    0  0.00000000000E+00  0.00000000000E+00  0.87550224006E+03  0.87550224006E+03  0.25500000920E-02 0. -1.
       -2   -1    0    0    0  501  0.00000000000E+00  0.00000000000E+00 -0.26495663161E+04  0.26495663161E+04  0.25500000920E-02 0.  1.
    10030    2    1    2    0    0  0.00000000000E+00  0.00000000000E+00 -0.17740640761E+04  0.35250685562E+04  0.30461130937E+04 0.  0.
        4    1    3    3  502    0 -0.11888132776E+04  0.15811395167E+03 -0.19734917723E+04  0.23093177389E+04  0.12699999809E+01 0.  1.
       -4    1    3    3    0  502  0.11888132776E+04 -0.15811395167E+03  0.19942769625E+03  0.12157508173E+04  0.12699999809E+01 0. -1.
</event>
<event>
 5   0  0.1886248E-06  0.2361176E+04  0.7818609E-02  0.8454183E-01
        1   -1    0    0  501    0  0.00000000000E+00  0.00000000000E+00  0.27893632094E+04  0.27893632094E+04  0.50400001928E-02 0.  1.
       -1   -1    0    0    0  501  0.00000000000E+00  0.00000000000E+00 -0.49967985689E+03  0.49967985691E+03  0.50400001928E-02 0. -1.
    10030    2    1    2    0    0  0.00000000000E+00  0.00000000000E+00  0.22896833525E+04  0.32890430663E+04  0.23611764943E+04 0.  0.
        4    1    3    3  502    0 -0.65805349085E+03 -0.96404251294E+03  0.13915764918E+04  0.18162871769E+04  0.12699999809E+01 0. -1.
       -4    1    3    3    0  502  0.65805349085E+03  0.96404251294E+03  0.89810686065E+03  0.14727558893E+04  0.12699999809E+01 0.  1.
</event>
<event>
 5   0  0.1969465E-06  0.2923323E+04  0.7818609E-02  0.8265972E-01
       -1   -1    0    0    0  501  0.00000000000E+00  0.00000000000E+00  0.12965416583E+04  0.12965416583E+04  0.50400001928E-02 0.  1.
        1   -1    0    0  501    0  0.00000000000E+00  0.00000000000E+00 -0.16478104534E+04  0.16478104534E+04  0.50400001928E-02 0. -1.
    10030    2    1    2    0    0  0.00000000000E+00  0.00000000000E+00 -0.35126879510E+03  0.29443521117E+04  0.29233233813E+04 0.  0.
        2    1    3    3  502    0 -0.11094644203E+04  0.10206491538E+03  0.77728256223E+03  0.13584906067E+04  0.25500000920E-02 0.  1.
       -2    1    3    3    0  502  0.11094644203E+04 -0.10206491538E+03 -0.11285513573E+04  0.15858615050E+04  0.25500000920E-02 0. -1.
</event>
<event>
 5   0  0.5347280E-06  0.2718515E+04  0.7818609E-02  0.8329023E-01
        2   -1    0    0  501    0  0.00000000000E+00  0.00000000000E+00  0.25800867455E+04  0.25800867455E+04  0.25500000920E-02 0. -1.
       -2   -1    0    0    0  501  0.00000000000E+00  0.00000000000E+00 -0.71609234330E+03  0.71609234330E+03  0.25500000920E-02 0.  1.
    10030    2    1    2    0    0  0.00000000000E+00  0.00000000000E+00  0.18639944022E+04  0.32961790888E+04  0.27185145675E+04 0.  0.
        2    1    3    3  502    0  0.35218204805E+03 -0.31049501333E+02 -0.65936614972E+03  0.74817109401E+03  0.25500000920E-02 0.  1.
       -2    1    3    3    0  502 -0.35218204805E+03  0.31049501333E+02  0.25233605519E+04  0.25480079948E+04  0.25500000920E-02 0. -1.
</event>
<event>
 5   0  0.1969465E-06  0.3236318E+04  0.7818609E-02  0.8179291E-01
       -1   -1    0    0    0  501  0.00000000000E+00  0.00000000000E+00  0.86585462851E+03  0.86585462853E+03  0.50400001928E-02 0.  1.
        1   -1    0    0  501    0  0.00000000000E+00  0.00000000000E+00 -0.30241093006E+04  0.30241093006E+04  0.50400001928E-02 0. -1.
    10030    2    1    2    0    0  0.00000000000E+00  0.00000000000E+00 -0.21582546721E+04  0.38899639291E+04  0.32363183002E+04 0.  0.
        2    1    3    3  502    0  0.18405891034E+02  0.13150153824E+04  0.54068240827E+02  0.13162551453E+04  0.25500000920E-02 0.  1.
       -2    1    3    3    0  502 -0.18405891034E+02 -0.13150153824E+04 -0.22123229129E+04  0.25737087838E+04  0.25500000920E-02 0. -1.
</event>
<event>
 5   0  0.5131083E-06  0.3212703E+04  0.7818609E-02  0.8185470E-01
        2   -1    0    0  501    0  0.00000000000E+00  0.00000000000E+00  0.29201612271E+04  0.29201612271E+04  0.25500000920E-02 0. -1.
       -2   -1    0    0    0  501  0.00000000000E+00  0.00000000000E+00 -0.88363805126E+03  0.88363805126E+03  0.25500000920E-02 0.  1.
    10030    2    1    2    0    0  0.00000000000E+00  0.00000000000E+00  0.20365231759E+04  0.38037992784E+04  0.32127032705E+04 0.  0.
        3    1    3    3  502    0 -0.15009339897E+04  0.48677533211E+03  0.13746643279E+04  0.20927147655E+04  0.10100000352E+00 0. -1.
       -3    1    3    3    0  502  0.15009339897E+04 -0.48677533211E+03  0.66185884799E+03  0.17110845129E+04  0.10100000352E+00 0.  1.
</event>
<event>
 5   0  0.5373060E-06  0.3212800E+04  0.7818609E-02  0.8185445E-01
       -2   -1    0    0    0  501  0.00000000000E+00  0.00000000000E+00  0.18455077357E+04  0.18455077357E+04  0.25500000920E-02 0. -1.
        2   -1    0    0  501    0  0.00000000000E+00  0.00000000000E+00 -0.13982717557E+04  0.13982717557E+04  0.25500000920E-02 0.  1.
    10030    2    1    2    0    0  0.00000000000E+00  0.00000000000E+00  0.44723598009E+03  0.32437794914E+04  0.32128002376E+04 0.  0.
        5    1    3    3  502    0 -0.40469677305E+03 -0.66622290833E+03  0.16417494245E+04  0.18174145660E+04  0.46999998093E+01 0. -1.
       -5    1    3    3    0  502  0.40469677305E+03  0.66622290833E+03 -0.11945134444E+04  0.14263649255E+04  0.46999998093E+01 0.  1.
</event>
<event>
 5   0  0.1846850E-06  0.3215060E+04  0.7818609E-02  0.8184851E-01
       -1   -1    0    0    0  501  0.00000000000E+00  0.00000000000E+00  0.12822574236E+04  0.12822574236E+04  0.50400001928E-02 0. -1.
        1   -1    0    0  501    0  0.00000000000E+00  0.00000000000E+00 -0.20153145374E+04  0.20153145374E+04  0.50400001928E-02 0.  1.
    10030    2    1    2    0    0  0.00000000000E+00  0.00000000000E+00 -0.73305711384E+03  0.32975719610E+04  0.32150595804E+04 0.  0.
        5    1    3    3  502    0  0.66335344236E+03 -0.12531409607E+04  0.41036047532E+03  0.14760819308E+04  0.46999998093E+01 0. -1.
       -5    1    3    3    0  502 -0.66335344236E+03  0.12531409607E+04 -0.11434175892E+04  0.18214900302E+04  0.46999998093E+01 0.  1.
</event>
<event>
 5   0  0.1881144E-06  0.3211688E+04  0.7818609E-02  0.8185737E-01
        1   -1    0    0  501    0  0.00000000000E+00  0.00000000000E+00  0.12940767187E+04  0.12940767188E+04  0.50400001928E-02 0.  1.
       -1   -1    0    0    0  501  0.00000000000E+00  0.00000000000E+00 -0.19927219502E+04  0.19927219502E+04  0.50400001928E-02 0. -1.
    10030    2    1    2    0    0  0.00000000000E+00  0.00000000000E+00 -0.69864523146E+03  0.32867986690E+04  0.32116880812E+04 0.  0.
        3    1    3    3  502    0  0.30479410805E+01  0.12351265286E+04  0.70092751224E+03  0.14201571108E+04  0.10100000352E+00 0.  1.
       -3    1    3    3    0  502 -0.30479410805E+01 -0.12351265286E+04 -0.13995727437E+04  0.18666415582E+04  0.10100000352E+00 0. -1.
</event>
<event>
 5   0  0.5131083E-06  0.2996702E+04  0.7818609E-02  0.8244673E-01
        2   -1    0    0  501    0  0.00000000000E+00  0.00000000000E+00  0.22112345950E+04  0.22112345950E+04  0.25500000920E-02 0. -1.
       -2   -1    0    0    0  501  0.00000000000E+00  0.00000000000E+00 -0.10152949625E+04  0.10152949625E+04  0.25500000920E-02 0.  1.
    10030    2    1    2    0    0  0.00000000000E+00  0.00000000000E+00  0.11959396325E+04  0.32265295576E+04  0.29967017505E+04 0.  0.
        3    1    3    3  502    0  0.14681182483E+04  0.29695949558E+03  0.63965888945E+03  0.16287171756E+04  0.10100000352E+00 0. -1.
       -3    1    3    3    0  502 -0.14681182483E+04 -0.29695949558E+03  0.55628074305E+03  0.15978123820E+04  0.10100000352E+00 0.  1.
</event>
<event>
 5   0  0.5108810E-06  0.3193556E+04  0.7818609E-02  0.8190521E-01
        2   -1    0    0  501    0  0.00000000000E+00  0.00000000000E+00  0.10006487468E+04  0.10006487468E+04  0.25500000920E-02 0. -1.
       -2   -1    0    0    0  501  0.00000000000E+00  0.00000000000E+00 -0.25480464864E+04  0.25480464864E+04  0.25500000920E-02 0.  1.
    10030    2    1    2    0    0  0.00000000000E+00  0.00000000000E+00 -0.15473977396E+04  0.35486952332E+04  0.31935557132E+04 0.  0.
        1    1    3    3  502    0  0.18569073943E+03  0.15619643263E+04 -0.46839861183E+03  0.16412223697E+04  0.50400001928E-02 0. -1.
       -1    1    3    3    0  502 -0.18569073943E+03 -0.15619643263E+04 -0.10789991278E+04  0.19074728635E+04  0.50400001928E-02 0.  1.
</event>
<event>
 5   0  0.5108810E-06  0.3180039E+04  0.7818609E-02  0.8194109E-01
       -2   -1    0    0    0  501  0.00000000000E+00  0.00000000000E+00  0.15136651223E+04  0.15136651223E+04  0.25500000920E-02 0.  1.
        2   -1    0    0  501    0  0.00000000000E+00  0.00000000000E+00 -0.16702255770E+04  0.16702255770E+04  0.25500000920E-02 0. -1.
    10030    2    1    2    0    0  0.00000000000E+00  0.00000000000E+00 -0.15656045469E+03  0.31838906992E+04  0.31800391206E+04 0.  0.
        1    1    3    3  502    0  0.93049174590E+02  0.24192915857E+03  0.14923690902E+04  0.15147123053E+04  0.50400001928E-02 0.  1.
       -1    1    3    3    0  502 -0.93049174590E+02 -0.24192915857E+03 -0.16489295449E+04  0.16691783939E+04  0.50400001928E-02 0. -1.
</event>
<event>
 5   0  0.5347280E-06  0.3157341E+04  0.7818609E-02  0.8200175E-01
       -2   -1    0    0    0  501  0.00000000000E+00  0.00000000000E+00  0.11596805607E+04  0.11596805607E+04  0.25500000920E-02 0. -1.
        2   -1    0    0  501    0  0.00000000000E+00  0.00000000000E+00 -0.21490409559E+04  0.21490409559E+04  0.25500000920E-02 0.  1.
    10030    2    1    2    0    0  0.00000000000E+00  0.00000000000E+00 -0.98936039519E+03  0.33087215167E+04  0.31573412998E+04 0.  0.
        2    1    3    3  502    0 -0.94370137928E+03  0.61647194610E+03  0.66356793688E+03  0.13080261314E+04  0.25500000920E-02 0. -1.
       -2    1    3    3    0  502  0.94370137928E+03 -0.61647194610E+03 -0.16529283321E+04  0.20006953852E+04  0.25500000920E-02 0.  1.
</event>
<event>
 5   0  0.1977015E-06  0.3231059E+04  0.7818609E-02  0.8180662E-01
        1   -1    0    0  501    0  0.00000000000E+00  0.00000000000E+00  0.28600893888E+04  0.28600893888E+04  0.50400001928E-02 0. -1.
       -1   -1    0    0    0  501  0.00000000000E+00  0.00000000000E+00 -0.91253647556E+03  0.91253647557E+03  0.50400001928E-02 0.  1.
    10030    2    1    2    0    0  0.00000000000E+00  0.00000000000E+00  0.19475529132E+04  0.37726258643E+04  0.32310592013E+04 0.  0.
        1    1    3    3  502    0 -0.15647019722E+04 -0.39882729830E+03  0.91446431593E+03  0.18556940644E+04  0.50400001928E-02 0.  1.
       -1    1    3    3    0  502  0.15647019722E+04  0.39882729830E+03  0.10330885973E+04  0.19169317999E+04  0.50400001928E-02 0. -1.
</event>
<event>
 5   0  0.5108810E-06  0.3346263E+04  0.7818609E-02  0.8151223E-01
        2   -1    0    0  501    0  0.00000000000E+00  0.00000000000E+00  0.21112657916E+04  0.21112657916E+04  0.25500000920E-02 0.  1.
       -2   -1    0    0    0  501  0.00000000000E+00  0.00000000000E+00 -0.13259197538E+04  0.13259197538E+04  0.25500000920E-02 0. -1.
    10030    2    1    2    0    0  0.00000000000E+00  0.00000000000E+00  0.78534603788E+03  0.34371855454E+04  0.33462630014E+04 0.  0.
        1    1    3    3  502    0  0.15391420647E+04 -0.59012045624E+03  0.98233723027E+02  0.16513177503E+04  0.50400001928E-02 0. -1.
       -1    1    3    3    0  502 -0.15391420647E+04  0.59012045624E+03  0.68711231486E+03  0.17858677951E+04  0.50400001928E-02 0.  1.
</event>
<event>
 5   0  0.5121624E-06  0.3276527E+04  0.7818609E-02  0.8168894E-01
        2   -1    0    0  501    0  0.00000000000E+00  0.00000000000E+00  0.21195479700E+04  0.21195479700E+04  0.25500000920E-02 0. -1.
       -2   -1    0    0    0  501  0.00000000000E+00  0.00000000000E+00 -0.12662640921E+04  0.12662640921E+04  0.25500000920E-02 0.  1.
    10030    2    1    2    0    0  0.00000000000E+00  0.00000000000E+00  0.85328387797E+03  0.33858120621E+04  0.32765271162E+04 0.  0.
        4    1    3    3  502    0 -0.11459059440E+04 -0.11378432346E+04  0.71173941741E+03  0.17647555837E+04  0.12699999809E+01 0. -1.
       -4    1    3    3    0  502  0.11459059440E+04  0.11378432346E+04  0.14154446055E+03  0.16210564784E+04  0.12699999809E+01 0.  1.
</event>
<event>
 5   0  0.5131083E-06  0.3216357E+04  0.7818609E-02  0.8184511E-01
       -2   -1    0    0    0  501  0.00000000000E+00  0.00000000000E+00  0.13928300752E+04  0.13928300752E+04  0.25500000920E-02 0. -1.
        2   -1    0    0  501    0  0.00000000000E+00  0.00000000000E+00 -0.18568220422E+04  0.18568220422E+04  0.25500000920E-02 0.  1.
    10030    2    1    2    0    0  0.00000000000E+00  0.00000000000E+00 -0.46399196702E+03  0.32496521174E+04  0.32163566871E+04 0.  0.
        3    1    3    3  502    0 -0.11448865650E+04  0.38637463154E+03  0.84020923255E+03  0.14717344079E+04  0.10100000352E+00 0. -1.
       -3    1    3    3    0  502  0.11448865650E+04 -0.38637463154E+03 -0.13042011996E+04  0.17779177095E+04  0.10100000352E+00 0.  1.
</event>
<event>
 5   0  0.1846850E-06  0.3198789E+04  0.7818609E-02  0.8189137E-01
        1   -1    0    0  501    0  0.00000000000E+00  0.00000000000E+00  0.20816867490E+04  0.20816867490E+04  0.50400001928E-02 0. -1.
       -1   -1    0    0    0  501  0.00000000000E+00  0.00000000000E+00 -0.12288414482E+04  0.12288414482E+04  0.50400001928E-02 0.  1.
    10030    2    1    2    0    0  0.00000000000E+00  0.00000000000E+00  0.85284530084E+03  0.33105281972E+04  0.31987891205E+04 0.  0.
        5    1    3    3  502    0  0.11874448487E+04 -0.21546090901E+03  0.15126534344E+04  0.19350946164E+04  0.46999998093E+01 0. -1.
       -5    1    3    3    0  502 -0.11874448487E+04  0.21546090901E+03 -0.65980813355E+03  0.13754335808E+04  0.46999998093E+01 0.  1.
</event>
<event>
 5   0  0.1969465E-06  0.2227723E+04  0.7818609E-02  0.8506977E-01
        1   -1    0    0  501    0  0.00000000000E+00  0.00000000000E+00  0.97365199526E+03  0.97365199527E+03  0.50400001928E-02 0. -1.
       -1   -1    0    0    0  501  0.00000000000E+00  0.00000000000E+00 -0.12742613396E+04  0.12742613396E+04  0.50400001928E-02 0.  1.
    10030    2    1    2    0    0  0.00000000000E+00  0.00000000000E+00 -0.30060934435E+03  0.22479133349E+04  0.22277226899E+04 0.  0.
        2    1    3    3  502    0  0.82823008878E+02 -0.94229476242E+03  0.44316530655E+03  0.10445930112E+04  0.25500000920E-02 0. -1.
       -2    1    3    3    0  502 -0.82823008878E+02  0.94229476242E+03 -0.74377465090E+03  0.12033203237E+04  0.25500000920E-02 0.  1.
</event>
<event>
 5   0  0.5108810E-06  0.3252181E+04  0.7818609E-02  0.8175171E-01
       -2   -1    0    0    0  501  0.00000000000E+00  0.00000000000E+00  0.23110976627E+04  0.23110976627E+04  0.25500000920E-02 0.  1.
        2   -1    0    0  501    0  0.00000000000E+00  0.00000000000E+00 -0.11441188670E+04  0.11441188670E+04  0.25500000920E-02 0. -1.
    10030    2    1    2    0    0  0.00000000000E+00  0.00000000000E+00  0.11669787957E+04  0.34552165298E+04  0.32521810770E+04 0.  0.
        1    1    3    3  502    0 -0.14651311222E+04 -0.67110149925E+03  0.81426929857E+03  0.18055528013E+04  0.50400001928E-02 0. -1.
       -1    1    3    3    0  502  0.14651311222E+04  0.67110149925E+03  0.35270949715E+03  0.16496637285E+04  0.50400001928E-02 0.  1.
</event>
<event>
 5   0  0.5121624E-06  0.2158664E+04  0.7818609E-02  0.8535833E-01
        2   -1    0    0  501    0  0.00000000000E+00  0.00000000000E+00  0.59090465751E+03  0.59090465752E+03  0.25500000920E-02 0.  1.
       -2   -1    0    0    0  501  0.00000000000E+00  0.00000000000E+00 -0.19714806067E+04  0.19714806067E+04  0.25500000920E-02 0. -1.
    10030    2    1    2    0    0  0.00000000000E+00  0.00000000000E+00 -0.13805759492E+04  0.25623852643E+04  0.21586635428E+04 0.  0.
        4    1    3    3  502    0 -0.89670514032E+03 -0.12455350971E+03 -0.13878721253E+04  0.16570408367E+04  0.12699999809E+01 0. -1.
       -4    1    3    3    0  502  0.89670514032E+03  0.12455350971E+03  0.72961760267E+01  0.90534442758E+03  0.12699999809E+01 0.  1.
</event>
<event>
 5   0  0.5131083E-06  0.3194340E+04  0.7818609E-02  0.8190314E-01
        2   -1    0    0  501    0  0.00000000000E+00  0.00000000000E+00  0.17930959389E+04  0.17930959389E+04  0.25500000920E-02 0. -1.
       -2   -1    0    0    0  501  0.00000000000E+00  0.00000000000E+00 -0.14226524622E+04  0.14226524622E+04  0.25500000920E-02 0.  1.
    10030    2    1    2    0    0  0.00000000000E+00  0.00000000000E+00  0.37044347668E+03  0.32157484011E+04  0.31943402151E+04 0.  0.
        3    1    3    3  502    0 -0.91792476042E+03 -0.95757894271E+03 -0.71035209926E+03  0.15047070853E+04  0.10100000352E+00 0.  1.
       -3    1    3    3    0  502  0.91792476042E+03  0.95757894271E+03  0.10807955759E+04  0.17110413158E+04  0.10100000352E+00 0. -1.
</event>
<event>
 5   0  0.1977015E-06  0.3153517E+04  0.7818609E-02  0.8201202E-01
        1   -1    0    0  501    0  0.00000000000E+00  0.00000000000E+00  0.13268705331E+04  0.13268705331E+04  0.50400001928E-02 0.  1.
       -1   -1    0    0    0  501  0.00000000000E+00  0.00000000000E+00 -0.18737076228E+04  0.18737076228E+04  0.50400001928E-02 0. -1.
    10030    2    1    2    0    0  0.00000000000E+00  0.00000000000E+00 -0.54683708967E+03  0.32005781559E+04  0.31535170412E+04 0.  0.
        1    1    3    3  502    0  0.30746324642E+03  0.12457812225E+03 -0.18378873147E+04  0.18675875182E+04  0.50400001928E-02 0. -1.
       -1    1    3    3    0  502 -0.30746324642E+03 -0.12457812225E+03  0.12910502251E+04  0.13329906377E+04  0.50400001928E-02 0.  1.
</event>
<event>
 5   0  0.5347280E-06  0.3164964E+04  0.7818609E-02  0.8198132E-01
        2   -1    0    0  501    0  0.00000000000E+00  0.00000000000E+00  0.15519292570E+04  0.15519292571E+04  0.25500000920E-02 0.  1.
       -2   -1    0    0    0  501  0.00000000000E+00  0.00000000000E+00 -0.16136358860E+04  0.16136358860E+04  0.25500000920E-02 0. -1.
    10030    2    1    2    0    0  0.00000000000E+00  0.00000000000E+00 -0.61706628912E+02  0.31655651430E+04  0.31649636596E+04 0.  0.
        2    1    3    3  502    0  0.88466518374E+03 -0.16429954728E+03  0.12711705259E+04  0.15574021107E+04  0.25500000920E-02 0.  1.
       -2    1    3    3    0  502 -0.88466518374E+03  0.16429954728E+03 -0.13328771548E+04  0.16081630323E+04  0.25500000920E-02 0. -1.
</event>
<event>
 5   0  0.1977015E-06  0.2909015E+04  0.7818609E-02  0.8270200E-01
       -1   -1    0    0    0  501  0.00000000000E+00  0.00000000000E+00  0.10467324919E+04  0.10467324919E+04  0.50400001928E-02 0. -1.
        1   -1    0    0  501    0  0.00000000000E+00  0.00000000000E+00 -0.20211385925E+04  0.20211385925E+04  0.50400001928E-02 0.  1.
    10030    2    1    2    0    0  0.00000000000E+00  0.00000000000E+00 -0.97440610069E+03  0.30678710844E+04  0.29090145654E+04 0.  0.
        1    1    3    3  502    0 -0.13786232889E+03 -0.61145536236E+03  0.89699111580E+03  0.10942928053E+04  0.50400001928E-02 0. -1.
       -1    1    3    3    0  502  0.13786232889E+03  0.61145536236E+03 -0.18713972165E+04  0.19735782791E+04  0.50400001928E-02 0.  1.
</event>
<event>
 5   0  0.1969465E-06  0.3067709E+04  0.7818609E-02  0.8224656E-01
       -1   -1    0    0    0  501  0.00000000000E+00  0.00000000000E+00  0.17960286585E+04  0.17960286585E+04  0.50400001928E-02 0.  1.
        1   -1    0    0  501    0  0.00000000000E+00  0.00000000000E+00 -0.13099508183E+04  0.13099508183E+04  0.50400001928E-02 0. -1.
    10030    2    1    2    0    0  0.00000000000E+00  0.00000000000E+00  0.48607784021E+03  0.31059794769E+04  0.30677087287E+04 0.  0.
        2    1    3    3  502    0  0.13804402926E+04  0.64038875279E+03  0.48295780566E+02  0.15225129354E+04  0.25500000920E-02 0. -1.
       -2    1    3    3    0  502 -0.13804402926E+04 -0.64038875279E+03  0.43778205965E+03  0.15834665414E+04  0.25500000920E-02 0.  1.
</event>
<event>
 5   0  0.5373060E-06  0.3143379E+04  0.7818609E-02  0.8203933E-01
        2   -1    0    0  501    0  0.00000000000E+00  0.00000000000E+00  0.27298830293E+04  0.27298830293E+04  0.25500000920E-02 0.  1.
       -2   -1    0    0    0  501  0.00000000000E+00  0.00000000000E+00 -0.90487710246E+03  0.90487710247E+03  0.25500000920E-02 0. -1.
    10030    2    1    2    0    0  0.00000000000E+00  0.00000000000E+00  0.18250059268E+04  0.36347601317E+04  0.31433794843E+04 0.  0.
        5    1    3    3  502    0 -0.24100623263E+03  0.55578979416E+02  0.27072306431E+04  0.27185093107E+04  0.46999998093E+01 0.  1.
       -5    1    3    3    0  502  0.24100623263E+03 -0.55578979416E+02 -0.88222471629E+03  0.91625082109E+03  0.46999998093E+01 0. -1.
</event>
<event>
 5   0  0.1977015E-06  0.3255333E+04  0.7818609E-02  0.8174355E-01
       -1   -1    0    0    0  501  0.00000000000E+00  0.00000000000E+00  0.18647768710E+04  0.18647768710E+04  0.50400001928E-02 0. -1.
        1   -1    0    0  501    0  0.00000000000E+00  0.00000000000E+00 -0.14207054307E+04  0.14207054307E+04  0.50400001928E-02 0.  1.
    10030    2    1    2    0    0  0.00000000000E+00  0.00000000000E+00  0.44407144026E+03  0.32854823017E+04  0.32553332411E+04 0.  0.
        1    1    3    3  502    0  0.86368824240E+03  0.13795303511E+04  0.20648988418E+03  0.16406399489E+04  0.50400001928E-02 0. -1.
       -1    1    3    3    0  502 -0.86368824240E+03 -0.13795303511E+04  0.23758155608E+03  0.16448423528E+04  0.50400001928E-02 0.  1.
</event>
<event>
 5   0  0.5121624E-06  0.3156179E+04  0.7818609E-02  0.8200487E-01
       -2   -1    0    0    0  501  0.00000000000E+00  0.00000000000E+00  0.97074074241E+03  0.97074074241E+03  0.25500000920E-02 0. -1.
        2   -1    0    0  501    0  0.00000000000E+00  0.00000000000E+00 -0.25654292801E+04  0.25654292801E+04  0.25500000920E-02 0.  1.
    10030    2    1    2    0    0  0.00000000000E+00  0.00000000000E+00 -0.15946885377E+04  0.35361700225E+04  0.31561791609E+04 0.  0.
        4    1    3    3  502    0 -0.53531247601E+03 -0.73253009509E+03  0.64931426856E+03  0.11156927980E+04  0.12699999809E+01 0.  1.
       -4    1    3    3    0  502  0.53531247601E+03  0.73253009509E+03 -0.22440028062E+04  0.24204772245E+04  0.12699999809E+01 0. -1.
</event>
<event>
 5   0  0.1729500E-06  0.3252259E+04  0.7818609E-02  0.8175151E-01
       -3   -1    0    0    0  501  0.00000000000E+00  0.00000000000E+00  0.13818310326E+04  0.13818310363E+04  0.10100000352E+00 0.  1.
        3   -1    0    0  501    0  0.00000000000E+00  0.00000000000E+00 -0.19136177188E+04  0.19136177215E+04  0.10100000352E+00 0. -1.
    10030    2    1    2    0    0  0.00000000000E+00  0.00000000000E+00 -0.53178668620E+03  0.32954487578E+04  0.32522585130E+04 0.  0.
        4    1    3    3  502    0 -0.12013609911E+04 -0.10944280015E+04 -0.32369352998E+03  0.16570515972E+04  0.12699999809E+01 0.  1.
       -4    1    3    3    0  502  0.12013609911E+04  0.10944280015E+04 -0.20809315622E+03  0.16383971606E+04  0.12699999809E+01 0. -1.
</event>
<event>
 5   0  0.5131083E-06  0.3437739E+04  0.7818609E-02  0.8128706E-01
       -2   -1    0    0    0  501  0.00000000000E+00  0.00000000000E+00  0.12851179473E+04  0.12851179473E+04  0.25500000920E-02 0.  1.
        2   -1    0    0  501    0  0.00000000000E+00  0.00000000000E+00 -0.22990202871E+04  0.22990202871E+04  0.25500000920E-02 0. -1.
    10030    2    1    2    0    0  0.00000000000E+00  0.00000000000E+00 -0.10139023398E+04  0.35841382343E+04  0.34377389267E+04 0.  0.
        3    1    3    3  502    0  0.12699895847E+03 -0.13309502036E+04  0.61930950896E+03  0.14734657981E+04  0.10100000352E+00 0.  1.
       -3    1    3    3    0  502 -0.12699895847E+03  0.13309502036E+04 -0.16332118487E+04  0.21106724362E+04  0.10100000352E+00 0. -1.
</event>
<event>
 5   0  0.5131083E-06  0.3134704E+04  0.7818609E-02  0.8206278E-01
        2   -1    0    0  501    0  0.00000000000E+00  0.00000000000E+00  0.30245764824E+04  0.30245764824E+04  0.25500000920E-02 0.  1.
       -2   -1    0    0    0  501  0.00000000000E+00  0.00000000000E+00 -0.81221042976E+03  0.81221042977E+03  0.25500000920E-02 0. -1.
    10030    2    1    2    0    0  0.00000000000E+00  0.00000000000E+00  0.22123660526E+04  0.38367869121E+04  0.31347041740E+04 0.  0.
        3    1    3    3  502    0  0.76927297852E+03 -0.11286452562E+04  0.20471066997E+04  0.24609483701E+04  0.10100000352E+00 0.  1.
       -3    1    3    3    0  502 -0.76927297852E+03  0.11286452562E+04  0.16525935287E+03  0.13758385421E+04  0.10100000352E+00 0. -1.
</event>
<event>
 5   0  0.1881144E-06  0.3150743E+04  0.7818609E-02  0.8201948E-01
        1   -1    0    0  501    0  0.00000000000E+00  0.00000000000E+00  0.20138904630E+04  0.20138904630E+04  0.50400001928E-02 0.  1.
       -1   -1    0    0    0  501  0.00000000000E+00  0.00000000000E+00 -0.12323386843E+04  0.12323386843E+04  0.50400001928E-02 0. -1.
    10030    2    1    2    0    0  0.00000000000E+00  0.00000000000E+00  0.78155177872E+03  0.32462291473E+04  0.31507428480E+04 0.  0.
        3    1    3    3  502    0 -0.19324561172E+03 -0.74115455440E+03 -0.10275858166E+04  0.12816343319E+04  0.10100000352E+00 0. -1.
       -3    1    3    3    0  502  0.19324561172E+03  0.74115455440E+03  0.18091375953E+04  0.19645948155E+04  0.10100000352E+00 0.  1.
</event>
<event>
 5   0  0.5347280E-06  0.3171324E+04  0.7818609E-02  0.8196432E-01
       -2   -1    0    0    0  501  0.00000000000E+00  0.00000000000E+00  0.12294464206E+04  0.12294464206E+04  0.25500000920E-02 0.  1.
        2   -1    0    0  501    0  0.00000000000E+00  0.00000000000E+00 -0.20450868959E+04  0.20450868959E+04  0.25500000920E-02 0. -1.
    10030    2    1    2    0    0  0.00000000000E+00  0.00000000000E+00 -0.81564047530E+03  0.32745333166E+04  0.31713244956E+04 0.  0.
        2    1    3    3  502    0 -0.12951300236E+04 -0.74799016694E+03  0.13608049149E+03  0.15017885897E+04  0.25500000920E-02 0.  1.
       -2    1    3    3    0  502  0.12951300236E+04  0.74799016694E+03 -0.95172096679E+03  0.17727447269E+04  0.25500000920E-02 0. -1.
</event>
<event>
 5   0  0.5121624E-06  0.3237897E+04  0.7818609E-02  0.8178880E-01
       -2   -1    0    0    0  501  0.00000000000E+00  0.00000000000E+00  0.13609840448E+04  0.13609840448E+04  0.25500000920E-02 0. -1.
        2   -1    0    0  501    0  0.00000000000E+00  0.00000000000E+00 -0.19258084443E+04  0.19258084443E+04  0.25500000920E-02 0.  1.
    10030    2    1    2    0    0  0.00000000000E+00  0.00000000000E+00 -0.56482439947E+03  0.32867924891E+04  0.32378971979E+04 0.  0.
        4    1    3    3  502    0  0.26057486089E+03  0.15296326108E+04 -0.75125013907E+03  0.17239644911E+04  0.12699999809E+01 0.  1.
       -4    1    3    3    0  502 -0.26057486089E+03 -0.15296326108E+04  0.18642573960E+03  0.15628279980E+04  0.12699999809E+01 0. -1.
</event>
<event>
 5   0  0.5121624E-06  0.3178408E+04  0.7818609E-02  0.8194543E-01
        2   -1    0    0  501    0  0.00000000000E+00  0.00000000000E+00  0.20689236169E+04  0.20689236169E+04  0.25500000920E-02 0.  1.
       -2   -1    0    0    0  501  0.00000000000E+00  0.00000000000E+00 -0.12207164496E+04  0.12207164497E+04  0.25500000920E-02 0. -1.
    10030    2    1    2    0    0  0.00000000000E+00  0.00000000000E+00  0.84820716720E+03  0.32896400665E+04  0.31784078355E+04 0.  0.
        4    1    3    3  502    0  0.71159341996E+03  0.68630523131E+03  0.17119098264E+04  0.19768704895E+04  0.12699999809E+01 0.  1.
       -4    1    3    3    0  502 -0.71159341996E+03 -0.68630523131E+03 -0.86370265918E+03  0.13127695770E+04  0.12699999809E+01 0. -1.
</event>
<event>
 5   0  0.1886248E-06  0.3309315E+04  0.7818609E-02  0.8160529E-01
       -1   -1    0    0    0  501  0.00000000000E+00  0.00000000000E+00  0.12285166378E+04  0.12285166378E+04  0.50400001928E-02 0. -1.
        1   -1    0    0  501    0  0.00000000000E+00  0.00000000000E+00 -0.22286162757E+04  0.22286162757E+04  0.50400001928E-02 0.  1.
    10030    2    1    2    0    0  0.00000000000E+00  0.00000000000E+00 -0.10000996379E+04  0.34571329134E+04  0.33093154421E+04 0.  0.
        4    1    3    3  502    0 -0.10608157796E+04  0.10427119512E+04 -0.12572080828E+04  0.19476016296E+04  0.12699999809E+01 0.  1.
       -4    1    3    3    0  502  0.10608157796E+04 -0.10427119512E+04  0.25710844486E+03  0.15095312838E+04  0.12699999809E+01 0. -1.
</event>
<event>
 5   0  0.1846850E-06  0.2899238E+04  0.7818609E-02  0.8273104E-01
        1   -1    0    0  501    0  0.00000000000E+00  0.00000000000E+00  0.19353931250E+04  0.19353931250E+04  0.50400001928E-02 0. -1.
       -1   -1    0    0    0  501  0.00000000000E+00  0.00000000000E+00 -0.10857717982E+04  0.10857717983E+04  0.50400001928E-02 0.  1.
    10030    2    1    2    0    0  0.00000000000E+00  0.00000000000E+00  0.84962132679E+03  0.30211649233E+04  0.28992380197E+04 0.  0.
        5    1    3    3  502    0  0.12616357679E+04 -0.67409359245E+03  0.66974054608E+03  0.15794623994E+04  0.46999998093E+01 0. -1.
       -5    1    3    3    0  502 -0.12616357679E+04  0.67409359245E+03  0.17988078071E+03  0.14417025239E+04  0.46999998093E+01 0.  1.
</event>
<event>
 5   0  0.1977015E-06  0.3191715E+04  0.7818609E-02  0.8191009E-01
       -1   -1    0    0    0  501  0.00000000000E+00  0.00000000000E+00  0.32790789019E+04  0.32790789019E+04  0.50400001928E-02 0. -1.
        1   -1    0    0  501    0  0.00000000000E+00  0.00000000000E+00 -0.77666949311E+03  0.77666949313E+03  0.50400001928E-02 0.  1.
    10030    2    1    2    0    0  0.00000000000E+00  0.00000000000E+00  0.25024094088E+04  0.40557483950E+04  0.31917146167E+04 0.  0.
        1    1    3    3  502    0  0.57666097496E+03 -0.13045618325E+04  0.21607546412E+04  0.25890693452E+04  0.50400001928E-02 0. -1.
       -1    1    3    3    0  502 -0.57666097496E+03  0.13045618325E+04  0.34165476753E+03  0.14666790498E+04  0.50400001928E-02 0.  1.
</event>
<event>
 5   0  0.1886248E-06  0.2895696E+04  0.7818609E-02  0.8274159E-01
       -1   -1    0    0    0  501  0.00000000000E+00  0.00000000000E+00  0.16868694272E+04  0.16868694272E+04  0.50400001928E-02 0. -1.
        1   -1    0    0  501    0  0.00000000000E+00  0.00000000000E+00 -0.12426947411E+04  0.12426947411E+04  0.50400001928E-02 0.  1.
    10030    2    1    2    0    0  0.00000000000E+00  0.00000000000E+00  0.44417468612E+03  0.29295641683E+04  0.28956959551E+04 0.  0.
        4    1    3    3  502    0 -0.82874088274E+03 -0.95228148313E+03 -0.49515498529E+03  0.13560352304E+04  0.12699999809E+01 0.  1.
       -4    1    3    3    0  502  0.82874088274E+03  0.95228148313E+03  0.93932967141E+03  0.15735289379E+04  0.12699999809E+01 0. -1.
</event>
<event>
 5   0  0.1977015E-06  0.3146626E+04  0.7818609E-02  0.8203057E-01
       -1   -1    0    0    0  501  0.00000000000E+00  0.00000000000E+00  0.99478050132E+03  0.99478050133E+03  0.50400001928E-02 0.  1.
        1   -1    0    0  501    0  0.00000000000E+00  0.00000000000E+00 -0.24883012253E+04  0.24883012253E+04  0.50400001928E-02 0. -1.
    10030    2    1    2    0    0  0.00000000000E+00  0.00000000000E+00 -0.14935207240E+04  0.34830817267E+04  0.31466258376E+04 0.  0.
        1    1    3    3  502    0  0.69548123307E+03  0.13117494102E+04 -0.17059198686E+03  0.14944839533E+04  0.50400001928E-02 0.  1.
       -1    1    3    3    0  502 -0.69548123307E+03 -0.13117494102E+04 -0.13229287371E+04  0.19885977734E+04  0.50400001928E-02 0. -1.
</event>
<event>
 5   0  0.5347280E-06  0.3147269E+04  0.7818609E-02  0.8202884E-01
       -2   -1    0    0    0  501  0.00000000000E+00  0.00000000000E+00  0.17397136803E+04  0.17397136803E+04  0.25500000920E-02 0.  1.
        2   -1    0    0  501    0  0.00000000000E+00  0.00000000000E+00 -0.14234094875E+04  0.14234094875E+04  0.25500000920E-02 0. -1.
    10030    2    1    2    0    0  0.00000000000E+00  0.00000000000E+00  0.31630419280E+03  0.31631231679E+04  0.31472686305E+04 0.  0.
        2    1    3    3  502    0 -0.28411039976E+03  0.13040672613E+04  0.99602726878E+03  0.16653469492E+04  0.25500000920E-02 0.  1.
       -2    1    3    3    0  502  0.28411039976E+03 -0.13040672613E+04 -0.67972307598E+03  0.14977762187E+04  0.25500000920E-02 0. -1.
</event>
<event>
 5   0  0.1886248E-06  0.3354949E+04  0.7818609E-02  0.8149053E-01
       -1   -1    0    0    0  501  0.00000000000E+00  0.00000000000E+00  0.17902996293E+04  0.17902996294E+04  0.50400001928E-02 0. -1.
        1   -1    0    0  501    0  0.00000000000E+00  0.00000000000E+00 -0.15717598078E+04  0.15717598078E+04  0.50400001928E-02 0.  1.
    10030    2    1    2    0    0  0.00000000000E+00  0.00000000000E+00  0.21853982151E+03  0.33620594372E+04  0.33549491808E+04 0.  0.
        4    1    3    3  502    0  0.57590433695E+03  0.11406334918E+04 -0.97986776518E+03  0.16102338395E+04  0.12699999809E+01 0.  1.
       -4    1    3    3    0  502 -0.57590433695E+03 -0.11406334918E+04  0.11984075867E+04  0.17518255977E+04  0.12699999809E+01 0. -1.
</event>
<event>
 5   0  0.5121624E-06  0.3216827E+04  0.7818609E-02  0.8184387E-01
       -2   -1    0    0    0  501  0.00000000000E+00  0.00000000000E+00  0.14832706561E+04  0.14832706561E+04  0.25500000920E-02 0.  1.
        2   -1    0    0  501    0  0.00000000000E+00  0.00000000000E+00 -0.17441140688E+04  0.17441140688E+04  0.25500000920E-02 0. -1.
    10030    2    1    2    0    0  0.00000000000E+00  0.00000000000E+00 -0.26084341271E+03  0.32273847249E+04  0.32168265226E+04 0.  0.
        4    1    3    3  502    0  0.79568796636E+03  0.12417196081E+04 -0.77440436630E+03  0.16657402740E+04  0.12699999809E+01 0.  1.
       -4    1    3    3    0  502 -0.79568796636E+03 -0.12417196081E+04  0.51356095359E+03  0.15616444509E+04  0.12699999809E+01 0. -1.
</event>
<event>
 5   0  0.1977015E-06  0.2289429E+04  0.7818609E-02  0.8482101E-01
        1   -1    0    0  501    0  0.00000000000E+00  0.00000000000E+00  0.90449592549E+03  0.90449592550E+03  0.50400001928E-02 0. -1.
       -1   -1    0    0    0  501  0.00000000000E+00  0.00000000000E+00 -0.14487312125E+04  0.14487312125E+04  0.50400001928E-02 0.  1.
    10030    2    1    2    0    0  0.00000000000E+00  0.00000000000E+00 -0.54423528705E+03  0.23532271380E+04  0.22894291681E+04 0.  0.
        1    1    3    3  502    0 -0.73173858104E+03  0.35087790836E+03  0.55773073990E+03  0.98469296524E+03  0.50400001928E-02 0. -1.
       -1    1    3    3    0  502  0.73173858104E+03 -0.35087790836E+03 -0.11019660269E+04  0.13685341728E+04  0.50400001928E-02 0.  1.
</event>
<event>
 5   0  0.1881144E-06  0.2366811E+04  0.7818609E-02  0.8452034E-01
        1   -1    0    0  501    0  0.00000000000E+00  0.00000000000E+00  0.17940171539E+04  0.17940171539E+04  0.50400001928E-02 0.  1.
       -1   -1    0    0    0  501  0.00000000000E+00  0.00000000000E+00 -0.78062186234E+03  0.78062186235E+03  0.50400001928E-02 0. -1.
    10030    2    1    2    0    0  0.00000000000E+00  0.00000000000E+00  0.10133952915E+04  0.25746390162E+04  0.23668113670E+04 0.  0.
        3    1    3    3  502    0  0.98000625630E+03  0.41460487659E+02  0.12268878955E+04  0.15707912506E+04  0.10100000352E+00 0.  1.
       -3    1    3    3    0  502 -0.98000625630E+03 -0.41460487659E+02 -0.21349260402E+03  0.10038477657E+04  0.10100000352E+00 0. -1.
</event>
<event>
 5   0  0.5347280E-06  0.2399829E+04  0.7818609E-02  0.8439568E-01
       -2   -1    0    0    0  501  0.00000000000E+00  0.00000000000E+00  0.10032752707E+04  0.10032752707E+04  0.25500000920E-02 0.  1.
        2   -1    0    0  501    0  0.00000000000E+00  0.00000000000E+00 -0.14350939487E+04  0.14350939487E+04  0.25500000920E-02 0. -1.
    10030    2    1    2    0    0  0.00000000000E+00  0.00000000000E+00 -0.43181867803E+03  0.24383692194E+04  0.23998285520E+04 0.  0.
        2    1    3    3  502    0 -0.90399695665E+03  0.52030571179E+03  0.38679975155E+03  0.11124489108E+04  0.25500000920E-02 0.  1.
       -2    1    3    3    0  502  0.90399695665E+03 -0.52030571179E+03 -0.81861842958E+03  0.13259203085E+04  0.25500000920E-02 0. -1.
</event>
<event>
 5   0  0.5108810E-06  0.3124506E+04  0.7818609E-02  0.8209044E-01
        2   -1    0    0  501    0  0.00000000000E+00  0.00000000000E+00  0.17965929327E+04  0.17965929327E+04  0.25500000920E-02 0.  1.
       -2   -1    0    0    0  501  0.00000000000E+00  0.00000000000E+00 -0.13584796743E+04  0.13584796743E+04  0.25500000920E-02 0. -1.
    10030    2    1    2    0    0  0.00000000000E+00  0.00000000000E+00  0.43811325840E+03  0.31550726069E+04  0.31245063495E+04 0.  0.
        1    1    3    3  502    0  0.73576760290E+03  0.12903756865E+04  0.70774516465E+03  0.16453955743E+04  0.50400001928E-02 0.  1.
       -1    1    3    3    0  502 -0.73576760290E+03 -0.12903756865E+04 -0.26963190625E+03  0.15096770326E+04  0.50400001928E-02 0. -1.
</event>
<event>
 5   0  0.5373060E-06  0.3244439E+04  0.7818609E-02  0.8177179E-01
        2   -1    0    0  501    0  0.00000000000E+00  0.00000000000E+00  0.10459964854E+04  0.10459964854E+04  0.25500000920E-02 0. -1.
       -2   -1    0    0    0  501  0.00000000000E+00  0.00000000000E+00 -0.25158747388E+04  0.25158747388E+04  0.25500000920E-02 0.  1.
    10030    2    1    2    0    0  0.00000000000E+00  0.00000000000E+00 -0.14698782534E+04  0.35618712242E+04  0.32444390175E+04 0.  0.
        5    1    3    3  502    0 -0.52760459782E+03  0.67364470206E+03 -0.22479706862E+04  0.24053187091E+04  0.46999998093E+01 0.  1.
       -5    1    3    3    0  502  0.52760459782E+03 -0.67364470206E+03  0.77809243281E+03  0.11565525151E+04  0.46999998093E+01 0. -1.
</event>
<event>
 5   0  0.1886248E-06  0.3225188E+04  0.7818609E-02  0.8182197E-01
        1   -1    0    0  501    0  0.00000000000E+00  0.00000000000E+00  0.18137005868E+04  0.18137005868E+04  0.50400001928E-02 0. -1.
       -1   -1    0    0    0  501  0.00000000000E+00  0.00000000000E+00 -0.14337861275E+04  0.14337861275E+04  0.50400001928E-02 0.  1.
    10030    2    1    2    0    0  0.00000000000E+00  0.00000000000E+00  0.37991445928E+03  0.32474867143E+04  0.32251875857E+04 0.  0.
        4    1    3    3  502    0  0.75704007643E+01 -0.72378674348E+03  0.16409384011E+04  0.17934896181E+04  0.12699999809E+01 0. -1.
       -4    1    3    3    0  502 -0.75704007643E+01  0.72378674348E+03 -0.12610239418E+04  0.14539970962E+04  0.12699999809E+01 0.  1.
</event>
<event>
 5   0  0.1977015E-06  0.3304035E+04  0.7818609E-02  0.8161869E-01
        1   -1    0    0  501    0  0.00000000000E+00  0.00000000000E+00  0.26653790408E+04  0.26653790408E+04  0.50400001928E-02 0.  1.
       -1   -1    0    0    0  501  0.00000000000E+00  0.00000000000E+00 -0.10239302199E+04  0.10239302199E+04  0.50400001928E-02 0. -1.
    10030    2    1    2    0    0  0.00000000000E+00  0.00000000000E+00  0.16414488209E+04  0.36893092608E+04  0.33040351980E+04 0.  0.
        1    1    3    3  502    0 -0.93746835869E+03  0.11467367082E+04  0.37600065884E+01  0.14811705301E+04  0.50400001928E-02 0. -1.
       -1    1    3    3    0  502  0.93746835869E+03 -0.11467367082E+04  0.16376888143E+04  0.22081387307E+04  0.50400001928E-02 0.  1.
</event>
<event>
 5   0  0.1846850E-06  0.3237128E+04  0.7818609E-02  0.8179080E-01
        1   -1    0    0  501    0  0.00000000000E+00  0.00000000000E+00  0.20144523321E+04  0.20144523321E+04  0.50400001928E-02 0.  1.
       -1   -1    0    0    0  501  0.00000000000E+00  0.00000000000E+00 -0.13004769269E+04  0.13004769269E+04  0.50400001928E-02 0. -1.
    10030    2    1    2    0    0  0.00000000000E+00  0.00000000000E+00  0.71397540520E+03  0.33149292591E+04  0.32371276023E+04 0.  0.
        5    1    3    3  502    0 -0.87421292774E+03  0.48338791014E+03 -0.94712476047E+03  0.13765825499E+04  0.46999998093E+01 0. -1.
       -5    1    3    3    0  502  0.87421292774E+03 -0.48338791014E+03  0.16611001657E+04  0.19383467092E+04  0.46999998093E+01 0.  1.
</event>
<event>
 5   0  0.5131083E-06  0.3140691E+04  0.7818609E-02  0.8204658E-01
       -2   -1    0    0    0  501  0.00000000000E+00  0.00000000000E+00  0.13653116387E+04  0.13653116387E+04  0.25500000920E-02 0. -1.
        2   -1    0    0  501    0  0.00000000000E+00  0.00000000000E+00 -0.18061706189E+04  0.18061706189E+04  0.25500000920E-02 0.  1.
    10030    2    1    2    0    0  0.00000000000E+00  0.00000000000E+00 -0.44085898017E+03  0.31714822575E+04  0.31406914954E+04 0.  0.
        3    1    3    3  502    0  0.10547494269E+03  0.47310591784E+03  0.12878779277E+04  0.13760754848E+04  0.10100000352E+00 0. -1.
       -3    1    3    3    0  502 -0.10547494269E+03 -0.47310591784E+03 -0.17287369078E+04  0.17954067728E+04  0.10100000352E+00 0.  1.
</event>
<event>
 5   0  0.5347280E-06  0.3184607E+04  0.7818609E-02  0.8192894E-01
       -2   -1    0    0    0  501  0.00000000000E+00  0.00000000000E+00  0.26711157614E+04  0.26711157614E+04  0.25500000920E-02 0.  1.
        2   -1    0    0  501    0  0.00000000000E+00  0.00000000000E+00 -0.94920289190E+03  0.94920289190E+03  0.25500000920E-02 0. -1.
    10030    2    1    2    0    0  0.00000000000E+00  0.00000000000E+00  0.17219128695E+04  0.36203186533E+04  0.31846072319E+04 0.  0.
        2    1    3    3  502    0  0.18851583308E+03 -0.16241455816E+03  0.26488765722E+04  0.26605382543E+04  0.25500000920E-02 0.  1.
       -2    1    3    3    0  502 -0.18851583308E+03  0.16241455816E+03 -0.92696370272E+03  0.95978039894E+03  0.25500000920E-02 0. -1.
</event>
<event>
 5   0  0.1969465E-06  0.3117236E+04  0.7818609E-02  0.8211024E-01
       -1   -1    0    0    0  501  0.00000000000E+00  0.00000000000E+00  0.13554304691E+04  0.13554304691E+04  0.50400001928E-02 0. -1.
        1   -1    0    0  501    0  0.00000000000E+00  0.00000000000E+00 -0.17922641479E+04  0.17922641479E+04  0.50400001928E-02 0.  1.
    10030    2    1    2    0    0  0.00000000000E+00  0.00000000000E+00 -0.43683367887E+03  0.31476946170E+04  0.31172355925E+04 0.  0.
        2    1    3    3  502    0  0.99750669268E+03 -0.11903573187E+04 -0.85528166407E+02  0.15554051612E+04  0.25500000920E-02 0.  1.
       -2    1    3    3    0  502 -0.99750669268E+03  0.11903573187E+04 -0.35130551246E+03  0.15922894558E+04  0.25500000920E-02 0. -1.
</event>
<event>
 5   0  0.1969465E-06  0.2236504E+04  0.7818609E-02  0.8503386E-01
        1   -1    0    0  501    0  0.00000000000E+00  0.00000000000E+00  0.17870727856E+04  0.17870727856E+04  0.50400001928E-02 0.  1.
       -1   -1    0    0    0  501  0.00000000000E+00  0.00000000000E+00 -0.69974053791E+03  0.69974053793E+03  0.50400001928E-02 0. -1.
    10030    2    1    2    0    0  0.00000000000E+00  0.00000000000E+00  0.10873322476E+04  0.24868133235E+04  0.22365037646E+04 0.  0.
        2    1    3    3  502    0 -0.18754761305E+03  0.42200241837E+03  0.16760938254E+04  0.17385484347E+04  0.25500000920E-02 0.  1.
       -2    1    3    3    0  502  0.18754761305E+03 -0.42200241837E+03 -0.58876157778E+03  0.74826488876E+03  0.25500000920E-02 0. -1.
</event>
<event>
 5   0  0.5121624E-06  0.3236354E+04  0.7818609E-02  0.8179282E-01
        2   -1    0    0  501    0  0.00000000000E+00  0.00000000000E+00  0.25681729177E+04  0.25681729177E+04  0.25500000920E-02 0. -1.
       -2   -1    0    0    0  501  0.00000000000E+00  0.00000000000E+00 -0.10195952047E+04  0.10195952047E+04  0.25500000920E-02 0.  1.
    10030    2    1    2    0    0  0.00000000000E+00  0.00000000000E+00  0.15485777130E+04  0.35877681224E+04  0.32363539928E+04 0.  0.
        4    1    3    3  502    0  0.16080548879E+04 -0.46175861319E+02  0.58061187078E+03  0.17102878383E+04  0.12699999809E+01 0. -1.
       -4    1    3    3    0  502 -0.16080548879E+04  0.46175861319E+02  0.96796584219E+03  0.18774802841E+04  0.12699999809E+01 0.  1.
</event>
<event>
 5   0  0.1881144E-06  0.2790126E+04  0.7818609E-02  0.8306341E-01
        1   -1    0    0  501    0  0.00000000000E+00  0.00000000000E+00  0.10929952129E+04  0.10929952129E+04  0.50400001928E-02 0.  1.
       -1   -1    0    0    0  501  0.00000000000E+00  0.00000000000E+00 -0.17806117873E+04  0.17806117873E+04  0.50400001928E-02 0. -1.
    10030    2    1    2    0    0  0.00000000000E+00  0.00000000000E+00 -0.68761657442E+03  0.28736070002E+04  0.27901255596E+04 0.  0.
        3    1    3    3  502    0  0.10890269070E+04  0.42675656356E+03 -0.11268860247E+04  0.16241837617E+04  0.10100000352E+00 0. -1.
       -3    1    3    3    0  502 -0.10890269070E+04 -0.42675656356E+03  0.43926945031E+03  0.12494232385E+04  0.10100000352E+00 0.  1.
</event>
<event>
 5   0  0.5108810E-06  0.3295912E+04  0.7818609E-02  0.8163936E-01
        2   -1    0    0  501    0  0.00000000000E+00  0.00000000000E+00  0.18806461749E+04  0.18806461749E+04  0.25500000920E-02 0.  1.
       -2   -1    0    0    0  501  0.00000000000E+00  0.00000000000E+00 -0.14440565449E+04  0.14440565449E+04  0.25500000920E-02 0. -1.
    10030    2    1    2    0    0  0.00000000000E+00  0.00000000000E+00  0.43658962998E+03  0.33247027198E+04  0.32959122667E+04 0.  0.
        1    1    3    3  502    0 -0.16019625402E+04 -0.32566345180E+03  0.42848665461E+03  0.16899530991E+04  0.50400001928E-02 0.  1.
       -1    1    3    3    0  502  0.16019625402E+04  0.32566345180E+03  0.81029753770E+01  0.16347496207E+04  0.50400001928E-02 0. -1.
</event>
<event>
 5   0  0.1969465E-06  0.3205877E+04  0.7818609E-02  0.8187267E-01
        1   -1    0    0  501    0  0.00000000000E+00  0.00000000000E+00  0.21294946290E+04  0.21294946290E+04  0.50400001928E-02 0.  1.
       -1   -1    0    0    0  501  0.00000000000E+00  0.00000000000E+00 -0.12065829276E+04  0.12065829277E+04  0.50400001928E-02 0. -1.
    10030    2    1    2    0    0  0.00000000000E+00  0.00000000000E+00  0.92291170137E+03  0.33360775567E+04  0.32058770182E+04 0.  0.
        2    1    3    3  502    0  0.12750754365E+04  0.56862090616E+03 -0.35809863983E+03  0.14413125058E+04  0.25500000920E-02 0. -1.
       -2    1    3    3    0  502 -0.12750754365E+04 -0.56862090616E+03  0.12810103412E+04  0.18947650508E+04  0.25500000920E-02 0.  1.
</event>
<event>
 5   0  0.1886248E-06  0.3164840E+04  0.7818609E-02  0.8198165E-01
       -1   -1    0    0    0  501  0.00000000000E+00  0.00000000000E+00  0.17280714651E+04  0.17280714651E+04  0.50400001928E-02 0. -1.
        1   -1    0    0  501    0  0.00000000000E+00  0.00000000000E+00 -0.14490444816E+04  0.14490444816E+04  0.50400001928E-02 0.  1.
    10030    2    1    2    0    0  0.00000000000E+00  0.00000000000E+00  0.27902698348E+03  0.31771159467E+04  0.31648395980E+04 0.  0.
        4    1    3    3  502    0 -0.88267912848E+03  0.10777991952E+04  0.89294272919E+03  0.16547271314E+04  0.12699999809E+01 0. -1.
       -4    1    3    3    0  502  0.88267912848E+03 -0.10777991952E+04 -0.61391574572E+03  0.15223888152E+04  0.12699999809E+01 0.  1.
</event>
<event>
 5   0  0.5121624E-06  0.3142068E+04  0.7818609E-02  0.8204287E-01
       -2   -1    0    0    0  501  0.00000000000E+00  0.00000000000E+00  0.18032756503E+04  0.18032756503E+04  0.25500000920E-02 0.  1.
        2   -1    0    0  501    0  0.00000000000E+00  0.00000000000E+00 -0.13687023681E+04  0.13687023681E+04  0.25500000920E-02 0. -1.
    10030    2    1    2    0    0  0.00000000000E+00  0.00000000000E+00  0.43457328219E+03  0.31719780185E+04  0.31420678879E+04 0.  0.
        4    1    3    3  502    0  0.91423477055E+03 -0.65300775063E+03 -0.89130234332E+03  0.14341080218E+04  0.12699999809E+01 0. -1.
       -4    1    3    3    0  502 -0.91423477055E+03  0.65300775063E+03  0.13258756255E+04  0.17378699967E+04  0.12699999809E+01 0.  1.
</event>
<event>
 5   0  0.5347280E-06  0.3173333E+04  0.7818609E-02  0.8195896E-01
       -2   -1    0    0    0  501  0.00000000000E+00  0.00000000000E+00  0.22533656723E+04  0.22533656723E+04  0.25500000920E-02 0.  1.
        2   -1    0    0  501    0  0.00000000000E+00  0.00000000000E+00 -0.11172225063E+04  0.11172225063E+04  0.25500000920E-02 0. -1.
    10030    2    1    2    0    0  0.00000000000E+00  0.00000000000E+00  0.11361431660E+04  0.33705881786E+04  0.31733331650E+04 0.  0.
        2    1    3    3  502    0  0.85229676111E+03 -0.17925623433E+03 -0.84063007655E+03  0.12104550765E+04  0.25500000920E-02 0. -1.
       -2    1    3    3    0  502 -0.85229676111E+03  0.17925623433E+03  0.19767732426E+04  0.21601331022E+04  0.25500000920E-02 0.  1.
</event>
<event>
 5   0  0.1846850E-06  0.3180302E+04  0.7818609E-02  0.8194039E-01
       -1   -1    0    0    0  501  0.00000000000E+00  0.00000000000E+00  0.90995690841E+03  0.90995690842E+03  0.50400001928E-02 0.  1.
        1   -1    0    0  501    0  0.00000000000E+00  0.00000000000E+00 -0.27787917556E+04  0.27787917556E+04  0.50400001928E-02 0. -1.
    10030    2    1    2    0    0  0.00000000000E+00  0.00000000000E+00 -0.18688348472E+04  0.36887486640E+04  0.31803023473E+04 0.  0.
        5    1    3    3  502    0 -0.94234517174E+03 -0.51667439018E+03 -0.22937931255E+04  0.25330763590E+04  0.46999998093E+01 0. -1.
       -5    1    3    3    0  502  0.94234517174E+03  0.51667439018E+03  0.42495827832E+03  0.11556723050E+04  0.46999998093E+01 0.  1.
</event>
<event>
 5   0  0.5373060E-06  0.3229335E+04  0.7818609E-02  0.8181112E-01
        2   -1    0    0  501    0  0.00000000000E+00  0.00000000000E+00  0.19448685096E+04  0.19448685097E+04  0.25500000920E-02 0.  1.
       -2   -1    0    0    0  501  0.00000000000E+00  0.00000000000E+00 -0.13405286123E+04  0.13405286123E+04  0.25500000920E-02 0. -1.
    10030    2    1    2    0    0  0.00000000000E+00  0.00000000000E+00  0.60433989738E+03  0.32853971219E+04  0.32293354637E+04 0.  0.
        5    1    3    3  502    0  0.12066733362E+04 -0.10223029825E+04  0.63334507179E+03  0.17036173274E+04  0.46999998093E+01 0.  1.
       -5    1    3    3    0  502 -0.12066733362E+04  0.10223029825E+04 -0.29005174413E+02  0.15817797945E+04  0.46999998093E+01 0. -1.
</event>
<event>
 5   0  0.5347280E-06  0.3279707E+04  0.7818609E-02  0.8168078E-01
        2   -1    0    0  501    0  0.00000000000E+00  0.00000000000E+00  0.15356059763E+04  0.15356059763E+04  0.25500000920E-02 0. -1.
       -2   -1    0    0    0  501  0.00000000000E+00  0.00000000000E+00 -0.17511781899E+04  0.17511781899E+04  0.25500000920E-02 0.  1.
    10030    2    1    2    0    0  0.00000000000E+00  0.00000000000E+00 -0.21557221357E+03  0.32867841662E+04  0.32797071174E+04 0.  0.
        2    1    3    3  502    0  0.43991954445E+03  0.10219880811E+04  0.10994422035E+04  0.15642129019E+04  0.25500000920E-02 0. -1.
       -2    1    3    3    0  502 -0.43991954445E+03 -0.10219880811E+04 -0.13150144171E+04  0.17225712643E+04  0.25500000920E-02 0.  1.
</event>
<event>
 5   0  0.5373060E-06  0.3206290E+04  0.7818609E-02  0.8187158E-01
       -2   -1    0    0    0  501  0.00000000000E+00  0.00000000000E+00  0.87758727946E+03  0.87758727946E+03  0.25500000920E-02 0. -1.
        2   -1    0    0  501    0  0.00000000000E+00  0.00000000000E+00 -0.29285678028E+04  0.29285678028E+04  0.25500000920E-02 0.  1.
    10030    2    1    2    0    0  0.00000000000E+00  0.00000000000E+00 -0.20509805234E+04  0.38061550823E+04  0.32062899749E+04 0.  0.
        5    1    3    3  502    0 -0.10911229830E+04 -0.10687999700E+04 -0.44737735796E+03  0.15915562604E+04  0.46999998093E+01 0. -1.
       -5    1    3    3    0  502  0.10911229830E+04  0.10687999700E+04 -0.16036031654E+04  0.22145988219E+04  0.46999998093E+01 0.  1.
</event>
<event>
 5   0  0.1881144E-06  0.3183432E+04  0.7818609E-02  0.8193206E-01
        1   -1    0    0  501    0  0.00000000000E+00  0.00000000000E+00  0.13924269449E+04  0.13924269449E+04  0.50400001928E-02 0.  1.
       -1   -1    0    0    0  501  0.00000000000E+00  0.00000000000E+00 -0.18195282692E+04  0.18195282692E+04  0.50400001928E-02 0. -1.
    10030    2    1    2    0    0  0.00000000000E+00  0.00000000000E+00 -0.42710132431E+03  0.32119552141E+04  0.31834322289E+04 0.  0.
        3    1    3    3  502    0 -0.14579701209E+04  0.95551450092E+02 -0.85067761385E+03  0.16906978932E+04  0.10100000352E+00 0. -1.
       -3    1    3    3    0  502  0.14579701209E+04 -0.95551450092E+02  0.42357628954E+03  0.15212573209E+04  0.10100000352E+00 0.  1.
</event>
<event>
 5   0  0.5108810E-06  0.3215615E+04  0.7818609E-02  0.8184705E-01
        2   -1    0    0  501    0  0.00000000000E+00  0.00000000000E+00  0.18411432024E+04  0.18411432024E+04  0.25500000920E-02 0.  1.
       -2   -1    0    0    0  501  0.00000000000E+00  0.00000000000E+00 -0.14040434955E+04  0.14040434955E+04  0.25500000920E-02 0. -1.
    10030    2    1    2    0    0  0.00000000000E+00  0.00000000000E+00  0.43709970693E+03  0.32451866979E+04  0.32156151123E+04 0.  0.
        1    1    3    3  502    0 -0.80729339963E+02 -0.12291988146E+04 -0.82419856439E+03  0.14821437939E+04  0.50400001928E-02 0. -1.
       -1    1    3    3    0  502  0.80729339963E+02  0.12291988146E+04  0.12612982713E+04  0.17630429040E+04  0.50400001928E-02 0.  1.
</event>
<event>
 5   0  0.1881144E-06  0.3251072E+04  0.7818609E-02  0.8175458E-01
        1   -1    0    0  501    0  0.00000000000E+00  0.00000000000E+00  0.24525242966E+04  0.24525242966E+04  0.50400001928E-02 0. -1.
       -1   -1    0    0    0  501  0.00000000000E+00  0.00000000000E+00 -0.10774072489E+04  0.10774072489E+04  0.50400001928E-02 0.  1.
    10030    2    1    2    0    0  0.00000000000E+00  0.00000000000E+00  0.13751170477E+04  0.35299315454E+04  0.32510721033E+04 0.  0.
        3    1    3    3  502    0 -0.10293107081E+04  0.76465062174E+03  0.17723535067E+04  0.21875575581E+04  0.10100000352E+00 0. -1.
       -3    1    3    3    0  502  0.10293107081E+04 -0.76465062174E+03 -0.39723645905E+03  0.13423739873E+04  0.10100000352E+00 0.  1.
</event>
<event>
 5   0  0.5347280E-06  0.3236917E+04  0.7818609E-02  0.8179135E-01
       -2   -1    0    0    0  501  0.00000000000E+00  0.00000000000E+00  0.24595016199E+04  0.24595016199E+04  0.25500000920E-02 0. -1.
        2   -1    0    0  501    0  0.00000000000E+00  0.00000000000E+00 -0.10650158565E+04  0.10650158565E+04  0.25500000920E-02 0.  1.
    10030    2    1    2    0    0  0.00000000000E+00  0.00000000000E+00  0.13944857635E+04  0.35245174764E+04  0.32369171903E+04 0.  0.
        2    1    3    3  502    0 -0.79607725471E+03 -0.14010376033E+04  0.86152168094E+03  0.18272561310E+04  0.25500000920E-02 0. -1.
       -2    1    3    3    0  502  0.79607725471E+03  0.14010376033E+04  0.53296408253E+03  0.16972613454E+04  0.25500000920E-02 0.  1.
</event>
<event>
 5   0  0.5131083E-06  0.3221689E+04  0.7818609E-02  0.8183113E-01
       -2   -1    0    0    0  501  0.00000000000E+00  0.00000000000E+00  0.21728629575E+04  0.21728629575E+04  0.25500000920E-02 0. -1.
        2   -1    0    0  501    0  0.00000000000E+00  0.00000000000E+00 -0.11941940616E+04  0.11941940616E+04  0.25500000920E-02 0.  1.
    10030    2    1    2    0    0  0.00000000000E+00  0.00000000000E+00  0.97866889592E+03  0.33670570191E+04  0.32216890232E+04 0.  0.
        3    1    3    3  502    0  0.12040126825E+04 -0.95505369375E+03  0.99386517117E+03  0.18301754250E+04  0.10100000352E+00 0. -1.
       -3    1    3    3    0  502 -0.12040126825E+04  0.95505369375E+03 -0.15196275242E+02  0.15368815941E+04  0.10100000352E+00 0.  1.
</event>
<event>
 5   0  0.5108810E-06  0.3242250E+04  0.7818609E-02  0.8177747E-01
        2   -1    0    0  501    0  0.00000000000E+00  0.00000000000E+00  0.18499108207E+04  0.18499108207E+04  0.25500000920E-02 0. -1.
       -2   -1    0    0    0  501  0.00000000000E+00  0.00000000000E+00 -0.14206339782E+04  0.14206339782E+04  0.25500000920E-02 0.  1.
    10030    2    1    2    0    0  0.00000000000E+00  0.00000000000E+00  0.42927684253E+03  0.32705447989E+04  0.32422499401E+04 0.  0.
        1    1    3    3  502    0  0.83834364550E+03 -0.87713385510E+03 -0.86985434865E+03  0.14929268085E+04  0.50400001928E-02 0.  1.
       -1    1    3    3    0  502 -0.83834364550E+03  0.87713385510E+03  0.12991311912E+04  0.17776179904E+04  0.50400001928E-02 0. -1.
</event>
<event>
 5   0  0.5373060E-06  0.3186853E+04  0.7818609E-02  0.8192298E-01
       -2   -1    0    0    0  501  0.00000000000E+00  0.00000000000E+00  0.11747963007E+04  0.11747963007E+04  0.25500000920E-02 0.  1.
        2   -1    0    0  501    0  0.00000000000E+00  0.00000000000E+00 -0.21612329600E+04  0.21612329600E+04  0.25500000920E-02 0. -1.
    10030    2    1    2    0    0  0.00000000000E+00  0.00000000000E+00 -0.98643665931E+03  0.33360292607E+04  0.31868532984E+04 0.  0.
        5    1    3    3  502    0  0.30157716640E+03  0.12689534596E+04  0.46493848001E+03  0.13846954720E+04  0.46999998093E+01 0.  1.
       -5    1    3    3    0  502 -0.30157716640E+03 -0.12689534596E+04 -0.14513751393E+04  0.19513337887E+04  0.46999998093E+01 0. -1.
</event>
<event>
 5   0  0.1886248E-06  0.3243782E+04  0.7818609E-02  0.8177349E-01
       -1   -1    0    0    0  501  0.00000000000E+00  0.00000000000E+00  0.13322888928E+04  0.13322888928E+04  0.50400001928E-02 0.  1.
        1   -1    0    0  501    0  0.00000000000E+00  0.00000000000E+00 -0.19744442816E+04  0.19744442816E+04  0.50400001928E-02 0. -1.
    10030    2    1    2    0    0  0.00000000000E+00  0.00000000000E+00 -0.64215538880E+03  0.33067331744E+04  0.32437818581E+04 0.  0.
        4    1    3    3  502    0  0.15777400636E+04 -0.19563574153E+03  0.60733026392E+01  0.15898350699E+04  0.12699999809E+01 0.  1.
       -4    1    3    3    0  502 -0.15777400636E+04  0.19563574153E+03 -0.64822869144E+03  0.17168981044E+04  0.12699999809E+01 0. -1.
</event>
<event>
 5   0  0.1846850E-06  0.3210495E+04  0.7818609E-02  0.8186051E-01
       -1   -1    0    0    0  501  0.00000000000E+00  0.00000000000E+00  0.14449488395E+04  0.14449488395E+04  0.50400001928E-02 0.  1.
        1   -1    0    0  501    0  0.00000000000E+00  0.00000000000E+00 -0.17833295731E+04  0.17833295731E+04  0.50400001928E-02 0. -1.
    10030    2    1    2    0    0  0.00000000000E+00  0.00000000000E+00 -0.33838073361E+03  0.32282784126E+04  0.32104952871E+04 0.  0.
        5    1    3    3  502    0  0.87657080839E+03  0.12568100590E+04  0.31184211622E+03  0.15637184855E+04  0.46999998093E+01 0.  1.
       -5    1    3    3    0  502 -0.87657080839E+03 -0.12568100590E+04 -0.65022284983E+03  0.16645599271E+04  0.46999998093E+01 0. -1.
</event>
<event>
 5   0  0.5121624E-06  0.3330477E+04  0.7818609E-02  0.8155183E-01
       -2   -1    0    0    0  501  0.00000000000E+00  0.00000000000E+00  0.35123458493E+04  0.35123458493E+04  0.25500000920E-02 0.  1.
        2   -1    0    0  501    0  0.00000000000E+00  0.00000000000E+00 -0.78950639982E+03  0.78950639983E+03  0.25500000920E-02 0. -1.
    10030    2    1    2    0    0  0.00000000000E+00  0.00000000000E+00  0.27228394495E+04  0.43018522491E+04  0.33304771589E+04 0.  0.
        4    1    3    3  502    0  0.15093556227E+04 -0.53282288063E+03  0.19546898523E+04  0.25264339789E+04  0.12699999809E+01 0.  1.
       -4    1    3    3    0  502 -0.15093556227E+04  0.53282288063E+03  0.76814959716E+03  0.17754182703E+04  0.12699999809E+01 0. -1.
</event>
<event>
 5   0  0.1886248E-06  0.3228017E+04  0.7818609E-02  0.8181457E-01
        1   -1    0    0  501    0  0.00000000000E+00  0.00000000000E+00  0.24683836087E+04  0.24683836087E+04  0.50400001928E-02 0. -1.
       -1   -1    0    0    0  501  0.00000000000E+00  0.00000000000E+00 -0.10553559654E+04  0.10553559655E+04  0.50400001928E-02 0.  1.
    10030    2    1    2    0    0  0.00000000000E+00  0.00000000000E+00  0.14130276433E+04  0.35237395742E+04  0.32280169556E+04 0.  0.
        4    1    3    3  502    0 -0.59468352798E+03  0.12465646766E+04 -0.20512846538E+03  0.13962991411E+04  0.12699999809E+01 0.  1.
       -4    1    3    3    0  502  0.59468352798E+03 -0.12465646766E+04  0.16181561086E+04  0.21274404330E+04  0.12699999809E+01 0. -1.
</event>
<event>
 5   0  0.1977015E-06  0.3161417E+04  0.7818609E-02  0.8199082E-01
       -1   -1    0    0    0  501  0.00000000000E+00  0.00000000000E+00  0.19278389918E+04  0.19278389918E+04  0.50400001928E-02 0. -1.
        1   -1    0    0  501    0  0.00000000000E+00  0.00000000000E+00 -0.12960834041E+04  0.12960834041E+04  0.50400001928E-02 0.  1.
    10030    2    1    2    0    0  0.00000000000E+00  0.00000000000E+00  0.63175558768E+03  0.32239223959E+04  0.31614174815E+04 0.  0.
        1    1    3    3  502    0  0.81384578723E+03  0.13456536370E+04  0.47875873610E+03  0.16438791329E+04  0.50400001928E-02 0. -1.
       -1    1    3    3    0  502 -0.81384578723E+03 -0.13456536370E+04  0.15299685158E+03  0.15800432630E+04  0.50400001928E-02 0.  1.
</event>
<event>
 5   0  0.5108810E-06  0.3103374E+04  0.7818609E-02  0.8214812E-01
        2   -1    0    0  501    0  0.00000000000E+00  0.00000000000E+00  0.18205279957E+04  0.18205279957E+04  0.25500000920E-02 0.  1.
       -2   -1    0    0    0  501  0.00000000000E+00  0.00000000000E+00 -0.13225465752E+04  0.13225465752E+04  0.25500000920E-02 0. -1.
    10030    2    1    2    0    0  0.00000000000E+00  0.00000000000E+00  0.49798142052E+03  0.31430745709E+04  0.31033743350E+04 0.  0.
        1    1    3    3  502    0 -0.12176286130E+03  0.86876503581E+03 -0.10472865677E+04  0.13661581302E+04  0.50400001928E-02 0. -1.
       -1    1    3    3    0  502  0.12176286130E+03 -0.86876503581E+03  0.15452679882E+04  0.17769164407E+04  0.50400001928E-02 0.  1.
</event>
<event>
 5   0  0.1846850E-06  0.3277355E+04  0.7818609E-02  0.8168681E-01
       -1   -1    0    0    0  501  0.00000000000E+00  0.00000000000E+00  0.16820220399E+04  0.16820220399E+04  0.50400001928E-02 0. -1.
        1   -1    0    0  501    0  0.00000000000E+00  0.00000000000E+00 -0.15964499323E+04  0.15964499323E+04  0.50400001928E-02 0.  1.
    10030    2    1    2    0    0  0.00000000000E+00  0.00000000000E+00  0.85572107628E+02  0.32784719722E+04  0.32773550139E+04 0.  0.
        5    1    3    3  502    0 -0.13102999059E+04  0.38609020559E+03  0.94824115089E+03  0.16628694659E+04  0.46999998093E+01 0. -1.
       -5    1    3    3    0  502  0.13102999059E+04 -0.38609020559E+03 -0.86266904326E+03  0.16156025063E+04  0.46999998093E+01 0.  1.
</event>
<event>
 5   0  0.5121624E-06  0.3200474E+04  0.7818609E-02  0.8188692E-01
       -2   -1    0    0    0  501  0.00000000000E+00  0.00000000000E+00  0.20848785385E+04  0.20848785385E+04  0.25500000920E-02 0. -1.
        2   -1    0    0  501    0  0.00000000000E+00  0.00000000000E+00 -0.12282529193E+04  0.12282529193E+04  0.25500000920E-02 0.  1.
    10030    2    1    2    0    0  0.00000000000E+00  0.00000000000E+00  0.85662561924E+03  0.33131314578E+04  0.32004738094E+04 0.  0.
        4    1    3    3  502    0  0.14256537089E+04  0.19975191736E+02 -0.32380778867E+03  0.14621014339E+04  0.12699999809E+01 0.  1.
       -4    1    3    3    0  502 -0.14256537089E+04 -0.19975191736E+02  0.11804334079E+04  0.18510300239E+04  0.12699999809E+01 0. -1.
</event>
<event>
 5   0  0.5108810E-06  0.3153655E+04  0.7818609E-02  0.8201165E-01
        2   -1    0    0  501    0  0.00000000000E+00  0.00000000000E+00  0.27439090050E+04  0.27439090050E+04  0.25500000920E-02 0. -1.
       -2   -1    0    0    0  501  0.00000000000E+00  0.00000000000E+00 -0.90614705312E+03  0.90614705313E+03  0.25500000920E-02 0.  1.
    10030    2    1    2    0    0  0.00000000000E+00  0.00000000000E+00  0.18377619519E+04  0.36500560582E+04  0.31536550597E+04 0.  0.
        1    1    3    3  502    0  0.60634183331E+03 -0.66149556482E+03 -0.58180437862E+03  0.10694499222E+04  0.50400001928E-02 0.  1.
       -1    1    3    3    0  502 -0.60634183331E+03  0.66149556482E+03  0.24195663305E+04  0.25806061360E+04  0.50400001928E-02 0. -1.
</event>
<event>
 5   0  0.5131083E-06  0.3080860E+04  0.7818609E-02  0.8221010E-01
        2   -1    0    0  501    0  0.00000000000E+00  0.00000000000E+00  0.24838662702E+04  0.24838662702E+04  0.25500000920E-02 0. -1.
       -2   -1    0    0    0  501  0.00000000000E+00  0.00000000000E+00 -0.95533519265E+03  0.95533519265E+03  0.25500000920E-02 0.  1.
    10030    2    1    2    0    0  0.00000000000E+00  0.00000000000E+00  0.15285310775E+04  0.34392014628E+04  0.30808601797E+04 0.  0.
        3    1    3    3  502    0  0.52341074417E+03 -0.13560686571E+04  0.13335232397E+04  0.19726036731E+04  0.10100000352E+00 0. -1.
       -3    1    3    3    0  502 -0.52341074417E+03  0.13560686571E+04  0.19500783780E+03  0.14665977898E+04  0.10100000352E+00 0.  1.
</event>
<event>
 5   0  0.5347280E-06  0.3202207E+04  0.7818609E-02  0.8188234E-01
       -2   -1    0    0    0  501  0.00000000000E+00  0.00000000000E+00  0.14457791825E+04  0.14457791825E+04  0.25500000920E-02 0. -1.
        2   -1    0    0  501    0  0.00000000000E+00  0.00000000000E+00 -0.17731153177E+04  0.17731153177E+04  0.25500000920E-02 0.  1.
    10030    2    1    2    0    0  0.00000000000E+00  0.00000000000E+00 -0.32733613520E+03  0.32188945003E+04  0.32022074977E+04 0.  0.
        2    1    3    3  502    0  0.45851597494E+03  0.12219852176E+04  0.76855260583E+03  0.15146477740E+04  0.25500000920E-02 0. -1.
       -2    1    3    3    0  502 -0.45851597494E+03 -0.12219852176E+04 -0.10958887410E+04  0.17042467263E+04  0.25500000920E-02 0.  1.
</event>
<event>
 5   0  0.5108810E-06  0.3201194E+04  0.7818609E-02  0.8188502E-01
        2   -1    0    0  501    0  0.00000000000E+00  0.00000000000E+00  0.21109710600E+04  0.21109710600E+04  0.25500000920E-02 0.  1.
       -2   -1    0    0    0  501  0.00000000000E+00  0.00000000000E+00 -0.12136168954E+04  0.12136168954E+04  0.25500000920E-02 0. -1.
    10030    2    1    2    0    0  0.00000000000E+00  0.00000000000E+00  0.89735416460E+03  0.33245879553E+04  0.32011936174E+04 0.  0.
        1    1    3    3  502    0 -0.34207704573E+03  0.15551574106E+04  0.61735333889E+03  0.17078221283E+04  0.50400001928E-02 0. -1.
       -1    1    3    3    0  502  0.34207704573E+03 -0.15551574106E+04  0.28000082571E+03  0.16167658270E+04  0.50400001928E-02 0.  1.
</event>
<event>
 5   0  0.5131083E-06  0.3091874E+04  0.7818609E-02  0.8217972E-01
        2   -1    0    0  501    0  0.00000000000E+00  0.00000000000E+00  0.17740662091E+04  0.17740662091E+04  0.25500000920E-02 0.  1.
       -2   -1    0    0    0  501  0.00000000000E+00  0.00000000000E+00 -0.13471432489E+04  0.13471432489E+04  0.25500000920E-02 0. -1.
    10030    2    1    2    0    0  0.00000000000E+00  0.00000000000E+00  0.42692296017E+03  0.31212094580E+04  0.30918740703E+04 0.  0.
        3    1    3    3  502    0 -0.63419102142E+03 -0.25006924804E+03 -0.11872146842E+04  0.13690184794E+04  0.10100000352E+00 0. -1.
       -3    1    3    3    0  502  0.63419102142E+03  0.25006924804E+03  0.16141376443E+04  0.17521909786E+04  0.10100000352E+00 0.  1.
</event>
<event>
 5   0  0.5347280E-06  0.2719979E+04  0.7818609E-02  0.8328551E-01
        2   -1    0    0  501    0  0.00000000000E+00  0.00000000000E+00  0.20391425935E+04  0.20391425936E+04  0.25500000920E-02 0.  1.
       -2   -1    0    0    0  501  0.00000000000E+00  0.00000000000E+00 -0.90703403814E+03  0.90703403814E+03  0.25500000920E-02 0. -1.
    10030    2    1    2    0    0  0.00000000000E+00  0.00000000000E+00  0.11321085554E+04  0.29461766317E+04  0.27199792212E+04 0.  0.
        2    1    3    3  502    0  0.10860017670E+04  0.16619135685E+03 -0.30220103127E+03  0.11394493707E+04  0.25500000920E-02 0. -1.
       -2    1    3    3    0  502 -0.10860017670E+04 -0.16619135685E+03  0.14343095867E+04  0.18067272610E+04  0.25500000920E-02 0.  1.
</event>
<event>
 5   0  0.1881144E-06  0.3200212E+04  0.7818609E-02  0.8188761E-01
        1   -1    0    0  501    0  0.00000000000E+00  0.00000000000E+00  0.20096228379E+04  0.20096228379E+04  0.50400001928E-02 0. -1.
       -1   -1    0    0    0  501  0.00000000000E+00  0.00000000000E+00 -0.12740392743E+04  0.12740392743E+04  0.50400001928E-02 0.  1.
    10030    2    1    2    0    0  0.00000000000E+00  0.00000000000E+00  0.73558356357E+03  0.32836621122E+04  0.32002115068E+04 0.  0.
        3    1    3    3  502    0 -0.13109197912E+03  0.13985279058E+04 -0.41852907871E+03  0.14656848264E+04  0.10100000352E+00 0.  1.
       -3    1    3    3    0  502  0.13109197912E+03 -0.13985279058E+04  0.11541126423E+04  0.18179772858E+04  0.10100000352E+00 0. -1.
</event>
<event>
 5   0  0.1977015E-06  0.3095257E+04  0.7818609E-02  0.8217041E-01
        1   -1    0    0  501    0  0.00000000000E+00  0.00000000000E+00  0.21081098499E+04  0.21081098499E+04  0.50400001928E-02 0.  1.
       -1   -1    0    0    0  501  0.00000000000E+00  0.00000000000E+00 -0.11361619158E+04  0.11361619158E+04  0.50400001928E-02 0. -1.
    10030    2    1    2    0    0  0.00000000000E+00  0.00000000000E+00  0.97194793410E+03  0.32442717658E+04  0.30952570981E+04 0.  0.
        1    1    3    3  502    0 -0.12492836936E+03 -0.98807653768E+03  0.17275928256E+04  0.19941111586E+04  0.50400001928E-02 0.  1.
       -1    1    3    3    0  502  0.12492836936E+03  0.98807653768E+03 -0.75564489147E+03  0.12501606072E+04  0.50400001928E-02 0. -1.
</event>
<event>
 5   0  0.5347280E-06  0.3056719E+04  0.7818609E-02  0.8227717E-01
       -2   -1    0    0    0  501  0.00000000000E+00  0.00000000000E+00  0.14843402681E+04  0.14843402681E+04  0.25500000920E-02 0. -1.
        2   -1    0    0  501    0  0.00000000000E+00  0.00000000000E+00 -0.15736846201E+04  0.15736846201E+04  0.25500000920E-02 0.  1.
    10030    2    1    2    0    0  0.00000000000E+00  0.00000000000E+00 -0.89344351980E+02  0.30580248882E+04  0.30567194513E+04 0.  0.
        2    1    3    3  502    0  0.64383344380E+03  0.20155192474E+02 -0.14312495579E+04  0.15695231862E+04  0.25500000920E-02 0.  1.
       -2    1    3    3    0  502 -0.64383344380E+03 -0.20155192474E+02  0.13419052059E+04  0.14885017020E+04  0.25500000920E-02 0. -1.
</event>
<event>
 5   0  0.5373060E-06  0.3192243E+04  0.7818609E-02  0.8190869E-01
       -2   -1    0    0    0  501  0.00000000000E+00  0.00000000000E+00  0.10717189564E+04  0.10717189564E+04  0.25500000920E-02 0. -1.
        2   -1    0    0  501    0  0.00000000000E+00  0.00000000000E+00 -0.23771188410E+04  0.23771188410E+04  0.25500000920E-02 0.  1.
    10030    2    1    2    0    0  0.00000000000E+00  0.00000000000E+00 -0.13053998846E+04  0.34488377975E+04  0.31922426747E+04 0.  0.
        5    1    3    3  502    0  0.11584346630E+04  0.85077220021E+03 -0.14026095694E+04  0.20082629060E+04  0.46999998093E+01 0.  1.
       -5    1    3    3    0  502 -0.11584346630E+04 -0.85077220021E+03  0.97209684792E+02  0.14405748915E+04  0.46999998093E+01 0. -1.
</event>
<event>
 5   0  0.5373060E-06  0.3156877E+04  0.7818609E-02  0.8200300E-01
       -2   -1    0    0    0  501  0.00000000000E+00  0.00000000000E+00  0.11162372976E+04  0.11162372976E+04  0.25500000920E-02 0. -1.
        2   -1    0    0  501    0  0.00000000000E+00  0.00000000000E+00 -0.22320239106E+04  0.22320239106E+04  0.25500000920E-02 0.  1.
    10030    2    1    2    0    0  0.00000000000E+00  0.00000000000E+00 -0.11157866130E+04  0.33482612082E+04  0.31568771519E+04 0.  0.
        5    1    3    3  502    0 -0.71344463149E+03  0.12880725377E+04  0.45183543523E+02  0.14731591045E+04  0.46999998093E+01 0. -1.
       -5    1    3    3    0  502  0.71344463149E+03 -0.12880725377E+04 -0.11609701566E+04  0.18751021037E+04  0.46999998093E+01 0.  1.
</event>
<event>
 5   0  0.1886248E-06  0.3072744E+04  0.7818609E-02  0.8223258E-01
        1   -1    0    0  501    0  0.00000000000E+00  0.00000000000E+00  0.20864466329E+04  0.20864466329E+04  0.50400001928E-02 0.  1.
       -1   -1    0    0    0  501  0.00000000000E+00  0.00000000000E+00 -0.11313198912E+04  0.11313198912E+04  0.50400001928E-02 0. -1.
    10030    2    1    2    0    0  0.00000000000E+00  0.00000000000E+00  0.95512674178E+03  0.32177665241E+04  0.30727437757E+04 0.  0.
        4    1    3    3  502    0  0.13339878894E+04  0.44675942050E+03 -0.16909152920E+03  0.14169372700E+04  0.12699999809E+01 0. -1.
       -4    1    3    3    0  502 -0.13339878894E+04 -0.44675942050E+03  0.11242182710E+04  0.18008292541E+04  0.12699999809E+01 0.  1.
</event>
<event>
 5   0  0.1846850E-06  0.3213660E+04  0.7818609E-02  0.8185219E-01
       -1   -1    0    0    0  501  0.00000000000E+00  0.00000000000E+00  0.12673042076E+04  0.12673042076E+04  0.50400001928E-02 0. -1.
        1   -1    0    0  501    0  0.00000000000E+00  0.00000000000E+00 -0.20373184255E+04  0.20373184255E+04  0.50400001928E-02 0.  1.
    10030    2    1    2    0    0  0.00000000000E+00  0.00000000000E+00 -0.77001421784E+03  0.33046226331E+04  0.32136597286E+04 0.  0.
        5    1    3    3  502    0 -0.51073560731E+03  0.35187514865E+03 -0.19092636817E+04  0.20074802308E+04  0.46999998093E+01 0.  1.
       -5    1    3    3    0  502  0.51073560731E+03 -0.35187514865E+03  0.11392494639E+04  0.12971424023E+04  0.46999998093E+01 0. -1.
</event>
<event>
 5   0  0.5108810E-06  0.3294697E+04  0.7818609E-02  0.8164246E-01
       -2   -1    0    0    0  501  0.00000000000E+00  0.00000000000E+00  0.99490574564E+03  0.99490574564E+03  0.25500000920E-02 0.  1.
        2   -1    0    0  501    0  0.00000000000E+00  0.00000000000E+00 -0.27276524079E+04  0.27276524079E+04  0.25500000920E-02 0. -1.
    10030    2    1    2    0    0  0.00000000000E+00  0.00000000000E+00 -0.17327466622E+04  0.37225581535E+04  0.32946969831E+04 0.  0.
        1    1    3    3  502    0  0.78269412026E+03  0.25073015693E+03 -0.24794613989E+04  0.26121264377E+04  0.50400001928E-02 0. -1.
       -1    1    3    3    0  502 -0.78269412026E+03 -0.25073015693E+03  0.74671473671E+03  0.11104317158E+04  0.50400001928E-02 0.  1.
</event>
<event>
 5   0  0.5121624E-06  0.3097599E+04  0.7818609E-02  0.8216397E-01
        2   -1    0    0  501    0  0.00000000000E+00  0.00000000000E+00  0.18372439536E+04  0.18372439536E+04  0.25500000920E-02 0. -1.
       -2   -1    0    0    0  501  0.00000000000E+00  0.00000000000E+00 -0.13056403339E+04  0.13056403339E+04  0.25500000920E-02 0.  1.
    10030    2    1    2    0    0  0.00000000000E+00  0.00000000000E+00  0.53160361972E+03  0.31428842875E+04  0.30975989469E+04 0.  0.
        4    1    3    3  502    0 -0.14180547384E+04  0.46193543168E+03 -0.15805493811E+03  0.14997488325E+04  0.12699999809E+01 0. -1.
       -4    1    3    3    0  502  0.14180547384E+04 -0.46193543168E+03  0.68965855783E+03  0.16431354550E+04  0.12699999809E+01 0.  1.
</event>
<event>
 5   0  0.5347280E-06  0.1974263E+04  0.7818609E-02  0.8618749E-01
        2   -1    0    0  501    0  0.00000000000E+00  0.00000000000E+00  0.14241577314E+04  0.14241577314E+04  0.25500000920E-02 0.  1.
       -2   -1    0    0    0  501  0.00000000000E+00  0.00000000000E+00 -0.68421417592E+03  0.68421417592E+03  0.25500000920E-02 0. -1.
    10030    2    1    2    0    0  0.00000000000E+00  0.00000000000E+00  0.73994355545E+03  0.21083719073E+04  0.19742633143E+04 0.  0.
        2    1    3    3  502    0  0.67521145117E+03  0.42052736629E+03 -0.25426425701E+03  0.83510722784E+03  0.25500000920E-02 0. -1.
       -2    1    3    3    0  502 -0.67521145117E+03 -0.42052736629E+03  0.99420781246E+03  0.12732646795E+04  0.25500000920E-02 0.  1.
</event>
<event>
 5   0  0.5347280E-06  0.2499084E+04  0.7818609E-02  0.8403312E-01
       -2   -1    0    0    0  501  0.00000000000E+00  0.00000000000E+00  0.97671119109E+03  0.97671119110E+03  0.25500000920E-02 0. -1.
        2   -1    0    0  501    0  0.00000000000E+00  0.00000000000E+00 -0.15985839840E+04  0.15985839840E+04  0.25500000920E-02 0.  1.
    10030    2    1    2    0    0  0.00000000000E+00  0.00000000000E+00 -0.62187279292E+03  0.25752951751E+04  0.24990837258E+04 0.  0.
        2    1    3    3  502    0 -0.75046712739E+03  0.99898070768E+03 -0.29667590250E+03  0.12842040160E+04  0.25500000920E-02 0.  1.
       -2    1    3    3    0  502  0.75046712739E+03 -0.99898070768E+03 -0.32519689042E+03  0.12910911591E+04  0.25500000920E-02 0. -1.
</event>
<event>
 5   0  0.1969465E-06  0.2986948E+04  0.7818609E-02  0.8247468E-01
        1   -1    0    0  501    0  0.00000000000E+00  0.00000000000E+00  0.97044537244E+03  0.97044537245E+03  0.50400001928E-02 0. -1.
       -1   -1    0    0    0  501  0.00000000000E+00  0.00000000000E+00 -0.22983930557E+04  0.22983930557E+04  0.50400001928E-02 0.  1.
    10030    2    1    2    0    0  0.00000000000E+00  0.00000000000E+00 -0.13279476833E+04  0.32688384282E+04  0.29869482118E+04 0.  0.
        2    1    3    3  502    0  0.11334673694E+03  0.39308804879E+03  0.90792943134E+03  0.99584213065E+03  0.25500000920E-02 0. -1.
       -2    1    3    3    0  502 -0.11334673694E+03 -0.39308804879E+03 -0.22358771146E+04  0.22729962975E+04  0.25500000920E-02 0.  1.
</event>
<event>
 5   0  0.1881144E-06  0.3138777E+04  0.7818609E-02  0.8205176E-01
       -1   -1    0    0    0  501  0.00000000000E+00  0.00000000000E+00  0.16435730053E+04  0.16435730053E+04  0.50400001928E-02 0.  1.
        1   -1    0    0  501    0  0.00000000000E+00  0.00000000000E+00 -0.14985524445E+04  0.14985524445E+04  0.50400001928E-02 0. -1.
    10030    2    1    2    0    0  0.00000000000E+00  0.00000000000E+00  0.14502056080E+03  0.31421254498E+04  0.31387770515E+04 0.  0.
        3    1    3    3  502    0 -0.58594647606E+03  0.14519611471E+04 -0.34636086620E+02  0.15661175289E+04  0.10100000352E+00 0. -1.
       -3    1    3    3    0  502  0.58594647606E+03 -0.14519611471E+04  0.17965664742E+03  0.15760079209E+04  0.10100000352E+00 0.  1.
</event>
<event>
 5   0  0.5373060E-06  0.3146618E+04  0.7818609E-02  0.8203059E-01
       -2   -1    0    0    0  501  0.00000000000E+00  0.00000000000E+00  0.17656257158E+04  0.17656257158E+04  0.25500000920E-02 0. -1.
        2   -1    0    0  501    0  0.00000000000E+00  0.00000000000E+00 -0.14019401765E+04  0.14019401765E+04  0.25500000920E-02 0.  1.
    10030    2    1    2    0    0  0.00000000000E+00  0.00000000000E+00  0.36368553928E+03  0.31675658922E+04  0.31466182657E+04 0.  0.
        5    1    3    3  502    0 -0.15305975762E+04 -0.33180891660E+03  0.33268503406E+03  0.16011019703E+04  0.46999998093E+01 0. -1.
       -5    1    3    3    0  502  0.15305975762E+04  0.33180891660E+03  0.31000505226E+02  0.15664639219E+04  0.46999998093E+01 0.  1.
</event>
<event>
 5   0  0.5108810E-06  0.2864386E+04  0.7818609E-02  0.8283553E-01
       -2   -1    0    0    0  501  0.00000000000E+00  0.00000000000E+00  0.86770054683E+03  0.86770054684E+03  0.25500000920E-02 0.  1.
        2   -1    0    0  501    0  0.00000000000E+00  0.00000000000E+00 -0.23639226648E+04  0.23639226648E+04  0.25500000920E-02 0. -1.
    10030    2    1    2    0    0  0.00000000000E+00  0.00000000000E+00 -0.14962221179E+04  0.32316232116E+04  0.28643861394E+04 0.  0.
        1    1    3    3  502    0  0.69126525197E+03 -0.49495914986E+03 -0.20484140517E+04  0.22178440738E+04  0.50400001928E-02 0. -1.
       -1    1    3    3    0  502 -0.69126525197E+03  0.49495914986E+03  0.55219193371E+03  0.10137791378E+04  0.50400001928E-02 0.  1.
</event>
<event>
 5   0  0.1886248E-06  0.2464379E+04  0.7818609E-02  0.8415787E-01
        1   -1    0    0  501    0  0.00000000000E+00  0.00000000000E+00  0.13226642689E+04  0.13226642689E+04  0.50400001928E-02 0. -1.
       -1   -1    0    0    0  501  0.00000000000E+00  0.00000000000E+00 -0.11479035855E+04  0.11479035855E+04  0.50400001928E-02 0.  1.
    10030    2    1    2    0    0  0.00000000000E+00  0.00000000000E+00  0.17476068347E+03  0.24705678544E+04  0.24643790753E+04 0.  0.
        4    1    3    3  502    0 -0.89198935435E+03 -0.91961287202E+02 -0.75983812499E+03  0.11753541916E+04  0.12699999809E+01 0.  1.
       -4    1    3    3    0  502  0.89198935435E+03  0.91961287202E+02  0.93459880845E+03  0.12952136628E+04  0.12699999809E+01 0. -1.
</event>
<event>
 5   0  0.1881144E-06  0.3202881E+04  0.7818609E-02  0.8188057E-01
        1   -1    0    0  501    0  0.00000000000E+00  0.00000000000E+00  0.26296540400E+04  0.26296540400E+04  0.50400001928E-02 0. -1.
       -1   -1    0    0    0  501  0.00000000000E+00  0.00000000000E+00 -0.97526564874E+03  0.97526564875E+03  0.50400001928E-02 0.  1.
    10030    2    1    2    0    0  0.00000000000E+00  0.00000000000E+00  0.16543883913E+04  0.36049196888E+04  0.32028807367E+04 0.  0.
        3    1    3    3  502    0  0.10135467522E+04  0.10968608164E+03  0.22172521759E+04  0.24403924432E+04  0.10100000352E+00 0. -1.
       -3    1    3    3    0  502 -0.10135467522E+04 -0.10968608164E+03 -0.56286378462E+03  0.11645272455E+04  0.10100000352E+00 0.  1.
</event>
<event>
 5   0  0.5373060E-06  0.3140049E+04  0.7818609E-02  0.8204832E-01
        2   -1    0    0  501    0  0.00000000000E+00  0.00000000000E+00  0.25229676685E+04  0.25229676685E+04  0.25500000920E-02 0. -1.
       -2   -1    0    0    0  501  0.00000000000E+00  0.00000000000E+00 -0.97701488713E+03  0.97701488713E+03  0.25500000920E-02 0.  1.
    10030    2    1    2    0    0  0.00000000000E+00  0.00000000000E+00  0.15459527814E+04  0.34999825556E+04  0.31400490263E+04 0.  0.
        5    1    3    3  502    0 -0.57188444136E+03  0.71919606079E+03 -0.64600081851E+03  0.11232247930E+04  0.46999998093E+01 0.  1.
       -5    1    3    3    0  502  0.57188444136E+03 -0.71919606079E+03  0.21919535999E+04  0.23767577626E+04  0.46999998093E+01 0. -1.
</event>
<event>
 5   0  0.5373060E-06  0.3136195E+04  0.7818609E-02  0.8205874E-01
       -2   -1    0    0    0  501  0.00000000000E+00  0.00000000000E+00  0.14148832935E+04  0.14148832935E+04  0.25500000920E-02 0.  1.
        2   -1    0    0  501    0  0.00000000000E+00  0.00000000000E+00 -0.17379029935E+04  0.17379029935E+04  0.25500000920E-02 0. -1.
    10030    2    1    2    0    0  0.00000000000E+00  0.00000000000E+00 -0.32301969992E+03  0.31527862870E+04  0.31361950904E+04 0.  0.
        5    1    3    3  502    0  0.70708817596E+02  0.61090786855E+03 -0.16116038662E+04  0.17249629771E+04  0.46999998093E+01 0. -1.
       -5    1    3    3    0  502 -0.70708817596E+02 -0.61090786855E+03  0.12885841663E+04  0.14278233099E+04  0.46999998093E+01 0.  1.
</event>
<event>
 5   0  0.5347280E-06  0.3142245E+04  0.7818609E-02  0.8204239E-01
        2   -1    0    0  501    0  0.00000000000E+00  0.00000000000E+00  0.21709873025E+04  0.21709873025E+04  0.25500000920E-02 0.  1.
       -2   -1    0    0    0  501  0.00000000000E+00  0.00000000000E+00 -0.11370063426E+04  0.11370063426E+04  0.25500000920E-02 0. -1.
    10030    2    1    2    0    0  0.00000000000E+00  0.00000000000E+00  0.10339809599E+04  0.33079936451E+04  0.31422452691E+04 0.  0.
        2    1    3    3  502    0 -0.12225711788E+04 -0.80609336514E+03  0.11161879447E+04  0.18412882252E+04  0.25500000920E-02 0.  1.
       -2    1    3    3    0  502  0.12225711788E+04  0.80609336514E+03 -0.82206984798E+02  0.14667054199E+04  0.25500000920E-02 0. -1.
</event>
<event>
 5   0  0.5121624E-06  0.3238532E+04  0.7818609E-02  0.8178714E-01
        2   -1    0    0  501    0  0.00000000000E+00  0.00000000000E+00  0.27994919169E+04  0.27994919169E+04  0.25500000920E-02 0.  1.
       -2   -1    0    0    0  501  0.00000000000E+00  0.00000000000E+00 -0.93660647413E+03  0.93660647414E+03  0.25500000920E-02 0. -1.
    10030    2    1    2    0    0  0.00000000000E+00  0.00000000000E+00  0.18628854428E+04  0.37360983910E+04  0.32385319227E+04 0.  0.
        4    1    3    3  502    0 -0.68671414381E+03 -0.13643770260E+04  0.15515383466E+04  0.21772399588E+04  0.12699999809E+01 0.  1.
       -4    1    3    3    0  502  0.68671414381E+03  0.13643770260E+04  0.31134709621E+03  0.15588584322E+04  0.12699999809E+01 0. -1.
</event>
<event>
 5   0  0.1977015E-06  0.3258171E+04  0.7818609E-02  0.8173621E-01
        1   -1    0    0  501    0  0.00000000000E+00  0.00000000000E+00  0.13704757982E+04  0.13704757982E+04  0.50400001928E-02 0. -1.
       -1   -1    0    0    0  501  0.00000000000E+00  0.00000000000E+00 -0.19364947050E+04  0.19364947051E+04  0.50400001928E-02 0.  1.
    10030    2    1    2    0    0  0.00000000000E+00  0.00000000000E+00 -0.56601890688E+03  0.33069705032E+04  0.32581707301E+04 0.  0.
        1    1    3    3  502    0 -0.13366683871E+04 -0.86962516501E+03 -0.62114910735E+03  0.17113610135E+04  0.50400001928E-02 0.  1.
       -1    1    3    3    0  502  0.13366683871E+04  0.86962516501E+03  0.55130200470E+02  0.15956094898E+04  0.50400001928E-02 0. -1.
</event>
<event>
 5   0  0.1977015E-06  0.3189983E+04  0.7818609E-02  0.8191468E-01
       -1   -1    0    0    0  501  0.00000000000E+00  0.00000000000E+00  0.16563874386E+04  0.16563874386E+04  0.50400001928E-02 0.  1.
        1   -1    0    0  501    0  0.00000000000E+00  0.00000000000E+00 -0.15358717032E+04  0.15358717032E+04  0.50400001928E-02 0. -1.
    10030    2    1    2    0    0  0.00000000000E+00  0.00000000000E+00  0.12051573539E+03  0.31922591418E+04  0.31899834460E+04 0.  0.
        1    1    3    3  502    0  0.14056016875E+04 -0.29319866342E+03  0.75524379576E+03  0.16223670211E+04  0.50400001928E-02 0.  1.
       -1    1    3    3    0  502 -0.14056016875E+04  0.29319866342E+03 -0.63472806037E+03  0.15698921207E+04  0.50400001928E-02 0. -1.
</event>
<event>
 5   0  0.1846850E-06  0.2852084E+04  0.7818609E-02  0.8287278E-01
        1   -1    0    0  501    0  0.00000000000E+00  0.00000000000E+00  0.15068584186E+04  0.15068584186E+04  0.50400001928E-02 0. -1.
       -1   -1    0    0    0  501  0.00000000000E+00  0.00000000000E+00 -0.13495603156E+04  0.13495603156E+04  0.50400001928E-02 0.  1.
    10030    2    1    2    0    0  0.00000000000E+00  0.00000000000E+00  0.15729810301E+03  0.28564187342E+04  0.28520843767E+04 0.  0.
        5    1    3    3  502    0 -0.80522432785E+03  0.11166118241E+04  0.45119022083E+03  0.14487245733E+04  0.46999998093E+01 0. -1.
       -5    1    3    3    0  502  0.80522432785E+03 -0.11166118241E+04 -0.29389211782E+03  0.14076941609E+04  0.46999998093E+01 0.  1.
</event>
<event>
 5   0  0.5108810E-06  0.3238446E+04  0.7818609E-02  0.8178737E-01
        2   -1    0    0  501    0  0.00000000000E+00  0.00000000000E+00  0.18084663875E+04  0.18084663875E+04  0.25500000920E-02 0.  1.
       -2   -1    0    0    0  501  0.00000000000E+00  0.00000000000E+00 -0.14497830482E+04  0.14497830482E+04  0.25500000920E-02 0. -1.
    10030    2    1    2    0    0  0.00000000000E+00  0.00000000000E+00  0.35868333923E+03  0.32582494357E+04  0.32384464867E+04 0.  0.
        1    1    3    3  502    0 -0.26546217844E+03 -0.15097059414E+04  0.70426156263E+03  0.16869103551E+04  0.50400001928E-02 0.  1.
       -1    1    3    3    0  502  0.26546217844E+03  0.15097059414E+04 -0.34557822340E+03  0.15713390806E+04  0.50400001928E-02 0. -1.
</event>
<event>
 5   0  0.5121624E-06  0.3185744E+04  0.7818609E-02  0.8192592E-01
        2   -1    0    0  501    0  0.00000000000E+00  0.00000000000E+00  0.15869138195E+04  0.15869138195E+04  0.25500000920E-02 0.  1.
       -2   -1    0    0    0  501  0.00000000000E+00  0.00000000000E+00 -0.15988526245E+04  0.15988526245E+04  0.25500000920E-02 0. -1.
    10030    2    1    2    0    0  0.00000000000E+00  0.00000000000E+00 -0.11938805000E+02  0.31857664439E+04  0.31857440732E+04 0.  0.
        4    1    3    3  502    0 -0.64373829808E+03  0.13856198965E+04 -0.45641481277E+03  0.15945712867E+04  0.12699999809E+01 0. -1.
       -4    1    3    3    0  502  0.64373829808E+03 -0.13856198965E+04  0.44447600777E+03  0.15911951572E+04  0.12699999809E+01 0.  1.
</event>
<event>
 5   0  0.1886248E-06  0.3086480E+04  0.7818609E-02  0.8219458E-01
       -1   -1    0    0    0  501  0.00000000000E+00  0.00000000000E+00  0.97901517719E+03  0.97901517720E+03  0.50400001928E-02 0.  1.
        1   -1    0    0  501    0  0.00000000000E+00  0.00000000000E+00 -0.24326378443E+04  0.24326378443E+04  0.50400001928E-02 0. -1.
    10030    2    1    2    0    0  0.00000000000E+00  0.00000000000E+00 -0.14536226671E+04  0.34116530215E+04  0.30864797879E+04 0.  0.
        4    1    3    3  502    0 -0.15969238303E+03 -0.14441813386E+04 -0.13016234716E+04  0.19507400316E+04  0.12699999809E+01 0. -1.
       -4    1    3    3    0  502  0.15969238303E+03  0.14441813386E+04 -0.15199919551E+03  0.14609129900E+04  0.12699999809E+01 0.  1.
</event>
<event>
 5   0  0.1846850E-06  0.3222850E+04  0.7818609E-02  0.8182808E-01
        1   -1    0    0  501    0  0.00000000000E+00  0.00000000000E+00  0.20010355039E+04  0.20010355039E+04  0.50400001928E-02 0. -1.
       -1   -1    0    0    0  501  0.00000000000E+00  0.00000000000E+00 -0.12976734625E+04  0.12976734625E+04  0.50400001928E-02 0.  1.
    10030    2    1    2    0    0  0.00000000000E+00  0.00000000000E+00  0.70336204144E+03  0.32987089664E+04  0.32228500870E+04 0.  0.
        5    1    3    3  502    0  0.13361684195E+04  0.51943808389E+03  0.11048731596E+04  0.18099526947E+04  0.46999998093E+01 0. -1.
       -5    1    3    3    0  502 -0.13361684195E+04 -0.51943808389E+03 -0.40151111820E+03  0.14887562716E+04  0.46999998093E+01 0.  1.
</event>
<event>
 5   0  0.5108810E-06  0.3225889E+04  0.7818609E-02  0.8182013E-01
        2   -1    0    0  501    0  0.00000000000E+00  0.00000000000E+00  0.15075720489E+04  0.15075720489E+04  0.25500000920E-02 0. -1.
       -2   -1    0    0    0  501  0.00000000000E+00  0.00000000000E+00 -0.17256817117E+04  0.17256817117E+04  0.25500000920E-02 0.  1.
    10030    2    1    2    0    0  0.00000000000E+00  0.00000000000E+00 -0.21810966279E+03  0.32332537606E+04  0.32258887234E+04 0.  0.
        1    1    3    3  502    0  0.54887791194E+03 -0.22544273579E+03 -0.16123118033E+04  0.17180339753E+04  0.50400001928E-02 0.  1.
       -1    1    3    3    0  502 -0.54887791194E+03  0.22544273579E+03  0.13942021405E+04  0.15152197853E+04  0.50400001928E-02 0. -1.
</event>
<event>
 5   0  0.1881144E-06  0.3183659E+04  0.7818609E-02  0.8193146E-01
       -1   -1    0    0    0  501  0.00000000000E+00  0.00000000000E+00  0.26757464064E+04  0.26757464064E+04  0.50400001928E-02 0.  1.
        1   -1    0    0  501    0  0.00000000000E+00  0.00000000000E+00 -0.94699606728E+03  0.94699606729E+03  0.50400001928E-02 0. -1.
    10030    2    1    2    0    0  0.00000000000E+00  0.00000000000E+00  0.17287503391E+04  0.36227424737E+04  0.31836591048E+04 0.  0.
        3    1    3    3  502    0 -0.12910116559E+04  0.66175078681E+03  0.11880352471E+03  0.14555890516E+04  0.10100000352E+00 0. -1.
       -3    1    3    3    0  502  0.12910116559E+04 -0.66175078681E+03  0.16099468144E+04  0.21671534221E+04  0.10100000352E+00 0.  1.
</event>
<event>
 5   0  0.5347280E-06  0.3212649E+04  0.7818609E-02  0.8185484E-01
       -2   -1    0    0    0  501  0.00000000000E+00  0.00000000000E+00  0.96184421768E+03  0.96184421769E+03  0.25500000920E-02 0. -1.
        2   -1    0    0  501    0  0.00000000000E+00  0.00000000000E+00 -0.26826371838E+04  0.26826371838E+04  0.25500000920E-02 0.  1.
    10030    2    1    2    0    0  0.00000000000E+00  0.00000000000E+00 -0.17207929661E+04  0.36444814014E+04  0.32126494134E+04 0.  0.
        2    1    3    3  502    0 -0.12548607632E+04 -0.50847682935E+03  0.12010588291E+03  0.13592827683E+04  0.25500000920E-02 0. -1.
       -2    1    3    3    0  502  0.12548607632E+04  0.50847682935E+03 -0.18408988490E+04  0.22851986332E+04  0.25500000920E-02 0.  1.
</event>
<event>
 5   0  0.5347280E-06  0.3141065E+04  0.7818609E-02  0.8204557E-01
       -2   -1    0    0    0  501  0.00000000000E+00  0.00000000000E+00  0.14775481874E+04  0.14775481874E+04  0.25500000920E-02 0. -1.
        2   -1    0    0  501    0  0.00000000000E+00  0.00000000000E+00 -0.16693689695E+04  0.16693689695E+04  0.25500000920E-02 0.  1.
    10030    2    1    2    0    0  0.00000000000E+00  0.00000000000E+00 -0.19182078203E+03  0.31469171569E+04  0.31410654848E+04 0.  0.
        2    1    3    3  502    0 -0.54196671489E+03  0.17318240197E+03 -0.15624861840E+04  0.16628539141E+04  0.25500000920E-02 0.  1.
       -2    1    3    3    0  502  0.54196671489E+03 -0.17318240197E+03  0.13706654020E+04  0.14840632428E+04  0.25500000920E-02 0. -1.
</event>
<event>
 5   0  0.5121624E-06  0.2863243E+04  0.7818609E-02  0.8283899E-01
        2   -1    0    0  501    0  0.00000000000E+00  0.00000000000E+00  0.15521358455E+04  0.15521358455E+04  0.25500000920E-02 0. -1.
       -2   -1    0    0    0  501  0.00000000000E+00  0.00000000000E+00 -0.13204641411E+04  0.13204641411E+04  0.25500000920E-02 0.  1.
    10030    2    1    2    0    0  0.00000000000E+00  0.00000000000E+00  0.23167170437E+03  0.28725999866E+04  0.28632427254E+04 0.  0.
        4    1    3    3  502    0  0.12158966062E+04 -0.51156558967E+03 -0.44225017183E+03  0.13912910325E+04  0.12699999809E+01 0. -1.
       -4    1    3    3    0  502 -0.12158966062E+04  0.51156558967E+03  0.67392187621E+03  0.14813089542E+04  0.12699999809E+01 0.  1.
</event>
<event>
 5   0  0.5131083E-06  0.3241670E+04  0.7818609E-02  0.8177898E-01
       -2   -1    0    0    0  501  0.00000000000E+00  0.00000000000E+00  0.15256402473E+04  0.15256402473E+04  0.25500000920E-02 0.  1.
        2   -1    0    0  501    0  0.00000000000E+00  0.00000000000E+00 -0.17219696285E+04  0.17219696285E+04  0.25500000920E-02 0. -1.
    10030    2    1    2    0    0  0.00000000000E+00  0.00000000000E+00 -0.19632938120E+03  0.32476098758E+04  0.32416700448E+04 0.  0.
        3    1    3    3  502    0 -0.98322174531E+03 -0.76935716535E+03 -0.11337272888E+04  0.16864083207E+04  0.10100000352E+00 0. -1.
       -3    1    3    3    0  502  0.98322174531E+03  0.76935716535E+03  0.93739790764E+03  0.15612015551E+04  0.10100000352E+00 0.  1.
</event>
<event>
 5   0  0.5108810E-06  0.3641259E+04  0.7818609E-02  0.8081106E-01
       -2   -1    0    0    0  501  0.00000000000E+00  0.00000000000E+00  0.17651764272E+04  0.17651764272E+04  0.25500000920E-02 0.  1.
        2   -1    0    0  501    0  0.00000000000E+00  0.00000000000E+00 -0.18778250409E+04  0.18778250409E+04  0.25500000920E-02 0. -1.
    10030    2    1    2    0    0  0.00000000000E+00  0.00000000000E+00 -0.11264861372E+03  0.36430014681E+04  0.36412593956E+04 0.  0.
        1    1    3    3  502    0 -0.79915743085E+03 -0.35662176204E+03  0.15409547173E+04  0.17721097938E+04  0.50400001928E-02 0.  1.
       -1    1    3    3    0  502  0.79915743085E+03  0.35662176204E+03 -0.16536033310E+04  0.18708916743E+04  0.50400001928E-02 0. -1.
</event>
<event>
 5   0  0.5373060E-06  0.3203478E+04  0.7818609E-02  0.8187899E-01
        2   -1    0    0  501    0  0.00000000000E+00  0.00000000000E+00  0.19351137166E+04  0.19351137166E+04  0.25500000920E-02 0.  1.
       -2   -1    0    0    0  501  0.00000000000E+00  0.00000000000E+00 -0.13257971514E+04  0.13257971514E+04  0.25500000920E-02 0. -1.
    10030    2    1    2    0    0  0.00000000000E+00  0.00000000000E+00  0.60931656521E+03  0.32609108681E+04  0.32034782679E+04 0.  0.
        5    1    3    3  502    0  0.12185973822E+04  0.89680783448E+03  0.83972678852E+03  0.17304355063E+04  0.46999998093E+01 0. -1.
       -5    1    3    3    0  502 -0.12185973822E+04 -0.89680783448E+03 -0.23041022331E+03  0.15304753618E+04  0.46999998093E+01 0.  1.
</event>
<event>
 5   0  0.1886248E-06  0.3226520E+04  0.7818609E-02  0.8181848E-01
       -1   -1    0    0    0  501  0.00000000000E+00  0.00000000000E+00  0.13024457374E+04  0.13024457374E+04  0.50400001928E-02 0.  1.
        1   -1    0    0  501    0  0.00000000000E+00  0.00000000000E+00 -0.19982464353E+04  0.19982464353E+04  0.50400001928E-02 0. -1.
    10030    2    1    2    0    0  0.00000000000E+00  0.00000000000E+00 -0.69580069793E+03  0.33006921727E+04  0.32265198291E+04 0.  0.
        4    1    3    3  502    0 -0.11700070128E+03  0.14805182061E+03  0.12911164393E+04  0.13048340042E+04  0.12699999809E+01 0.  1.
       -4    1    3    3    0  502  0.11700070128E+03 -0.14805182061E+03 -0.19869171372E+04  0.19958581685E+04  0.12699999809E+01 0. -1.
</event>
<event>
 5   0  0.1846850E-06  0.3223037E+04  0.7818609E-02  0.8182759E-01
       -1   -1    0    0    0  501  0.00000000000E+00  0.00000000000E+00  0.28282941246E+04  0.28282941246E+04  0.50400001928E-02 0. -1.
        1   -1    0    0  501    0  0.00000000000E+00  0.00000000000E+00 -0.91821871090E+03  0.91821871091E+03  0.50400001928E-02 0.  1.
    10030    2    1    2    0    0  0.00000000000E+00  0.00000000000E+00  0.19100754137E+04  0.37465128355E+04  0.32230374402E+04 0.  0.
        5    1    3    3  502    0  0.97655723115E+03 -0.26004639716E+03 -0.50409975684E+03  0.11293479576E+04  0.46999998093E+01 0.  1.
       -5    1    3    3    0  502 -0.97655723115E+03  0.26004639716E+03  0.24141751706E+04  0.26171648780E+04  0.46999998093E+01 0. -1.
</event>
<event>
 5   0  0.5121624E-06  0.3136017E+04  0.7818609E-02  0.8205922E-01
        2   -1    0    0  501    0  0.00000000000E+00  0.00000000000E+00  0.18806210359E+04  0.18806210359E+04  0.25500000920E-02 0.  1.
       -2   -1    0    0    0  501  0.00000000000E+00  0.00000000000E+00 -0.13073607546E+04  0.13073607546E+04  0.25500000920E-02 0. -1.
    10030    2    1    2    0    0  0.00000000000E+00  0.00000000000E+00  0.57326028129E+03  0.31879817905E+04  0.31360166687E+04 0.  0.
        4    1    3    3  502    0 -0.11300767797E+04  0.67745642779E+03  0.11507914092E+04  0.17493836686E+04  0.12699999809E+01 0.  1.
       -4    1    3    3    0  502  0.11300767797E+04 -0.67745642779E+03 -0.57753112795E+03  0.14385981219E+04  0.12699999809E+01 0. -1.
</event>
<event>
 5   0  0.5347280E-06  0.3206620E+04  0.7818609E-02  0.8187071E-01
        2   -1    0    0  501    0  0.00000000000E+00  0.00000000000E+00  0.17242559948E+04  0.17242559948E+04  0.25500000920E-02 0. -1.
       -2   -1    0    0    0  501  0.00000000000E+00  0.00000000000E+00 -0.14908476396E+04  0.14908476396E+04  0.25500000920E-02 0.  1.
    10030    2    1    2    0    0  0.00000000000E+00  0.00000000000E+00  0.23340835524E+03  0.32151036344E+04  0.32066200148E+04 0.  0.
        2    1    3    3  502    0 -0.11191119253E+04 -0.11133307250E+04  0.39795687417E+03  0.16279700484E+04  0.25500000920E-02 0. -1.
       -2    1    3    3    0  502  0.11191119253E+04  0.11133307250E+04 -0.16454851893E+03  0.15871335860E+04  0.25500000920E-02 0.  1.
</event>
<event>
 5   0  0.1846850E-06  0.3228683E+04  0.7818609E-02  0.8181283E-01
        1   -1    0    0  501    0  0.00000000000E+00  0.00000000000E+00  0.17524800532E+04  0.17524800532E+04  0.50400001928E-02 0. -1.
       -1   -1    0    0    0  501  0.00000000000E+00  0.00000000000E+00 -0.14870918431E+04  0.14870918431E+04  0.50400001928E-02 0.  1.
    10030    2    1    2    0    0  0.00000000000E+00  0.00000000000E+00  0.26538821013E+03  0.32395718963E+04  0.32286831943E+04 0.  0.
        5    1    3    3  502    0  0.40509447257E+03  0.10903817378E+04  0.12558632095E+04  0.17117968211E+04  0.46999998093E+01 0. -1.
       -5    1    3    3    0  502 -0.40509447257E+03 -0.10903817378E+04 -0.99047499941E+03  0.15277750752E+04  0.46999998093E+01 0.  1.
</event>
<event>
 5   0  0.1886248E-06  0.3212533E+04  0.7818609E-02  0.8185515E-01
        1   -1    0    0  501    0  0.00000000000E+00  0.00000000000E+00  0.22723122283E+04  0.22723122284E+04  0.50400001928E-02 0. -1.
       -1   -1    0    0    0  501  0.00000000000E+00  0.00000000000E+00 -0.11354480260E+04  0.11354480260E+04  0.50400001928E-02 0.  1.
    10030    2    1    2    0    0  0.00000000000E+00  0.00000000000E+00  0.11368642024E+04  0.34077602543E+04  0.32125332272E+04 0.  0.
        4    1    3    3  502    0  0.38043991938E+03  0.12093932880E+04  0.16146358149E+04  0.20529045484E+04  0.12699999809E+01 0. -1.
       -4    1    3    3    0  502 -0.38043991938E+03 -0.12093932880E+04 -0.47777161248E+03  0.13548557059E+04  0.12699999809E+01 0.  1.
</event>
<event>
 5   0  0.5373060E-06  0.3312151E+04  0.7818609E-02  0.8159810E-01
       -2   -1    0    0    0  501  0.00000000000E+00  0.00000000000E+00  0.14783534727E+04  0.14783534727E+04  0.25500000920E-02 0. -1.
        2   -1    0    0  501    0  0.00000000000E+00  0.00000000000E+00 -0.18551630366E+04  0.18551630366E+04  0.25500000920E-02 0.  1.
    10030    2    1    2    0    0  0.00000000000E+00  0.00000000000E+00 -0.37680956394E+03  0.33335165094E+04  0.33121513961E+04 0.  0.
        5    1    3    3  502    0  0.76052494288E+03  0.12532892251E+04 -0.96371965457E+03  0.17543972564E+04  0.46999998093E+01 0.  1.
       -5    1    3    3    0  502 -0.76052494288E+03 -0.12532892251E+04  0.58691009063E+03  0.15791192530E+04  0.46999998093E+01 0. -1.
</event>
<event>
 5   0  0.1969465E-06  0.2171084E+04  0.7818609E-02  0.8530561E-01
       -1   -1    0    0    0  501  0.00000000000E+00  0.00000000000E+00  0.46958291045E+03  0.46958291047E+03  0.50400001928E-02 0. -1.
        1   -1    0    0  501    0  0.00000000000E+00  0.00000000000E+00 -0.25094643077E+04  0.25094643077E+04  0.50400001928E-02 0.  1.
    10030    2    1    2    0    0  0.00000000000E+00  0.00000000000E+00 -0.20398813973E+04  0.29790472182E+04  0.21710841101E+04 0.  0.
        2    1    3    3  502    0  0.16877563676E+03 -0.10252043628E+04 -0.58848305099E+03  0.11940860532E+04  0.25500000920E-02 0. -1.
       -2    1    3    3    0  502 -0.16877563676E+03  0.10252043628E+04 -0.14513983463E+04  0.17849611650E+04  0.25500000920E-02 0.  1.
</event>
<event>
 5   0  0.1881144E-06  0.3088443E+04  0.7818609E-02  0.8218917E-01
        1   -1    0    0  501    0  0.00000000000E+00  0.00000000000E+00  0.11760505201E+04  0.11760505201E+04  0.50400001928E-02 0.  1.
       -1   -1    0    0    0  501  0.00000000000E+00  0.00000000000E+00 -0.20276508729E+04  0.20276508729E+04  0.50400001928E-02 0. -1.
    10030    2    1    2    0    0  0.00000000000E+00  0.00000000000E+00 -0.85160035281E+03  0.32037013930E+04  0.30884428851E+04 0.  0.
        3    1    3    3  502    0 -0.77931089525E+03  0.58471493358E+02 -0.18073737559E+04  0.19690973289E+04  0.10100000352E+00 0. -1.
       -3    1    3    3    0  502  0.77931089525E+03 -0.58471493358E+02  0.95577340305E+03  0.12346040641E+04  0.10100000352E+00 0.  1.
</event>
<event>
 5   0  0.1977015E-06  0.2568960E+04  0.7818609E-02  0.8378822E-01
        1   -1    0    0  501    0  0.00000000000E+00  0.00000000000E+00  0.20184685285E+04  0.20184685285E+04  0.50400001928E-02 0. -1.
       -1   -1    0    0    0  501  0.00000000000E+00  0.00000000000E+00 -0.81739667409E+03  0.81739667410E+03  0.50400001928E-02 0.  1.
    10030    2    1    2    0    0  0.00000000000E+00  0.00000000000E+00  0.12010718544E+04  0.28358652026E+04  0.25689604606E+04 0.  0.
        1    1    3    3  502    0 -0.51089257493E+03  0.29740942086E+03 -0.65830532065E+03  0.88477651526E+03  0.50400001928E-02 0.  1.
       -1    1    3    3    0  502  0.51089257493E+03 -0.29740942086E+03  0.18593771751E+04  0.19510886874E+04  0.50400001928E-02 0. -1.
</event>
<event>
 5   0  0.5108810E-06  0.3214486E+04  0.7818609E-02  0.8185002E-01
       -2   -1    0    0    0  501  0.00000000000E+00  0.00000000000E+00  0.14339413070E+04  0.14339413071E+04  0.25500000920E-02 0. -1.
        2   -1    0    0  501    0  0.00000000000E+00  0.00000000000E+00 -0.18014890872E+04  0.18014890872E+04  0.25500000920E-02 0.  1.
    10030    2    1    2    0    0  0.00000000000E+00  0.00000000000E+00 -0.36754778012E+03  0.32354303942E+04  0.32144857233E+04 0.  0.
        1    1    3    3  502    0  0.39536135298E+03  0.88492126402E+03 -0.14742484768E+04  0.17643142618E+04  0.50400001928E-02 0.  1.
       -1    1    3    3    0  502 -0.39536135298E+03 -0.88492126402E+03  0.11067006967E+04  0.14711161324E+04  0.50400001928E-02 0. -1.
</event>
<event>
 5   0  0.5131083E-06  0.2454512E+04  0.7818609E-02  0.8419372E-01
        2   -1    0    0  501    0  0.00000000000E+00  0.00000000000E+00  0.21238627315E+04  0.21238627315E+04  0.25500000920E-02 0. -1.
       -2   -1    0    0    0  501  0.00000000000E+00  0.00000000000E+00 -0.70915960947E+03  0.70915960948E+03  0.25500000920E-02 0.  1.
    10030    2    1    2    0    0  0.00000000000E+00  0.00000000000E+00  0.14147031220E+04  0.28330223410E+04  0.24545123061E+04 0.  0.
        3    1    3    3  502    0 -0.73334126661E+03 -0.22869492280E+03 -0.39735866689E+03  0.86486108791E+03  0.10100000352E+00 0.  1.
       -3    1    3    3    0  502  0.73334126661E+03  0.22869492280E+03  0.18120617889E+04  0.19681612531E+04  0.10100000352E+00 0. -1.
</event>
<event>
 5   0  0.5373060E-06  0.1999564E+04  0.7818609E-02  0.8606824E-01
       -2   -1    0    0    0  501  0.00000000000E+00  0.00000000000E+00  0.79354339399E+03  0.79354339399E+03  0.25500000920E-02 0. -1.
        2   -1    0    0  501    0  0.00000000000E+00  0.00000000000E+00 -0.12596217178E+04  0.12596217178E+04  0.25500000920E-02 0.  1.
    10030    2    1    2    0    0  0.00000000000E+00  0.00000000000E+00 -0.46607832377E+03  0.20531651118E+04  0.19995644456E+04 0.  0.
        5    1    3    3  502    0 -0.60139359863E+03 -0.28227749985E+03 -0.10001860806E+04  0.12007285843E+04  0.46999998093E+01 0.  1.
       -5    1    3    3    0  502  0.60139359863E+03  0.28227749985E+03  0.53410775683E+03  0.85243652743E+03  0.46999998093E+01 0. -1.
</event>
<event>
 5   0  0.5121624E-06  0.3165073E+04  0.7818609E-02  0.8198103E-01
        2   -1    0    0  501    0  0.00000000000E+00  0.00000000000E+00  0.21551795539E+04  0.21551795539E+04  0.25500000920E-02 0. -1.
       -2   -1    0    0    0  501  0.00000000000E+00  0.00000000000E+00 -0.11620479986E+04  0.11620479986E+04  0.25500000920E-02 0.  1.
    10030    2    1    2    0    0  0.00000000000E+00  0.00000000000E+00  0.99313155535E+03  0.33172275525E+04  0.31650731980E+04 0.  0.
        4    1    3    3  502    0  0.14739843067E+04  0.37289064899E+03  0.95669641673E+03  0.17963704571E+04  0.12699999809E+01 0. -1.
       -4    1    3    3    0  502 -0.14739843067E+04 -0.37289064899E+03  0.36435138621E+02  0.15208570954E+04  0.12699999809E+01 0.  1.
</event>
<event>
 5   0  0.5108810E-06  0.2993840E+04  0.7818609E-02  0.8245492E-01
       -2   -1    0    0    0  501  0.00000000000E+00  0.00000000000E+00  0.16493708884E+04  0.16493708884E+04  0.25500000920E-02 0.  1.
        2   -1    0    0  501    0  0.00000000000E+00  0.00000000000E+00 -0.13585600306E+04  0.13585600306E+04  0.25500000920E-02 0. -1.
    10030    2    1    2    0    0  0.00000000000E+00  0.00000000000E+00  0.29081085783E+03  0.30079309191E+04  0.29938399187E+04 0.  0.
        1    1    3    3  502    0 -0.14413609141E+04 -0.37779957398E+03  0.28931212096E+03  0.15178785545E+04  0.50400001928E-02 0.  1.
       -1    1    3    3    0  502  0.14413609141E+04  0.37779957398E+03  0.14987368649E+01  0.14900523646E+04  0.50400001928E-02 0. -1.
</event>
<event>
 5   0  0.1969465E-06  0.3234307E+04  0.7818609E-02  0.8179815E-01
       -1   -1    0    0    0  501  0.00000000000E+00  0.00000000000E+00  0.10569307485E+04  0.10569307485E+04  0.50400001928E-02 0.  1.
        1   -1    0    0  501    0  0.00000000000E+00  0.00000000000E+00 -0.24743202814E+04  0.24743202814E+04  0.50400001928E-02 0. -1.
    10030    2    1    2    0    0  0.00000000000E+00  0.00000000000E+00 -0.14173895329E+04  0.35312510299E+04  0.32343068420E+04 0.  0.
        2    1    3    3  502    0 -0.42492102234E+03  0.10615258717E+04 -0.19572748438E+04  0.22667862417E+04  0.25500000920E-02 0. -1.
       -2    1    3    3    0  502  0.42492102234E+03 -0.10615258717E+04  0.53988531088E+03  0.12644647882E+04  0.25500000920E-02 0.  1.
</event>
<event>
 5   0  0.1881144E-06  0.3113205E+04  0.7818609E-02  0.8212123E-01
        1   -1    0    0  501    0  0.00000000000E+00  0.00000000000E+00  0.15758421247E+04  0.15758421247E+04  0.50400001928E-02 0.  1.
       -1   -1    0    0    0  501  0.00000000000E+00  0.00000000000E+00 -0.15375982238E+04  0.15375982238E+04  0.50400001928E-02 0. -1.
    10030    2    1    2    0    0  0.00000000000E+00  0.00000000000E+00  0.38243900952E+02  0.31134403485E+04  0.31132054554E+04 0.  0.
        3    1    3    3  502    0  0.11221753364E+04  0.92661036436E+02 -0.10557374860E+04  0.15435171534E+04  0.10100000352E+00 0. -1.
       -3    1    3    3    0  502 -0.11221753364E+04 -0.92661036436E+02  0.10939813869E+04  0.15699231951E+04  0.10100000352E+00 0.  1.
</event>
<event>
 5   0  0.5131083E-06  0.2155615E+04  0.7818609E-02  0.8537133E-01
        2   -1    0    0  501    0  0.00000000000E+00  0.00000000000E+00  0.16415056041E+04  0.16415056041E+04  0.25500000920E-02 0.  1.
       -2   -1    0    0    0  501  0.00000000000E+00  0.00000000000E+00 -0.70768513436E+03  0.70768513437E+03  0.25500000920E-02 0. -1.
    10030    2    1    2    0    0  0.00000000000E+00  0.00000000000E+00  0.93382046973E+03  0.23491907385E+04  0.21556150992E+04 0.  0.
        3    1    3    3  502    0  0.42403186107E+03  0.24904809167E+03 -0.57829957227E+03  0.75911683993E+03  0.10100000352E+00 0. -1.
       -3    1    3    3    0  502 -0.42403186107E+03 -0.24904809167E+03  0.15121200420E+04  0.15900738985E+04  0.10100000352E+00 0.  1.
</event>
<event>
 5   0  0.5131083E-06  0.3084878E+04  0.7818609E-02  0.8219900E-01
        2   -1    0    0  501    0  0.00000000000E+00  0.00000000000E+00  0.22199297966E+04  0.22199297966E+04  0.25500000920E-02 0. -1.
       -2   -1    0    0    0  501  0.00000000000E+00  0.00000000000E+00 -0.10717087205E+04  0.10717087205E+04  0.25500000920E-02 0.  1.
    10030    2    1    2    0    0  0.00000000000E+00  0.00000000000E+00  0.11482210762E+04  0.32916385171E+04  0.30848780344E+04 0.  0.
        3    1    3    3  502    0  0.98607248529E+03 -0.60857603586E+03  0.16603882058E+04  0.20247451054E+04  0.10100000352E+00 0. -1.
       -3    1    3    3    0  502 -0.98607248529E+03  0.60857603586E+03 -0.51216712964E+03  0.12668934117E+04  0.10100000352E+00 0.  1.
</event>
<event>
 5   0  0.1969465E-06  0.2222905E+04  0.7818609E-02  0.8508954E-01
        1   -1    0    0  501    0  0.00000000000E+00  0.00000000000E+00  0.16214473797E+04  0.16214473797E+04  0.50400001928E-02 0. -1.
       -1   -1    0    0    0  501  0.00000000000E+00  0.00000000000E+00 -0.76186694824E+03  0.76186694826E+03  0.50400001928E-02 0.  1.
    10030    2    1    2    0    0  0.00000000000E+00  0.00000000000E+00  0.85958043147E+03  0.23833143280E+04  0.22229054563E+04 0.  0.
        2    1    3    3  502    0  0.19584865226E+03 -0.10715554532E+04  0.19308907758E+03  0.11062871127E+04  0.25500000920E-02 0. -1.
       -2    1    3    3    0  502 -0.19584865226E+03  0.10715554532E+04  0.66649135389E+03  0.12770272153E+04  0.25500000920E-02 0.  1.
</event>
<event>
 5   0  0.1977015E-06  0.2892846E+04  0.7818609E-02  0.8275009E-01
        1   -1    0    0  501    0  0.00000000000E+00  0.00000000000E+00  0.14887180958E+04  0.14887180958E+04  0.50400001928E-02 0.  1.
       -1   -1    0    0    0  501  0.00000000000E+00  0.00000000000E+00 -0.14053292505E+04  0.14053292505E+04  0.50400001928E-02 0. -1.
    10030    2    1    2    0    0  0.00000000000E+00  0.00000000000E+00  0.83388845353E+02  0.28940473463E+04  0.28928457171E+04 0.  0.
        1    1    3    3  502    0 -0.10064692243E+04 -0.65403003434E+03  0.84912539326E+03  0.14702889236E+04  0.50400001928E-02 0.  1.
       -1    1    3    3    0  502  0.10064692243E+04  0.65403003434E+03 -0.76573654791E+03  0.14237584227E+04  0.50400001928E-02 0. -1.
</event>
<event>
 5   0  0.5373060E-06  0.3132733E+04  0.7818609E-02  0.8206812E-01
       -2   -1    0    0    0  501  0.00000000000E+00  0.00000000000E+00  0.98800540105E+03  0.98800540105E+03  0.25500000920E-02 0. -1.
        2   -1    0    0  501    0  0.00000000000E+00  0.00000000000E+00 -0.24832906908E+04  0.24832906908E+04  0.25500000920E-02 0.  1.
    10030    2    1    2    0    0  0.00000000000E+00  0.00000000000E+00 -0.14952852897E+04  0.34712960919E+04  0.31327333847E+04 0.  0.
        5    1    3    3  502    0  0.13448407073E+04 -0.64289009000E+03 -0.12808758457E+04  0.19653420104E+04  0.46999998093E+01 0.  1.
       -5    1    3    3    0  502 -0.13448407073E+04  0.64289009000E+03 -0.21440944406E+03  0.15059540815E+04  0.46999998093E+01 0. -1.
</event>
<event>
 5   0  0.1886248E-06  0.2743658E+04  0.7818609E-02  0.8320977E-01
       -1   -1    0    0    0  501  0.00000000000E+00  0.00000000000E+00  0.93966780817E+03  0.93966780819E+03  0.50400001928E-02 0.  1.
        1   -1    0    0  501    0  0.00000000000E+00  0.00000000000E+00 -0.20027447296E+04  0.20027447296E+04  0.50400001928E-02 0. -1.
    10030    2    1    2    0    0  0.00000000000E+00  0.00000000000E+00 -0.10630769215E+04  0.29424125378E+04  0.27436579601E+04 0.  0.
        4    1    3    3  502    0  0.28775363998E+03 -0.10230935541E+04 -0.14617790016E+04  0.18072968876E+04  0.12699999809E+01 0. -1.
       -4    1    3    3    0  502 -0.28775363998E+03  0.10230935541E+04  0.39870208009E+03  0.11351156502E+04  0.12699999809E+01 0.  1.
</event>
<event>
 5   0  0.1977015E-06  0.3244801E+04  0.7818609E-02  0.8177085E-01
        1   -1    0    0  501    0  0.00000000000E+00  0.00000000000E+00  0.20462342943E+04  0.20462342943E+04  0.50400001928E-02 0.  1.
       -1   -1    0    0    0  501  0.00000000000E+00  0.00000000000E+00 -0.12863544632E+04  0.12863544632E+04  0.50400001928E-02 0. -1.
    10030    2    1    2    0    0  0.00000000000E+00  0.00000000000E+00  0.75987983114E+03  0.33325887575E+04  0.32448005283E+04 0.  0.
        1    1    3    3  502    0 -0.14566415414E+04 -0.50401250735E+03 -0.14006793274E+03  0.15477248507E+04  0.50400001928E-02 0.  1.
       -1    1    3    3    0  502  0.14566415414E+04  0.50401250735E+03  0.89994776389E+03  0.17848639067E+04  0.50400001928E-02 0. -1.
</event>
<event>
 5   0  0.5121624E-06  0.3232474E+04  0.7818609E-02  0.8180293E-01
        2   -1    0    0  501    0  0.00000000000E+00  0.00000000000E+00  0.12109244264E+04  0.12109244264E+04  0.25500000920E-02 0. -1.
       -2   -1    0    0    0  501  0.00000000000E+00  0.00000000000E+00 -0.21572130091E+04  0.21572130091E+04  0.25500000920E-02 0.  1.
    10030    2    1    2    0    0  0.00000000000E+00  0.00000000000E+00 -0.94628858267E+03  0.33681374355E+04  0.32324739292E+04 0.  0.
        4    1    3    3  502    0  0.15162889583E+04 -0.55939950476E+03 -0.45995188525E+03  0.16803622707E+04  0.12699999809E+01 0.  1.
       -4    1    3    3    0  502 -0.15162889583E+04  0.55939950476E+03 -0.48633669741E+03  0.16877751649E+04  0.12699999809E+01 0. -1.
</event>
<event>
 5   0  0.1881144E-06  0.2981450E+04  0.7818609E-02  0.8249048E-01
        1   -1    0    0  501    0  0.00000000000E+00  0.00000000000E+00  0.25392703750E+04  0.25392703750E+04  0.50400001928E-02 0.  1.
       -1   -1    0    0    0  501  0.00000000000E+00  0.00000000000E+00 -0.87515705202E+03  0.87515705203E+03  0.50400001928E-02 0. -1.
    10030    2    1    2    0    0  0.00000000000E+00  0.00000000000E+00  0.16641133230E+04  0.34144274270E+04  0.29814495640E+04 0.  0.
        3    1    3    3  502    0  0.31008966720E+03 -0.87119176770E+03 -0.50698865031E+03  0.10545938553E+04  0.10100000352E+00 0. -1.
       -3    1    3    3    0  502 -0.31008966720E+03  0.87119176770E+03  0.21711019733E+04  0.23598335718E+04  0.10100000352E+00 0.  1.
</event>
<event>
 5   0  0.1881144E-06  0.3198083E+04  0.7818609E-02  0.8189324E-01
        1   -1    0    0  501    0  0.00000000000E+00  0.00000000000E+00  0.22355539702E+04  0.22355539702E+04  0.50400001928E-02 0.  1.
       -1   -1    0    0    0  501  0.00000000000E+00  0.00000000000E+00 -0.11437583571E+04  0.11437583571E+04  0.50400001928E-02 0. -1.
    10030    2    1    2    0    0  0.00000000000E+00  0.00000000000E+00  0.10917956131E+04  0.33793123274E+04  0.31980828859E+04 0.  0.
        3    1    3    3  502    0  0.71955087915E+03  0.36143311048E+03  0.20056863533E+04  0.21612878381E+04  0.10100000352E+00 0.  1.
       -3    1    3    3    0  502 -0.71955087915E+03 -0.36143311048E+03 -0.91389074027E+03  0.12180244892E+04  0.10100000352E+00 0. -1.
</event>
<event>
 5   0  0.1977015E-06  0.3198195E+04  0.7818609E-02  0.8189294E-01
        1   -1    0    0  501    0  0.00000000000E+00  0.00000000000E+00  0.21215943895E+04  0.21215943895E+04  0.50400001928E-02 0.  1.
       -1   -1    0    0    0  501  0.00000000000E+00  0.00000000000E+00 -0.12052790193E+04  0.12052790193E+04  0.50400001928E-02 0. -1.
    10030    2    1    2    0    0  0.00000000000E+00  0.00000000000E+00  0.91631537026E+03  0.33268734088E+04  0.31981952443E+04 0.  0.
        1    1    3    3  502    0 -0.18174536433E+03 -0.68939152537E+02 -0.11929437870E+04  0.12086764924E+04  0.50400001928E-02 0. -1.
       -1    1    3    3    0  502  0.18174536433E+03  0.68939152537E+02  0.21092591573E+04  0.21181969164E+04  0.50400001928E-02 0.  1.
</event>
<event>
 5   0  0.1846850E-06  0.3208482E+04  0.7818609E-02  0.8186581E-01
       -1   -1    0    0    0  501  0.00000000000E+00  0.00000000000E+00  0.14929099390E+04  0.14929099391E+04  0.50400001928E-02 0.  1.
        1   -1    0    0  501    0  0.00000000000E+00  0.00000000000E+00 -0.17238740719E+04  0.17238740719E+04  0.50400001928E-02 0. -1.
    10030    2    1    2    0    0  0.00000000000E+00  0.00000000000E+00 -0.23096413284E+03  0.32167840109E+04  0.32084817192E+04 0.  0.
        5    1    3    3  502    0 -0.15474149131E+04 -0.31431426804E+03  0.16858883741E+03  0.15879957993E+04  0.46999998093E+01 0.  1.
       -5    1    3    3    0  502  0.15474149131E+04  0.31431426804E+03 -0.39955297025E+03  0.16287882117E+04  0.46999998093E+01 0. -1.
</event>
<event>
 5   0  0.1846850E-06  0.2294164E+04  0.7818609E-02  0.8480226E-01
        1   -1    0    0  501    0  0.00000000000E+00  0.00000000000E+00  0.91124003289E+03  0.91124003290E+03  0.50400001928E-02 0.  1.
       -1   -1    0    0    0  501  0.00000000000E+00  0.00000000000E+00 -0.14439629030E+04  0.14439629030E+04  0.50400001928E-02 0. -1.
    10030    2    1    2    0    0  0.00000000000E+00  0.00000000000E+00 -0.53272287013E+03  0.23552029359E+04  0.22941637285E+04 0.  0.
        5    1    3    3  502    0  0.80433001643E+03 -0.80111044926E+03 -0.43520614077E+03  0.12157924174E+04  0.46999998093E+01 0. -1.
       -5    1    3    3    0  502 -0.80433001643E+03  0.80111044926E+03 -0.97516729366E+02  0.11394105185E+04  0.46999998093E+01 0.  1.
</event>
<event>
 5   0  0.1969465E-06  0.3207446E+04  0.7818609E-02  0.8186853E-01
       -1   -1    0    0    0  501  0.00000000000E+00  0.00000000000E+00  0.15663102641E+04  0.15663102641E+04  0.50400001928E-02 0. -1.
        1   -1    0    0  501    0  0.00000000000E+00  0.00000000000E+00 -0.16420294126E+04  0.16420294126E+04  0.50400001928E-02 0.  1.
    10030    2    1    2    0    0  0.00000000000E+00  0.00000000000E+00 -0.75719148528E+02  0.32083396767E+04  0.32074460387E+04 0.  0.
        2    1    3    3  502    0  0.53961470989E+03 -0.14869526353E+04 -0.30196978005E+03  0.16104030312E+04  0.25500000920E-02 0.  1.
       -2    1    3    3    0  502 -0.53961470989E+03  0.14869526353E+04  0.22625063153E+03  0.15979366455E+04  0.25500000920E-02 0. -1.
</event>
<event>
 5   0  0.1969465E-06  0.3201310E+04  0.7818609E-02  0.8188471E-01
        1   -1    0    0  501    0  0.00000000000E+00  0.00000000000E+00  0.15187500439E+04  0.15187500439E+04  0.50400001928E-02 0.  1.
       -1   -1    0    0    0  501  0.00000000000E+00  0.00000000000E+00 -0.16869769911E+04  0.16869769911E+04  0.50400001928E-02 0. -1.
    10030    2    1    2    0    0  0.00000000000E+00  0.00000000000E+00 -0.16822694723E+03  0.32057270350E+04  0.32013099689E+04 0.  0.
        2    1    3    3  502    0  0.64162048565E+03  0.58603342618E+03  0.12619824496E+04  0.15322244377E+04  0.25500000920E-02 0.  1.
       -2    1    3    3    0  502 -0.64162048565E+03 -0.58603342618E+03 -0.14302093969E+04  0.16735025973E+04  0.25500000920E-02 0. -1.
</event>
<event>
 5   0  0.1969465E-06  0.2548184E+04  0.7818609E-02  0.8386018E-01
        1   -1    0    0  501    0  0.00000000000E+00  0.00000000000E+00  0.23537625854E+04  0.23537625854E+04  0.50400001928E-02 0.  1.
       -1   -1    0    0    0  501  0.00000000000E+00  0.00000000000E+00 -0.68966634431E+03  0.68966634433E+03  0.50400001928E-02 0. -1.
    10030    2    1    2    0    0  0.00000000000E+00  0.00000000000E+00  0.16640962411E+04  0.30434289297E+04  0.25481843243E+04 0.  0.
        2    1    3    3  502    0 -0.28901233902E+03 -0.11117049007E+04  0.14904545217E+04  0.18817201172E+04  0.25500000920E-02 0.  1.
       -2    1    3    3    0  502  0.28901233902E+03  0.11117049007E+04  0.17364171943E+03  0.11617088125E+04  0.25500000920E-02 0. -1.
</event>
<event>
 5   0  0.5131083E-06  0.3278493E+04  0.7818609E-02  0.8168390E-01
       -2   -1    0    0    0  501  0.00000000000E+00  0.00000000000E+00  0.15025858159E+04  0.15025858160E+04  0.25500000920E-02 0.  1.
        2   -1    0    0  501    0  0.00000000000E+00  0.00000000000E+00 -0.17883361587E+04  0.17883361587E+04  0.25500000920E-02 0. -1.
    10030    2    1    2    0    0  0.00000000000E+00  0.00000000000E+00 -0.28575034272E+03  0.32909219746E+04  0.32784926696E+04 0.  0.
        3    1    3    3  502    0  0.16365508654E+04  0.77196555722E+02 -0.19665526825E+03  0.16501307064E+04  0.10100000352E+00 0.  1.
       -3    1    3    3    0  502 -0.16365508654E+04 -0.77196555722E+02 -0.89095074465E+02  0.16407912682E+04  0.10100000352E+00 0. -1.
</event>
<event>
 5   0  0.1977015E-06  0.3304771E+04  0.7818609E-02  0.8161682E-01
        1   -1    0    0  501    0  0.00000000000E+00  0.00000000000E+00  0.22931872149E+04  0.22931872149E+04  0.50400001928E-02 0. -1.
       -1   -1    0    0    0  501  0.00000000000E+00  0.00000000000E+00 -0.11906476694E+04  0.11906476694E+04  0.50400001928E-02 0.  1.
    10030    2    1    2    0    0  0.00000000000E+00  0.00000000000E+00  0.11025395455E+04  0.34838348843E+04  0.33047711043E+04 0.  0.
        1    1    3    3  502    0  0.59146522971E+03 -0.71704505616E+03  0.19914530380E+04  0.21976965062E+04  0.50400001928E-02 0. -1.
       -1    1    3    3    0  502 -0.59146522971E+03  0.71704505616E+03 -0.88891349250E+03  0.12861383781E+04  0.50400001928E-02 0.  1.
</event>
<event>
 5   0  0.1729500E-06  0.3195665E+04  0.7818609E-02  0.8189963E-01
       -3   -1    0    0    0  501  0.00000000000E+00  0.00000000000E+00  0.10636968950E+04  0.10636968998E+04  0.10100000352E+00 0.  1.
        3   -1    0    0  501    0  0.00000000000E+00  0.00000000000E+00 -0.24001841208E+04  0.24001841229E+04  0.10100000352E+00 0. -1.
    10030    2    1    2    0    0  0.00000000000E+00  0.00000000000E+00 -0.13364872257E+04  0.34638810227E+04  0.31956648190E+04 0.  0.
        3    1    3    3  502    0  0.68117766488E+03 -0.46238226555E+03  0.81609648480E+03  0.11592298535E+04  0.10100000352E+00 0.  1.
       -3    1    3    3    0  502 -0.68117766488E+03  0.46238226555E+03 -0.21525837105E+04  0.23046511692E+04  0.10100000352E+00 0. -1.
</event>
<event>
 5   0  0.5131083E-06  0.2709508E+04  0.7818609E-02  0.8331927E-01
        2   -1    0    0  501    0  0.00000000000E+00  0.00000000000E+00  0.15842112966E+04  0.15842112966E+04  0.25500000920E-02 0.  1.
       -2   -1    0    0    0  501  0.00000000000E+00  0.00000000000E+00 -0.11585310883E+04  0.11585310883E+04  0.25500000920E-02 0. -1.
    10030    2    1    2    0    0  0.00000000000E+00  0.00000000000E+00  0.42568020825E+03  0.27427423849E+04  0.27095077321E+04 0.  0.
        3    1    3    3  502    0  0.14734697287E+03  0.93686793079E+03  0.11921389323E+04  0.15233607236E+04  0.10100000352E+00 0.  1.
       -3    1    3    3    0  502 -0.14734697287E+03 -0.93686793079E+03 -0.76645872403E+03  0.12193816613E+04  0.10100000352E+00 0. -1.
</event>
<event>
 5   0  0.1886248E-06  0.3182937E+04  0.7818609E-02  0.8193338E-01
        1   -1    0    0  501    0  0.00000000000E+00  0.00000000000E+00  0.24270278318E+04  0.24270278318E+04  0.50400001928E-02 0.  1.
       -1   -1    0    0    0  501  0.00000000000E+00  0.00000000000E+00 -0.10435692459E+04  0.10435692459E+04  0.50400001928E-02 0. -1.
    10030    2    1    2    0    0  0.00000000000E+00  0.00000000000E+00  0.13834585859E+04  0.34705970778E+04  0.31829367599E+04 0.  0.
        4    1    3    3  502    0  0.65354896893E+03 -0.13396388325E+04  0.12998144956E+04  0.19776950706E+04  0.12699999809E+01 0.  1.
       -4    1    3    3    0  502 -0.65354896893E+03  0.13396388325E+04  0.83644090312E+02  0.14929020072E+04  0.12699999809E+01 0. -1.
</event>
<event>
 5   0  0.5121624E-06  0.3028205E+04  0.7818609E-02  0.8235722E-01
       -2   -1    0    0    0  501  0.00000000000E+00  0.00000000000E+00  0.14302131289E+04  0.14302131289E+04  0.25500000920E-02 0. -1.
        2   -1    0    0  501    0  0.00000000000E+00  0.00000000000E+00 -0.16029123350E+04  0.16029123350E+04  0.25500000920E-02 0.  1.
    10030    2    1    2    0    0  0.00000000000E+00  0.00000000000E+00 -0.17269920619E+03  0.30331254639E+04  0.30282049244E+04 0.  0.
        4    1    3    3  502    0 -0.18587606504E+03 -0.65111003031E+03 -0.14428065655E+04  0.15937962798E+04  0.12699999809E+01 0.  1.
       -4    1    3    3    0  502  0.18587606504E+03  0.65111003031E+03  0.12701073593E+04  0.14393291841E+04  0.12699999809E+01 0. -1.
</event>
<event>
 5   0  0.5108810E-06  0.3302006E+04  0.7818609E-02  0.8162385E-01
        2   -1    0    0  501    0  0.00000000000E+00  0.00000000000E+00  0.21582602689E+04  0.21582602689E+04  0.25500000920E-02 0.  1.
       -2   -1    0    0    0  501  0.00000000000E+00  0.00000000000E+00 -0.12629666016E+04  0.12629666016E+04  0.25500000920E-02 0. -1.
    10030    2    1    2    0    0  0.00000000000E+00  0.00000000000E+00  0.89529366724E+03  0.34212268705E+04  0.33020058372E+04 0.  0.
        1    1    3    3  502    0  0.11667244526E+04  0.44569563141E+03 -0.67111703260E+03  0.14178464711E+04  0.50400001928E-02 0. -1.
       -1    1    3    3    0  502 -0.11667244526E+04 -0.44569563141E+03  0.15664106998E+04  0.20033803994E+04  0.50400001928E-02 0.  1.
</event>
<event>
 5   0  0.1881144E-06  0.3249117E+04  0.7818609E-02  0.8175965E-01
       -1   -1    0    0    0  501  0.00000000000E+00  0.00000000000E+00  0.14785188157E+04  0.14785188158E+04  0.50400001928E-02 0. -1.
        1   -1    0    0  501    0  0.00000000000E+00  0.00000000000E+00 -0.17850227336E+04  0.17850227336E+04  0.50400001928E-02 0.  1.
    10030    2    1    2    0    0  0.00000000000E+00  0.00000000000E+00 -0.30650391782E+03  0.32635415493E+04  0.32491166173E+04 0.  0.
        3    1    3    3  502    0 -0.61502285941E+02 -0.78986161802E+03  0.12713274034E+04  0.14979777314E+04  0.10100000352E+00 0. -1.
       -3    1    3    3    0  502  0.61502285941E+02  0.78986161802E+03 -0.15778313212E+04  0.17655638180E+04  0.10100000352E+00 0.  1.
</event>
<event>
 5   0  0.5131083E-06  0.2853130E+04  0.7818609E-02  0.8286961E-01
        2   -1    0    0  501    0  0.00000000000E+00  0.00000000000E+00  0.27546095987E+04  0.27546095987E+04  0.25500000920E-02 0. -1.
       -2   -1    0    0    0  501  0.00000000000E+00  0.00000000000E+00 -0.73879337913E+03  0.73879337913E+03  0.25500000920E-02 0.  1.
    10030    2    1    2    0    0  0.00000000000E+00  0.00000000000E+00  0.20158162196E+04  0.34934029779E+04  0.28531297437E+04 0.  0.
        3    1    3    3  502    0 -0.12771579244E+04 -0.63153628640E+03  0.92032311295E+03  0.16961618694E+04  0.10100000352E+00 0. -1.
       -3    1    3    3    0  502  0.12771579244E+04  0.63153628640E+03  0.10954931066E+04  0.17972411084E+04  0.10100000352E+00 0.  1.
</event>
<event>
 5   0  0.1886248E-06  0.3297557E+04  0.7818609E-02  0.8163517E-01
        1   -1    0    0  501    0  0.00000000000E+00  0.00000000000E+00  0.15899944643E+04  0.15899944643E+04  0.50400001928E-02 0.  1.
       -1   -1    0    0    0  501  0.00000000000E+00  0.00000000000E+00 -0.17097355914E+04  0.17097355914E+04  0.50400001928E-02 0. -1.
    10030    2    1    2    0    0  0.00000000000E+00  0.00000000000E+00 -0.11974112715E+03  0.32997300557E+04  0.32975567475E+04 0.  0.
        4    1    3    3  502    0  0.14613473623E+04  0.66156982363E+03  0.32150759524E+03  0.16360255168E+04  0.12699999809E+01 0.  1.
       -4    1    3    3    0  502 -0.14613473623E+04 -0.66156982363E+03 -0.44124872239E+03  0.16637045389E+04  0.12699999809E+01 0. -1.
</event>
<event>
 5   0  0.5347280E-06  0.2047966E+04  0.7818609E-02  0.8584517E-01
       -2   -1    0    0    0  501  0.00000000000E+00  0.00000000000E+00  0.48466249365E+03  0.48466249366E+03  0.25500000920E-02 0.  1.
        2   -1    0    0  501    0  0.00000000000E+00  0.00000000000E+00 -0.21634469289E+04  0.21634469289E+04  0.25500000920E-02 0. -1.
    10030    2    1    2    0    0  0.00000000000E+00  0.00000000000E+00 -0.16787844352E+04  0.26481094225E+04  0.20479663898E+04 0.  0.
        2    1    3    3  502    0 -0.45131604685E+03 -0.69255144962E+03 -0.57953232087E+02  0.82865690224E+03  0.25500000920E-02 0.  1.
       -2    1    3    3    0  502  0.45131604685E+03  0.69255144962E+03 -0.16208312031E+04  0.18194525203E+04  0.25500000920E-02 0. -1.
</event>
<event>
 5   0  0.1886248E-06  0.3165581E+04  0.7818609E-02  0.8197967E-01
       -1   -1    0    0    0  501  0.00000000000E+00  0.00000000000E+00  0.97761582613E+03  0.97761582614E+03  0.50400001928E-02 0. -1.
        1   -1    0    0  501    0  0.00000000000E+00  0.00000000000E+00 -0.25625866898E+04  0.25625866898E+04  0.50400001928E-02 0.  1.
    10030    2    1    2    0    0  0.00000000000E+00  0.00000000000E+00 -0.15849708637E+04  0.35402025160E+04  0.31655807074E+04 0.  0.
        4    1    3    3  502    0 -0.14631756955E+04  0.31517211988E+03 -0.13681950416E+04  0.20278500600E+04  0.12699999809E+01 0.  1.
       -4    1    3    3    0  502  0.14631756955E+04 -0.31517211988E+03 -0.21677582204E+03  0.15123524559E+04  0.12699999809E+01 0. -1.
</event>
<event>
 5   0  0.1886248E-06  0.3140443E+04  0.7818609E-02  0.8204725E-01
        1   -1    0    0  501    0  0.00000000000E+00  0.00000000000E+00  0.22612709474E+04  0.22612709474E+04  0.50400001928E-02 0.  1.
       -1   -1    0    0    0  501  0.00000000000E+00  0.00000000000E+00 -0.10903585771E+04  0.10903585772E+04  0.50400001928E-02 0. -1.
    10030    2    1    2    0    0  0.00000000000E+00  0.00000000000E+00  0.11709123702E+04  0.33516295245E+04  0.31404433908E+04 0.  0.
        4    1    3    3  502    0  0.12381757513E+04 -0.61492414333E+03 -0.20918350204E+03  0.13982025045E+04  0.12699999809E+01 0. -1.
       -4    1    3    3    0  502 -0.12381757513E+04  0.61492414333E+03  0.13800958723E+04  0.19534270200E+04  0.12699999809E+01 0.  1.
</event>
<event>
 5   0  0.1969465E-06  0.3201872E+04  0.7818609E-02  0.8188323E-01
       -1   -1    0    0    0  501  0.00000000000E+00  0.00000000000E+00  0.13694315428E+04  0.13694315428E+04  0.50400001928E-02 0.  1.
        1   -1    0    0  501    0  0.00000000000E+00  0.00000000000E+00 -0.18715770535E+04  0.18715770535E+04  0.50400001928E-02 0. -1.
    10030    2    1    2    0    0  0.00000000000E+00  0.00000000000E+00 -0.50214551069E+03  0.32410085964E+04  0.32018723597E+04 0.  0.
        2    1    3    3  502    0  0.70135257506E+03 -0.10113017120E+04  0.78534172854E+03  0.14599274701E+04  0.25500000920E-02 0.  1.
       -2    1    3    3    0  502 -0.70135257506E+03  0.10113017120E+04 -0.12874872392E+04  0.17810811263E+04  0.25500000920E-02 0. -1.
</event>
<event>
 5   0  0.5347280E-06  0.2915447E+04  0.7818609E-02  0.8268296E-01
        2   -1    0    0  501    0  0.00000000000E+00  0.00000000000E+00  0.26088508096E+04  0.26088508096E+04  0.25500000920E-02 0. -1.
       -2   -1    0    0    0  501  0.00000000000E+00  0.00000000000E+00 -0.81451884944E+03  0.81451884944E+03  0.25500000920E-02 0.  1.
    10030    2    1    2    0    0  0.00000000000E+00  0.00000000000E+00  0.17943319602E+04  0.34233696590E+04  0.29154472451E+04 0.  0.
        2    1    3    3  502    0  0.12485684325E+04 -0.61219535397E+03  0.14106790052E+04  0.19808385946E+04  0.25500000920E-02 0. -1.
       -2    1    3    3    0  502 -0.12485684325E+04  0.61219535397E+03  0.38365295498E+03  0.14425310645E+04  0.25500000920E-02 0.  1.
</event>
<event>
 5   0  0.5108810E-06  0.3125060E+04  0.7818609E-02  0.8208894E-01
       -2   -1    0    0    0  501  0.00000000000E+00  0.00000000000E+00  0.11331731107E+04  0.11331731107E+04  0.25500000920E-02 0. -1.
        2   -1    0    0  501    0  0.00000000000E+00  0.00000000000E+00 -0.21545697776E+04  0.21545697776E+04  0.25500000920E-02 0.  1.
    10030    2    1    2    0    0  0.00000000000E+00  0.00000000000E+00 -0.10213966670E+04  0.32877428883E+04  0.31250603431E+04 0.  0.
        1    1    3    3  502    0  0.24298492636E+03  0.49397307134E+03  0.10277713242E+04  0.11659180780E+04  0.50400001928E-02 0. -1.
       -1    1    3    3    0  502 -0.24298492636E+03 -0.49397307134E+03 -0.20491679912E+04  0.21218248103E+04  0.50400001928E-02 0.  1.
</event>
<event>
 5   0  0.5373060E-06  0.2933055E+04  0.7818609E-02  0.8263110E-01
       -2   -1    0    0    0  501  0.00000000000E+00  0.00000000000E+00  0.26686977625E+04  0.26686977625E+04  0.25500000920E-02 0. -1.
        2   -1    0    0  501    0  0.00000000000E+00  0.00000000000E+00 -0.80589989424E+03  0.80589989424E+03  0.25500000920E-02 0.  1.
    10030    2    1    2    0    0  0.00000000000E+00  0.00000000000E+00  0.18627978683E+04  0.34745976568E+04  0.29330552293E+04 0.  0.
        5    1    3    3  502    0 -0.94652710571E+03  0.36622185488E+03 -0.32266337070E+03  0.10649721826E+04  0.46999998093E+01 0.  1.
       -5    1    3    3    0  502  0.94652710571E+03 -0.36622185488E+03  0.21854612390E+04  0.24096254742E+04  0.46999998093E+01 0. -1.
</event>
<event>
 5   0  0.5108810E-06  0.3256258E+04  0.7818609E-02  0.8174116E-01
        2   -1    0    0  501    0  0.00000000000E+00  0.00000000000E+00  0.23760509672E+04  0.23760509672E+04  0.25500000920E-02 0.  1.
       -2   -1    0    0    0  501  0.00000000000E+00  0.00000000000E+00 -0.11156341318E+04  0.11156341318E+04  0.25500000920E-02 0. -1.
    10030    2    1    2    0    0  0.00000000000E+00  0.00000000000E+00  0.12604168354E+04  0.34916850989E+04  0.32562577034E+04 0.  0.
        1    1    3    3  502    0 -0.20495770005E+03  0.18356000776E+03 -0.10905245826E+04  0.11246980930E+04  0.50400001928E-02 0. -1.
       -1    1    3    3    0  502  0.20495770005E+03 -0.18356000776E+03  0.23509414180E+04  0.23669870059E+04  0.50400001928E-02 0.  1.
</event>
<event>
 5   0  0.1977015E-06  0.3192715E+04  0.7818609E-02  0.8190744E-01
        1   -1    0    0  501    0  0.00000000000E+00  0.00000000000E+00  0.19775408634E+04  0.19775408634E+04  0.50400001928E-02 0.  1.
       -1   -1    0    0    0  501  0.00000000000E+00  0.00000000000E+00 -0.12886493838E+04  0.12886493838E+04  0.50400001928E-02 0. -1.
    10030    2    1    2    0    0  0.00000000000E+00  0.00000000000E+00  0.68889147963E+03  0.32661902472E+04  0.31927147164E+04 0.  0.
        1    1    3    3  502    0 -0.99204346659E+03  0.70788314336E+02  0.16218597131E+04  0.19025220509E+04  0.50400001928E-02 0.  1.
       -1    1    3    3    0  502  0.99204346659E+03 -0.70788314336E+02 -0.93296823348E+03  0.13636681964E+04  0.50400001928E-02 0. -1.
</event>
<event>
 5   0  0.5373060E-06  0.3118598E+04  0.7818609E-02  0.8210652E-01
        2   -1    0    0  501    0  0.00000000000E+00  0.00000000000E+00  0.18498801278E+04  0.18498801278E+04  0.25500000920E-02 0. -1.
       -2   -1    0    0    0  501  0.00000000000E+00  0.00000000000E+00 -0.13143629671E+04  0.13143629671E+04  0.25500000920E-02 0.  1.
    10030    2    1    2    0    0  0.00000000000E+00  0.00000000000E+00  0.53551716069E+03  0.31642430949E+04  0.31185983605E+04 0.  0.
        5    1    3    3  502    0 -0.39442454508E+03 -0.40260663171E+03 -0.12073875692E+04  0.13324675057E+04  0.46999998093E+01 0.  1.
       -5    1    3    3    0  502  0.39442454508E+03  0.40260663171E+03  0.17429047299E+04  0.18317755892E+04  0.46999998093E+01 0. -1.
</event>
<event>
 5   0  0.5121624E-06  0.3101534E+04  0.7818609E-02  0.8215317E-01
        2   -1    0    0  501    0  0.00000000000E+00  0.00000000000E+00  0.10580788043E+04  0.10580788043E+04  0.25500000920E-02 0.  1.
       -2   -1    0    0    0  501  0.00000000000E+00  0.00000000000E+00 -0.22728720933E+04  0.22728720933E+04  0.25500000920E-02 0. -1.
    10030    2    1    2    0    0  0.00000000000E+00  0.00000000000E+00 -0.12147932891E+04  0.33309508976E+04  0.31015336766E+04 0.  0.
        4    1    3    3  502    0 -0.10447678724E+04  0.63086550928E+03  0.42010879727E+03  0.12907456033E+04  0.12699999809E+01 0.  1.
       -4    1    3    3    0  502  0.10447678724E+04 -0.63086550928E+03 -0.16349020863E+04  0.20402052943E+04  0.12699999809E+01 0. -1.
</event>
<event>
 5   0  0.5121624E-06  0.3265659E+04  0.7818609E-02  0.8171689E-01
       -2   -1    0    0    0  501  0.00000000000E+00  0.00000000000E+00  0.24580422344E+04  0.24580422344E+04  0.25500000920E-02 0. -1.
        2   -1    0    0  501    0  0.00000000000E+00  0.00000000000E+00 -0.10846566890E+04  0.10846566890E+04  0.25500000920E-02 0.  1.
    10030    2    1    2    0    0  0.00000000000E+00  0.00000000000E+00  0.13733855454E+04  0.35426989234E+04  0.32656588624E+04 0.  0.
        4    1    3    3  502    0 -0.29709053242E+03  0.30217378342E+03  0.23973491295E+04  0.24345135534E+04  0.12699999809E+01 0. -1.
       -4    1    3    3    0  502  0.29709053242E+03 -0.30217378342E+03 -0.10239635841E+04  0.11081853700E+04  0.12699999809E+01 0.  1.
</event>
<event>
 5   0  0.1969465E-06  0.3214242E+04  0.7818609E-02  0.8185066E-01
       -1   -1    0    0    0  501  0.00000000000E+00  0.00000000000E+00  0.13013153538E+04  0.13013153538E+04  0.50400001928E-02 0.  1.
        1   -1    0    0  501    0  0.00000000000E+00  0.00000000000E+00 -0.19847903324E+04  0.19847903324E+04  0.50400001928E-02 0. -1.
    10030    2    1    2    0    0  0.00000000000E+00  0.00000000000E+00 -0.68347497864E+03  0.32861056862E+04  0.32142421400E+04 0.  0.
        2    1    3    3  502    0 -0.98545165787E+03 -0.86138450640E+03  0.61171187241E+03  0.14447455322E+04  0.25500000920E-02 0.  1.
       -2    1    3    3    0  502  0.98545165787E+03  0.86138450640E+03 -0.12951868510E+04  0.18413601541E+04  0.25500000920E-02 0. -1.
</event>
<event>
 5   0  0.1881144E-06  0.3143016E+04  0.7818609E-02  0.8204031E-01
       -1   -1    0    0    0  501  0.00000000000E+00  0.00000000000E+00  0.11408165749E+04  0.11408165749E+04  0.50400001928E-02 0. -1.
        1   -1    0    0  501    0  0.00000000000E+00  0.00000000000E+00 -0.21647976874E+04  0.21647976874E+04  0.50400001928E-02 0.  1.
    10030    2    1    2    0    0  0.00000000000E+00  0.00000000000E+00 -0.10239811125E+04  0.33056142623E+04  0.31430158021E+04 0.  0.
        3    1    3    3  502    0 -0.28788185634E+03  0.80486014815E+03  0.87492673141E+03  0.12231813508E+04  0.10100000352E+00 0. -1.
       -3    1    3    3    0  502  0.28788185634E+03 -0.80486014815E+03 -0.18989078439E+04  0.20824329116E+04  0.10100000352E+00 0.  1.
</event>
<event>
 5   0  0.1846850E-06  0.3182966E+04  0.7818609E-02  0.8193330E-01
       -1   -1    0    0    0  501  0.00000000000E+00  0.00000000000E+00  0.13552636942E+04  0.13552636942E+04  0.50400001928E-02 0. -1.
        1   -1    0    0  501    0  0.00000000000E+00  0.00000000000E+00 -0.18688747536E+04  0.18688747536E+04  0.50400001928E-02 0.  1.
    10030    2    1    2    0    0  0.00000000000E+00  0.00000000000E+00 -0.51361105938E+03  0.32241384478E+04  0.31829659769E+04 0.  0.
        5    1    3    3  502    0 -0.12794610519E+03  0.80831141508E+03 -0.16394003573E+04  0.18323190691E+04  0.46999998093E+01 0.  1.
       -5    1    3    3    0  502  0.12794610519E+03 -0.80831141508E+03  0.11257892979E+04  0.13918193787E+04  0.46999998093E+01 0. -1.
</event>
<event>
 5   0  0.5121624E-06  0.3203580E+04  0.7818609E-02  0.8187872E-01
        2   -1    0    0  501    0  0.00000000000E+00  0.00000000000E+00  0.16483489566E+04  0.16483489566E+04  0.25500000920E-02 0.  1.
       -2   -1    0    0    0  501  0.00000000000E+00  0.00000000000E+00 -0.15565458512E+04  0.15565458512E+04  0.25500000920E-02 0. -1.
    10030    2    1    2    0    0  0.00000000000E+00  0.00000000000E+00  0.91803105422E+02  0.32048948077E+04  0.32035797038E+04 0.  0.
        4    1    3    3  502    0  0.15863792118E+04  0.83700363490E+02 -0.15942490533E+03  0.15965658984E+04  0.12699999809E+01 0. -1.
       -4    1    3    3    0  502 -0.15863792118E+04 -0.83700363490E+02  0.25122801075E+03  0.16083289094E+04  0.12699999809E+01 0.  1.
</event>
<event>
 5   0  0.5373060E-06  0.3076249E+04  0.7818609E-02  0.8222286E-01
        2   -1    0    0  501    0  0.00000000000E+00  0.00000000000E+00  0.14065584720E+04  0.14065584720E+04  0.25500000920E-02 0. -1.
       -2   -1    0    0    0  501  0.00000000000E+00  0.00000000000E+00 -0.16819970892E+04  0.16819970892E+04  0.25500000920E-02 0.  1.
    10030    2    1    2    0    0  0.00000000000E+00  0.00000000000E+00 -0.27543861712E+03  0.30885555612E+04  0.30762491809E+04 0.  0.
        5    1    3    3  502    0 -0.10847367513E+04  0.10102337614E+04  0.27450705610E+03  0.15075152689E+04  0.46999998093E+01 0.  1.
       -5    1    3    3    0  502  0.10847367513E+04 -0.10102337614E+04 -0.54994567322E+03  0.15810402923E+04  0.46999998093E+01 0. -1.
</event>
<event>
 5   0  0.5108810E-06  0.3118087E+04  0.7818609E-02  0.8210792E-01
        2   -1    0    0  501    0  0.00000000000E+00  0.00000000000E+00  0.91620666561E+03  0.91620666561E+03  0.25500000920E-02 0.  1.
       -2   -1    0    0    0  501  0.00000000000E+00  0.00000000000E+00 -0.26529133159E+04  0.26529133159E+04  0.25500000920E-02 0. -1.
    10030    2    1    2    0    0  0.00000000000E+00  0.00000000000E+00 -0.17367066503E+04  0.35691199815E+04  0.31180871465E+04 0.  0.
        1    1    3    3  502    0  0.22850209023E+03  0.89685641362E+03 -0.23044460046E+04  0.24833517713E+04  0.50400001928E-02 0. -1.
       -1    1    3    3    0  502 -0.22850209023E+03 -0.89685641362E+03  0.56773935429E+03  0.10857682102E+04  0.50400001928E-02 0.  1.
</event>
<event>
 5   0  0.5108810E-06  0.2413147E+04  0.7818609E-02  0.8434598E-01
       -2   -1    0    0    0  501  0.00000000000E+00  0.00000000000E+00  0.65167140680E+03  0.65167140680E+03  0.25500000920E-02 0. -1.
        2   -1    0    0  501    0  0.00000000000E+00  0.00000000000E+00 -0.22339786946E+04  0.22339786946E+04  0.25500000920E-02 0.  1.
    10030    2    1    2    0    0  0.00000000000E+00  0.00000000000E+00 -0.15823072878E+04  0.28856501014E+04  0.24131473545E+04 0.  0.
        1    1    3    3  502    0  0.66645380120E+03  0.89029430942E+03 -0.23150301686E+03  0.11359481825E+04  0.50400001928E-02 0.  1.
       -1    1    3    3    0  502 -0.66645380120E+03 -0.89029430942E+03 -0.13508042709E+04  0.17497019189E+04  0.50400001928E-02 0. -1.
</event>
<event>
 5   0  0.1729500E-06  0.3259953E+04  0.7818609E-02  0.8173161E-01
       -3   -1    0    0    0  501  0.00000000000E+00  0.00000000000E+00  0.24024198718E+04  0.24024198739E+04  0.10100000352E+00 0. -1.
        3   -1    0    0  501    0  0.00000000000E+00  0.00000000000E+00 -0.11058946050E+04  0.11058946096E+04  0.10100000352E+00 0.  1.
    10030    2    1    2    0    0  0.00000000000E+00  0.00000000000E+00  0.12965252668E+04  0.35083144835E+04  0.32599528751E+04 0.  0.
        2    1    3    3  502    0  0.21111093487E+03  0.11831317524E+04  0.18332669709E+04  0.21920849339E+04  0.25500000920E-02 0. -1.
       -2    1    3    3    0  502 -0.21111093487E+03 -0.11831317524E+04 -0.53674170419E+03  0.13162295497E+04  0.25500000920E-02 0.  1.
</event>
<event>
 5   0  0.1729500E-06  0.3218563E+04  0.7818609E-02  0.8183932E-01
        3   -1    0    0  501    0  0.00000000000E+00  0.00000000000E+00  0.13531089290E+04  0.13531089328E+04  0.10100000352E+00 0.  1.
       -3   -1    0    0    0  501  0.00000000000E+00  0.00000000000E+00 -0.19139530076E+04  0.19139530103E+04  0.10100000352E+00 0. -1.
    10030    2    1    2    0    0  0.00000000000E+00  0.00000000000E+00 -0.56084407859E+03  0.32670619430E+04  0.32185629805E+04 0.  0.
        4    1    3    3  502    0 -0.58818510674E+03  0.40017716451E+03 -0.17456697723E+04  0.18850644683E+04  0.12699999809E+01 0. -1.
       -4    1    3    3    0  502  0.58818510674E+03 -0.40017716451E+03  0.11848256937E+04  0.13819974747E+04  0.12699999809E+01 0.  1.
</event>
<event>
 5   0  0.5121624E-06  0.3219009E+04  0.7818609E-02  0.8183815E-01
       -2   -1    0    0    0  501  0.00000000000E+00  0.00000000000E+00  0.17703713396E+04  0.17703713396E+04  0.25500000920E-02 0.  1.
        2   -1    0    0  501    0  0.00000000000E+00  0.00000000000E+00 -0.14632546714E+04  0.14632546714E+04  0.25500000920E-02 0. -1.
    10030    2    1    2    0    0  0.00000000000E+00  0.00000000000E+00  0.30711666824E+03  0.32336260110E+04  0.32190086255E+04 0.  0.
        4    1    3    3  502    0 -0.57629139120E+03  0.95824433858E+03 -0.10093506837E+04  0.15063646290E+04  0.12699999809E+01 0. -1.
       -4    1    3    3    0  502  0.57629139120E+03 -0.95824433858E+03  0.13164673519E+04  0.17272613820E+04  0.12699999809E+01 0.  1.
</event>
<event>
 5   0  0.1886248E-06  0.3227137E+04  0.7818609E-02  0.8181687E-01
        1   -1    0    0  501    0  0.00000000000E+00  0.00000000000E+00  0.24436372974E+04  0.24436372975E+04  0.50400001928E-02 0.  1.
       -1   -1    0    0    0  501  0.00000000000E+00  0.00000000000E+00 -0.10654621754E+04  0.10654621754E+04  0.50400001928E-02 0. -1.
    10030    2    1    2    0    0  0.00000000000E+00  0.00000000000E+00  0.13781751220E+04  0.35090994729E+04  0.32271368802E+04 0.  0.
        4    1    3    3  502    0  0.12572243769E+04  0.29432748515E+03 -0.36311571282E+03  0.13413040059E+04  0.12699999809E+01 0. -1.
       -4    1    3    3    0  502 -0.12572243769E+04 -0.29432748515E+03  0.17412908348E+04  0.21677954670E+04  0.12699999809E+01 0.  1.
</event>
<event>
 5   0  0.5121624E-06  0.3228575E+04  0.7818609E-02  0.8181311E-01
        2   -1    0    0  501    0  0.00000000000E+00  0.00000000000E+00  0.14497553339E+04  0.14497553339E+04  0.25500000920E-02 0.  1.
       -2   -1    0    0    0  501  0.00000000000E+00  0.00000000000E+00 -0.17974922304E+04  0.17974922304E+04  0.25500000920E-02 0. -1.
    10030    2    1    2    0    0  0.00000000000E+00  0.00000000000E+00 -0.34773689654E+03  0.32472475643E+04  0.32285748860E+04 0.  0.
        4    1    3    3  502    0  0.62677166362E+03 -0.10229853707E+04  0.91246187138E+03  0.15072922963E+04  0.12699999809E+01 0.  1.
       -4    1    3    3    0  502 -0.62677166362E+03  0.10229853707E+04 -0.12601987679E+04  0.17399552679E+04  0.12699999809E+01 0. -1.
</event>
<event>
 5   0  0.1881144E-06  0.3261217E+04  0.7818609E-02  0.8172834E-01
       -1   -1    0    0    0  501  0.00000000000E+00  0.00000000000E+00  0.15583511672E+04  0.15583511672E+04  0.50400001928E-02 0. -1.
        1   -1    0    0  501    0  0.00000000000E+00  0.00000000000E+00 -0.17062159948E+04  0.17062159948E+04  0.50400001928E-02 0.  1.
    10030    2    1    2    0    0  0.00000000000E+00  0.00000000000E+00 -0.14786482767E+03  0.32645671620E+04  0.32612167588E+04 0.  0.
        3    1    3    3  502    0  0.10965055008E+04  0.12046473453E+04 -0.48035162534E+00  0.16289566540E+04  0.10100000352E+00 0.  1.
       -3    1    3    3    0  502 -0.10965055008E+04 -0.12046473453E+04 -0.14738447604E+03  0.16356105080E+04  0.10100000352E+00 0. -1.
</event>
<event>
 5   0  0.1886248E-06  0.2589692E+04  0.7818609E-02  0.8371711E-01
        1   -1    0    0  501    0  0.00000000000E+00  0.00000000000E+00  0.19483865114E+04  0.19483865114E+04  0.50400001928E-02 0. -1.
       -1   -1    0    0    0  501  0.00000000000E+00  0.00000000000E+00 -0.86052008424E+03  0.86052008425E+03  0.50400001928E-02 0.  1.
    10030    2    1    2    0    0  0.00000000000E+00  0.00000000000E+00  0.10878664272E+04  0.28089065957E+04  0.25896916611E+04 0.  0.
        4    1    3    3  502    0 -0.10167572185E+04 -0.89221236288E+02  0.14081667387E+04  0.17391638356E+04  0.12699999809E+01 0. -1.
       -4    1    3    3    0  502  0.10167572185E+04  0.89221236288E+02 -0.32030031149E+03  0.10697427601E+04  0.12699999809E+01 0.  1.
</event>
<event>
 5   0  0.1969465E-06  0.3176390E+04  0.7818609E-02  0.8195080E-01
       -1   -1    0    0    0  501  0.00000000000E+00  0.00000000000E+00  0.20893643181E+04  0.20893643181E+04  0.50400001928E-02 0. -1.
        1   -1    0    0  501    0  0.00000000000E+00  0.00000000000E+00 -0.12072399576E+04  0.12072399576E+04  0.50400001928E-02 0.  1.
    10030    2    1    2    0    0  0.00000000000E+00  0.00000000000E+00  0.88212436052E+03  0.32966042757E+04  0.31763904614E+04 0.  0.
        2    1    3    3  502    0 -0.14456208598E+04  0.35122334480E+03 -0.13602742795E+03  0.14938811765E+04  0.25500000920E-02 0.  1.
       -2    1    3    3    0  502  0.14456208598E+04 -0.35122334480E+03  0.10181517885E+04  0.18027230993E+04  0.25500000920E-02 0. -1.
</event>
<event>
 5   0  0.5108810E-06  0.3200161E+04  0.7818609E-02  0.8188775E-01
       -2   -1    0    0    0  501  0.00000000000E+00  0.00000000000E+00  0.13010715787E+04  0.13010715787E+04  0.25500000920E-02 0. -1.
        2   -1    0    0  501    0  0.00000000000E+00  0.00000000000E+00 -0.19678074117E+04  0.19678074117E+04  0.25500000920E-02 0.  1.
    10030    2    1    2    0    0  0.00000000000E+00  0.00000000000E+00 -0.66673583300E+03  0.32688789904E+04  0.32001614307E+04 0.  0.
        1    1    3    3  502    0  0.10674514367E+03 -0.13646347945E+04 -0.11797961290E+04  0.18070809484E+04  0.50400001928E-02 0.  1.
       -1    1    3    3    0  502 -0.10674514367E+03  0.13646347945E+04  0.51306029604E+03  0.14617980419E+04  0.50400001928E-02 0. -1.
</event>
<event>
 5   0  0.1881144E-06  0.3172298E+04  0.7818609E-02  0.8196172E-01
        1   -1    0    0  501    0  0.00000000000E+00  0.00000000000E+00  0.14122705845E+04  0.14122705845E+04  0.50400001928E-02 0. -1.
       -1   -1    0    0    0  501  0.00000000000E+00  0.00000000000E+00 -0.17814357289E+04  0.17814357289E+04  0.50400001928E-02 0.  1.
    10030    2    1    2    0    0  0.00000000000E+00  0.00000000000E+00 -0.36916514440E+03  0.31937063134E+04  0.31722983959E+04 0.  0.
        3    1    3    3  502    0  0.42634784235E+02 -0.38761295958E+03  0.13632608293E+04  0.14179356932E+04  0.10100000352E+00 0. -1.
       -3    1    3    3    0  502 -0.42634784235E+02  0.38761295958E+03 -0.17324259737E+04  0.17757706202E+04  0.10100000352E+00 0.  1.
</event>
<event>
 5   0  0.5108810E-06  0.3232101E+04  0.7818609E-02  0.8180391E-01
        2   -1    0    0  501    0  0.00000000000E+00  0.00000000000E+00  0.22244618506E+04  0.22244618506E+04  0.25500000920E-02 0.  1.
       -2   -1    0    0    0  501  0.00000000000E+00  0.00000000000E+00 -0.11740452243E+04  0.11740452243E+04  0.25500000920E-02 0. -1.
    10030    2    1    2    0    0  0.00000000000E+00  0.00000000000E+00  0.10504166263E+04  0.33985070750E+04  0.32321007487E+04 0.  0.
        1    1    3    3  502    0 -0.95186285199E+03 -0.12398514993E+04  0.93786255544E+02  0.15659088387E+04  0.50400001928E-02 0. -1.
       -1    1    3    3    0  502  0.95186285199E+03  0.12398514993E+04  0.95663037076E+03  0.18325982363E+04  0.50400001928E-02 0.  1.
</event>
<event>
 5   0  0.5347280E-06  0.3211891E+04  0.7818609E-02  0.8185684E-01
        2   -1    0    0  501    0  0.00000000000E+00  0.00000000000E+00  0.18211538616E+04  0.18211538616E+04  0.25500000920E-02 0.  1.
       -2   -1    0    0    0  501  0.00000000000E+00  0.00000000000E+00 -0.14161685446E+04  0.14161685446E+04  0.25500000920E-02 0. -1.
    10030    2    1    2    0    0  0.00000000000E+00  0.00000000000E+00  0.40498531697E+03  0.32373224062E+04  0.32118909157E+04 0.  0.
        2    1    3    3  502    0 -0.11218274601E+04  0.45235113957E+03  0.12672387570E+04  0.17518597178E+04  0.25500000920E-02 0.  1.
       -2    1    3    3    0  502  0.11218274601E+04 -0.45235113957E+03 -0.86225344001E+03  0.14854626884E+04  0.25500000920E-02 0. -1.
</event>
<event>
 5   0  0.5121624E-06  0.3378680E+04  0.7818609E-02  0.8143159E-01
       -2   -1    0    0    0  501  0.00000000000E+00  0.00000000000E+00  0.12773176243E+04  0.12773176243E+04  0.25500000920E-02 0.  1.
        2   -1    0    0  501    0  0.00000000000E+00  0.00000000000E+00 -0.22342676750E+04  0.22342676750E+04  0.25500000920E-02 0. -1.
    10030    2    1    2    0    0  0.00000000000E+00  0.00000000000E+00 -0.95695005074E+03  0.35115852993E+04  0.33786799071E+04 0.  0.
        4    1    3    3  502    0 -0.37904597357E+03  0.87201897831E+03  0.97279562599E+03  0.13603036027E+04  0.12699999809E+01 0.  1.
       -4    1    3    3    0  502  0.37904597357E+03 -0.87201897831E+03 -0.19297456767E+04  0.21512816966E+04  0.12699999809E+01 0. -1.
</event>
<event>
 5   0  0.1886248E-06  0.3203508E+04  0.7818609E-02  0.8187891E-01
        1   -1    0    0  501    0  0.00000000000E+00  0.00000000000E+00  0.12376317965E+04  0.12376317965E+04  0.50400001928E-02 0. -1.
       -1   -1    0    0    0  501  0.00000000000E+00  0.00000000000E+00 -0.20730042529E+04  0.20730042529E+04  0.50400001928E-02 0.  1.
    10030    2    1    2    0    0  0.00000000000E+00  0.00000000000E+00 -0.83537245645E+03  0.33106360494E+04  0.32035080632E+04 0.  0.
        4    1    3    3  502    0 -0.37540244322E+03  0.11814154715E+04 -0.14659767718E+04  0.19198330706E+04  0.12699999809E+01 0.  1.
       -4    1    3    3    0  502  0.37540244322E+03 -0.11814154715E+04  0.63060431531E+03  0.13908029789E+04  0.12699999809E+01 0. -1.
</event>
<event>
 5   0  0.1977015E-06  0.2437560E+04  0.7818609E-02  0.8425574E-01
       -1   -1    0    0    0  501  0.00000000000E+00  0.00000000000E+00  0.12931417830E+04  0.12931417830E+04  0.50400001928E-02 0. -1.
        1   -1    0    0  501    0  0.00000000000E+00  0.00000000000E+00 -0.11486939199E+04  0.11486939199E+04  0.50400001928E-02 0.  1.
    10030    2    1    2    0    0  0.00000000000E+00  0.00000000000E+00  0.14444786308E+03  0.24418357030E+04  0.24375595203E+04 0.  0.
        1    1    3    3  502    0  0.68777393135E+03  0.33383863166E+03  0.10230691825E+04  0.12771655198E+04  0.50400001928E-02 0. -1.
       -1    1    3    3    0  502 -0.68777393135E+03 -0.33383863166E+03 -0.87862131945E+03  0.11646701832E+04  0.50400001928E-02 0.  1.
</event>
<event>
 5   0  0.5121624E-06  0.3132994E+04  0.7818609E-02  0.8206741E-01
       -2   -1    0    0    0  501  0.00000000000E+00  0.00000000000E+00  0.15656735942E+04  0.15656735942E+04  0.25500000920E-02 0. -1.
        2   -1    0    0  501    0  0.00000000000E+00  0.00000000000E+00 -0.15673205691E+04  0.15673205691E+04  0.25500000920E-02 0.  1.
    10030    2    1    2    0    0  0.00000000000E+00  0.00000000000E+00 -0.16469749483E+01  0.31329941633E+04  0.31329937304E+04 0.  0.
        4    1    3    3  502    0  0.15371777229E+04 -0.18162348685E+03 -0.24167279532E+03  0.15666236930E+04  0.12699999809E+01 0. -1.
       -4    1    3    3    0  502 -0.15371777229E+04  0.18162348685E+03  0.24002582037E+03  0.15663704702E+04  0.12699999809E+01 0.  1.
</event>
<event>
 5   0  0.5131083E-06  0.2918352E+04  0.7818609E-02  0.8267438E-01
       -2   -1    0    0    0  501  0.00000000000E+00  0.00000000000E+00  0.21691941853E+04  0.21691941853E+04  0.25500000920E-02 0.  1.
        2   -1    0    0  501    0  0.00000000000E+00  0.00000000000E+00 -0.98156028302E+03  0.98156028303E+03  0.25500000920E-02 0. -1.
    10030    2    1    2    0    0  0.00000000000E+00  0.00000000000E+00  0.11876339023E+04  0.31507544683E+04  0.29183521778E+04 0.  0.
        3    1    3    3  502    0 -0.32728885643E+03 -0.64297312712E+03  0.19631507180E+04  0.20915289119E+04  0.10100000352E+00 0.  1.
       -3    1    3    3    0  502  0.32728885643E+03  0.64297312712E+03 -0.77551681569E+03  0.10592255564E+04  0.10100000352E+00 0. -1.
</event>
<event>
 5   0  0.1969465E-06  0.3194170E+04  0.7818609E-02  0.8190358E-01
        1   -1    0    0  501    0  0.00000000000E+00  0.00000000000E+00  0.23880547212E+04  0.23880547212E+04  0.50400001928E-02 0.  1.
       -1   -1    0    0    0  501  0.00000000000E+00  0.00000000000E+00 -0.10680998516E+04  0.10680998517E+04  0.50400001928E-02 0. -1.
    10030    2    1    2    0    0  0.00000000000E+00  0.00000000000E+00  0.13199548695E+04  0.34561545728E+04  0.31941702481E+04 0.  0.
        2    1    3    3  502    0 -0.81953366599E+02 -0.15817271240E+04  0.88199941519E+03  0.18128706566E+04  0.25500000920E-02 0.  1.
       -2    1    3    3    0  502  0.81953366599E+02  0.15817271240E+04  0.43795545434E+03  0.16432839162E+04  0.25500000920E-02 0. -1.
</event>
<event>
 5   0  0.1881144E-06  0.3164395E+04  0.7818609E-02  0.8198284E-01
        1   -1    0    0  501    0  0.00000000000E+00  0.00000000000E+00  0.20867001937E+04  0.20867001937E+04  0.50400001928E-02 0. -1.
       -1   -1    0    0    0  501  0.00000000000E+00  0.00000000000E+00 -0.11996690811E+04  0.11996690811E+04  0.50400001928E-02 0.  1.
    10030    2    1    2    0    0  0.00000000000E+00  0.00000000000E+00  0.88703111261E+03  0.32863692748E+04  0.31643954898E+04 0.  0.
        3    1    3    3  502    0  0.91686322124E+03 -0.12389478363E+04  0.81467002693E+03  0.17433637517E+04  0.10100000352E+00 0. -1.
       -3    1    3    3    0  502 -0.91686322124E+03  0.12389478363E+04  0.72361085683E+02  0.15430055232E+04  0.10100000352E+00 0.  1.
</event>
<event>
 5   0  0.5347280E-06  0.3197144E+04  0.7818609E-02  0.8189572E-01
       -2   -1    0    0    0  501  0.00000000000E+00  0.00000000000E+00  0.21662067052E+04  0.21662067052E+04  0.25500000920E-02 0.  1.
        2   -1    0    0  501    0  0.00000000000E+00  0.00000000000E+00 -0.11796811093E+04  0.11796811093E+04  0.25500000920E-02 0. -1.
    10030    2    1    2    0    0  0.00000000000E+00  0.00000000000E+00  0.98652559592E+03  0.33458878145E+04  0.31971444315E+04 0.  0.
        2    1    3    3  502    0  0.32834809767E+03 -0.12260182954E+04  0.15103309453E+04  0.19728235851E+04  0.25500000920E-02 0.  1.
       -2    1    3    3    0  502 -0.32834809767E+03  0.12260182954E+04 -0.52380534934E+03  0.13730642293E+04  0.25500000920E-02 0. -1.
</event>
<event>
 5   0  0.5121624E-06  0.3230945E+04  0.7818609E-02  0.8180692E-01
       -2   -1    0    0    0  501  0.00000000000E+00  0.00000000000E+00  0.13248967209E+04  0.13248967209E+04  0.25500000920E-02 0. -1.
        2   -1    0    0  501    0  0.00000000000E+00  0.00000000000E+00 -0.19697772140E+04  0.19697772140E+04  0.25500000920E-02 0.  1.
    10030    2    1    2    0    0  0.00000000000E+00  0.00000000000E+00 -0.64488049313E+03  0.32946739349E+04  0.32309449836E+04 0.  0.
        4    1    3    3  502    0  0.10486850049E+04 -0.16298506080E+03  0.91955135378E+03  0.14042366876E+04  0.12699999809E+01 0. -1.
       -4    1    3    3    0  502 -0.10486850049E+04  0.16298506080E+03 -0.15644318469E+04  0.18904372473E+04  0.12699999809E+01 0.  1.
</event>
<event>
 5   0  0.1977015E-06  0.3193598E+04  0.7818609E-02  0.8190510E-01
        1   -1    0    0  501    0  0.00000000000E+00  0.00000000000E+00  0.17858716163E+04  0.17858716163E+04  0.50400001928E-02 0. -1.
       -1   -1    0    0    0  501  0.00000000000E+00  0.00000000000E+00 -0.14277436675E+04  0.14277436675E+04  0.50400001928E-02 0.  1.
    10030    2    1    2    0    0  0.00000000000E+00  0.00000000000E+00  0.35812794885E+03  0.32136152839E+04  0.31935979028E+04 0.  0.
        1    1    3    3  502    0 -0.97750400540E+02  0.94418690509E+03 -0.11130102915E+04  0.14628178156E+04  0.50400001928E-02 0.  1.
       -1    1    3    3    0  502  0.97750400540E+02 -0.94418690509E+03  0.14711382404E+04  0.17507974683E+04  0.50400001928E-02 0. -1.
</event>
<event>
 5   0  0.1977015E-06  0.3247694E+04  0.7818609E-02  0.8176334E-01
       -1   -1    0    0    0  501  0.00000000000E+00  0.00000000000E+00  0.13457606613E+04  0.13457606613E+04  0.50400001928E-02 0.  1.
        1   -1    0    0  501    0  0.00000000000E+00  0.00000000000E+00 -0.19593965495E+04  0.19593965495E+04  0.50400001928E-02 0. -1.
    10030    2    1    2    0    0  0.00000000000E+00  0.00000000000E+00 -0.61363588816E+03  0.33051572108E+04  0.32476938256E+04 0.  0.
        1    1    3    3  502    0 -0.91254298407E+03  0.64843615684E+03  0.89029198803E+03  0.14303230304E+04  0.50400001928E-02 0.  1.
       -1    1    3    3    0  502  0.91254298407E+03 -0.64843615684E+03 -0.15039278762E+04  0.18748341804E+04  0.50400001928E-02 0. -1.
</event>
<event>
 5   0  0.5131083E-06  0.3210750E+04  0.7818609E-02  0.8185984E-01
        2   -1    0    0  501    0  0.00000000000E+00  0.00000000000E+00  0.22274314928E+04  0.22274314928E+04  0.25500000920E-02 0. -1.
       -2   -1    0    0    0  501  0.00000000000E+00  0.00000000000E+00 -0.11570406387E+04  0.11570406387E+04  0.25500000920E-02 0.  1.
    10030    2    1    2    0    0  0.00000000000E+00  0.00000000000E+00  0.10703908541E+04  0.33844721315E+04  0.32107499168E+04 0.  0.
        3    1    3    3  502    0  0.13297955679E+04  0.88631784467E+03  0.69614326649E+03  0.17431382710E+04  0.10100000352E+00 0. -1.
       -3    1    3    3    0  502 -0.13297955679E+04 -0.88631784467E+03  0.37424758764E+03  0.16413338604E+04  0.10100000352E+00 0.  1.
</event>
<event>
 5   0  0.1886248E-06  0.3179955E+04  0.7818609E-02  0.8194131E-01
       -1   -1    0    0    0  501  0.00000000000E+00  0.00000000000E+00  0.13491910375E+04  0.13491910375E+04  0.50400001928E-02 0. -1.
        1   -1    0    0  501    0  0.00000000000E+00  0.00000000000E+00 -0.18737365673E+04  0.18737365673E+04  0.50400001928E-02 0.  1.
    10030    2    1    2    0    0  0.00000000000E+00  0.00000000000E+00 -0.52454552978E+03  0.32229276048E+04  0.31799550834E+04 0.  0.
        4    1    3    3  502    0 -0.50877744169E+03 -0.55405058547E+03  0.11574424881E+04  0.13803989505E+04  0.12699999809E+01 0. -1.
       -4    1    3    3    0  502  0.50877744169E+03  0.55405058547E+03 -0.16819880179E+04  0.18425286542E+04  0.12699999809E+01 0.  1.
</event>
<event>
 5   0  0.1881144E-06  0.3164770E+04  0.7818609E-02  0.8198184E-01
        1   -1    0    0  501    0  0.00000000000E+00  0.00000000000E+00  0.14377697859E+04  0.14377697859E+04  0.50400001928E-02 0. -1.
       -1   -1    0    0    0  501  0.00000000000E+00  0.00000000000E+00 -0.17415459029E+04  0.17415459029E+04  0.50400001928E-02 0.  1.
    10030    2    1    2    0    0  0.00000000000E+00  0.00000000000E+00 -0.30377611697E+03  0.31793156888E+04  0.31647698684E+04 0.  0.
        3    1    3    3  502    0 -0.85372673512E+03  0.13105766788E+03 -0.14838464370E+04  0.17169233266E+04  0.10100000352E+00 0.  1.
       -3    1    3    3    0  502  0.85372673512E+03 -0.13105766788E+03  0.11800703200E+04  0.14623923622E+04  0.10100000352E+00 0. -1.
</event>
<event>
 5   0  0.1977015E-06  0.2746764E+04  0.7818609E-02  0.8319989E-01
       -1   -1    0    0    0  501  0.00000000000E+00  0.00000000000E+00  0.13771629246E+04  0.13771629246E+04  0.50400001928E-02 0.  1.
        1   -1    0    0  501    0  0.00000000000E+00  0.00000000000E+00 -0.13696118425E+04  0.13696118425E+04  0.50400001928E-02 0. -1.
    10030    2    1    2    0    0  0.00000000000E+00  0.00000000000E+00  0.75510821674E+01  0.27467747671E+04  0.27467643879E+04 0.  0.
        1    1    3    3  502    0 -0.20781374261E+03  0.33820974182E+03  0.13185452294E+04  0.13770017804E+04  0.50400001928E-02 0.  1.
       -1    1    3    3    0  502  0.20781374261E+03 -0.33820974182E+03 -0.13109941473E+04  0.13697729868E+04  0.50400001928E-02 0. -1.
</event>
<event>
 5   0  0.1881144E-06  0.3146758E+04  0.7818609E-02  0.8203021E-01
       -1   -1    0    0    0  501  0.00000000000E+00  0.00000000000E+00  0.22362972550E+04  0.22362972550E+04  0.50400001928E-02 0. -1.
        1   -1    0    0  501    0  0.00000000000E+00  0.00000000000E+00 -0.11069735163E+04  0.11069735163E+04  0.50400001928E-02 0.  1.
    10030    2    1    2    0    0  0.00000000000E+00  0.00000000000E+00  0.11293237387E+04  0.33432707713E+04  0.31467582277E+04 0.  0.
        3    1    3    3  502    0 -0.17312514536E+03  0.13881451286E+04  0.13297747702E+04  0.19300829422E+04  0.10100000352E+00 0. -1.
       -3    1    3    3    0  502  0.17312514536E+03 -0.13881451286E+04 -0.20045103154E+03  0.14131878291E+04  0.10100000352E+00 0.  1.
</event>
<event>
 5   0  0.5373060E-06  0.2900380E+04  0.7818609E-02  0.8272764E-01
        2   -1    0    0  501    0  0.00000000000E+00  0.00000000000E+00  0.22324664236E+04  0.22324664236E+04  0.25500000920E-02 0. -1.
       -2   -1    0    0    0  501  0.00000000000E+00  0.00000000000E+00 -0.94203034744E+03  0.94203034744E+03  0.25500000920E-02 0.  1.
    10030    2    1    2    0    0  0.00000000000E+00  0.00000000000E+00  0.12904360761E+04  0.31744967710E+04  0.29003800583E+04 0.  0.
        5    1    3    3  502    0  0.88793243137E+03  0.80600085931E+03 -0.24730664550E+03  0.12244362192E+04  0.46999998093E+01 0.  1.
       -5    1    3    3    0  502 -0.88793243137E+03 -0.80600085931E+03  0.15377427216E+04  0.19500605518E+04  0.46999998093E+01 0. -1.
</event>
<event>
 5   0  0.1886248E-06  0.3217338E+04  0.7818609E-02  0.8184253E-01
        1   -1    0    0  501    0  0.00000000000E+00  0.00000000000E+00  0.19501928229E+04  0.19501928229E+04  0.50400001928E-02 0.  1.
       -1   -1    0    0    0  501  0.00000000000E+00  0.00000000000E+00 -0.13269542833E+04  0.13269542833E+04  0.50400001928E-02 0. -1.
    10030    2    1    2    0    0  0.00000000000E+00  0.00000000000E+00  0.62323853963E+03  0.32771471062E+04  0.32173384774E+04 0.  0.
        4    1    3    3  502    0  0.14165934115E+03 -0.15256480999E+04  0.81077551870E+03  0.17335016724E+04  0.12699999809E+01 0.  1.
       -4    1    3    3    0  502 -0.14165934115E+03  0.15256480999E+04 -0.18753697907E+03  0.15436454337E+04  0.12699999809E+01 0. -1.
</event>
<event>
 5   0  0.1977015E-06  0.2954955E+04  0.7818609E-02  0.8256712E-01
       -1   -1    0    0    0  501  0.00000000000E+00  0.00000000000E+00  0.12282381802E+04  0.12282381802E+04  0.50400001928E-02 0.  1.
        1   -1    0    0  501    0  0.00000000000E+00  0.00000000000E+00 -0.17772938609E+04  0.17772938609E+04  0.50400001928E-02 0. -1.
    10030    2    1    2    0    0  0.00000000000E+00  0.00000000000E+00 -0.54905568072E+03  0.30055320411E+04  0.29549552805E+04 0.  0.
        1    1    3    3  502    0 -0.47444730150E+03 -0.78987490144E+03 -0.14492582266E+04  0.17173677560E+04  0.50400001928E-02 0. -1.
       -1    1    3    3    0  502  0.47444730150E+03  0.78987490144E+03  0.90020254589E+03  0.12881642851E+04  0.50400001928E-02 0.  1.
</event>
<event>
 5   0  0.1881144E-06  0.2075785E+04  0.7818609E-02  0.8571986E-01
        1   -1    0    0  501    0  0.00000000000E+00  0.00000000000E+00  0.18091254767E+04  0.18091254768E+04  0.50400001928E-02 0. -1.
       -1   -1    0    0    0  501  0.00000000000E+00  0.00000000000E+00 -0.59543736140E+03  0.59543736142E+03  0.50400001928E-02 0.  1.
    10030    2    1    2    0    0  0.00000000000E+00  0.00000000000E+00  0.12136881154E+04  0.24045628382E+04  0.20757850566E+04 0.  0.
        3    1    3    3  502    0 -0.33279644638E+02  0.23815322189E+03 -0.56272345731E+03  0.61194950074E+03  0.10100000352E+00 0.  1.
       -3    1    3    3    0  502  0.33279644638E+02 -0.23815322189E+03  0.17764115727E+04  0.17926133374E+04  0.10100000352E+00 0. -1.
</event>
<event>
 5   0  0.5373060E-06  0.3172184E+04  0.7818609E-02  0.8196202E-01
       -2   -1    0    0    0  501  0.00000000000E+00  0.00000000000E+00  0.18842123246E+04  0.18842123246E+04  0.25500000920E-02 0.  1.
        2   -1    0    0  501    0  0.00000000000E+00  0.00000000000E+00 -0.13351401179E+04  0.13351401179E+04  0.25500000920E-02 0. -1.
    10030    2    1    2    0    0  0.00000000000E+00  0.00000000000E+00  0.54907220669E+03  0.32193524426E+04  0.31721837685E+04 0.  0.
        5    1    3    3  502    0  0.12794637044E+03 -0.91706206514E+03  0.15814311858E+04  0.18325719059E+04  0.46999998093E+01 0.  1.
       -5    1    3    3    0  502 -0.12794637044E+03  0.91706206514E+03 -0.10323589791E+04  0.13867805366E+04  0.46999998093E+01 0. -1.
</event>
<event>
 5   0  0.5121624E-06  0.3232768E+04  0.7818609E-02  0.8180216E-01
        2   -1    0    0  501    0  0.00000000000E+00  0.00000000000E+00  0.11838449114E+04  0.11838449114E+04  0.25500000920E-02 0. -1.
       -2   -1    0    0    0  501  0.00000000000E+00  0.00000000000E+00 -0.22069589087E+04  0.22069589087E+04  0.25500000920E-02 0.  1.
    10030    2    1    2    0    0  0.00000000000E+00  0.00000000000E+00 -0.10231139973E+04  0.33908038201E+04  0.32327678999E+04 0.  0.
        4    1    3    3  502    0  0.10502336081E+04 -0.45927822105E+03  0.68378997443E+03  0.13347274845E+04  0.12699999809E+01 0. -1.
       -4    1    3    3    0  502 -0.10502336081E+04  0.45927822105E+03 -0.17069039717E+04  0.20560763355E+04  0.12699999809E+01 0.  1.
</event>
<event>
 5   0  0.1846850E-06  0.3180615E+04  0.7818609E-02  0.8193956E-01
       -1   -1    0    0    0  501  0.00000000000E+00  0.00000000000E+00  0.93697918201E+03  0.93697918203E+03  0.50400001928E-02 0.  1.
        1   -1    0    0  501    0  0.00000000000E+00  0.00000000000E+00 -0.26991822578E+04  0.26991822578E+04  0.50400001928E-02 0. -1.
    10030    2    1    2    0    0  0.00000000000E+00  0.00000000000E+00 -0.17622030758E+04  0.36361614399E+04  0.31806147733E+04 0.  0.
        5    1    3    3  502    0  0.62624649180E+03 -0.11950503668E+04 -0.18435358509E+04  0.22845079495E+04  0.46999998093E+01 0. -1.
       -5    1    3    3    0  502 -0.62624649180E+03  0.11950503668E+04  0.81332775082E+02  0.13516534904E+04  0.46999998093E+01 0.  1.
</event>
<event>
 5   0  0.5121624E-06  0.3225996E+04  0.7818609E-02  0.8181985E-01
        2   -1    0    0  501    0  0.00000000000E+00  0.00000000000E+00  0.16549912873E+04  0.16549912873E+04  0.25500000920E-02 0.  1.
       -2   -1    0    0    0  501  0.00000000000E+00  0.00000000000E+00 -0.15720698967E+04  0.15720698967E+04  0.25500000920E-02 0. -1.
    10030    2    1    2    0    0  0.00000000000E+00  0.00000000000E+00  0.82921390635E+02  0.32270611839E+04  0.32259956491E+04 0.  0.
        4    1    3    3  502    0  0.99866775122E+03  0.97647964109E+03 -0.76559609339E+03  0.15927927542E+04  0.12699999809E+01 0. -1.
       -4    1    3    3    0  502 -0.99866775122E+03 -0.97647964109E+03  0.84851748403E+03  0.16342684297E+04  0.12699999809E+01 0.  1.
</event>
<event>
 5   0  0.1881144E-06  0.3248273E+04  0.7818609E-02  0.8176183E-01
        1   -1    0    0  501    0  0.00000000000E+00  0.00000000000E+00  0.14463592998E+04  0.14463592998E+04  0.50400001928E-02 0. -1.
       -1   -1    0    0    0  501  0.00000000000E+00  0.00000000000E+00 -0.18237650764E+04  0.18237650764E+04  0.50400001928E-02 0.  1.
    10030    2    1    2    0    0  0.00000000000E+00  0.00000000000E+00 -0.37740577655E+03  0.32701243762E+04  0.32482731282E+04 0.  0.
        3    1    3    3  502    0 -0.53421797541E+03 -0.90251456665E+03  0.10597596725E+04  0.14909768482E+04  0.10100000352E+00 0. -1.
       -3    1    3    3    0  502  0.53421797541E+03  0.90251456665E+03 -0.14371654490E+04  0.17791475280E+04  0.10100000352E+00 0.  1.
</event>
<event>
 5   0  0.5347280E-06  0.3256053E+04  0.7818609E-02  0.8174169E-01
       -2   -1    0    0    0  501  0.00000000000E+00  0.00000000000E+00  0.17053382282E+04  0.17053382282E+04  0.25500000920E-02 0.  1.
        2   -1    0    0  501    0  0.00000000000E+00  0.00000000000E+00 -0.15542200242E+04  0.15542200242E+04  0.25500000920E-02 0. -1.
    10030    2    1    2    0    0  0.00000000000E+00  0.00000000000E+00  0.15111820401E+03  0.32595582524E+04  0.32560533302E+04 0.  0.
        2    1    3    3  502    0  0.75027176298E+03 -0.73185988936E+03  0.13226706173E+04  0.16875971610E+04  0.25500000920E-02 0.  1.
       -2    1    3    3    0  502 -0.75027176298E+03  0.73185988936E+03 -0.11715524133E+04  0.15719610914E+04  0.25500000920E-02 0. -1.
</event>
<event>
 5   0  0.5108810E-06  0.3233745E+04  0.7818609E-02  0.8179962E-01
        2   -1    0    0  501    0  0.00000000000E+00  0.00000000000E+00  0.33538619094E+04  0.33538619094E+04  0.25500000920E-02 0.  1.
       -2   -1    0    0    0  501  0.00000000000E+00  0.00000000000E+00 -0.77948267073E+03  0.77948267074E+03  0.25500000920E-02 0. -1.
    10030    2    1    2    0    0  0.00000000000E+00  0.00000000000E+00  0.25743792386E+04  0.41333445801E+04  0.32337453446E+04 0.  0.
        1    1    3    3  502    0 -0.38867346050E+03  0.15540316070E+04  0.10065809783E+04  0.18919002512E+04  0.50400001928E-02 0. -1.
       -1    1    3    3    0  502  0.38867346050E+03 -0.15540316070E+04  0.15677982604E+04  0.22414443289E+04  0.50400001928E-02 0.  1.
</event>
<event>
 5   0  0.1886248E-06  0.3235537E+04  0.7818609E-02  0.8179494E-01
       -1   -1    0    0    0  501  0.00000000000E+00  0.00000000000E+00  0.14935842221E+04  0.14935842221E+04  0.50400001928E-02 0.  1.
        1   -1    0    0  501    0  0.00000000000E+00  0.00000000000E+00 -0.17522780896E+04  0.17522780896E+04  0.50400001928E-02 0. -1.
    10030    2    1    2    0    0  0.00000000000E+00  0.00000000000E+00 -0.25869386753E+03  0.32458623117E+04  0.32355369924E+04 0.  0.
        4    1    3    3  502    0  0.10975178937E+04  0.95465520837E+03  0.58091046865E+03  0.15663239382E+04  0.12699999809E+01 0.  1.
       -4    1    3    3    0  502 -0.10975178937E+04 -0.95465520837E+03 -0.83960433619E+03  0.16795383735E+04  0.12699999809E+01 0. -1.
</event>
<event>
 5   0  0.5108810E-06  0.2969660E+04  0.7818609E-02  0.8252448E-01
       -2   -1    0    0    0  501  0.00000000000E+00  0.00000000000E+00  0.95793236684E+03  0.95793236684E+03  0.25500000920E-02 0.  1.
        2   -1    0    0  501    0  0.00000000000E+00  0.00000000000E+00 -0.23015401270E+04  0.23015401270E+04  0.25500000920E-02 0. -1.
    10030    2    1    2    0    0  0.00000000000E+00  0.00000000000E+00 -0.13436077602E+04  0.32594724939E+04  0.29696597659E+04 0.  0.
        1    1    3    3  502    0  0.14412425284E+04 -0.35533913534E+03 -0.63262964513E+03  0.16135879879E+04  0.50400001928E-02 0.  1.
       -1    1    3    3    0  502 -0.14412425284E+04  0.35533913534E+03 -0.71097811507E+03  0.16458845060E+04  0.50400001928E-02 0. -1.
</event>
<event>
 5   0  0.1969465E-06  0.3108985E+04  0.7818609E-02  0.8213276E-01
       -1   -1    0    0    0  501  0.00000000000E+00  0.00000000000E+00  0.13785480774E+04  0.13785480774E+04  0.50400001928E-02 0. -1.
        1   -1    0    0  501    0  0.00000000000E+00  0.00000000000E+00 -0.17528925373E+04  0.17528925373E+04  0.50400001928E-02 0.  1.
    10030    2    1    2    0    0  0.00000000000E+00  0.00000000000E+00 -0.37434445992E+03  0.31314406147E+04  0.31089848100E+04 0.  0.
        2    1    3    3  502    0 -0.13962491963E+04 -0.55826664296E+03 -0.58406555563E+03  0.16131664626E+04  0.25500000920E-02 0.  1.
       -2    1    3    3    0  502  0.13962491963E+04  0.55826664296E+03  0.20972109572E+03  0.15182741521E+04  0.25500000920E-02 0. -1.
</event>
<event>
 5   0  0.5121624E-06  0.3128488E+04  0.7818609E-02  0.8207963E-01
       -2   -1    0    0    0  501  0.00000000000E+00  0.00000000000E+00  0.14455811069E+04  0.14455811069E+04  0.25500000920E-02 0. -1.
        2   -1    0    0  501    0  0.00000000000E+00  0.00000000000E+00 -0.16926477485E+04  0.16926477485E+04  0.25500000920E-02 0.  1.
    10030    2    1    2    0    0  0.00000000000E+00  0.00000000000E+00 -0.24706664160E+03  0.31382288553E+04  0.31284882009E+04 0.  0.
        4    1    3    3  502    0 -0.44894270630E+02  0.94412788077E+03 -0.13737947471E+04  0.16675450731E+04  0.12699999809E+01 0.  1.
       -4    1    3    3    0  502  0.44894270630E+02 -0.94412788077E+03  0.11267281055E+04  0.14706837822E+04  0.12699999809E+01 0. -1.
</event>
<event>
 5   0  0.5131083E-06  0.3196590E+04  0.7818609E-02  0.8189718E-01
        2   -1    0    0  501    0  0.00000000000E+00  0.00000000000E+00  0.24153917298E+04  0.24153917298E+04  0.25500000920E-02 0.  1.
       -2   -1    0    0    0  501  0.00000000000E+00  0.00000000000E+00 -0.10576121578E+04  0.10576121578E+04  0.25500000920E-02 0. -1.
    10030    2    1    2    0    0  0.00000000000E+00  0.00000000000E+00  0.13577795720E+04  0.34730038876E+04  0.31965904707E+04 0.  0.
        3    1    3    3  502    0  0.80996862406E+03  0.83024824115E+03 -0.51582677629E+03  0.12694245103E+04  0.10100000352E+00 0. -1.
       -3    1    3    3    0  502 -0.80996862406E+03 -0.83024824115E+03  0.18736063483E+04  0.22035793774E+04  0.10100000352E+00 0.  1.
</event>
<event>
 5   0  0.1969465E-06  0.3192879E+04  0.7818609E-02  0.8190700E-01
       -1   -1    0    0    0  501  0.00000000000E+00  0.00000000000E+00  0.15761597221E+04  0.15761597221E+04  0.50400001928E-02 0.  1.
        1   -1    0    0  501    0  0.00000000000E+00  0.00000000000E+00 -0.16169804225E+04  0.16169804225E+04  0.50400001928E-02 0. -1.
    10030    2    1    2    0    0  0.00000000000E+00  0.00000000000E+00 -0.40820700456E+02  0.31931401446E+04  0.31928792106E+04 0.  0.
        2    1    3    3  502    0  0.13388519421E+04  0.85440855294E+03  0.14109871495E+03  0.15945053608E+04  0.25500000920E-02 0.  1.
       -2    1    3    3    0  502 -0.13388519421E+04 -0.85440855294E+03 -0.18191941541E+03  0.15986347838E+04  0.25500000920E-02 0. -1.
</event>
<event>
 5   0  0.1886248E-06  0.3166979E+04  0.7818609E-02  0.8197593E-01
        1   -1    0    0  501    0  0.00000000000E+00  0.00000000000E+00  0.12164908928E+04  0.12164908928E+04  0.50400001928E-02 0. -1.
       -1   -1    0    0    0  501  0.00000000000E+00  0.00000000000E+00 -0.20612059074E+04  0.20612059074E+04  0.50400001928E-02 0.  1.
    10030    2    1    2    0    0  0.00000000000E+00  0.00000000000E+00 -0.84471501455E+03  0.32776968002E+04  0.31669785061E+04 0.  0.
        4    1    3    3  502    0 -0.71667886535E+03 -0.58147342632E+03 -0.17540809586E+04  0.19820548841E+04  0.12699999809E+01 0.  1.
       -4    1    3    3    0  502  0.71667886535E+03  0.58147342632E+03  0.90936594404E+03  0.12956419161E+04  0.12699999809E+01 0. -1.
</event>
<event>
 5   0  0.1881144E-06  0.2984878E+04  0.7818609E-02  0.8248062E-01
        1   -1    0    0  501    0  0.00000000000E+00  0.00000000000E+00  0.11131894766E+04  0.11131894766E+04  0.50400001928E-02 0.  1.
       -1   -1    0    0    0  501  0.00000000000E+00  0.00000000000E+00 -0.20008933615E+04  0.20008933615E+04  0.50400001928E-02 0. -1.
    10030    2    1    2    0    0  0.00000000000E+00  0.00000000000E+00 -0.88770388490E+03  0.31140828381E+04  0.29848775076E+04 0.  0.
        3    1    3    3  502    0 -0.11423056706E+04 -0.12837596346E+03  0.54920722792E+03  0.12739588778E+04  0.10100000352E+00 0.  1.
       -3    1    3    3    0  502  0.11423056706E+04  0.12837596346E+03 -0.14369111128E+04  0.18401239603E+04  0.10100000352E+00 0. -1.
</event>
<event>
 5   0  0.1881144E-06  0.3194913E+04  0.7818609E-02  0.8190162E-01
       -1   -1    0    0    0  501  0.00000000000E+00  0.00000000000E+00  0.12732842143E+04  0.12732842143E+04  0.50400001928E-02 0.  1.
        1   -1    0    0  501    0  0.00000000000E+00  0.00000000000E+00 -0.20041618845E+04  0.20041618845E+04  0.50400001928E-02 0. -1.
    10030    2    1    2    0    0  0.00000000000E+00  0.00000000000E+00 -0.73087767022E+03  0.32774460988E+04  0.31949132635E+04 0.  0.
        3    1    3    3  502    0  0.19107576567E+03  0.68579298891E+03  0.11015540087E+04  0.13115804269E+04  0.10100000352E+00 0.  1.
       -3    1    3    3    0  502 -0.19107576567E+03 -0.68579298891E+03 -0.18324316789E+04  0.19658656719E+04  0.10100000352E+00 0. -1.
</event>
<event>
 5   0  0.5108810E-06  0.3299470E+04  0.7818609E-02  0.8163030E-01
       -2   -1    0    0    0  501  0.00000000000E+00  0.00000000000E+00  0.17830963711E+04  0.17830963711E+04  0.25500000920E-02 0.  1.
        2   -1    0    0  501    0  0.00000000000E+00  0.00000000000E+00 -0.15263476094E+04  0.15263476094E+04  0.25500000920E-02 0. -1.
    10030    2    1    2    0    0  0.00000000000E+00  0.00000000000E+00  0.25674876172E+03  0.33094439805E+04  0.32994695836E+04 0.  0.
        1    1    3    3  502    0 -0.15279268065E+04  0.18127560010E+03 -0.46857493706E+03  0.16084102838E+04  0.50400001928E-02 0. -1.
       -1    1    3    3    0  502  0.15279268065E+04 -0.18127560010E+03  0.72532369877E+03  0.17010336967E+04  0.50400001928E-02 0.  1.
</event>
<event>
 5   0  0.5131083E-06  0.2673315E+04  0.7818609E-02  0.8343715E-01
       -2   -1    0    0    0  501  0.00000000000E+00  0.00000000000E+00  0.24147061560E+04  0.24147061560E+04  0.25500000920E-02 0.  1.
        2   -1    0    0  501    0  0.00000000000E+00  0.00000000000E+00 -0.73990528977E+03  0.73990528977E+03  0.25500000920E-02 0. -1.
    10030    2    1    2    0    0  0.00000000000E+00  0.00000000000E+00  0.16748008662E+04  0.31546114458E+04  0.26733154382E+04 0.  0.
        3    1    3    3  502    0 -0.10759311335E+04  0.23237714306E+03  0.17322288178E+04  0.20523751188E+04  0.10100000352E+00 0. -1.
       -3    1    3    3    0  502  0.10759311335E+04 -0.23237714306E+03 -0.57427951604E+02  0.11022363270E+04  0.10100000352E+00 0.  1.
</event>
<event>
 5   0  0.5347280E-06  0.3253747E+04  0.7818609E-02  0.8174765E-01
       -2   -1    0    0    0  501  0.00000000000E+00  0.00000000000E+00  0.15934485062E+04  0.15934485062E+04  0.25500000920E-02 0.  1.
        2   -1    0    0  501    0  0.00000000000E+00  0.00000000000E+00 -0.16610001412E+04  0.16610001412E+04  0.25500000920E-02 0. -1.
    10030    2    1    2    0    0  0.00000000000E+00  0.00000000000E+00 -0.67551635018E+02  0.32544486474E+04  0.32537474971E+04 0.  0.
        2    1    3    3  502    0 -0.55327233245E+03 -0.14822369759E+04 -0.41277892403E+03  0.16350911799E+04  0.25500000920E-02 0. -1.
       -2    1    3    3    0  502  0.55327233245E+03  0.14822369759E+04  0.34522728901E+03  0.16193574675E+04  0.25500000920E-02 0.  1.
</event>
<event>
 5   0  0.1977015E-06  0.3364615E+04  0.7818609E-02  0.8146646E-01
        1   -1    0    0  501    0  0.00000000000E+00  0.00000000000E+00  0.13481663115E+04  0.13481663115E+04  0.50400001928E-02 0. -1.
       -1   -1    0    0    0  501  0.00000000000E+00  0.00000000000E+00 -0.20992647512E+04  0.20992647512E+04  0.50400001928E-02 0.  1.
    10030    2    1    2    0    0  0.00000000000E+00  0.00000000000E+00 -0.75109843968E+03  0.34474310627E+04  0.33646146980E+04 0.  0.
        1    1    3    3  502    0 -0.16050847281E+04  0.25084356898E+03  0.72171348959E+02  0.16261697894E+04  0.50400001928E-02 0.  1.
       -1    1    3    3    0  502  0.16050847281E+04 -0.25084356898E+03 -0.82326978864E+03  0.18212612732E+04  0.50400001928E-02 0. -1.
</event>
<event>
 5   0  0.5347280E-06  0.2363221E+04  0.7818609E-02  0.8453403E-01
       -2   -1    0    0    0  501  0.00000000000E+00  0.00000000000E+00  0.15346717099E+04  0.15346717099E+04  0.25500000920E-02 0. -1.
        2   -1    0    0  501    0  0.00000000000E+00  0.00000000000E+00 -0.90977349703E+03  0.90977349704E+03  0.25500000920E-02 0.  1.
    10030    2    1    2    0    0  0.00000000000E+00  0.00000000000E+00  0.62489821289E+03  0.24444452070E+04  0.23632212324E+04 0.  0.
        2    1    3    3  502    0 -0.10115180431E+03  0.89792497311E+03 -0.47510171678E+03  0.10208930336E+04  0.25500000920E-02 0.  1.
       -2    1    3    3    0  502  0.10115180431E+03 -0.89792497311E+03  0.10999999297E+04  0.14235521733E+04  0.25500000920E-02 0. -1.
</event>
<event>
 5   0  0.1977015E-06  0.3415636E+04  0.7818609E-02  0.8134079E-01
        1   -1    0    0  501    0  0.00000000000E+00  0.00000000000E+00  0.12189804333E+04  0.12189804333E+04  0.50400001928E-02 0. -1.
       -1   -1    0    0    0  501  0.00000000000E+00  0.00000000000E+00 -0.23926904504E+04  0.23926904504E+04  0.50400001928E-02 0.  1.
    10030    2    1    2    0    0  0.00000000000E+00  0.00000000000E+00 -0.11737100171E+04  0.36116708837E+04  0.34156363050E+04 0.  0.
        1    1    3    3  502    0 -0.17271981861E+03  0.13992503028E+04 -0.16059700267E+04  0.21370243967E+04  0.50400001928E-02 0.  1.
       -1    1    3    3    0  502  0.17271981861E+03 -0.13992503028E+04  0.43226000957E+03  0.14746464870E+04  0.50400001928E-02 0. -1.
</event>
<event>
 5   0  0.1846850E-06  0.3133565E+04  0.7818609E-02  0.8206586E-01
       -1   -1    0    0    0  501  0.00000000000E+00  0.00000000000E+00  0.12833225979E+04  0.12833225979E+04  0.50400001928E-02 0. -1.
        1   -1    0    0  501    0  0.00000000000E+00  0.00000000000E+00 -0.19128533071E+04  0.19128533071E+04  0.50400001928E-02 0.  1.
    10030    2    1    2    0    0  0.00000000000E+00  0.00000000000E+00 -0.62953070914E+03  0.31961759050E+04  0.31335653020E+04 0.  0.
        5    1    3    3  502    0  0.12426959111E+04  0.24904305850E+03  0.62476371876E+03  0.14130348073E+04  0.46999998093E+01 0. -1.
       -5    1    3    3    0  502 -0.12426959111E+04 -0.24904305850E+03 -0.12542944279E+04  0.17831410977E+04  0.46999998093E+01 0.  1.
</event>
<event>
 5   0  0.5121624E-06  0.3415335E+04  0.7818609E-02  0.8134153E-01
        2   -1    0    0  501    0  0.00000000000E+00  0.00000000000E+00  0.18531657925E+04  0.18531657925E+04  0.25500000920E-02 0. -1.
       -2   -1    0    0    0  501  0.00000000000E+00  0.00000000000E+00 -0.15735924612E+04  0.15735924612E+04  0.25500000920E-02 0.  1.
    10030    2    1    2    0    0  0.00000000000E+00  0.00000000000E+00  0.27957333124E+03  0.34267582537E+04  0.34153346662E+04 0.  0.
        4    1    3    3  502    0 -0.33667482521E+03 -0.92578888282E+02  0.18169654446E+04  0.18502123738E+04  0.12699999809E+01 0. -1.
       -4    1    3    3    0  502  0.33667482521E+03  0.92578888282E+02 -0.15373921133E+04  0.15765458799E+04  0.12699999809E+01 0.  1.
</event>
<event>
 5   0  0.1881144E-06  0.3192976E+04  0.7818609E-02  0.8190675E-01
       -1   -1    0    0    0  501  0.00000000000E+00  0.00000000000E+00  0.17119237773E+04  0.17119237773E+04  0.50400001928E-02 0. -1.
        1   -1    0    0  501    0  0.00000000000E+00  0.00000000000E+00 -0.14888360747E+04  0.14888360747E+04  0.50400001928E-02 0.  1.
    10030    2    1    2    0    0  0.00000000000E+00  0.00000000000E+00  0.22308770255E+03  0.32007598520E+04  0.31929759641E+04 0.  0.
        3    1    3    3  502    0 -0.56143464266E+03 -0.12535543113E+04  0.92726378676E+03  0.16572342652E+04  0.10100000352E+00 0. -1.
       -3    1    3    3    0  502  0.56143464266E+03  0.12535543113E+04 -0.70417608422E+03  0.15435255868E+04  0.10100000352E+00 0.  1.
</event>
<event>
 5   0  0.1729500E-06  0.3247145E+04  0.7818609E-02  0.8176476E-01
       -3   -1    0    0    0  501  0.00000000000E+00  0.00000000000E+00  0.16182668833E+04  0.16182668864E+04  0.10100000352E+00 0. -1.
        3   -1    0    0  501    0  0.00000000000E+00  0.00000000000E+00 -0.16288958413E+04  0.16288958444E+04  0.10100000352E+00 0.  1.
    10030    2    1    2    0    0  0.00000000000E+00  0.00000000000E+00 -0.10628957976E+02  0.32471627308E+04  0.32471453348E+04 0.  0.
        3    1    3    3  502    0 -0.91744259392E+03 -0.30140591110E+03  0.12998521815E+04  0.16193091553E+04  0.10100000352E+00 0. -1.
       -3    1    3    3    0  502  0.91744259392E+03  0.30140591110E+03 -0.13104811395E+04  0.16278535756E+04  0.10100000352E+00 0.  1.
</event>
<event>
 5   0  0.1977015E-06  0.3289914E+04  0.7818609E-02  0.8165467E-01
       -1   -1    0    0    0  501  0.00000000000E+00  0.00000000000E+00  0.19606128675E+04  0.19606128675E+04  0.50400001928E-02 0. -1.
        1   -1    0    0  501    0  0.00000000000E+00  0.00000000000E+00 -0.13801212791E+04  0.13801212791E+04  0.50400001928E-02 0.  1.
    10030    2    1    2    0    0  0.00000000000E+00  0.00000000000E+00  0.58049158843E+03  0.33407341466E+04  0.32899140041E+04 0.  0.
        1    1    3    3  502    0 -0.12068402279E+03 -0.15164519029E+04 -0.34527536622E+03  0.15599378468E+04  0.50400001928E-02 0. -1.
       -1    1    3    3    0  502  0.12068402279E+03  0.15164519029E+04  0.92576695465E+03  0.17807962999E+04  0.50400001928E-02 0.  1.
</event>
<event>
 5   0  0.1969465E-06  0.3066190E+04  0.7818609E-02  0.8225078E-01
       -1   -1    0    0    0  501  0.00000000000E+00  0.00000000000E+00  0.12729897584E+04  0.12729897584E+04  0.50400001928E-02 0.  1.
        1   -1    0    0  501    0  0.00000000000E+00  0.00000000000E+00 -0.18463465933E+04  0.18463465933E+04  0.50400001928E-02 0. -1.
    10030    2    1    2    0    0  0.00000000000E+00  0.00000000000E+00 -0.57335683489E+03  0.31193363517E+04  0.30661900161E+04 0.  0.
        2    1    3    3  502    0  0.56520911007E+03 -0.42396128808E+03 -0.16708405772E+04  0.18140873040E+04  0.25500000920E-02 0. -1.
       -2    1    3    3    0  502 -0.56520911007E+03  0.42396128808E+03  0.10974837423E+04  0.13052490477E+04  0.25500000920E-02 0.  1.
</event>
<event>
 5   0  0.1886248E-06  0.2857119E+04  0.7818609E-02  0.8285751E-01
       -1   -1    0    0    0  501  0.00000000000E+00  0.00000000000E+00  0.15849238196E+04  0.15849238196E+04  0.50400001928E-02 0.  1.
        1   -1    0    0  501    0  0.00000000000E+00  0.00000000000E+00 -0.12876215566E+04  0.12876215566E+04  0.50400001928E-02 0. -1.
    10030    2    1    2    0    0  0.00000000000E+00  0.00000000000E+00  0.29730226306E+03  0.28725453762E+04  0.28571188815E+04 0.  0.
        4    1    3    3  502    0 -0.10289832125E+04  0.42831583596E+03  0.10470751727E+04  0.15292576424E+04  0.12699999809E+01 0.  1.
       -4    1    3    3    0  502  0.10289832125E+04 -0.42831583596E+03 -0.74977290961E+03  0.13432877338E+04  0.12699999809E+01 0. -1.
</event>
<event>
 5   0  0.1729500E-06  0.3233386E+04  0.7818609E-02  0.8180055E-01
       -3   -1    0    0    0  501  0.00000000000E+00  0.00000000000E+00  0.17877717561E+04  0.17877717590E+04  0.10100000352E+00 0.  1.
        3   -1    0    0  501    0  0.00000000000E+00  0.00000000000E+00 -0.14619853993E+04  0.14619854027E+04  0.10100000352E+00 0. -1.
    10030    2    1    2    0    0  0.00000000000E+00  0.00000000000E+00  0.32578635687E+03  0.32497571617E+04  0.32333859745E+04 0.  0.
        2    1    3    3  502    0 -0.28015756863E+03  0.96224549618E+02 -0.14344772123E+04  0.14647430833E+04  0.25500000920E-02 0. -1.
       -2    1    3    3    0  502  0.28015756863E+03 -0.96224549618E+02  0.17602635692E+04  0.17850140785E+04  0.25500000920E-02 0.  1.
</event>
<event>
 5   0  0.5108810E-06  0.3063532E+04  0.7818609E-02  0.8225818E-01
       -2   -1    0    0    0  501  0.00000000000E+00  0.00000000000E+00  0.12761262650E+04  0.12761262650E+04  0.25500000920E-02 0. -1.
        2   -1    0    0  501    0  0.00000000000E+00  0.00000000000E+00 -0.18386167340E+04  0.18386167340E+04  0.25500000920E-02 0.  1.
    10030    2    1    2    0    0  0.00000000000E+00  0.00000000000E+00 -0.56249046906E+03  0.31147429990E+04  0.30635320175E+04 0.  0.
        1    1    3    3  502    0  0.35875205516E+03 -0.72770627396E+03 -0.16022127726E+04  0.17959246162E+04  0.50400001928E-02 0.  1.
       -1    1    3    3    0  502 -0.35875205516E+03  0.72770627396E+03  0.10397223036E+04  0.13188183828E+04  0.50400001928E-02 0. -1.
</event>
<event>
 5   0  0.1969465E-06  0.3051477E+04  0.7818609E-02  0.8229182E-01
        1   -1    0    0  501    0  0.00000000000E+00  0.00000000000E+00  0.11679580305E+04  0.11679580305E+04  0.50400001928E-02 0. -1.
       -1   -1    0    0    0  501  0.00000000000E+00  0.00000000000E+00 -0.19931184108E+04  0.19931184108E+04  0.50400001928E-02 0.  1.
    10030    2    1    2    0    0  0.00000000000E+00  0.00000000000E+00 -0.82516038033E+03  0.31610764414E+04  0.30514774479E+04 0.  0.
        2    1    3    3  502    0 -0.93426650096E+03 -0.12062140666E+04 -0.42139366690E+03  0.15828388711E+04  0.25500000920E-02 0. -1.
       -2    1    3    3    0  502  0.93426650096E+03  0.12062140666E+04 -0.40376671343E+03  0.15782375703E+04  0.25500000920E-02 0.  1.
</event>
<event>
 5   0  0.5131083E-06  0.3182704E+04  0.7818609E-02  0.8193400E-01
        2   -1    0    0  501    0  0.00000000000E+00  0.00000000000E+00  0.25126522961E+04  0.25126522961E+04  0.25500000920E-02 0.  1.
       -2   -1    0    0    0  501  0.00000000000E+00  0.00000000000E+00 -0.10078597073E+04  0.10078597073E+04  0.25500000920E-02 0. -1.
    10030    2    1    2    0    0  0.00000000000E+00  0.00000000000E+00  0.15047925888E+04  0.35205120033E+04  0.31827038867E+04 0.  0.
        3    1    3    3  502    0  0.42256510604E+03  0.76717970229E+03  0.22220526067E+04  0.23884396081E+04  0.10100000352E+00 0.  1.
       -3    1    3    3    0  502 -0.42256510604E+03 -0.76717970229E+03 -0.71726001793E+03  0.11320723952E+04  0.10100000352E+00 0. -1.
</event>
<event>
 5   0  0.1886248E-06  0.3173174E+04  0.7818609E-02  0.8195938E-01
        1   -1    0    0  501    0  0.00000000000E+00  0.00000000000E+00  0.18844832985E+04  0.18844832985E+04  0.50400001928E-02 0. -1.
       -1   -1    0    0    0  501  0.00000000000E+00  0.00000000000E+00 -0.13357815736E+04  0.13357815737E+04  0.50400001928E-02 0.  1.
    10030    2    1    2    0    0  0.00000000000E+00  0.00000000000E+00  0.54870172483E+03  0.32202648721E+04  0.31731738471E+04 0.  0.
        4    1    3    3  502    0 -0.61289179089E+02  0.14775594147E+04  0.85761331975E+03  0.17095146699E+04  0.12699999809E+01 0. -1.
       -4    1    3    3    0  502  0.61289179089E+02 -0.14775594147E+04 -0.30891159492E+03  0.15107502023E+04  0.12699999809E+01 0.  1.
</event>
<event>
 5   0  0.5108810E-06  0.2453476E+04  0.7818609E-02  0.8419750E-01
        2   -1    0    0  501    0  0.00000000000E+00  0.00000000000E+00  0.17939071420E+04  0.17939071420E+04  0.25500000920E-02 0. -1.
       -2   -1    0    0    0  501  0.00000000000E+00  0.00000000000E+00 -0.83888731505E+03  0.83888731506E+03  0.25500000920E-02 0.  1.
    10030    2    1    2    0    0  0.00000000000E+00  0.00000000000E+00  0.95501982698E+03  0.26327944571E+04  0.24534758575E+04 0.  0.
        1    1    3    3  502    0  0.36362219258E+02  0.11732734911E+04  0.85991630530E+03  0.14551113181E+04  0.50400001928E-02 0. -1.
       -1    1    3    3    0  502 -0.36362219258E+02 -0.11732734911E+04  0.95103521681E+02  0.11776831390E+04  0.50400001928E-02 0.  1.
</event>
<event>
 5   0  0.1881144E-06  0.3019012E+04  0.7818609E-02  0.8238323E-01
       -1   -1    0    0    0  501  0.00000000000E+00  0.00000000000E+00  0.12359595670E+04  0.12359595670E+04  0.50400001928E-02 0. -1.
        1   -1    0    0  501    0  0.00000000000E+00  0.00000000000E+00 -0.18435944424E+04  0.18435944424E+04  0.50400001928E-02 0.  1.
    10030    2    1    2    0    0  0.00000000000E+00  0.00000000000E+00 -0.60763487540E+03  0.30795540094E+04  0.30190118839E+04 0.  0.
        3    1    3    3  502    0 -0.60091767242E+02  0.11335412267E+04  0.71116484992E+03  0.13395081885E+04  0.10100000352E+00 0. -1.
       -3    1    3    3    0  502  0.60091767242E+02 -0.11335412267E+04 -0.13187997253E+04  0.17400458209E+04  0.10100000352E+00 0.  1.
</event>
<event>
 5   0  0.5121624E-06  0.3169553E+04  0.7818609E-02  0.8196905E-01
        2   -1    0    0  501    0  0.00000000000E+00  0.00000000000E+00  0.11623392613E+04  0.11623392613E+04  0.25500000920E-02 0.  1.
       -2   -1    0    0    0  501  0.00000000000E+00  0.00000000000E+00 -0.21607426919E+04  0.21607426919E+04  0.25500000920E-02 0. -1.
    10030    2    1    2    0    0  0.00000000000E+00  0.00000000000E+00 -0.99840343067E+03  0.33230819532E+04  0.31695526904E+04 0.  0.
        4    1    3    3  502    0  0.11172552633E+04  0.67290234219E+02  0.67707331048E+03  0.13081350006E+04  0.12699999809E+01 0.  1.
       -4    1    3    3    0  502 -0.11172552633E+04 -0.67290234219E+02 -0.16754767411E+04  0.20149469527E+04  0.12699999809E+01 0. -1.
</event>
<event>
 5   0  0.5121624E-06  0.2083198E+04  0.7818609E-02  0.8568681E-01
        2   -1    0    0  501    0  0.00000000000E+00  0.00000000000E+00  0.87608739264E+03  0.87608739264E+03  0.25500000920E-02 0.  1.
       -2   -1    0    0    0  501  0.00000000000E+00  0.00000000000E+00 -0.12383793652E+04  0.12383793652E+04  0.25500000920E-02 0. -1.
    10030    2    1    2    0    0  0.00000000000E+00  0.00000000000E+00 -0.36229197258E+03  0.21144667579E+04  0.20831980695E+04 0.  0.
        4    1    3    3  502    0 -0.31415218134E+03 -0.50312326537E+03  0.68791968496E+03  0.90832797989E+03  0.12699999809E+01 0.  1.
       -4    1    3    3    0  502  0.31415218134E+03  0.50312326537E+03 -0.10502116575E+04  0.12061387780E+04  0.12699999809E+01 0. -1.
</event>
<event>
 5   0  0.5373060E-06  0.3192153E+04  0.7818609E-02  0.8190893E-01
        2   -1    0    0  501    0  0.00000000000E+00  0.00000000000E+00  0.17138590181E+04  0.17138590181E+04  0.25500000920E-02 0. -1.
       -2   -1    0    0    0  501  0.00000000000E+00  0.00000000000E+00 -0.14863883720E+04  0.14863883720E+04  0.25500000920E-02 0.  1.
    10030    2    1    2    0    0  0.00000000000E+00  0.00000000000E+00  0.22747064604E+03  0.32002473901E+04  0.31921529511E+04 0.  0.
        5    1    3    3  502    0  0.71948226423E+03 -0.10201814964E+04  0.11107484180E+04  0.16709904704E+04  0.46999998093E+01 0. -1.
       -5    1    3    3    0  502 -0.71948226423E+03  0.10201814964E+04 -0.88327777195E+03  0.15292569197E+04  0.46999998093E+01 0.  1.
</event>
<event>
 5   0  0.5347280E-06  0.2255115E+04  0.7818609E-02  0.8495832E-01
        2   -1    0    0  501    0  0.00000000000E+00  0.00000000000E+00  0.13202859309E+04  0.13202859309E+04  0.25500000920E-02 0.  1.
       -2   -1    0    0    0  501  0.00000000000E+00  0.00000000000E+00 -0.96296277341E+03  0.96296277341E+03  0.25500000920E-02 0. -1.
    10030    2    1    2    0    0  0.00000000000E+00  0.00000000000E+00  0.35732315752E+03  0.22832487043E+04  0.22551152536E+04 0.  0.
        2    1    3    3  502    0 -0.64078345759E+03 -0.90755928019E+03 -0.16404662129E+02  0.11110969353E+04  0.25500000920E-02 0. -1.
       -2    1    3    3    0  502  0.64078345759E+03  0.90755928019E+03  0.37372781965E+03  0.11721517691E+04  0.25500000920E-02 0.  1.
</event>
<event>
 5   0  0.5131083E-06  0.3179978E+04  0.7818609E-02  0.8194125E-01
       -2   -1    0    0    0  501  0.00000000000E+00  0.00000000000E+00  0.17247035885E+04  0.17247035885E+04  0.25500000920E-02 0. -1.
        2   -1    0    0  501    0  0.00000000000E+00  0.00000000000E+00 -0.14657965627E+04  0.14657965627E+04  0.25500000920E-02 0.  1.
    10030    2    1    2    0    0  0.00000000000E+00  0.00000000000E+00  0.25890702580E+03  0.31905001512E+04  0.31799777305E+04 0.  0.
        3    1    3    3  502    0 -0.11388613018E+04 -0.81428952385E+03  0.88559981740E+03  0.16566108596E+04  0.10100000352E+00 0. -1.
       -3    1    3    3    0  502  0.11388613018E+04  0.81428952385E+03 -0.62669279160E+03  0.15338892915E+04  0.10100000352E+00 0.  1.
</event>
<event>
 5   0  0.5131083E-06  0.3199962E+04  0.7818609E-02  0.8188827E-01
       -2   -1    0    0    0  501  0.00000000000E+00  0.00000000000E+00  0.14579632353E+04  0.14579632353E+04  0.25500000920E-02 0. -1.
        2   -1    0    0  501    0  0.00000000000E+00  0.00000000000E+00 -0.17558328135E+04  0.17558328135E+04  0.25500000920E-02 0.  1.
    10030    2    1    2    0    0  0.00000000000E+00  0.00000000000E+00 -0.29786957826E+03  0.32137960488E+04  0.31999623057E+04 0.  0.
        3    1    3    3  502    0  0.83550857241E+03 -0.74446908910E+03 -0.12973952130E+04  0.17133426827E+04  0.10100000352E+00 0.  1.
       -3    1    3    3    0  502 -0.83550857241E+03  0.74446908910E+03  0.99952563477E+03  0.15004533661E+04  0.10100000352E+00 0. -1.
</event>
<event>
 5   0  0.5347280E-06  0.3082271E+04  0.7818609E-02  0.8220620E-01
        2   -1    0    0  501    0  0.00000000000E+00  0.00000000000E+00  0.92987857805E+03  0.92987857805E+03  0.25500000920E-02 0.  1.
       -2   -1    0    0    0  501  0.00000000000E+00  0.00000000000E+00 -0.25542027420E+04  0.25542027420E+04  0.25500000920E-02 0. -1.
    10030    2    1    2    0    0  0.00000000000E+00  0.00000000000E+00 -0.16243241640E+04  0.34840813201E+04  0.30822708601E+04 0.  0.
        2    1    3    3  502    0 -0.95322179429E+03  0.73152662765E+03 -0.19030259123E+04  0.22506156089E+04  0.25500000920E-02 0. -1.
       -2    1    3    3    0  502  0.95322179429E+03 -0.73152662765E+03  0.27870174835E+03  0.12334657112E+04  0.25500000920E-02 0.  1.
</event>
<event>
 5   0  0.5373060E-06  0.3393051E+04  0.7818609E-02  0.8139614E-01
        2   -1    0    0  501    0  0.00000000000E+00  0.00000000000E+00  0.19544566502E+04  0.19544566502E+04  0.25500000920E-02 0. -1.
       -2   -1    0    0    0  501  0.00000000000E+00  0.00000000000E+00 -0.14726336379E+04  0.14726336379E+04  0.25500000920E-02 0.  1.
    10030    2    1    2    0    0  0.00000000000E+00  0.00000000000E+00  0.48182301232E+03  0.34270902881E+04  0.33930509026E+04 0.  0.
        5    1    3    3  502    0  0.88836095427E+03  0.24886755119E+03 -0.11971189165E+04  0.15113689270E+04  0.46999998093E+01 0.  1.
       -5    1    3    3    0  502 -0.88836095427E+03 -0.24886755119E+03  0.16789419288E+04  0.19157213611E+04  0.46999998093E+01 0. -1.
</event>
<event>
 5   0  0.5131083E-06  0.3219136E+04  0.7818609E-02  0.8183782E-01
       -2   -1    0    0    0  501  0.00000000000E+00  0.00000000000E+00  0.11511337818E+04  0.11511337819E+04  0.25500000920E-02 0. -1.
        2   -1    0    0  501    0  0.00000000000E+00  0.00000000000E+00 -0.22505719397E+04  0.22505719397E+04  0.25500000920E-02 0.  1.
    10030    2    1    2    0    0  0.00000000000E+00  0.00000000000E+00 -0.10994381579E+04  0.34017057216E+04  0.32191361501E+04 0.  0.
        3    1    3    3  502    0  0.13327114701E+04  0.26107969785E+02 -0.15030529524E+04  0.20089722936E+04  0.10100000352E+00 0.  1.
       -3    1    3    3    0  502 -0.13327114701E+04 -0.26107969785E+02  0.40361479453E+03  0.13927334279E+04  0.10100000352E+00 0. -1.
</event>
<event>
 5   0  0.1886248E-06  0.3188402E+04  0.7818609E-02  0.8191887E-01
        1   -1    0    0  501    0  0.00000000000E+00  0.00000000000E+00  0.23004492843E+04  0.23004492843E+04  0.50400001928E-02 0. -1.
       -1   -1    0    0    0  501  0.00000000000E+00  0.00000000000E+00 -0.11047739193E+04  0.11047739193E+04  0.50400001928E-02 0.  1.
    10030    2    1    2    0    0  0.00000000000E+00  0.00000000000E+00  0.11956753650E+04  0.34052232037E+04  0.31884017138E+04 0.  0.
        4    1    3    3  502    0 -0.15528322389E+04 -0.84670812286E+02  0.97242775604E+03  0.18341413419E+04  0.12699999809E+01 0. -1.
       -4    1    3    3    0  502  0.15528322389E+04  0.84670812286E+02  0.22324760898E+03  0.15710818618E+04  0.12699999809E+01 0.  1.
</event>
<event>
 5   0  0.5108810E-06  0.3194394E+04  0.7818609E-02  0.8190299E-01
        2   -1    0    0  501    0  0.00000000000E+00  0.00000000000E+00  0.20628084779E+04  0.20628084779E+04  0.25500000920E-02 0.  1.
       -2   -1    0    0    0  501  0.00000000000E+00  0.00000000000E+00 -0.12366821243E+04  0.12366821243E+04  0.25500000920E-02 0. -1.
    10030    2    1    2    0    0  0.00000000000E+00  0.00000000000E+00  0.82612635357E+03  0.32994906022E+04  0.31943940712E+04 0.  0.
        1    1    3    3  502    0  0.49471394287E+02 -0.67340693467E+03 -0.10820092756E+04  0.12754091073E+04  0.50400001928E-02 0. -1.
       -1    1    3    3    0  502 -0.49471394287E+02  0.67340693467E+03  0.19081356292E+04  0.20240814949E+04  0.50400001928E-02 0.  1.
</event>
<event>
 5   0  0.5347280E-06  0.3217627E+04  0.7818609E-02  0.8184177E-01
        2   -1    0    0  501    0  0.00000000000E+00  0.00000000000E+00  0.16719343678E+04  0.16719343678E+04  0.25500000920E-02 0. -1.
       -2   -1    0    0    0  501  0.00000000000E+00  0.00000000000E+00 -0.15480757059E+04  0.15480757059E+04  0.25500000920E-02 0.  1.
    10030    2    1    2    0    0  0.00000000000E+00  0.00000000000E+00  0.12385866192E+03  0.32200100737E+04  0.32176270615E+04 0.  0.
        2    1    3    3  502    0  0.71057966544E+03 -0.14432979821E+04  0.77703320843E+02  0.16106117882E+04  0.25500000920E-02 0.  1.
       -2    1    3    3    0  502 -0.71057966544E+03  0.14432979821E+04  0.46155341074E+02  0.16093982856E+04  0.25500000920E-02 0. -1.
</event>
<event>
 5   0  0.1969465E-06  0.3192983E+04  0.7818609E-02  0.8190673E-01
        1   -1    0    0  501    0  0.00000000000E+00  0.00000000000E+00  0.24719566015E+04  0.24719566015E+04  0.50400001928E-02 0. -1.
       -1   -1    0    0    0  501  0.00000000000E+00  0.00000000000E+00 -0.10310800535E+04  0.10310800535E+04  0.50400001928E-02 0.  1.
    10030    2    1    2    0    0  0.00000000000E+00  0.00000000000E+00  0.14408765480E+04  0.35030366550E+04  0.31929830222E+04 0.  0.
        2    1    3    3  502    0 -0.51548644885E+02  0.15160784244E+04  0.12663888022E+04  0.19760798694E+04  0.25500000920E-02 0. -1.
       -2    1    3    3    0  502  0.51548644885E+02 -0.15160784244E+04  0.17448774583E+03  0.15269567856E+04  0.25500000920E-02 0.  1.
</event>
<event>
 5   0  0.5373060E-06  0.3188889E+04  0.7818609E-02  0.8191758E-01
        2   -1    0    0  501    0  0.00000000000E+00  0.00000000000E+00  0.24523622154E+04  0.24523622154E+04  0.25500000920E-02 0. -1.
       -2   -1    0    0    0  501  0.00000000000E+00  0.00000000000E+00 -0.10366549185E+04  0.10366549185E+04  0.25500000920E-02 0.  1.
    10030    2    1    2    0    0  0.00000000000E+00  0.00000000000E+00  0.14157072969E+04  0.34890171340E+04  0.31888890558E+04 0.  0.
        5    1    3    3  502    0  0.53438361783E+03  0.14961794881E+04  0.56060507137E+03  0.16847608280E+04  0.46999998093E+01 0.  1.
       -5    1    3    3    0  502 -0.53438361783E+03 -0.14961794881E+04  0.85510222556E+03  0.18042563060E+04  0.46999998093E+01 0. -1.
</event>
<event>
 5   0  0.1881144E-06  0.2260025E+04  0.7818609E-02  0.8493851E-01
       -1   -1    0    0    0  501  0.00000000000E+00  0.00000000000E+00  0.84122093095E+03  0.84122093097E+03  0.50400001928E-02 0.  1.
        1   -1    0    0  501    0  0.00000000000E+00  0.00000000000E+00 -0.15179466766E+04  0.15179466766E+04  0.50400001928E-02 0. -1.
    10030    2    1    2    0    0  0.00000000000E+00  0.00000000000E+00 -0.67672574564E+03  0.23591676076E+04  0.22600252357E+04 0.  0.
        3    1    3    3  502    0 -0.26794539699E+03 -0.82503495183E+03  0.41759571975E+03  0.96273755658E+03  0.10100000352E+00 0.  1.
       -3    1    3    3    0  502  0.26794539699E+03  0.82503495183E+03 -0.10943214654E+04  0.13964300510E+04  0.10100000352E+00 0. -1.
</event>
<event>
 5   0  0.1881144E-06  0.3249470E+04  0.7818609E-02  0.8175873E-01
       -1   -1    0    0    0  501  0.00000000000E+00  0.00000000000E+00  0.19748302212E+04  0.19748302212E+04  0.50400001928E-02 0. -1.
        1   -1    0    0  501    0  0.00000000000E+00  0.00000000000E+00 -0.13367045071E+04  0.13367045072E+04  0.50400001928E-02 0.  1.
    10030    2    1    2    0    0  0.00000000000E+00  0.00000000000E+00  0.63812571406E+03  0.33115347284E+04  0.32494703923E+04 0.  0.
        3    1    3    3  502    0  0.79402860626E+03 -0.14170819491E+04  0.28432710542E+03  0.16490738586E+04  0.10100000352E+00 0.  1.
       -3    1    3    3    0  502 -0.79402860626E+03  0.14170819491E+04  0.35379860865E+03  0.16624608698E+04  0.10100000352E+00 0. -1.
</event>
<event>
 5   0  0.1886248E-06  0.3419403E+04  0.7818609E-02  0.8133161E-01
       -1   -1    0    0    0  501  0.00000000000E+00  0.00000000000E+00  0.21226854656E+04  0.21226854656E+04  0.50400001928E-02 0. -1.
        1   -1    0    0  501    0  0.00000000000E+00  0.00000000000E+00 -0.13770666185E+04  0.13770666185E+04  0.50400001928E-02 0.  1.
    10030    2    1    2    0    0  0.00000000000E+00  0.00000000000E+00  0.74561884705E+03  0.34997520841E+04  0.34194030452E+04 0.  0.
        4    1    3    3  502    0 -0.16110619661E+04 -0.15985873718E+03  0.93526994661E+03  0.18697077206E+04  0.12699999809E+01 0.  1.
       -4    1    3    3    0  502  0.16110619661E+04  0.15985873718E+03 -0.18965109955E+03  0.16300443635E+04  0.12699999809E+01 0. -1.
</event>
<event>
 5   0  0.5121624E-06  0.3077677E+04  0.7818609E-02  0.8221891E-01
        2   -1    0    0  501    0  0.00000000000E+00  0.00000000000E+00  0.12372577038E+04  0.12372577038E+04  0.25500000920E-02 0. -1.
       -2   -1    0    0    0  501  0.00000000000E+00  0.00000000000E+00 -0.19139294497E+04  0.19139294497E+04  0.25500000920E-02 0.  1.
    10030    2    1    2    0    0  0.00000000000E+00  0.00000000000E+00 -0.67667174592E+03  0.31511871536E+04  0.30776770177E+04 0.  0.
        4    1    3    3  502    0  0.13880427575E+04  0.22189342023E+02 -0.10181733307E+04  0.17215788125E+04  0.12699999809E+01 0. -1.
       -4    1    3    3    0  502 -0.13880427575E+04 -0.22189342023E+02  0.34150158475E+03  0.14296083410E+04  0.12699999809E+01 0.  1.
</event>
<event>
 5   0  0.5347280E-06  0.3247639E+04  0.7818609E-02  0.8176348E-01
        2   -1    0    0  501    0  0.00000000000E+00  0.00000000000E+00  0.16098309463E+04  0.16098309463E+04  0.25500000920E-02 0.  1.
       -2   -1    0    0    0  501  0.00000000000E+00  0.00000000000E+00 -0.16379296591E+04  0.16379296591E+04  0.25500000920E-02 0. -1.
    10030    2    1    2    0    0  0.00000000000E+00  0.00000000000E+00 -0.28098712776E+02  0.32477606053E+04  0.32476390520E+04 0.  0.
        2    1    3    3  502    0 -0.95121937916E+03 -0.95607759236E+03  0.89035564599E+03  0.16160556445E+04  0.25500000920E-02 0.  1.
       -2    1    3    3    0  502  0.95121937916E+03  0.95607759236E+03 -0.91845435877E+03  0.16317049608E+04  0.25500000920E-02 0. -1.
</event>
<event>
 5   0  0.5121624E-06  0.3190239E+04  0.7818609E-02  0.8191400E-01
        2   -1    0    0  501    0  0.00000000000E+00  0.00000000000E+00  0.28367752040E+04  0.28367752040E+04  0.25500000920E-02 0.  1.
       -2   -1    0    0    0  501  0.00000000000E+00  0.00000000000E+00 -0.89693633372E+03  0.89693633372E+03  0.25500000920E-02 0. -1.
    10030    2    1    2    0    0  0.00000000000E+00  0.00000000000E+00  0.19398388702E+04  0.37337115377E+04  0.31902393334E+04 0.  0.
        4    1    3    3  502    0 -0.14740131683E+04 -0.39895542795E+03  0.15094578737E+04  0.21471713810E+04  0.12699999809E+01 0.  1.
       -4    1    3    3    0  502  0.14740131683E+04  0.39895542795E+03  0.43038099650E+03  0.15865401567E+04  0.12699999809E+01 0. -1.
</event>
<event>
 5   0  0.5108810E-06  0.3145486E+04  0.7818609E-02  0.8203364E-01
        2   -1    0    0  501    0  0.00000000000E+00  0.00000000000E+00  0.10670043424E+04  0.10670043424E+04  0.25500000920E-02 0.  1.
       -2   -1    0    0    0  501  0.00000000000E+00  0.00000000000E+00 -0.23181911051E+04  0.23181911051E+04  0.25500000920E-02 0. -1.
    10030    2    1    2    0    0  0.00000000000E+00  0.00000000000E+00 -0.12511867627E+04  0.33851954475E+04  0.31454856386E+04 0.  0.
        1    1    3    3  502    0  0.29236455446E+03  0.37459124353E+03 -0.22390881663E+04  0.22889542260E+04  0.50400001928E-02 0. -1.
       -1    1    3    3    0  502 -0.29236455446E+03 -0.37459124353E+03  0.98790140361E+03  0.10962412215E+04  0.50400001928E-02 0.  1.
</event>
<event>
 5   0  0.5131083E-06  0.3214115E+04  0.7818609E-02  0.8185099E-01
       -2   -1    0    0    0  501  0.00000000000E+00  0.00000000000E+00  0.17699048728E+04  0.17699048728E+04  0.25500000920E-02 0. -1.
        2   -1    0    0  501    0  0.00000000000E+00  0.00000000000E+00 -0.14591939416E+04  0.14591939416E+04  0.25500000920E-02 0.  1.
    10030    2    1    2    0    0  0.00000000000E+00  0.00000000000E+00  0.31071093121E+03  0.32290988145E+04  0.32141154103E+04 0.  0.
        3    1    3    3  502    0 -0.13570459987E+04  0.85826194567E+03  0.22235252759E+03  0.16209960107E+04  0.10100000352E+00 0.  1.
       -3    1    3    3    0  502  0.13570459987E+04 -0.85826194567E+03  0.88358403620E+02  0.16081028038E+04  0.10100000352E+00 0. -1.
</event>
<event>
 5   0  0.1977015E-06  0.3307342E+04  0.7818609E-02  0.8161030E-01
       -1   -1    0    0    0  501  0.00000000000E+00  0.00000000000E+00  0.19521415350E+04  0.19521415350E+04  0.50400001928E-02 0. -1.
        1   -1    0    0  501    0  0.00000000000E+00  0.00000000000E+00 -0.14008344157E+04  0.14008344157E+04  0.50400001928E-02 0.  1.
    10030    2    1    2    0    0  0.00000000000E+00  0.00000000000E+00  0.55130711926E+03  0.33529759507E+04  0.33073415587E+04 0.  0.
        1    1    3    3  502    0 -0.31563521681E+03 -0.99220980398E+03  0.15781061948E+04  0.18906414381E+04  0.50400001928E-02 0. -1.
       -1    1    3    3    0  502  0.31563521681E+03  0.99220980398E+03 -0.10267990756E+04  0.14623345126E+04  0.50400001928E-02 0.  1.
</event>
<event>
 5   0  0.5347280E-06  0.3172431E+04  0.7818609E-02  0.8196136E-01
        2   -1    0    0  501    0  0.00000000000E+00  0.00000000000E+00  0.15866365723E+04  0.15866365723E+04  0.25500000920E-02 0.  1.
       -2   -1    0    0    0  501  0.00000000000E+00  0.00000000000E+00 -0.15857948228E+04  0.15857948228E+04  0.25500000920E-02 0. -1.
    10030    2    1    2    0    0  0.00000000000E+00  0.00000000000E+00  0.84174948944E+00  0.31724313950E+04  0.31724312833E+04 0.  0.
        2    1    3    3  502    0 -0.10777743216E+04 -0.11179124717E+04 -0.32323679411E+03  0.15861298206E+04  0.25500000920E-02 0.  1.
       -2    1    3    3    0  502  0.10777743216E+04  0.11179124717E+04  0.32407854360E+03  0.15863015744E+04  0.25500000920E-02 0. -1.
</event>
<event>
 5   0  0.1969465E-06  0.3271150E+04  0.7818609E-02  0.8170275E-01
       -1   -1    0    0    0  501  0.00000000000E+00  0.00000000000E+00  0.27744999845E+04  0.27744999845E+04  0.50400001928E-02 0.  1.
        1   -1    0    0  501    0  0.00000000000E+00  0.00000000000E+00 -0.96417554704E+03  0.96417554705E+03  0.50400001928E-02 0. -1.
    10030    2    1    2    0    0  0.00000000000E+00  0.00000000000E+00  0.18103244375E+04  0.37386755316E+04  0.32711496697E+04 0.  0.
        2    1    3    3  502    0  0.10976712089E+04  0.23766333898E+03  0.22641075757E+04  0.25273600970E+04  0.25500000920E-02 0.  1.
       -2    1    3    3    0  502 -0.10976712089E+04 -0.23766333898E+03 -0.45378313826E+03  0.12113154346E+04  0.25500000920E-02 0. -1.
</event>
<event>
 5   0  0.5121624E-06  0.3214998E+04  0.7818609E-02  0.8184868E-01
       -2   -1    0    0    0  501  0.00000000000E+00  0.00000000000E+00  0.99609874193E+03  0.99609874193E+03  0.25500000920E-02 0.  1.
        2   -1    0    0  501    0  0.00000000000E+00  0.00000000000E+00 -0.25941730019E+04  0.25941730019E+04  0.25500000920E-02 0. -1.
    10030    2    1    2    0    0  0.00000000000E+00  0.00000000000E+00 -0.15980742599E+04  0.35902717438E+04  0.32149976445E+04 0.  0.
        4    1    3    3  502    0 -0.10086834560E+02  0.13807683863E+04  0.12009544849E+03  0.13860186184E+04  0.12699999809E+01 0.  1.
       -4    1    3    3    0  502  0.10086834560E+02 -0.13807683863E+04 -0.17181697084E+04  0.22042531254E+04  0.12699999809E+01 0. -1.
</event>
<event>
 5   0  0.5121624E-06  0.3335617E+04  0.7818609E-02  0.8153891E-01
        2   -1    0    0  501    0  0.00000000000E+00  0.00000000000E+00  0.17506524141E+04  0.17506524141E+04  0.25500000920E-02 0. -1.
       -2   -1    0    0    0  501  0.00000000000E+00  0.00000000000E+00 -0.15888847844E+04  0.15888847844E+04  0.25500000920E-02 0.  1.
    10030    2    1    2    0    0  0.00000000000E+00  0.00000000000E+00  0.16176762979E+03  0.33395371985E+04  0.33356168746E+04 0.  0.
        4    1    3    3  502    0 -0.93616848646E+03 -0.23557013133E+03 -0.12807435309E+04  0.16038111880E+04  0.12699999809E+01 0.  1.
       -4    1    3    3    0  502  0.93616848646E+03  0.23557013133E+03  0.14425111607E+04  0.17357260105E+04  0.12699999809E+01 0. -1.
</event>
<event>
 5   0  0.1977015E-06  0.3124188E+04  0.7818609E-02  0.8209131E-01
       -1   -1    0    0    0  501  0.00000000000E+00  0.00000000000E+00  0.13674827231E+04  0.13674827231E+04  0.50400001928E-02 0. -1.
        1   -1    0    0  501    0  0.00000000000E+00  0.00000000000E+00 -0.17844013582E+04  0.17844013582E+04  0.50400001928E-02 0.  1.
    10030    2    1    2    0    0  0.00000000000E+00  0.00000000000E+00 -0.41691863514E+03  0.31518840813E+04  0.31241882327E+04 0.  0.
        1    1    3    3  502    0 -0.10743395829E+04 -0.11274179018E+04 -0.85471420781E+02  0.15596736930E+04  0.50400001928E-02 0. -1.
       -1    1    3    3    0  502  0.10743395829E+04  0.11274179018E+04 -0.33144721436E+03  0.15922103883E+04  0.50400001928E-02 0.  1.
</event>
<event>
 5   0  0.1881144E-06  0.3202241E+04  0.7818609E-02  0.8188226E-01
        1   -1    0    0  501    0  0.00000000000E+00  0.00000000000E+00  0.22093996915E+04  0.22093996915E+04  0.50400001928E-02 0.  1.
       -1   -1    0    0    0  501  0.00000000000E+00  0.00000000000E+00 -0.11603092958E+04  0.11603092958E+04  0.50400001928E-02 0. -1.
    10030    2    1    2    0    0  0.00000000000E+00  0.00000000000E+00  0.10490903957E+04  0.33697089873E+04  0.32022410903E+04 0.  0.
        3    1    3    3  502    0 -0.52314248059E+03 -0.14035157144E+04  0.11198632234E+04  0.18701946596E+04  0.10100000352E+00 0.  1.
       -3    1    3    3    0  502  0.52314248059E+03  0.14035157144E+04 -0.70772827718E+02  0.14995143277E+04  0.10100000352E+00 0. -1.
</event>
<event>
 5   0  0.5131083E-06  0.3157402E+04  0.7818609E-02  0.8200159E-01
        2   -1    0    0  501    0  0.00000000000E+00  0.00000000000E+00  0.21252025400E+04  0.21252025400E+04  0.25500000920E-02 0. -1.
       -2   -1    0    0    0  501  0.00000000000E+00  0.00000000000E+00 -0.11727339032E+04  0.11727339032E+04  0.25500000920E-02 0.  1.
    10030    2    1    2    0    0  0.00000000000E+00  0.00000000000E+00  0.95246863676E+03  0.32979364432E+04  0.31574021409E+04 0.  0.
        3    1    3    3  502    0 -0.56338980437E+02 -0.63554347050E+03  0.19845318467E+04  0.20845757948E+04  0.10100000352E+00 0. -1.
       -3    1    3    3    0  502  0.56338980437E+02  0.63554347050E+03 -0.10320632099E+04  0.12133606484E+04  0.10100000352E+00 0.  1.
</event>
<event>
 5   0  0.1846850E-06  0.3190853E+04  0.7818609E-02  0.8191237E-01
        1   -1    0    0  501    0  0.00000000000E+00  0.00000000000E+00  0.13879344303E+04  0.13879344304E+04  0.50400001928E-02 0. -1.
       -1   -1    0    0    0  501  0.00000000000E+00  0.00000000000E+00 -0.18339377023E+04  0.18339377023E+04  0.50400001928E-02 0.  1.
    10030    2    1    2    0    0  0.00000000000E+00  0.00000000000E+00 -0.44600327192E+03  0.32218721326E+04  0.31908527262E+04 0.  0.
        5    1    3    3  502    0 -0.43214128708E+03 -0.37968399998E+03 -0.17255732567E+04  0.18189368285E+04  0.46999998093E+01 0.  1.
       -5    1    3    3    0  502  0.43214128708E+03  0.37968399998E+03  0.12795699847E+04  0.14029353042E+04  0.46999998093E+01 0. -1.
</event>
<event>
 5   0  0.1886248E-06  0.3198764E+04  0.7818609E-02  0.8189144E-01
       -1   -1    0    0    0  501  0.00000000000E+00  0.00000000000E+00  0.21492206647E+04  0.21492206647E+04  0.50400001928E-02 0. -1.
        1   -1    0    0  501    0  0.00000000000E+00  0.00000000000E+00 -0.11902097108E+04  0.11902097108E+04  0.50400001928E-02 0.  1.
    10030    2    1    2    0    0  0.00000000000E+00  0.00000000000E+00  0.95901095387E+03  0.33394303756E+04  0.31987643276E+04 0.  0.
        4    1    3    3  502    0  0.12005289893E+03 -0.68989525578E+03  0.19806725596E+04  0.21008173561E+04  0.12699999809E+01 0. -1.
       -4    1    3    3    0  502 -0.12005289893E+03  0.68989525578E+03 -0.10216616057E+04  0.12386130195E+04  0.12699999809E+01 0.  1.
</event>
<event>
 5   0  0.5121624E-06  0.3203043E+04  0.7818609E-02  0.8188014E-01
       -2   -1    0    0    0  501  0.00000000000E+00  0.00000000000E+00  0.24477616595E+04  0.24477616595E+04  0.25500000920E-02 0.  1.
        2   -1    0    0  501    0  0.00000000000E+00  0.00000000000E+00 -0.10478437403E+04  0.10478437403E+04  0.25500000920E-02 0. -1.
    10030    2    1    2    0    0  0.00000000000E+00  0.00000000000E+00  0.13999179192E+04  0.34956053997E+04  0.32030433856E+04 0.  0.
        4    1    3    3  502    0  0.15047245965E+04  0.31543288277E+03  0.21046450328E+03  0.15517702584E+04  0.12699999809E+01 0. -1.
       -4    1    3    3    0  502 -0.15047245965E+04 -0.31543288277E+03  0.11894534159E+04  0.19438351413E+04  0.12699999809E+01 0.  1.
</event>
<event>
 5   0  0.5108810E-06  0.3130937E+04  0.7818609E-02  0.8207298E-01
       -2   -1    0    0    0  501  0.00000000000E+00  0.00000000000E+00  0.10654679361E+04  0.10654679361E+04  0.25500000920E-02 0.  1.
        2   -1    0    0  501    0  0.00000000000E+00  0.00000000000E+00 -0.23001086559E+04  0.23001086560E+04  0.25500000920E-02 0. -1.
    10030    2    1    2    0    0  0.00000000000E+00  0.00000000000E+00 -0.12346407198E+04  0.33655765921E+04  0.31309372543E+04 0.  0.
        1    1    3    3  502    0 -0.86258442103E+03  0.10237968995E+04  0.25496066319E+03  0.13627974592E+04  0.50400001928E-02 0.  1.
       -1    1    3    3    0  502  0.86258442103E+03 -0.10237968995E+04 -0.14896013830E+04  0.20027791329E+04  0.50400001928E-02 0. -1.
</event>
<event>
 5   0  0.1969465E-06  0.3135917E+04  0.7818609E-02  0.8205949E-01
        1   -1    0    0  501    0  0.00000000000E+00  0.00000000000E+00  0.19996297477E+04  0.19996297478E+04  0.50400001928E-02 0.  1.
       -1   -1    0    0    0  501  0.00000000000E+00  0.00000000000E+00 -0.12294747516E+04  0.12294747516E+04  0.50400001928E-02 0. -1.
    10030    2    1    2    0    0  0.00000000000E+00  0.00000000000E+00  0.77015499618E+03  0.32291044993E+04  0.31359172740E+04 0.  0.
        2    1    3    3  502    0 -0.23423473953E+03 -0.15169799437E+04  0.71458701075E+03  0.16931416535E+04  0.25500000920E-02 0. -1.
       -2    1    3    3    0  502  0.23423473953E+03  0.15169799437E+04  0.55567985434E+02  0.15359628458E+04  0.25500000920E-02 0.  1.
</event>
<event>
 5   0  0.5347280E-06  0.3219125E+04  0.7818609E-02  0.8183784E-01
       -2   -1    0    0    0  501  0.00000000000E+00  0.00000000000E+00  0.10604615714E+04  0.10604615714E+04  0.25500000920E-02 0. -1.
        2   -1    0    0  501    0  0.00000000000E+00  0.00000000000E+00 -0.24429853030E+04  0.24429853030E+04  0.25500000920E-02 0.  1.
    10030    2    1    2    0    0  0.00000000000E+00  0.00000000000E+00 -0.13825237316E+04  0.35034468744E+04  0.32191253678E+04 0.  0.
        2    1    3    3  502    0  0.58821100399E+03 -0.61758728919E+03  0.79432270987E+03  0.11654847972E+04  0.25500000920E-02 0. -1.
       -2    1    3    3    0  502 -0.58821100399E+03  0.61758728919E+03 -0.21768464415E+04  0.23379620773E+04  0.25500000920E-02 0.  1.
</event>
<event>
 5   0  0.5108810E-06  0.3190522E+04  0.7818609E-02  0.8191325E-01
       -2   -1    0    0    0  501  0.00000000000E+00  0.00000000000E+00  0.12649887839E+04  0.12649887839E+04  0.25500000920E-02 0.  1.
        2   -1    0    0  501    0  0.00000000000E+00  0.00000000000E+00 -0.20117634849E+04  0.20117634849E+04  0.25500000920E-02 0. -1.
    10030    2    1    2    0    0  0.00000000000E+00  0.00000000000E+00 -0.74677470103E+03  0.32767522688E+04  0.31905223674E+04 0.  0.
        1    1    3    3  502    0  0.93740906904E+03 -0.85096938920E+03 -0.13701716214E+04  0.18655441394E+04  0.50400001928E-02 0.  1.
       -1    1    3    3    0  502 -0.93740906904E+03  0.85096938920E+03  0.62339692036E+03  0.14112081294E+04  0.50400001928E-02 0. -1.
</event>
<event>
 5   0  0.5131083E-06  0.3241872E+04  0.7818609E-02  0.8177845E-01
        2   -1    0    0  501    0  0.00000000000E+00  0.00000000000E+00  0.33713727204E+04  0.33713727204E+04  0.25500000920E-02 0.  1.
       -2   -1    0    0    0  501  0.00000000000E+00  0.00000000000E+00 -0.77933661558E+03  0.77933661558E+03  0.25500000920E-02 0. -1.
    10030    2    1    2    0    0  0.00000000000E+00  0.00000000000E+00  0.25920361048E+04  0.41507093360E+04  0.32418724255E+04 0.  0.
        3    1    3    3  502    0 -0.33769549063E+03  0.98432417870E+03  0.28872028454E+04  0.30690181840E+04  0.10100000352E+00 0.  1.
       -3    1    3    3    0  502  0.33769549063E+03 -0.98432417870E+03 -0.29516674063E+03  0.10816911519E+04  0.10100000352E+00 0. -1.
</event>
<event>
 5   0  0.5347280E-06  0.3126854E+04  0.7818609E-02  0.8208406E-01
       -2   -1    0    0    0  501  0.00000000000E+00  0.00000000000E+00  0.21135900115E+04  0.21135900115E+04  0.25500000920E-02 0. -1.
        2   -1    0    0  501    0  0.00000000000E+00  0.00000000000E+00 -0.11564703083E+04  0.11564703083E+04  0.25500000920E-02 0.  1.
    10030    2    1    2    0    0  0.00000000000E+00  0.00000000000E+00  0.95711970313E+03  0.32700603198E+04  0.31268540690E+04 0.  0.
        2    1    3    3  502    0 -0.36373077485E+03 -0.91125155347E+03  0.17515271408E+04  0.20076171934E+04  0.25500000920E-02 0. -1.
       -2    1    3    3    0  502  0.36373077485E+03  0.91125155347E+03 -0.79440743771E+03  0.12624431264E+04  0.25500000920E-02 0.  1.
</event>
<event>
 5   0  0.1846850E-06  0.3224386E+04  0.7818609E-02  0.8182406E-01
       -1   -1    0    0    0  501  0.00000000000E+00  0.00000000000E+00  0.10803186713E+04  0.10803186713E+04  0.50400001928E-02 0.  1.
        1   -1    0    0  501    0  0.00000000000E+00  0.00000000000E+00 -0.24059251929E+04  0.24059251929E+04  0.50400001928E-02 0. -1.
    10030    2    1    2    0    0  0.00000000000E+00  0.00000000000E+00 -0.13256065216E+04  0.34862438643E+04  0.32243857758E+04 0.  0.
        5    1    3    3  502    0  0.12288884912E+04 -0.44646474709E+03  0.35700708067E+03  0.13553500802E+04  0.46999998093E+01 0.  1.
       -5    1    3    3    0  502 -0.12288884912E+04  0.44646474709E+03 -0.16826136023E+04  0.21308937840E+04  0.46999998093E+01 0. -1.
</event>
<event>
 5   0  0.5121624E-06  0.3033841E+04  0.7818609E-02  0.8234133E-01
       -2   -1    0    0    0  501  0.00000000000E+00  0.00000000000E+00  0.11069201839E+04  0.11069201839E+04  0.25500000920E-02 0.  1.
        2   -1    0    0  501    0  0.00000000000E+00  0.00000000000E+00 -0.20787843828E+04  0.20787843828E+04  0.25500000920E-02 0. -1.
    10030    2    1    2    0    0  0.00000000000E+00  0.00000000000E+00 -0.97186419898E+03  0.31857045667E+04  0.30338413876E+04 0.  0.
        4    1    3    3  502    0 -0.12039501387E+04 -0.48496811525E+03  0.33845030060E+03  0.13413576064E+04  0.12699999809E+01 0.  1.
       -4    1    3    3    0  502  0.12039501387E+04  0.48496811525E+03 -0.13103144996E+04  0.18443469603E+04  0.12699999809E+01 0. -1.
</event>
<event>
 5   0  0.1881144E-06  0.2695727E+04  0.7818609E-02  0.8336393E-01
        1   -1    0    0  501    0  0.00000000000E+00  0.00000000000E+00  0.97251386938E+03  0.97251386939E+03  0.50400001928E-02 0.  1.
       -1   -1    0    0    0  501  0.00000000000E+00  0.00000000000E+00 -0.18680821569E+04  0.18680821569E+04  0.50400001928E-02 0. -1.
    10030    2    1    2    0    0  0.00000000000E+00  0.00000000000E+00 -0.89556828751E+03  0.28405960263E+04  0.26957268458E+04 0.  0.
        3    1    3    3  502    0  0.93411623137E+03 -0.70471992888E+03  0.25714566213E+03  0.11980514236E+04  0.10100000352E+00 0.  1.
       -3    1    3    3    0  502 -0.93411623137E+03  0.70471992888E+03 -0.11527139496E+04  0.16425446027E+04  0.10100000352E+00 0. -1.
</event>
<event>
 5   0  0.1881144E-06  0.3131445E+04  0.7818609E-02  0.8207161E-01
       -1   -1    0    0    0  501  0.00000000000E+00  0.00000000000E+00  0.12065193390E+04  0.12065193390E+04  0.50400001928E-02 0. -1.
        1   -1    0    0  501    0  0.00000000000E+00  0.00000000000E+00 -0.20318665870E+04  0.20318665870E+04  0.50400001928E-02 0.  1.
    10030    2    1    2    0    0  0.00000000000E+00  0.00000000000E+00 -0.82534724804E+03  0.32383859261E+04  0.31314446069E+04 0.  0.
        3    1    3    3  502    0  0.88749573930E+03 -0.55047062867E+03 -0.16190537303E+04  0.19266555458E+04  0.10100000352E+00 0.  1.
       -3    1    3    3    0  502 -0.88749573930E+03  0.55047062867E+03  0.79370648227E+03  0.13117303803E+04  0.10100000352E+00 0. -1.
</event>
<event>
 5   0  0.5131083E-06  0.3195267E+04  0.7818609E-02  0.8190068E-01
       -2   -1    0    0    0  501  0.00000000000E+00  0.00000000000E+00  0.28266939298E+04  0.28266939298E+04  0.25500000920E-02 0.  1.
        2   -1    0    0  501    0  0.00000000000E+00  0.00000000000E+00 -0.90297447528E+03  0.90297447528E+03  0.25500000920E-02 0. -1.
    10030    2    1    2    0    0  0.00000000000E+00  0.00000000000E+00  0.19237194545E+04  0.37296684051E+04  0.31952667920E+04 0.  0.
        3    1    3    3  502    0 -0.12115173965E+03  0.15820546028E+04  0.74393124129E+03  0.17524292317E+04  0.10100000352E+00 0.  1.
       -3    1    3    3    0  502  0.12115173965E+03 -0.15820546028E+04  0.11797882132E+04  0.19772391733E+04  0.10100000352E+00 0. -1.
</event>
<event>
 5   0  0.1729500E-06  0.3167475E+04  0.7818609E-02  0.8197460E-01
        3   -1    0    0  501    0  0.00000000000E+00  0.00000000000E+00  0.16166708985E+04  0.16166709017E+04  0.10100000352E+00 0.  1.
       -3   -1    0    0    0  501  0.00000000000E+00  0.00000000000E+00 -0.15514747099E+04  0.15514747132E+04  0.10100000352E+00 0. -1.
    10030    2    1    2    0    0  0.00000000000E+00  0.00000000000E+00  0.65196188626E+02  0.31681456149E+04  0.31674747188E+04 0.  0.
        3    1    3    3  502    0 -0.33686105991E+03  0.20891852719E+03  0.15662531265E+04  0.16156333715E+04  0.10100000352E+00 0.  1.
       -3    1    3    3    0  502  0.33686105991E+03 -0.20891852719E+03 -0.15010569379E+04  0.15525122433E+04  0.10100000352E+00 0. -1.
</event>
<event>
 5   0  0.1881144E-06  0.3175740E+04  0.7818609E-02  0.8195254E-01
        1   -1    0    0  501    0  0.00000000000E+00  0.00000000000E+00  0.13661239004E+04  0.13661239004E+04  0.50400001928E-02 0.  1.
       -1   -1    0    0    0  501  0.00000000000E+00  0.00000000000E+00 -0.18456097622E+04  0.18456097622E+04  0.50400001928E-02 0. -1.
    10030    2    1    2    0    0  0.00000000000E+00  0.00000000000E+00 -0.47948586175E+03  0.32117336626E+04  0.31757402961E+04 0.  0.
        3    1    3    3  502    0 -0.11909101367E+04  0.88765094478E+03  0.32799330585E+03  0.15211084026E+04  0.10100000352E+00 0.  1.
       -3    1    3    3    0  502  0.11909101367E+04 -0.88765094478E+03 -0.80747916760E+03  0.16906252600E+04  0.10100000352E+00 0. -1.
</event>
<event>
 5   0  0.1886248E-06  0.3333284E+04  0.7818609E-02  0.8154478E-01
       -1   -1    0    0    0  501  0.00000000000E+00  0.00000000000E+00  0.26634800750E+04  0.26634800750E+04  0.50400001928E-02 0.  1.
        1   -1    0    0  501    0  0.00000000000E+00  0.00000000000E+00 -0.10428818987E+04  0.10428818987E+04  0.50400001928E-02 0. -1.
    10030    2    1    2    0    0  0.00000000000E+00  0.00000000000E+00  0.16205981763E+04  0.37063619737E+04  0.33332837609E+04 0.  0.
        4    1    3    3  502    0 -0.60185621142E+03  0.13413684018E+04  0.16831379733E+04  0.22348277648E+04  0.12699999809E+01 0.  1.
       -4    1    3    3    0  502  0.60185621142E+03 -0.13413684018E+04 -0.62539796978E+02  0.14715342088E+04  0.12699999809E+01 0. -1.
</event>
<event>
 5   0  0.1846850E-06  0.3009878E+04  0.7818609E-02  0.8240916E-01
        1   -1    0    0  501    0  0.00000000000E+00  0.00000000000E+00  0.20284402734E+04  0.20284402734E+04  0.50400001928E-02 0.  1.
       -1   -1    0    0    0  501  0.00000000000E+00  0.00000000000E+00 -0.11165432440E+04  0.11165432440E+04  0.50400001928E-02 0. -1.
    10030    2    1    2    0    0  0.00000000000E+00  0.00000000000E+00  0.91189702944E+03  0.31449835174E+04  0.30098779265E+04 0.  0.
        5    1    3    3  502    0  0.14790510327E+04  0.90374395545E+02  0.73053670153E+03  0.16521093944E+04  0.46999998093E+01 0.  1.
       -5    1    3    3    0  502 -0.14790510327E+04 -0.90374395545E+02  0.18136032791E+03  0.14928741230E+04  0.46999998093E+01 0. -1.
</event>
<event>
 5   0  0.1886248E-06  0.3298613E+04  0.7818609E-02  0.8163248E-01
       -1   -1    0    0    0  501  0.00000000000E+00  0.00000000000E+00  0.22276601737E+04  0.22276601737E+04  0.50400001928E-02 0.  1.
        1   -1    0    0  501    0  0.00000000000E+00  0.00000000000E+00 -0.12211070633E+04  0.12211070633E+04  0.50400001928E-02 0. -1.
    10030    2    1    2    0    0  0.00000000000E+00  0.00000000000E+00  0.10065531103E+04  0.34487672370E+04  0.32986127828E+04 0.  0.
        4    1    3    3  502    0 -0.66120780924E+03 -0.79578690355E+02  0.20808285371E+04  0.21848060666E+04  0.12699999809E+01 0.  1.
       -4    1    3    3    0  502  0.66120780924E+03  0.79578690355E+02 -0.10742754267E+04  0.12639611704E+04  0.12699999809E+01 0. -1.
</event>
<event>
 5   0  0.5108810E-06  0.3220665E+04  0.7818609E-02  0.8183381E-01
        2   -1    0    0  501    0  0.00000000000E+00  0.00000000000E+00  0.16362412943E+04  0.16362412943E+04  0.25500000920E-02 0. -1.
       -2   -1    0    0    0  501  0.00000000000E+00  0.00000000000E+00 -0.15848337012E+04  0.15848337012E+04  0.25500000920E-02 0.  1.
    10030    2    1    2    0    0  0.00000000000E+00  0.00000000000E+00  0.51407593059E+02  0.32210749955E+04  0.32206647428E+04 0.  0.
        1    1    3    3  502    0  0.53328709001E+03  0.14979434002E+04  0.28057109816E+03  0.16146051194E+04  0.50400001928E-02 0.  1.
       -1    1    3    3    0  502 -0.53328709001E+03 -0.14979434002E+04 -0.22916350510E+03  0.16064698760E+04  0.50400001928E-02 0. -1.
</event>
<event>
 5   0  0.1977015E-06  0.3272071E+04  0.7818609E-02  0.8170038E-01
        1   -1    0    0  501    0  0.00000000000E+00  0.00000000000E+00  0.32481077437E+04  0.32481077437E+04  0.50400001928E-02 0. -1.
       -1   -1    0    0    0  501  0.00000000000E+00  0.00000000000E+00 -0.82405291693E+03  0.82405291694E+03  0.50400001928E-02 0.  1.
    10030    2    1    2    0    0  0.00000000000E+00  0.00000000000E+00  0.24240548267E+04  0.40721606606E+04  0.32720713077E+04 0.  0.
        1    1    3    3  502    0 -0.65790276158E+03  0.62512091144E+03 -0.48207596442E+03  0.10276231961E+04  0.50400001928E-02 0.  1.
       -1    1    3    3    0  502  0.65790276158E+03 -0.62512091144E+03  0.29061307912E+04  0.30445374645E+04  0.50400001928E-02 0. -1.
</event>
<event>
 5   0  0.5131083E-06  0.3325123E+04  0.7818609E-02  0.8156532E-01
        2   -1    0    0  501    0  0.00000000000E+00  0.00000000000E+00  0.22096367226E+04  0.22096367226E+04  0.25500000920E-02 0.  1.
       -2   -1    0    0    0  501  0.00000000000E+00  0.00000000000E+00 -0.12509346419E+04  0.12509346419E+04  0.25500000920E-02 0. -1.
    10030    2    1    2    0    0  0.00000000000E+00  0.00000000000E+00  0.95870208071E+03  0.34605713646E+04  0.33251232293E+04 0.  0.
        3    1    3    3  502    0  0.98544145540E+03 -0.37927836746E+03  0.18158604177E+04  0.21005465976E+04  0.10100000352E+00 0.  1.
       -3    1    3    3    0  502 -0.98544145540E+03  0.37927836746E+03 -0.85715833694E+03  0.13600247670E+04  0.10100000352E+00 0. -1.
</event>
<event>
 5   0  0.5121624E-06  0.2240031E+04  0.7818609E-02  0.8501949E-01
        2   -1    0    0  501    0  0.00000000000E+00  0.00000000000E+00  0.23399372027E+04  0.23399372027E+04  0.25500000920E-02 0.  1.
       -2   -1    0    0    0  501  0.00000000000E+00  0.00000000000E+00 -0.53609747867E+03  0.53609747868E+03  0.25500000920E-02 0. -1.
    10030    2    1    2    0    0  0.00000000000E+00  0.00000000000E+00  0.18038397240E+04  0.28760346813E+04  0.22400307450E+04 0.  0.
        4    1    3    3  502    0  0.64280059055E+03 -0.84256310345E+03  0.13672039582E+04  0.17298420329E+04  0.12699999809E+01 0. -1.
       -4    1    3    3    0  502 -0.64280059055E+03  0.84256310345E+03  0.43663576579E+03  0.11461926485E+04  0.12699999809E+01 0.  1.
</event>
<event>
 5   0  0.1886248E-06  0.3198382E+04  0.7818609E-02  0.8189245E-01
       -1   -1    0    0    0  501  0.00000000000E+00  0.00000000000E+00  0.11425399321E+04  0.11425399321E+04  0.50400001928E-02 0.  1.
        1   -1    0    0  501    0  0.00000000000E+00  0.00000000000E+00 -0.22383565316E+04  0.22383565316E+04  0.50400001928E-02 0. -1.
    10030    2    1    2    0    0  0.00000000000E+00  0.00000000000E+00 -0.10958165995E+04  0.33808964637E+04  0.31983819157E+04 0.  0.
        4    1    3    3  502    0 -0.28641825874E+03 -0.56830770162E+03 -0.20987345624E+04  0.21931022408E+04  0.12699999809E+01 0. -1.
       -4    1    3    3    0  502  0.28641825874E+03  0.56830770162E+03  0.10029179629E+04  0.11877942229E+04  0.12699999809E+01 0.  1.
</event>
<event>
 5   0  0.1977015E-06  0.3304418E+04  0.7818609E-02  0.8161772E-01
       -1   -1    0    0    0  501  0.00000000000E+00  0.00000000000E+00  0.11036094179E+04  0.11036094179E+04  0.50400001928E-02 0.  1.
        1   -1    0    0  501    0  0.00000000000E+00  0.00000000000E+00 -0.24735146815E+04  0.24735146815E+04  0.50400001928E-02 0. -1.
    10030    2    1    2    0    0  0.00000000000E+00  0.00000000000E+00 -0.13699052636E+04  0.35771240994E+04  0.33044177083E+04 0.  0.
        1    1    3    3  502    0 -0.15657504663E+04  0.37378192355E+02 -0.11539232287E+03  0.15704416704E+04  0.50400001928E-02 0.  1.
       -1    1    3    3    0  502  0.15657504663E+04 -0.37378192355E+02 -0.12545129407E+04  0.20066824289E+04  0.50400001928E-02 0. -1.
</event>
<event>
 5   0  0.5347280E-06  0.3056592E+04  0.7818609E-02  0.8227753E-01
       -2   -1    0    0    0  501  0.00000000000E+00  0.00000000000E+00  0.14146627735E+04  0.14146627735E+04  0.25500000920E-02 0. -1.
        2   -1    0    0  501    0  0.00000000000E+00  0.00000000000E+00 -0.16510571030E+04  0.16510571030E+04  0.25500000920E-02 0.  1.
    10030    2    1    2    0    0  0.00000000000E+00  0.00000000000E+00 -0.23639432948E+03  0.30657198766E+04  0.30565922336E+04 0.  0.
        2    1    3    3  502    0  0.14973414681E+04 -0.30498559668E+03 -0.14359737223E+03  0.15348185207E+04  0.25500000920E-02 0.  1.
       -2    1    3    3    0  502 -0.14973414681E+04  0.30498559668E+03 -0.92796957246E+02  0.15309013559E+04  0.25500000920E-02 0. -1.
</event>
<event>
 5   0  0.5131083E-06  0.3248700E+04  0.7818609E-02  0.8176073E-01
        2   -1    0    0  501    0  0.00000000000E+00  0.00000000000E+00  0.18935819091E+04  0.18935819091E+04  0.25500000920E-02 0. -1.
       -2   -1    0    0    0  501  0.00000000000E+00  0.00000000000E+00 -0.13933980761E+04  0.13933980761E+04  0.25500000920E-02 0.  1.
    10030    2    1    2    0    0  0.00000000000E+00  0.00000000000E+00  0.50018383300E+03  0.32869799852E+04  0.32487002873E+04 0.  0.
        3    1    3    3  502    0  0.31205355659E+03  0.13838340849E+04  0.10507053145E+04  0.17653203293E+04  0.10100000352E+00 0. -1.
       -3    1    3    3    0  502 -0.31205355659E+03 -0.13838340849E+04 -0.55052148149E+03  0.15216596560E+04  0.10100000352E+00 0.  1.
</event>
<event>
 5   0  0.1886248E-06  0.3207489E+04  0.7818609E-02  0.8186842E-01
       -1   -1    0    0    0  501  0.00000000000E+00  0.00000000000E+00  0.15050702489E+04  0.15050702489E+04  0.50400001928E-02 0.  1.
        1   -1    0    0  501    0  0.00000000000E+00  0.00000000000E+00 -0.17088880712E+04  0.17088880712E+04  0.50400001928E-02 0. -1.
    10030    2    1    2    0    0  0.00000000000E+00  0.00000000000E+00 -0.20381782234E+03  0.32139583201E+04  0.32074891081E+04 0.  0.
        4    1    3    3  502    0 -0.78206081664E+02 -0.19573202181E+03  0.14911302578E+04  0.15059542736E+04  0.12699999809E+01 0.  1.
       -4    1    3    3    0  502  0.78206081664E+02  0.19573202181E+03 -0.16949480801E+04  0.17080040465E+04  0.12699999809E+01 0. -1.
</event>
<event>
 5   0  0.1969465E-06  0.3281960E+04  0.7818609E-02  0.8167501E-01
       -1   -1    0    0    0  501  0.00000000000E+00  0.00000000000E+00  0.16486474578E+04  0.16486474578E+04  0.50400001928E-02 0. -1.
        1   -1    0    0  501    0  0.00000000000E+00  0.00000000000E+00 -0.16333477898E+04  0.16333477898E+04  0.50400001928E-02 0.  1.
    10030    2    1    2    0    0  0.00000000000E+00  0.00000000000E+00  0.15299667953E+02  0.32819952476E+04  0.32819595862E+04 0.  0.
        2    1    3    3  502    0 -0.68860368540E+03  0.13987306532E+04  0.51970247142E+03  0.16433846581E+04  0.25500000920E-02 0.  1.
       -2    1    3    3    0  502  0.68860368540E+03 -0.13987306532E+04 -0.50440280347E+03  0.16386105895E+04  0.25500000920E-02 0. -1.
</event>
<event>
 5   0  0.1977015E-06  0.3192511E+04  0.7818609E-02  0.8190798E-01
       -1   -1    0    0    0  501  0.00000000000E+00  0.00000000000E+00  0.90762647259E+03  0.90762647260E+03  0.50400001928E-02 0.  1.
        1   -1    0    0  501    0  0.00000000000E+00  0.00000000000E+00 -0.28073566144E+04  0.28073566144E+04  0.50400001928E-02 0. -1.
    10030    2    1    2    0    0  0.00000000000E+00  0.00000000000E+00 -0.18997301418E+04  0.37149830870E+04  0.31925107243E+04 0.  0.
        1    1    3    3  502    0 -0.56168845093E+03 -0.11777562800E+04  0.12008284776E+03  0.13103524950E+04  0.50400001928E-02 0.  1.
       -1    1    3    3    0  502  0.56168845093E+03  0.11777562800E+04 -0.20198129896E+04  0.24046305919E+04  0.50400001928E-02 0. -1.
</event>
<event>
 5   0  0.5347280E-06  0.3220033E+04  0.7818609E-02  0.8183547E-01
       -2   -1    0    0    0  501  0.00000000000E+00  0.00000000000E+00  0.11970611362E+04  0.11970611362E+04  0.25500000920E-02 0. -1.
        2   -1    0    0  501    0  0.00000000000E+00  0.00000000000E+00 -0.21654304069E+04  0.21654304069E+04  0.25500000920E-02 0.  1.
    10030    2    1    2    0    0  0.00000000000E+00  0.00000000000E+00 -0.96836927069E+03  0.33624915431E+04  0.32200326602E+04 0.  0.
        2    1    3    3  502    0 -0.26438859735E+03  0.11829157792E+04 -0.15907660195E+04  0.19999318988E+04  0.25500000920E-02 0.  1.
       -2    1    3    3    0  502  0.26438859735E+03 -0.11829157792E+04  0.62239674880E+03  0.13625596442E+04  0.25500000920E-02 0. -1.
</event>
<event>
 5   0  0.1846850E-06  0.3184165E+04  0.7818609E-02  0.8193012E-01
        1   -1    0    0  501    0  0.00000000000E+00  0.00000000000E+00  0.19757360624E+04  0.19757360624E+04  0.50400001928E-02 0. -1.
       -1   -1    0    0    0  501  0.00000000000E+00  0.00000000000E+00 -0.12829275547E+04  0.12829275547E+04  0.50400001928E-02 0.  1.
    10030    2    1    2    0    0  0.00000000000E+00  0.00000000000E+00  0.69280850769E+03  0.32586636172E+04  0.31841647165E+04 0.  0.
        5    1    3    3  502    0 -0.12936490632E+04 -0.57777558276E+03  0.10895844861E+04  0.17873357170E+04  0.46999998093E+01 0.  1.
       -5    1    3    3    0  502  0.12936490632E+04  0.57777558276E+03 -0.39677597840E+03  0.14713279002E+04  0.46999998093E+01 0. -1.
</event>
<event>
 5   0  0.1881144E-06  0.3288278E+04  0.7818609E-02  0.8165885E-01
        1   -1    0    0  501    0  0.00000000000E+00  0.00000000000E+00  0.14242497670E+04  0.14242497670E+04  0.50400001928E-02 0.  1.
       -1   -1    0    0    0  501  0.00000000000E+00  0.00000000000E+00 -0.18979764889E+04  0.18979764889E+04  0.50400001928E-02 0. -1.
    10030    2    1    2    0    0  0.00000000000E+00  0.00000000000E+00 -0.47372672183E+03  0.33222262559E+04  0.32882777085E+04 0.  0.
        3    1    3    3  502    0 -0.66518841577E+03  0.12193751656E+04  0.65190098683E+03  0.15343814160E+04  0.10100000352E+00 0.  1.
       -3    1    3    3    0  502  0.66518841577E+03 -0.12193751656E+04 -0.11256277087E+04  0.17878448399E+04  0.10100000352E+00 0. -1.
</event>
<event>
 5   0  0.5131083E-06  0.3241045E+04  0.7818609E-02  0.8178061E-01
        2   -1    0    0  501    0  0.00000000000E+00  0.00000000000E+00  0.20467646224E+04  0.20467646224E+04  0.25500000920E-02 0.  1.
       -2   -1    0    0    0  501  0.00000000000E+00  0.00000000000E+00 -0.12830463215E+04  0.12830463215E+04  0.25500000920E-02 0. -1.
    10030    2    1    2    0    0  0.00000000000E+00  0.00000000000E+00  0.76371830088E+03  0.33298109438E+04  0.32410453990E+04 0.  0.
        3    1    3    3  502    0  0.12431376604E+04  0.99783563838E+03  0.68143850634E+03  0.17336163509E+04  0.10100000352E+00 0.  1.
       -3    1    3    3    0  502 -0.12431376604E+04 -0.99783563838E+03  0.82279794537E+02  0.15961945930E+04  0.10100000352E+00 0. -1.
</event>
<event>
 5   0  0.5131083E-06  0.3082758E+04  0.7818609E-02  0.8220486E-01
        2   -1    0    0  501    0  0.00000000000E+00  0.00000000000E+00  0.16489903968E+04  0.16489903968E+04  0.25500000920E-02 0.  1.
       -2   -1    0    0    0  501  0.00000000000E+00  0.00000000000E+00 -0.14407900245E+04  0.14407900245E+04  0.25500000920E-02 0. -1.
    10030    2    1    2    0    0  0.00000000000E+00  0.00000000000E+00  0.20820037229E+03  0.30897804213E+04  0.30827578005E+04 0.  0.
        3    1    3    3  502    0  0.84039021091E+02 -0.13974967807E+04  0.75038620197E+03  0.15884392564E+04  0.10100000352E+00 0.  1.
       -3    1    3    3    0  502 -0.84039021091E+02  0.13974967807E+04 -0.54218582968E+03  0.15013411648E+04  0.10100000352E+00 0. -1.
</event>
<event>
 5   0  0.1977015E-06  0.2113810E+04  0.7818609E-02  0.8555184E-01
       -1   -1    0    0    0  501  0.00000000000E+00  0.00000000000E+00  0.61375333360E+03  0.61375333363E+03  0.50400001928E-02 0. -1.
        1   -1    0    0  501    0  0.00000000000E+00  0.00000000000E+00 -0.18200285668E+04  0.18200285668E+04  0.50400001928E-02 0.  1.
    10030    2    1    2    0    0  0.00000000000E+00  0.00000000000E+00 -0.12062752332E+04  0.24337819004E+04  0.21138103985E+04 0.  0.
        1    1    3    3  502    0 -0.37209868750E+02 -0.10047815697E+04 -0.22814014836E+03  0.10310278873E+04  0.50400001928E-02 0. -1.
       -1    1    3    3    0  502  0.37209868750E+02  0.10047815697E+04 -0.97813508483E+03  0.14027540131E+04  0.50400001928E-02 0.  1.
</event>
<event>
 5   0  0.5108810E-06  0.3216637E+04  0.7818609E-02  0.8184437E-01
        2   -1    0    0  501    0  0.00000000000E+00  0.00000000000E+00  0.13727131074E+04  0.13727131074E+04  0.25500000920E-02 0. -1.
       -2   -1    0    0    0  501  0.00000000000E+00  0.00000000000E+00 -0.18843625175E+04  0.18843625175E+04  0.25500000920E-02 0.  1.
    10030    2    1    2    0    0  0.00000000000E+00  0.00000000000E+00 -0.51164941007E+03  0.32570756249E+04  0.32166374535E+04 0.  0.
        1    1    3    3  502    0  0.15658143953E+04 -0.81039915301E+02  0.10693453604E+03  0.15715524756E+04  0.50400001928E-02 0.  1.
       -1    1    3    3    0  502 -0.15658143953E+04  0.81039915301E+02 -0.61858394611E+03  0.16855231493E+04  0.50400001928E-02 0. -1.
</event>
<event>
 5   0  0.1969465E-06  0.3152936E+04  0.7818609E-02  0.8201358E-01
        1   -1    0    0  501    0  0.00000000000E+00  0.00000000000E+00  0.17515779264E+04  0.17515779264E+04  0.50400001928E-02 0. -1.
       -1   -1    0    0    0  501  0.00000000000E+00  0.00000000000E+00 -0.14188645209E+04  0.14188645209E+04  0.50400001928E-02 0.  1.
    10030    2    1    2    0    0  0.00000000000E+00  0.00000000000E+00  0.33271340546E+03  0.31704424473E+04  0.31529362667E+04 0.  0.
        2    1    3    3  502    0 -0.52065937282E+03  0.11917988593E+04 -0.72953404457E+03  0.14912044212E+04  0.25500000920E-02 0. -1.
       -2    1    3    3    0  502  0.52065937282E+03 -0.11917988593E+04  0.10622474500E+04  0.16792380262E+04  0.25500000920E-02 0.  1.
</event>
<event>
 5   0  0.1977015E-06  0.3217049E+04  0.7818609E-02  0.8184329E-01
        1   -1    0    0  501    0  0.00000000000E+00  0.00000000000E+00  0.17898412337E+04  0.17898412337E+04  0.50400001928E-02 0.  1.
       -1   -1    0    0    0  501  0.00000000000E+00  0.00000000000E+00 -0.14455757152E+04  0.14455757152E+04  0.50400001928E-02 0. -1.
    10030    2    1    2    0    0  0.00000000000E+00  0.00000000000E+00  0.34426551853E+03  0.32354169489E+04  0.32170489717E+04 0.  0.
        1    1    3    3  502    0  0.11823404429E+04 -0.10017542507E+04  0.60576799755E+03  0.16638495631E+04  0.50400001928E-02 0.  1.
       -1    1    3    3    0  502 -0.11823404429E+04  0.10017542507E+04 -0.26150247902E+03  0.15715673858E+04  0.50400001928E-02 0. -1.
</event>
<event>
 5   0  0.5373060E-06  0.3169202E+04  0.7818609E-02  0.8196998E-01
        2   -1    0    0  501    0  0.00000000000E+00  0.00000000000E+00  0.31738988490E+04  0.31738988490E+04  0.25500000920E-02 0.  1.
       -2   -1    0    0    0  501  0.00000000000E+00  0.00000000000E+00 -0.79112821090E+03  0.79112821090E+03  0.25500000920E-02 0. -1.
    10030    2    1    2    0    0  0.00000000000E+00  0.00000000000E+00  0.23827706381E+04  0.39650270599E+04  0.31692023716E+04 0.  0.
        5    1    3    3  502    0 -0.13492989230E+04 -0.58386884162E+03  0.45182211436E+03  0.15380753300E+04  0.46999998093E+01 0. -1.
       -5    1    3    3    0  502  0.13492989230E+04  0.58386884162E+03  0.19309485237E+04  0.24269517299E+04  0.46999998093E+01 0.  1.
</event>
<event>
 5   0  0.5108810E-06  0.2559652E+04  0.7818609E-02  0.8382037E-01
        2   -1    0    0  501    0  0.00000000000E+00  0.00000000000E+00  0.19163436330E+04  0.19163436330E+04  0.25500000920E-02 0.  1.
       -2   -1    0    0    0  501  0.00000000000E+00  0.00000000000E+00 -0.85472925976E+03  0.85472925976E+03  0.25500000920E-02 0. -1.
    10030    2    1    2    0    0  0.00000000000E+00  0.00000000000E+00  0.10616143732E+04  0.27710728928E+04  0.25596523005E+04 0.  0.
        1    1    3    3  502    0 -0.10397383055E+04 -0.66817625717E+03  0.17103331192E+03  0.12477049525E+04  0.50400001928E-02 0.  1.
       -1    1    3    3    0  502  0.10397383055E+04  0.66817625717E+03  0.89058106131E+03  0.15233679403E+04  0.50400001928E-02 0. -1.
</event>
<event>
 5   0  0.1886248E-06  0.3340274E+04  0.7818609E-02  0.8152723E-01
       -1   -1    0    0    0  501  0.00000000000E+00  0.00000000000E+00  0.14837891122E+04  0.14837891123E+04  0.50400001928E-02 0.  1.
        1   -1    0    0  501    0  0.00000000000E+00  0.00000000000E+00 -0.18798881558E+04  0.18798881558E+04  0.50400001928E-02 0. -1.
    10030    2    1    2    0    0  0.00000000000E+00  0.00000000000E+00 -0.39609904355E+03  0.33636772681E+04  0.33402739875E+04 0.  0.
        4    1    3    3  502    0 -0.22256477579E+03  0.13022568841E+04 -0.12269459032E+04  0.18029991498E+04  0.12699999809E+01 0. -1.
       -4    1    3    3    0  502  0.22256477579E+03 -0.13022568841E+04  0.83084685969E+03  0.15606781183E+04  0.12699999809E+01 0.  1.
</event>
<event>
 5   0  0.1969465E-06  0.3187397E+04  0.7818609E-02  0.8192153E-01
       -1   -1    0    0    0  501  0.00000000000E+00  0.00000000000E+00  0.22581308719E+04  0.22581308719E+04  0.50400001928E-02 0.  1.
        1   -1    0    0  501    0  0.00000000000E+00  0.00000000000E+00 -0.11247688495E+04  0.11247688495E+04  0.50400001928E-02 0. -1.
    10030    2    1    2    0    0  0.00000000000E+00  0.00000000000E+00  0.11333620223E+04  0.33828997214E+04  0.31873972221E+04 0.  0.
        2    1    3    3  502    0 -0.62360516356E+03 -0.14346791324E+04  0.88980103330E+03  0.17997037233E+04  0.25500000920E-02 0.  1.
       -2    1    3    3    0  502  0.62360516356E+03  0.14346791324E+04  0.24356098903E+03  0.15831959981E+04  0.25500000920E-02 0. -1.
</event>
<event>
 5   0  0.5347280E-06  0.3198920E+04  0.7818609E-02  0.8189102E-01
        2   -1    0    0  501    0  0.00000000000E+00  0.00000000000E+00  0.16830498598E+04  0.16830498598E+04  0.25500000920E-02 0.  1.
       -2   -1    0    0    0  501  0.00000000000E+00  0.00000000000E+00 -0.15200218146E+04  0.15200218146E+04  0.25500000920E-02 0. -1.
    10030    2    1    2    0    0  0.00000000000E+00  0.00000000000E+00  0.16302804521E+03  0.32030716744E+04  0.31989201315E+04 0.  0.
        2    1    3    3  502    0  0.28079774188E+03  0.10359585062E+04 -0.11058643628E+04  0.15411013553E+04  0.25500000920E-02 0. -1.
       -2    1    3    3    0  502 -0.28079774188E+03 -0.10359585062E+04  0.12688924080E+04  0.16619703191E+04  0.25500000920E-02 0.  1.
</event>
<event>
 5   0  0.1881144E-06  0.3177784E+04  0.7818609E-02  0.8194709E-01
        1   -1    0    0  501    0  0.00000000000E+00  0.00000000000E+00  0.12935208687E+04  0.12935208687E+04  0.50400001928E-02 0. -1.
       -1   -1    0    0    0  501  0.00000000000E+00  0.00000000000E+00 -0.19517095252E+04  0.19517095252E+04  0.50400001928E-02 0.  1.
    10030    2    1    2    0    0  0.00000000000E+00  0.00000000000E+00 -0.65818865648E+03  0.32452303939E+04  0.31777835045E+04 0.  0.
        3    1    3    3  502    0 -0.13183303590E+04  0.35888448593E+03 -0.11573470559E+04  0.17905991253E+04  0.10100000352E+00 0.  1.
       -3    1    3    3    0  502  0.13183303590E+04 -0.35888448593E+03  0.49915839939E+03  0.14546312686E+04  0.10100000352E+00 0. -1.
</event>
<event>
 5   0  0.5373060E-06  0.3213568E+04  0.7818609E-02  0.8185243E-01
       -2   -1    0    0    0  501  0.00000000000E+00  0.00000000000E+00  0.18739290793E+04  0.18739290793E+04  0.25500000920E-02 0.  1.
        2   -1    0    0  501    0  0.00000000000E+00  0.00000000000E+00 -0.13777231539E+04  0.13777231539E+04  0.25500000920E-02 0. -1.
    10030    2    1    2    0    0  0.00000000000E+00  0.00000000000E+00  0.49620592548E+03  0.32516522332E+04  0.32135684099E+04 0.  0.
        5    1    3    3  502    0 -0.50981004771E+03 -0.11360211524E+04  0.12756589194E+04  0.17826323547E+04  0.46999998093E+01 0. -1.
       -5    1    3    3    0  502  0.50981004771E+03  0.11360211524E+04 -0.77945299395E+03  0.14690198784E+04  0.46999998093E+01 0.  1.
</event>
<event>
 5   0  0.1881144E-06  0.3132975E+04  0.7818609E-02  0.8206746E-01
       -1   -1    0    0    0  501  0.00000000000E+00  0.00000000000E+00  0.12019989584E+04  0.12019989584E+04  0.50400001928E-02 0. -1.
        1   -1    0    0  501    0  0.00000000000E+00  0.00000000000E+00 -0.20415022835E+04  0.20415022835E+04  0.50400001928E-02 0.  1.
    10030    2    1    2    0    0  0.00000000000E+00  0.00000000000E+00 -0.83950332516E+03  0.32435012419E+04  0.31329753387E+04 0.  0.
        3    1    3    3  502    0  0.11102729306E+04  0.35998921625E+03  0.66189633281E+03  0.13417917059E+04  0.10100000352E+00 0. -1.
       -3    1    3    3    0  502 -0.11102729306E+04 -0.35998921625E+03 -0.15013996580E+04  0.19017095360E+04  0.10100000352E+00 0.  1.
</event>
<event>
 5   0  0.5347280E-06  0.3235497E+04  0.7818609E-02  0.8179505E-01
        2   -1    0    0  501    0  0.00000000000E+00  0.00000000000E+00  0.13634538956E+04  0.13634538956E+04  0.25500000920E-02 0. -1.
       -2   -1    0    0    0  501  0.00000000000E+00  0.00000000000E+00 -0.19194713279E+04  0.19194713279E+04  0.25500000920E-02 0.  1.
    10030    2    1    2    0    0  0.00000000000E+00  0.00000000000E+00 -0.55601743233E+03  0.32829252235E+04  0.32354972783E+04 0.  0.
        2    1    3    3  502    0 -0.10595020170E+04 -0.42050019651E+03 -0.14427668692E+04  0.18387335800E+04  0.25500000920E-02 0.  1.
       -2    1    3    3    0  502  0.10595020170E+04  0.42050019651E+03  0.88674943684E+03  0.14441916435E+04  0.25500000920E-02 0. -1.
</event>
<event>
 5   0  0.5347280E-06  0.3120147E+04  0.7818609E-02  0.8210230E-01
       -2   -1    0    0    0  501  0.00000000000E+00  0.00000000000E+00  0.16069896064E+04  0.16069896064E+04  0.25500000920E-02 0. -1.
        2   -1    0    0  501    0  0.00000000000E+00  0.00000000000E+00 -0.15145271846E+04  0.15145271846E+04  0.25500000920E-02 0.  1.
    10030    2    1    2    0    0  0.00000000000E+00  0.00000000000E+00  0.92462421819E+02  0.31215167910E+04  0.31201470762E+04 0.  0.
        2    1    3    3  502    0 -0.13118593789E+03 -0.12234423715E+04 -0.91325626124E+03  0.15323374254E+04  0.25500000920E-02 0. -1.
       -2    1    3    3    0  502  0.13118593789E+03  0.12234423715E+04  0.10057186831E+04  0.15891793656E+04  0.25500000920E-02 0.  1.
</event>
<event>
 5   0  0.1977015E-06  0.3210746E+04  0.7818609E-02  0.8185985E-01
        1   -1    0    0  501    0  0.00000000000E+00  0.00000000000E+00  0.10607721924E+04  0.10607721924E+04  0.50400001928E-02 0. -1.
       -1   -1    0    0    0  501  0.00000000000E+00  0.00000000000E+00 -0.24295722003E+04  0.24295722003E+04  0.50400001928E-02 0.  1.
    10030    2    1    2    0    0  0.00000000000E+00  0.00000000000E+00 -0.13688000079E+04  0.34903443927E+04  0.32107460999E+04 0.  0.
        1    1    3    3  502    0 -0.79773089712E+02  0.35934096616E+03  0.10142793155E+04  0.10790051926E+04  0.50400001928E-02 0. -1.
       -1    1    3    3    0  502  0.79773089712E+02 -0.35934096616E+03 -0.23830793235E+04  0.24113392001E+04  0.50400001928E-02 0.  1.
</event>
<event>
 5   0  0.5131083E-06  0.2467334E+04  0.7818609E-02  0.8414716E-01
       -2   -1    0    0    0  501  0.00000000000E+00  0.00000000000E+00  0.54278137963E+03  0.54278137964E+03  0.25500000920E-02 0. -1.
        2   -1    0    0  501    0  0.00000000000E+00  0.00000000000E+00 -0.28039549448E+04  0.28039549448E+04  0.25500000920E-02 0.  1.
    10030    2    1    2    0    0  0.00000000000E+00  0.00000000000E+00 -0.22611735652E+04  0.33467363244E+04  0.24673342160E+04 0.  0.
        3    1    3    3  502    0  0.81582618661E+03 -0.92514049951E+03 -0.11602179978E+04  0.16933880604E+04  0.10100000352E+00 0.  1.
       -3    1    3    3    0  502 -0.81582618661E+03  0.92514049951E+03 -0.11009555674E+04  0.16533482640E+04  0.10100000352E+00 0. -1.
</event>
<event>
 5   0  0.5347280E-06  0.2210049E+04  0.7818609E-02  0.8514257E-01
        2   -1    0    0  501    0  0.00000000000E+00  0.00000000000E+00  0.12092730383E+04  0.12092730383E+04  0.25500000920E-02 0. -1.
       -2   -1    0    0    0  501  0.00000000000E+00  0.00000000000E+00 -0.10097627604E+04  0.10097627604E+04  0.25500000920E-02 0.  1.
    10030    2    1    2    0    0  0.00000000000E+00  0.00000000000E+00  0.19951027791E+03  0.22190357987E+04  0.22100487607E+04 0.  0.
        2    1    3    3  502    0  0.16281042506E+03 -0.10625365389E+04  0.35689761395E+03  0.11326372049E+04  0.25500000920E-02 0. -1.
       -2    1    3    3    0  502 -0.16281042506E+03  0.10625365389E+04 -0.15738733604E+03  0.10863985938E+04  0.25500000920E-02 0.  1.
</event>
<event>
 5   0  0.1881144E-06  0.2838033E+04  0.7818609E-02  0.8291557E-01
        1   -1    0    0  501    0  0.00000000000E+00  0.00000000000E+00  0.15642446515E+04  0.15642446515E+04  0.50400001928E-02 0. -1.
       -1   -1    0    0    0  501  0.00000000000E+00  0.00000000000E+00 -0.12872720218E+04  0.12872720218E+04  0.50400001928E-02 0.  1.
    10030    2    1    2    0    0  0.00000000000E+00  0.00000000000E+00  0.27697262972E+03  0.28515166733E+04  0.28380333860E+04 0.  0.
        3    1    3    3  502    0  0.12704324228E+04 -0.55389026103E+02  0.77119376111E+03  0.14872142793E+04  0.10100000352E+00 0. -1.
       -3    1    3    3    0  502 -0.12704324228E+04  0.55389026103E+02 -0.49422113140E+03  0.13643023939E+04  0.10100000352E+00 0.  1.
</event>
<event>
 5   0  0.1881144E-06  0.3117808E+04  0.7818609E-02  0.8210868E-01
       -1   -1    0    0    0  501  0.00000000000E+00  0.00000000000E+00  0.12850673969E+04  0.12850673969E+04  0.50400001928E-02 0. -1.
        1   -1    0    0  501    0  0.00000000000E+00  0.00000000000E+00 -0.18910925370E+04  0.18910925370E+04  0.50400001928E-02 0.  1.
    10030    2    1    2    0    0  0.00000000000E+00  0.00000000000E+00 -0.60602514015E+03  0.31761599339E+04  0.31178077964E+04 0.  0.
        3    1    3    3  502    0  0.10223300709E+03  0.92811319568E+03  0.96868408507E+03  0.13454347099E+04  0.10100000352E+00 0. -1.
       -3    1    3    3    0  502 -0.10223300709E+03 -0.92811319568E+03 -0.15747092252E+04  0.18307252240E+04  0.10100000352E+00 0.  1.
</event>
<event>
 5   0  0.1886248E-06  0.3161041E+04  0.7818609E-02  0.8199183E-01
        1   -1    0    0  501    0  0.00000000000E+00  0.00000000000E+00  0.16317626231E+04  0.16317626231E+04  0.50400001928E-02 0.  1.
       -1   -1    0    0    0  501  0.00000000000E+00  0.00000000000E+00 -0.15308875061E+04  0.15308875061E+04  0.50400001928E-02 0. -1.
    10030    2    1    2    0    0  0.00000000000E+00  0.00000000000E+00  0.10087511709E+03  0.31626501292E+04  0.31610409758E+04 0.  0.
        4    1    3    3  502    0 -0.35590202087E+03 -0.73781459539E+03  0.14027937811E+04  0.16244594888E+04  0.12699999809E+01 0.  1.
       -4    1    3    3    0  502  0.35590202087E+03  0.73781459539E+03 -0.13019186640E+04  0.15381906404E+04  0.12699999809E+01 0. -1.
</event>
<event>
 5   0  0.5131083E-06  0.2589170E+04  0.7818609E-02  0.8371889E-01
        2   -1    0    0  501    0  0.00000000000E+00  0.00000000000E+00  0.14682946822E+04  0.14682946822E+04  0.25500000920E-02 0.  1.
       -2   -1    0    0    0  501  0.00000000000E+00  0.00000000000E+00 -0.11414268259E+04  0.11414268259E+04  0.25500000920E-02 0. -1.
    10030    2    1    2    0    0  0.00000000000E+00  0.00000000000E+00  0.32686785632E+03  0.26097215081E+04  0.25891704761E+04 0.  0.
        3    1    3    3  502    0  0.37911170002E+03 -0.12167246604E+04 -0.65982761182E+02  0.12761262928E+04  0.10100000352E+00 0. -1.
       -3    1    3    3    0  502 -0.37911170002E+03  0.12167246604E+04  0.39285061750E+03  0.13335952153E+04  0.10100000352E+00 0.  1.
</event>
<event>
 5   0  0.5347280E-06  0.3211003E+04  0.7818609E-02  0.8185917E-01
       -2   -1    0    0    0  501  0.00000000000E+00  0.00000000000E+00  0.14488621237E+04  0.14488621237E+04  0.25500000920E-02 0.  1.
        2   -1    0    0  501    0  0.00000000000E+00  0.00000000000E+00 -0.17790754041E+04  0.17790754041E+04  0.25500000920E-02 0. -1.
    10030    2    1    2    0    0  0.00000000000E+00  0.00000000000E+00 -0.33021328042E+03  0.32279375279E+04  0.32110029388E+04 0.  0.
        2    1    3    3  502    0  0.29332986522E+03  0.47854525680E+03  0.13470161579E+04  0.14592808168E+04  0.25500000920E-02 0.  1.
       -2    1    3    3    0  502 -0.29332986522E+03 -0.47854525680E+03 -0.16772294383E+04  0.17686567110E+04  0.25500000920E-02 0. -1.
</event>
<event>
 5   0  0.5121624E-06  0.3214573E+04  0.7818609E-02  0.8184979E-01
        2   -1    0    0  501    0  0.00000000000E+00  0.00000000000E+00  0.29642114497E+04  0.29642114497E+04  0.25500000920E-02 0. -1.
       -2   -1    0    0    0  501  0.00000000000E+00  0.00000000000E+00 -0.87151987250E+03  0.87151987250E+03  0.25500000920E-02 0.  1.
    10030    2    1    2    0    0  0.00000000000E+00  0.00000000000E+00  0.20926915772E+04  0.38357313222E+04  0.32145725593E+04 0.  0.
        4    1    3    3  502    0  0.65560360481E+03  0.81871081241E+03 -0.40688365101E+03  0.11250152885E+04  0.12699999809E+01 0.  1.
       -4    1    3    3    0  502 -0.65560360481E+03 -0.81871081241E+03  0.24995752282E+04  0.27107160337E+04  0.12699999809E+01 0. -1.
</event>
<event>
 5   0  0.1969465E-06  0.3219426E+04  0.7818609E-02  0.8183706E-01
        1   -1    0    0  501    0  0.00000000000E+00  0.00000000000E+00  0.18940070843E+04  0.18940070843E+04  0.50400001928E-02 0. -1.
       -1   -1    0    0    0  501  0.00000000000E+00  0.00000000000E+00 -0.13680918780E+04  0.13680918780E+04  0.50400001928E-02 0.  1.
    10030    2    1    2    0    0  0.00000000000E+00  0.00000000000E+00  0.52591520633E+03  0.32620989624E+04  0.32194258550E+04 0.  0.
        2    1    3    3  502    0 -0.53004419709E+02 -0.15541409520E+04 -0.15850301112E+03  0.15631016511E+04  0.25500000920E-02 0. -1.
       -2    1    3    3    0  502  0.53004419709E+02  0.15541409520E+04  0.68441821745E+03  0.16989973112E+04  0.25500000920E-02 0.  1.
</event>
<event>
 5   0  0.1729500E-06  0.3164964E+04  0.7818609E-02  0.8198132E-01
        3   -1    0    0  501    0  0.00000000000E+00  0.00000000000E+00  0.13504705133E+04  0.13504705171E+04  0.10100000352E+00 0. -1.
       -3   -1    0    0    0  501  0.00000000000E+00  0.00000000000E+00 -0.18543533959E+04  0.18543533986E+04  0.10100000352E+00 0.  1.
    10030    2    1    2    0    0  0.00000000000E+00  0.00000000000E+00 -0.50388288259E+03  0.32048239157E+04  0.31649641975E+04 0.  0.
        5    1    3    3  502    0 -0.88987213171E+03  0.97717633040E+03  0.62935372837E+03  0.14638491032E+04  0.46999998093E+01 0.  1.
       -5    1    3    3    0  502  0.88987213171E+03 -0.97717633040E+03 -0.11332366110E+04  0.17409748125E+04  0.46999998093E+01 0. -1.
</event>
<event>
 5   0  0.5108810E-06  0.2559275E+04  0.7818609E-02  0.8382168E-01
       -2   -1    0    0    0  501  0.00000000000E+00  0.00000000000E+00  0.24260277779E+04  0.24260277779E+04  0.25500000920E-02 0.  1.
        2   -1    0    0  501    0  0.00000000000E+00  0.00000000000E+00 -0.67496019883E+03  0.67496019883E+03  0.25500000920E-02 0. -1.
    10030    2    1    2    0    0  0.00000000000E+00  0.00000000000E+00  0.17510675790E+04  0.31009879767E+04  0.25592750468E+04 0.  0.
        1    1    3    3  502    0 -0.32850655826E+01  0.12497848412E+04  0.12084649461E+04  0.17384937351E+04  0.50400001928E-02 0.  1.
       -1    1    3    3    0  502  0.32850655826E+01 -0.12497848412E+04  0.54260263295E+03  0.13624942416E+04  0.50400001928E-02 0. -1.
</event>
<event>
 5   0  0.5347280E-06  0.3190028E+04  0.7818609E-02  0.8191456E-01
        2   -1    0    0  501    0  0.00000000000E+00  0.00000000000E+00  0.12111679414E+04  0.12111679414E+04  0.25500000920E-02 0. -1.
       -2   -1    0    0    0  501  0.00000000000E+00  0.00000000000E+00 -0.21005095699E+04  0.21005095699E+04  0.25500000920E-02 0.  1.
    10030    2    1    2    0    0  0.00000000000E+00  0.00000000000E+00 -0.88934162857E+03  0.33116775113E+04  0.31900281200E+04 0.  0.
        2    1    3    3  502    0 -0.51587906364E+03 -0.67035328629E+03 -0.18484821422E+04  0.20328283171E+04  0.25500000920E-02 0.  1.
       -2    1    3    3    0  502  0.51587906364E+03  0.67035328629E+03  0.95914051360E+03  0.12788491942E+04  0.25500000920E-02 0. -1.
</event>
<event>
 5   0  0.1977015E-06  0.3013555E+04  0.7818609E-02  0.8239871E-01
        1   -1    0    0  501    0  0.00000000000E+00  0.00000000000E+00  0.10800943839E+04  0.10800943839E+04  0.50400001928E-02 0.  1.
       -1   -1    0    0    0  501  0.00000000000E+00  0.00000000000E+00 -0.21020181710E+04  0.21020181710E+04  0.50400001928E-02 0. -1.
    10030    2    1    2    0    0  0.00000000000E+00  0.00000000000E+00 -0.10219237871E+04  0.31821125549E+04  0.30135547258E+04 0.  0.
        1    1    3    3  502    0  0.92347655923E+03 -0.99894646975E+03 -0.11950200294E+04  0.18107390413E+04  0.50400001928E-02 0. -1.
       -1    1    3    3    0  502 -0.92347655923E+03  0.99894646975E+03  0.17309624230E+03  0.13713735137E+04  0.50400001928E-02 0.  1.
</event>
<event>
 5   0  0.1881144E-06  0.3207130E+04  0.7818609E-02  0.8186937E-01
        1   -1    0    0  501    0  0.00000000000E+00  0.00000000000E+00  0.19126191690E+04  0.19126191690E+04  0.50400001928E-02 0. -1.
       -1   -1    0    0    0  501  0.00000000000E+00  0.00000000000E+00 -0.13444500691E+04  0.13444500691E+04  0.50400001928E-02 0.  1.
    10030    2    1    2    0    0  0.00000000000E+00  0.00000000000E+00  0.56816909987E+03  0.32570692381E+04  0.32071301651E+04 0.  0.
        3    1    3    3  502    0 -0.72920885670E+03  0.10638075410E+04  0.12518066948E+04  0.17973458355E+04  0.10100000352E+00 0. -1.
       -3    1    3    3    0  502  0.72920885670E+03 -0.10638075410E+04 -0.68363759492E+03  0.14597234027E+04  0.10100000352E+00 0.  1.
</event>
<event>
 5   0  0.1886248E-06  0.2702665E+04  0.7818609E-02  0.8334141E-01
        1   -1    0    0  501    0  0.00000000000E+00  0.00000000000E+00  0.28935772937E+04  0.28935772937E+04  0.50400001928E-02 0. -1.
       -1   -1    0    0    0  501  0.00000000000E+00  0.00000000000E+00 -0.63108706120E+03  0.63108706122E+03  0.50400001928E-02 0.  1.
    10030    2    1    2    0    0  0.00000000000E+00  0.00000000000E+00  0.22624902325E+04  0.35246643549E+04  0.27026647522E+04 0.  0.
        4    1    3    3  502    0  0.68013098228E+03 -0.45690571195E+03  0.25326731943E+04  0.26619121144E+04  0.12699999809E+01 0. -1.
       -4    1    3    3    0  502 -0.68013098228E+03  0.45690571195E+03 -0.27018296187E+03  0.86275224048E+03  0.12699999809E+01 0.  1.
</event>
<event>
 5   0  0.1881144E-06  0.3362047E+04  0.7818609E-02  0.8147285E-01
       -1   -1    0    0    0  501  0.00000000000E+00  0.00000000000E+00  0.15711252859E+04  0.15711252859E+04  0.50400001928E-02 0.  1.
        1   -1    0    0  501    0  0.00000000000E+00  0.00000000000E+00 -0.17986084741E+04  0.17986084741E+04  0.50400001928E-02 0. -1.
    10030    2    1    2    0    0  0.00000000000E+00  0.00000000000E+00 -0.22748318816E+03  0.33697337600E+04  0.33620465512E+04 0.  0.
        3    1    3    3  502    0 -0.41489718139E+03  0.16850159488E+03  0.15102429700E+04  0.15752353149E+04  0.10100000352E+00 0.  1.
       -3    1    3    3    0  502  0.41489718139E+03 -0.16850159488E+03 -0.17377261582E+04  0.17944984451E+04  0.10100000352E+00 0. -1.
</event>
<event>
 5   0  0.5131083E-06  0.3209031E+04  0.7818609E-02  0.8186436E-01
       -2   -1    0    0    0  501  0.00000000000E+00  0.00000000000E+00  0.11673029480E+04  0.11673029480E+04  0.25500000920E-02 0. -1.
        2   -1    0    0  501    0  0.00000000000E+00  0.00000000000E+00 -0.22054859688E+04  0.22054859688E+04  0.25500000920E-02 0.  1.
    10030    2    1    2    0    0  0.00000000000E+00  0.00000000000E+00 -0.10381830208E+04  0.33727889168E+04  0.32090311766E+04 0.  0.
        3    1    3    3  502    0 -0.14859559665E+04 -0.29136771161E+03  0.38559030138E+02  0.15147432412E+04  0.10100000352E+00 0. -1.
       -3    1    3    3    0  502  0.14859559665E+04  0.29136771161E+03 -0.10767420510E+04  0.18580456755E+04  0.10100000352E+00 0.  1.
</event>
<event>
 5   0  0.1969465E-06  0.3166573E+04  0.7818609E-02  0.8197701E-01
       -1   -1    0    0    0  501  0.00000000000E+00  0.00000000000E+00  0.11886204238E+04  0.11886204238E+04  0.50400001928E-02 0.  1.
        1   -1    0    0  501    0  0.00000000000E+00  0.00000000000E+00 -0.21089958879E+04  0.21089958879E+04  0.50400001928E-02 0. -1.
    10030    2    1    2    0    0  0.00000000000E+00  0.00000000000E+00 -0.92037546417E+03  0.32976163117E+04  0.31665726494E+04 0.  0.
        2    1    3    3  502    0 -0.11422702091E+04 -0.28919923864E+02  0.68115045929E+03  0.13302569454E+04  0.25500000920E-02 0.  1.
       -2    1    3    3    0  502  0.11422702091E+04  0.28919923864E+02 -0.16015259235E+04  0.19673593663E+04  0.25500000920E-02 0. -1.
</event>
<event>
 5   0  0.5108810E-06  0.3167410E+04  0.7818609E-02  0.8197478E-01
        2   -1    0    0  501    0  0.00000000000E+00  0.00000000000E+00  0.17789148199E+04  0.17789148199E+04  0.25500000920E-02 0. -1.
       -2   -1    0    0    0  501  0.00000000000E+00  0.00000000000E+00 -0.14099162420E+04  0.14099162420E+04  0.25500000920E-02 0.  1.
    10030    2    1    2    0    0  0.00000000000E+00  0.00000000000E+00  0.36899857796E+03  0.31888310619E+04  0.31674096026E+04 0.  0.
        1    1    3    3  502    0  0.45734599938E+03 -0.14887753975E+03 -0.13346094669E+04  0.14186304361E+04  0.50400001928E-02 0.  1.
       -1    1    3    3    0  502 -0.45734599938E+03  0.14887753975E+03  0.17036080449E+04  0.17702006258E+04  0.50400001928E-02 0. -1.
</event>
<event>
 5   0  0.1969465E-06  0.3221202E+04  0.7818609E-02  0.8183240E-01
        1   -1    0    0  501    0  0.00000000000E+00  0.00000000000E+00  0.23910212735E+04  0.23910212735E+04  0.50400001928E-02 0.  1.
       -1   -1    0    0    0  501  0.00000000000E+00  0.00000000000E+00 -0.10849069120E+04  0.10849069120E+04  0.50400001928E-02 0. -1.
    10030    2    1    2    0    0  0.00000000000E+00  0.00000000000E+00  0.13061143614E+04  0.34759281855E+04  0.32212019536E+04 0.  0.
        2    1    3    3  502    0 -0.12431182166E+04  0.51790406915E+03  0.16063589228E+04  0.20961766420E+04  0.25500000920E-02 0.  1.
       -2    1    3    3    0  502  0.12431182166E+04 -0.51790406915E+03 -0.30024456139E+03  0.13797515436E+04  0.25500000920E-02 0. -1.
</event>
<event>
 5   0  0.1881144E-06  0.3174217E+04  0.7818609E-02  0.8195660E-01
        1   -1    0    0  501    0  0.00000000000E+00  0.00000000000E+00  0.21062320044E+04  0.21062320044E+04  0.50400001928E-02 0. -1.
       -1   -1    0    0    0  501  0.00000000000E+00  0.00000000000E+00 -0.11959334848E+04  0.11959334848E+04  0.50400001928E-02 0.  1.
    10030    2    1    2    0    0  0.00000000000E+00  0.00000000000E+00  0.91029851965E+03  0.33021654892E+04  0.31742169938E+04 0.  0.
        3    1    3    3  502    0  0.11637569141E+04 -0.76719299725E+03  0.12446867470E+04  0.18687322865E+04  0.10100000352E+00 0. -1.
       -3    1    3    3    0  502 -0.11637569141E+04  0.76719299725E+03 -0.33438822737E+03  0.14334332028E+04  0.10100000352E+00 0.  1.
</event>
<event>
 5   0  0.5121624E-06  0.3384156E+04  0.7818609E-02  0.8141806E-01
       -2   -1    0    0    0  501  0.00000000000E+00  0.00000000000E+00  0.21803031227E+04  0.21803031228E+04  0.25500000920E-02 0.  1.
        2   -1    0    0  501    0  0.00000000000E+00  0.00000000000E+00 -0.13131787909E+04  0.13131787909E+04  0.25500000920E-02 0. -1.
    10030    2    1    2    0    0  0.00000000000E+00  0.00000000000E+00  0.86712433180E+03  0.34934819137E+04  0.33841559176E+04 0.  0.
        4    1    3    3  502    0 -0.10760751079E+04  0.76040533693E+03  0.15294465901E+04  0.20187526840E+04  0.12699999809E+01 0.  1.
       -4    1    3    3    0  502  0.10760751079E+04 -0.76040533693E+03 -0.66232225829E+03  0.14747292297E+04  0.12699999809E+01 0. -1.
</event>
<event>
 5   0  0.1886248E-06  0.3177337E+04  0.7818609E-02  0.8194828E-01
        1   -1    0    0  501    0  0.00000000000E+00  0.00000000000E+00  0.13611195140E+04  0.13611195140E+04  0.50400001928E-02 0.  1.
       -1   -1    0    0    0  501  0.00000000000E+00  0.00000000000E+00 -0.18542590166E+04  0.18542590166E+04  0.50400001928E-02 0. -1.
    10030    2    1    2    0    0  0.00000000000E+00  0.00000000000E+00 -0.49313950265E+03  0.32153785306E+04  0.31773373327E+04 0.  0.
        4    1    3    3  502    0 -0.50164792237E+03  0.69012698349E+03  0.11096022361E+04  0.13996944762E+04  0.12699999809E+01 0.  1.
       -4    1    3    3    0  502  0.50164792237E+03 -0.69012698349E+03 -0.16027417388E+04  0.18156840544E+04  0.12699999809E+01 0. -1.
</event>
<event>
 5   0  0.5347280E-06  0.2034571E+04  0.7818609E-02  0.8590626E-01
       -2   -1    0    0    0  501  0.00000000000E+00  0.00000000000E+00  0.74963246562E+03  0.74963246562E+03  0.25500000920E-02 0.  1.
        2   -1    0    0  501    0  0.00000000000E+00  0.00000000000E+00 -0.13805024922E+04  0.13805024922E+04  0.25500000920E-02 0. -1.
    10030    2    1    2    0    0  0.00000000000E+00  0.00000000000E+00 -0.63087002654E+03  0.21301349578E+04  0.20345707036E+04 0.  0.
        2    1    3    3  502    0  0.81632678325E+03  0.17233765866E+03  0.29395184961E+03  0.88458881722E+03  0.25500000920E-02 0.  1.
       -2    1    3    3    0  502 -0.81632678325E+03 -0.17233765866E+03 -0.92482187615E+03  0.12455461406E+04  0.25500000920E-02 0. -1.
</event>
<event>
 5   0  0.1846850E-06  0.3160811E+04  0.7818609E-02  0.8199244E-01
       -1   -1    0    0    0  501  0.00000000000E+00  0.00000000000E+00  0.15113514944E+04  0.15113514944E+04  0.50400001928E-02 0. -1.
        1   -1    0    0  501    0  0.00000000000E+00  0.00000000000E+00 -0.16526148273E+04  0.16526148273E+04  0.50400001928E-02 0.  1.
    10030    2    1    2    0    0  0.00000000000E+00  0.00000000000E+00 -0.14126333289E+03  0.31639663217E+04  0.31608112179E+04 0.  0.
        5    1    3    3  502    0 -0.63762944991E+03 -0.11875671429E+04  0.75528148267E+03  0.15451081653E+04  0.46999998093E+01 0. -1.
       -5    1    3    3    0  502  0.63762944991E+03  0.11875671429E+04 -0.89654481556E+03  0.16188581564E+04  0.46999998093E+01 0.  1.
</event>
<event>
 5   0  0.5131083E-06  0.3053632E+04  0.7818609E-02  0.8228580E-01
        2   -1    0    0  501    0  0.00000000000E+00  0.00000000000E+00  0.19159317677E+04  0.19159317677E+04  0.25500000920E-02 0.  1.
       -2   -1    0    0    0  501  0.00000000000E+00  0.00000000000E+00 -0.12167276522E+04  0.12167276522E+04  0.25500000920E-02 0. -1.
    10030    2    1    2    0    0  0.00000000000E+00  0.00000000000E+00  0.69920411545E+03  0.31326594199E+04  0.30536320417E+04 0.  0.
        3    1    3    3  502    0 -0.11772787632E+04 -0.96033682123E+03  0.19423949756E+03  0.15316530577E+04  0.10100000352E+00 0.  1.
       -3    1    3    3    0  502  0.11772787632E+04  0.96033682123E+03  0.50496461789E+03  0.16010063622E+04  0.10100000352E+00 0. -1.
</event>
<event>
 5   0  0.1969465E-06  0.3069664E+04  0.7818609E-02  0.8224113E-01
        1   -1    0    0  501    0  0.00000000000E+00  0.00000000000E+00  0.21419230699E+04  0.21419230700E+04  0.50400001928E-02 0. -1.
       -1   -1    0    0    0  501  0.00000000000E+00  0.00000000000E+00 -0.10998105617E+04  0.10998105617E+04  0.50400001928E-02 0.  1.
    10030    2    1    2    0    0  0.00000000000E+00  0.00000000000E+00  0.10421125083E+04  0.32417336316E+04  0.30696642257E+04 0.  0.
        2    1    3    3  502    0 -0.44456062801E+03  0.14200016472E+04  0.91854661665E+03  0.17486471105E+04  0.25500000920E-02 0. -1.
       -2    1    3    3    0  502  0.44456062801E+03 -0.14200016472E+04  0.12356589163E+03  0.14930865211E+04  0.25500000920E-02 0.  1.
</event>
<event>
 5   0  0.5347280E-06  0.3157023E+04  0.7818609E-02  0.8200260E-01
       -2   -1    0    0    0  501  0.00000000000E+00  0.00000000000E+00  0.21762779151E+04  0.21762779151E+04  0.25500000920E-02 0.  1.
        2   -1    0    0  501    0  0.00000000000E+00  0.00000000000E+00 -0.11449359198E+04  0.11449359198E+04  0.25500000920E-02 0. -1.
    10030    2    1    2    0    0  0.00000000000E+00  0.00000000000E+00  0.10313419953E+04  0.33212138349E+04  0.31570231272E+04 0.  0.
        2    1    3    3  502    0  0.78435673493E+03 -0.25017598908E+03  0.19325252435E+04  0.21005849970E+04  0.25500000920E-02 0.  1.
       -2    1    3    3    0  502 -0.78435673493E+03  0.25017598908E+03 -0.90118324813E+03  0.12206288379E+04  0.25500000920E-02 0. -1.
</event>
<event>
 5   0  0.5108810E-06  0.3239965E+04  0.7818609E-02  0.8178342E-01
       -2   -1    0    0    0  501  0.00000000000E+00  0.00000000000E+00  0.15325177894E+04  0.15325177894E+04  0.25500000920E-02 0.  1.
        2   -1    0    0  501    0  0.00000000000E+00  0.00000000000E+00 -0.17124391448E+04  0.17124391448E+04  0.25500000920E-02 0. -1.
    10030    2    1    2    0    0  0.00000000000E+00  0.00000000000E+00 -0.17992135531E+03  0.32449569342E+04  0.32399650941E+04 0.  0.
        1    1    3    3  502    0 -0.18135613689E+02  0.14026953401E+03 -0.17062435254E+04  0.17120956196E+04  0.50400001928E-02 0. -1.
       -1    1    3    3    0  502  0.18135613689E+02 -0.14026953401E+03  0.15263221701E+04  0.15328613146E+04  0.50400001928E-02 0.  1.
</event>
<event>
 5   0  0.1881144E-06  0.3209311E+04  0.7818609E-02  0.8186362E-01
        1   -1    0    0  501    0  0.00000000000E+00  0.00000000000E+00  0.30669957364E+04  0.30669957364E+04  0.50400001928E-02 0. -1.
       -1   -1    0    0    0  501  0.00000000000E+00  0.00000000000E+00 -0.83955757432E+03  0.83955757433E+03  0.50400001928E-02 0.  1.
    10030    2    1    2    0    0  0.00000000000E+00  0.00000000000E+00  0.22274381621E+04  0.39065533108E+04  0.32093111416E+04 0.  0.
        3    1    3    3  502    0 -0.52800296374E+03 -0.13509935922E+04  0.19490695507E+04  0.24295766996E+04  0.10100000352E+00 0. -1.
       -3    1    3    3    0  502  0.52800296374E+03  0.13509935922E+04  0.27836861140E+03  0.14769766111E+04  0.10100000352E+00 0.  1.
</event>
<event>
 5   0  0.1886248E-06  0.2632780E+04  0.7818609E-02  0.8357151E-01
        1   -1    0    0  501    0  0.00000000000E+00  0.00000000000E+00  0.16703630752E+04  0.16703630752E+04  0.50400001928E-02 0.  1.
       -1   -1    0    0    0  501  0.00000000000E+00  0.00000000000E+00 -0.10374286990E+04  0.10374286990E+04  0.50400001928E-02 0. -1.
    10030    2    1    2    0    0  0.00000000000E+00  0.00000000000E+00  0.63293437623E+03  0.27077917742E+04  0.26327799695E+04 0.  0.
        4    1    3    3  502    0  0.76111844463E+03 -0.67343996049E+02  0.14189431260E+04  0.16115947718E+04  0.12699999809E+01 0.  1.
       -4    1    3    3    0  502 -0.76111844463E+03  0.67343996049E+02 -0.78600874980E+03  0.10961970025E+04  0.12699999809E+01 0. -1.
</event>
<event>
 5   0  0.5347280E-06  0.2864988E+04  0.7818609E-02  0.8283371E-01
       -2   -1    0    0    0  501  0.00000000000E+00  0.00000000000E+00  0.11116456247E+04  0.11116456247E+04  0.25500000920E-02 0.  1.
        2   -1    0    0  501    0  0.00000000000E+00  0.00000000000E+00 -0.18459476873E+04  0.18459476873E+04  0.25500000920E-02 0. -1.
    10030    2    1    2    0    0  0.00000000000E+00  0.00000000000E+00 -0.73430206255E+03  0.29575933120E+04  0.28649884258E+04 0.  0.
        2    1    3    3  502    0 -0.11492606963E+04 -0.82555737646E+03 -0.13702278833E+03  0.14216611321E+04  0.25500000920E-02 0.  1.
       -2    1    3    3    0  502  0.11492606963E+04  0.82555737646E+03 -0.59727927422E+03  0.15359321799E+04  0.25500000920E-02 0. -1.
</event>
<event>
 5   0  0.5121624E-06  0.3070281E+04  0.7818609E-02  0.8223942E-01
       -2   -1    0    0    0  501  0.00000000000E+00  0.00000000000E+00  0.22863495407E+04  0.22863495407E+04  0.25500000920E-02 0.  1.
        2   -1    0    0  501    0  0.00000000000E+00  0.00000000000E+00 -0.10307508409E+04  0.10307508409E+04  0.25500000920E-02 0. -1.
    10030    2    1    2    0    0  0.00000000000E+00  0.00000000000E+00  0.12555986998E+04  0.33171003816E+04  0.30702812325E+04 0.  0.
        4    1    3    3  502    0 -0.19963796090E+03 -0.13481691992E+04 -0.13557043653E+03  0.13695971894E+04  0.12699999809E+01 0.  1.
       -4    1    3    3    0  502  0.19963796090E+03  0.13481691992E+04  0.13911691363E+04  0.19475031922E+04  0.12699999809E+01 0. -1.
</event>
<event>
 5   0  0.5131083E-06  0.3212040E+04  0.7818609E-02  0.8185645E-01
       -2   -1    0    0    0  501  0.00000000000E+00  0.00000000000E+00  0.11856731278E+04  0.11856731278E+04  0.25500000920E-02 0.  1.
        2   -1    0    0  501    0  0.00000000000E+00  0.00000000000E+00 -0.21753893600E+04  0.21753893600E+04  0.25500000920E-02 0. -1.
    10030    2    1    2    0    0  0.00000000000E+00  0.00000000000E+00 -0.98971623213E+03  0.33610624878E+04  0.32120402904E+04 0.  0.
        3    1    3    3  502    0 -0.90105342224E+03 -0.47273905919E+03  0.80533591856E+03  0.12976692336E+04  0.10100000352E+00 0.  1.
       -3    1    3    3    0  502  0.90105342224E+03  0.47273905919E+03 -0.17950521507E+04  0.20633932543E+04  0.10100000352E+00 0. -1.
</event>
<event>
 5   0  0.5373060E-06  0.3185865E+04  0.7818609E-02  0.8192560E-01
       -2   -1    0    0    0  501  0.00000000000E+00  0.00000000000E+00  0.10232443896E+04  0.10232443896E+04  0.25500000920E-02 0. -1.
        2   -1    0    0  501    0  0.00000000000E+00  0.00000000000E+00 -0.24797927776E+04  0.24797927776E+04  0.25500000920E-02 0.  1.
    10030    2    1    2    0    0  0.00000000000E+00  0.00000000000E+00 -0.14565483879E+04  0.35030371672E+04  0.31858650613E+04 0.  0.
        5    1    3    3  502    0  0.20737552896E+03 -0.15767320044E+04 -0.62795795757E+03  0.17098075068E+04  0.46999998093E+01 0. -1.
       -5    1    3    3    0  502 -0.20737552896E+03  0.15767320044E+04 -0.82859043036E+03  0.17932296604E+04  0.46999998093E+01 0.  1.
</event>
<event>
 5   0  0.1886248E-06  0.3241263E+04  0.7818609E-02  0.8178004E-01
        1   -1    0    0  501    0  0.00000000000E+00  0.00000000000E+00  0.17754041488E+04  0.17754041488E+04  0.50400001928E-02 0.  1.
       -1   -1    0    0    0  501  0.00000000000E+00  0.00000000000E+00 -0.14793513964E+04  0.14793513964E+04  0.50400001928E-02 0. -1.
    10030    2    1    2    0    0  0.00000000000E+00  0.00000000000E+00  0.29605275237E+03  0.32547555452E+04  0.32412630912E+04 0.  0.
        4    1    3    3  502    0  0.98042301552E+03  0.78387794958E+03  0.11773549079E+04  0.17210055553E+04  0.12699999809E+01 0.  1.
       -4    1    3    3    0  502 -0.98042301552E+03 -0.78387794958E+03 -0.88130215555E+03  0.15337499899E+04  0.12699999809E+01 0. -1.
</event>
<event>
 5   0  0.1846850E-06  0.3423514E+04  0.7818609E-02  0.8132159E-01
        1   -1    0    0  501    0  0.00000000000E+00  0.00000000000E+00  0.13160639685E+04  0.13160639685E+04  0.50400001928E-02 0. -1.
       -1   -1    0    0    0  501  0.00000000000E+00  0.00000000000E+00 -0.22264207318E+04  0.22264207318E+04  0.50400001928E-02 0.  1.
    10030    2    1    2    0    0  0.00000000000E+00  0.00000000000E+00 -0.91035676334E+03  0.35424847004E+04  0.34235140449E+04 0.  0.
        5    1    3    3  502    0 -0.59059649154E+03 -0.96230421709E+03 -0.17864556184E+04  0.21133573736E+04  0.46999998093E+01 0.  1.
       -5    1    3    3    0  502  0.59059649154E+03  0.96230421709E+03  0.87609885510E+03  0.14291273267E+04  0.46999998093E+01 0. -1.
</event>
<event>
 5   0  0.1977015E-06  0.3183925E+04  0.7818609E-02  0.8193075E-01
       -1   -1    0    0    0  501  0.00000000000E+00  0.00000000000E+00  0.95731220938E+03  0.95731220940E+03  0.50400001928E-02 0.  1.
        1   -1    0    0  501    0  0.00000000000E+00  0.00000000000E+00 -0.26473547541E+04  0.26473547541E+04  0.50400001928E-02 0. -1.
    10030    2    1    2    0    0  0.00000000000E+00  0.00000000000E+00 -0.16900425447E+04  0.36046669635E+04  0.31839252684E+04 0.  0.
        1    1    3    3  502    0 -0.54013271391E+03  0.13785272365E+04 -0.18267803568E+03  0.14917948771E+04  0.50400001928E-02 0.  1.
       -1    1    3    3    0  502  0.54013271391E+03 -0.13785272365E+04 -0.15073645091E+04  0.21128720865E+04  0.50400001928E-02 0. -1.
</event>
<event>
 5   0  0.5121624E-06  0.3213267E+04  0.7818609E-02  0.8185322E-01
       -2   -1    0    0    0  501  0.00000000000E+00  0.00000000000E+00  0.10200695898E+04  0.10200695898E+04  0.25500000920E-02 0.  1.
        2   -1    0    0  501    0  0.00000000000E+00  0.00000000000E+00 -0.25304847580E+04  0.25304847580E+04  0.25500000920E-02 0. -1.
    10030    2    1    2    0    0  0.00000000000E+00  0.00000000000E+00 -0.15104151683E+04  0.35505543478E+04  0.32132665927E+04 0.  0.
        4    1    3    3  502    0 -0.35212078267E+03 -0.12742476552E+04 -0.17640449843E+04  0.22044392602E+04  0.12699999809E+01 0. -1.
       -4    1    3    3    0  502  0.35212078267E+03  0.12742476552E+04  0.25362981608E+03  0.13461150875E+04  0.12699999809E+01 0.  1.
</event>
<event>
 5   0  0.5121624E-06  0.2972777E+04  0.7818609E-02  0.8251547E-01
        2   -1    0    0  501    0  0.00000000000E+00  0.00000000000E+00  0.13992022321E+04  0.13992022321E+04  0.25500000920E-02 0. -1.
       -2   -1    0    0    0  501  0.00000000000E+00  0.00000000000E+00 -0.15790078375E+04  0.15790078375E+04  0.25500000920E-02 0.  1.
    10030    2    1    2    0    0  0.00000000000E+00  0.00000000000E+00 -0.17980560546E+03  0.29782100696E+04  0.29727773484E+04 0.  0.
        4    1    3    3  502    0 -0.99737333771E+03  0.23255833143E+03 -0.11691424668E+04  0.15542627425E+04  0.12699999809E+01 0.  1.
       -4    1    3    3    0  502  0.99737333771E+03 -0.23255833143E+03  0.98933686130E+03  0.14239473271E+04  0.12699999809E+01 0. -1.
</event>
<event>
 5   0  0.1729500E-06  0.2945309E+04  0.7818609E-02  0.8259523E-01
       -3   -1    0    0    0  501  0.00000000000E+00  0.00000000000E+00  0.12272857407E+04  0.12272857449E+04  0.10100000352E+00 0.  1.
        3   -1    0    0  501    0  0.00000000000E+00  0.00000000000E+00 -0.17670792701E+04  0.17670792730E+04  0.10100000352E+00 0. -1.
    10030    2    1    2    0    0  0.00000000000E+00  0.00000000000E+00 -0.53979352941E+03  0.29943650179E+04  0.29453089492E+04 0.  0.
        4    1    3    3  502    0  0.87676199892E+03  0.10870353430E+04 -0.74496130907E+03  0.15828222909E+04  0.12699999809E+01 0. -1.
       -4    1    3    3    0  502 -0.87676199892E+03 -0.10870353430E+04  0.20516777966E+03  0.14115427271E+04  0.12699999809E+01 0.  1.
</event>
<event>
 5   0  0.5347280E-06  0.3210506E+04  0.7818609E-02  0.8186048E-01
        2   -1    0    0  501    0  0.00000000000E+00  0.00000000000E+00  0.15150840319E+04  0.15150840319E+04  0.25500000920E-02 0.  1.
       -2   -1    0    0    0  501  0.00000000000E+00  0.00000000000E+00 -0.17007885050E+04  0.17007885050E+04  0.25500000920E-02 0. -1.
    10030    2    1    2    0    0  0.00000000000E+00  0.00000000000E+00 -0.18570447309E+03  0.32158725368E+04  0.32105061940E+04 0.  0.
        2    1    3    3  502    0  0.33154223037E+03 -0.15704362901E+04 -0.67371289339E+02  0.16064648401E+04  0.25500000920E-02 0.  1.
       -2    1    3    3    0  502 -0.33154223037E+03  0.15704362901E+04 -0.11833318375E+03  0.16094076967E+04  0.25500000920E-02 0. -1.
</event>
<event>
 5   0  0.1969465E-06  0.3176129E+04  0.7818609E-02  0.8195150E-01
       -1   -1    0    0    0  501  0.00000000000E+00  0.00000000000E+00  0.11311992309E+04  0.11311992309E+04  0.50400001928E-02 0.  1.
        1   -1    0    0  501    0  0.00000000000E+00  0.00000000000E+00 -0.22294468928E+04  0.22294468928E+04  0.50400001928E-02 0. -1.
    10030    2    1    2    0    0  0.00000000000E+00  0.00000000000E+00 -0.10982476619E+04  0.33606461237E+04  0.31761288453E+04 0.  0.
        2    1    3    3  502    0 -0.89368587535E+03  0.26462135783E+03 -0.19096092712E+04  0.21249250517E+04  0.25500000920E-02 0. -1.
       -2    1    3    3    0  502  0.89368587535E+03 -0.26462135783E+03  0.81136160924E+03  0.12357210720E+04  0.25500000920E-02 0.  1.
</event>
<event>
 5   0  0.1881144E-06  0.2014725E+04  0.7818609E-02  0.8599767E-01
       -1   -1    0    0    0  501  0.00000000000E+00  0.00000000000E+00  0.87457352173E+03  0.87457352175E+03  0.50400001928E-02 0.  1.
        1   -1    0    0  501    0  0.00000000000E+00  0.00000000000E+00 -0.11603135480E+04  0.11603135481E+04  0.50400001928E-02 0. -1.
    10030    2    1    2    0    0  0.00000000000E+00  0.00000000000E+00 -0.28574002631E+03  0.20348870698E+04  0.20147252975E+04 0.  0.
        3    1    3    3  502    0  0.17157192230E+03  0.99000296083E+03 -0.21595929384E+03  0.10277067742E+04  0.10100000352E+00 0.  1.
       -3    1    3    3    0  502 -0.17157192230E+03 -0.99000296083E+03 -0.69780732465E+02  0.10071802956E+04  0.10100000352E+00 0. -1.
</event>
<event>
 5   0  0.5131083E-06  0.3230015E+04  0.7818609E-02  0.8180935E-01
       -2   -1    0    0    0  501  0.00000000000E+00  0.00000000000E+00  0.13550307353E+04  0.13550307353E+04  0.25500000920E-02 0. -1.
        2   -1    0    0  501    0  0.00000000000E+00  0.00000000000E+00 -0.19248636803E+04  0.19248636803E+04  0.25500000920E-02 0.  1.
    10030    2    1    2    0    0  0.00000000000E+00  0.00000000000E+00 -0.56983294499E+03  0.32798944156E+04  0.32300151381E+04 0.  0.
        3    1    3    3  502    0  0.50259530829E+02  0.87988664333E+03  0.10893200413E+04  0.14011940223E+04  0.10100000352E+00 0. -1.
       -3    1    3    3    0  502 -0.50259530829E+02 -0.87988664333E+03 -0.16591529863E+04  0.18787003933E+04  0.10100000352E+00 0.  1.
</event>
<event>
 5   0  0.5108810E-06  0.2137563E+04  0.7818609E-02  0.8544875E-01
        2   -1    0    0  501    0  0.00000000000E+00  0.00000000000E+00  0.16796341643E+04  0.16796341643E+04  0.25500000920E-02 0.  1.
       -2   -1    0    0    0  501  0.00000000000E+00  0.00000000000E+00 -0.68008519873E+03  0.68008519873E+03  0.25500000920E-02 0. -1.
    10030    2    1    2    0    0  0.00000000000E+00  0.00000000000E+00  0.99954896553E+03  0.23597193630E+04  0.21375634114E+04 0.  0.
        1    1    3    3  502    0 -0.84060547345E+03 -0.52344543875E+03  0.94366074956E+03  0.13678846076E+04  0.50400001928E-02 0.  1.
       -1    1    3    3    0  502  0.84060547345E+03  0.52344543875E+03  0.55888215972E+02  0.99183475542E+03  0.50400001928E-02 0. -1.
</event>
<event>
 5   0  0.1886248E-06  0.2609829E+04  0.7818609E-02  0.8364870E-01
       -1   -1    0    0    0  501  0.00000000000E+00  0.00000000000E+00  0.11732600408E+04  0.11732600408E+04  0.50400001928E-02 0.  1.
        1   -1    0    0  501    0  0.00000000000E+00  0.00000000000E+00 -0.14513417879E+04  0.14513417879E+04  0.50400001928E-02 0. -1.
    10030    2    1    2    0    0  0.00000000000E+00  0.00000000000E+00 -0.27808174712E+03  0.26246018287E+04  0.26098285961E+04 0.  0.
        4    1    3    3  502    0 -0.25805944511E+03  0.10586298935E+03 -0.14210108832E+04  0.14481281686E+04  0.12699999809E+01 0. -1.
       -4    1    3    3    0  502  0.25805944511E+03 -0.10586298935E+03  0.11429291361E+04  0.11764736600E+04  0.12699999809E+01 0.  1.
</event>
<event>
 5   0  0.1886248E-06  0.3183286E+04  0.7818609E-02  0.8193245E-01
       -1   -1    0    0    0  501  0.00000000000E+00  0.00000000000E+00  0.13960478906E+04  0.13960478906E+04  0.50400001928E-02 0.  1.
        1   -1    0    0  501    0  0.00000000000E+00  0.00000000000E+00 -0.18146418732E+04  0.18146418732E+04  0.50400001928E-02 0. -1.
    10030    2    1    2    0    0  0.00000000000E+00  0.00000000000E+00 -0.41859398256E+03  0.32106897638E+04  0.31832856984E+04 0.  0.
        4    1    3    3  502    0  0.90231670410E+03  0.36423212772E+03  0.10611036157E+04  0.14397162823E+04  0.12699999809E+01 0.  1.
       -4    1    3    3    0  502 -0.90231670410E+03 -0.36423212772E+03 -0.14796975982E+04  0.17709734816E+04  0.12699999809E+01 0. -1.
</event>
<event>
 5   0  0.1846850E-06  0.2551478E+04  0.7818609E-02  0.8384872E-01
        1   -1    0    0  501    0  0.00000000000E+00  0.00000000000E+00  0.13696216653E+04  0.13696216653E+04  0.50400001928E-02 0. -1.
       -1   -1    0    0    0  501  0.00000000000E+00  0.00000000000E+00 -0.11882913075E+04  0.11882913075E+04  0.50400001928E-02 0.  1.
    10030    2    1    2    0    0  0.00000000000E+00  0.00000000000E+00  0.18133035779E+03  0.25579129727E+04  0.25514776263E+04 0.  0.
        5    1    3    3  502    0 -0.31077873126E+03  0.12308132414E+04  0.21748631594E+03  0.12879468322E+04  0.46999998093E+01 0. -1.
       -5    1    3    3    0  502  0.31077873126E+03 -0.12308132414E+04 -0.36155958154E+02  0.12699661406E+04  0.46999998093E+01 0.  1.
</event>
<event>
 5   0  0.5121624E-06  0.3172270E+04  0.7818609E-02  0.8196179E-01
       -2   -1    0    0    0  501  0.00000000000E+00  0.00000000000E+00  0.16911725462E+04  0.16911725462E+04  0.25500000920E-02 0.  1.
        2   -1    0    0  501    0  0.00000000000E+00  0.00000000000E+00 -0.14876209268E+04  0.14876209268E+04  0.25500000920E-02 0. -1.
    10030    2    1    2    0    0  0.00000000000E+00  0.00000000000E+00  0.20355161940E+03  0.31787934730E+04  0.31722696421E+04 0.  0.
        4    1    3    3  502    0 -0.79293977826E+03 -0.35753512963E+03  0.14308658911E+04  0.16745040078E+04  0.12699999809E+01 0.  1.
       -4    1    3    3    0  502  0.79293977826E+03  0.35753512963E+03 -0.12273142717E+04  0.15042894652E+04  0.12699999809E+01 0. -1.
</event>
<event>
 5   0  0.1846850E-06  0.3145985E+04  0.7818609E-02  0.8203230E-01
        1   -1    0    0  501    0  0.00000000000E+00  0.00000000000E+00  0.14372245272E+04  0.14372245272E+04  0.50400001928E-02 0. -1.
       -1   -1    0    0    0  501  0.00000000000E+00  0.00000000000E+00 -0.17215859814E+04  0.17215859814E+04  0.50400001928E-02 0.  1.
    10030    2    1    2    0    0  0.00000000000E+00  0.00000000000E+00 -0.28436145414E+03  0.31588105086E+04  0.31459851228E+04 0.  0.
        5    1    3    3  502    0  0.92545157028E+03 -0.33379582353E+03  0.10901790962E+04  0.14684661428E+04  0.46999998093E+01 0. -1.
       -5    1    3    3    0  502 -0.92545157028E+03  0.33379582353E+03 -0.13745405503E+04  0.16903443659E+04  0.46999998093E+01 0.  1.
</event>
<event>
 5   0  0.5131083E-06  0.2158266E+04  0.7818609E-02  0.8536002E-01
       -2   -1    0    0    0  501  0.00000000000E+00  0.00000000000E+00  0.83295456806E+03  0.83295456806E+03  0.25500000920E-02 0. -1.
        2   -1    0    0  501    0  0.00000000000E+00  0.00000000000E+00 -0.13980689474E+04  0.13980689474E+04  0.25500000920E-02 0.  1.
    10030    2    1    2    0    0  0.00000000000E+00  0.00000000000E+00 -0.56511437938E+03  0.22310235155E+04  0.21582658930E+04 0.  0.
        3    1    3    3  502    0 -0.64823128710E+03  0.22478158476E+03 -0.11435817042E+04  0.13336077710E+04  0.10100000352E+00 0.  1.
       -3    1    3    3    0  502  0.64823128710E+03 -0.22478158476E+03  0.57846732483E+03  0.89741574452E+03  0.10100000352E+00 0. -1.
</event>
<event>
 5   0  0.5131083E-06  0.3202078E+04  0.7818609E-02  0.8188269E-01
       -2   -1    0    0    0  501  0.00000000000E+00  0.00000000000E+00  0.12207260799E+04  0.12207260799E+04  0.25500000920E-02 0. -1.
        2   -1    0    0  501    0  0.00000000000E+00  0.00000000000E+00 -0.20998371791E+04  0.20998371791E+04  0.25500000920E-02 0.  1.
    10030    2    1    2    0    0  0.00000000000E+00  0.00000000000E+00 -0.87911109918E+03  0.33205632590E+04  0.32020780803E+04 0.  0.
        3    1    3    3  502    0 -0.60496861863E+03 -0.11548572927E+04 -0.14032672251E+04  0.19154219670E+04  0.10100000352E+00 0.  1.
       -3    1    3    3    0  502  0.60496861863E+03  0.11548572927E+04  0.52415612596E+03  0.14051412921E+04  0.10100000352E+00 0. -1.
</event>
<event>
 5   0  0.1729500E-06  0.3219862E+04  0.7818609E-02  0.8183591E-01
        3   -1    0    0  501    0  0.00000000000E+00  0.00000000000E+00  0.19089107723E+04  0.19089107750E+04  0.10100000352E+00 0. -1.
       -3   -1    0    0    0  501  0.00000000000E+00  0.00000000000E+00 -0.13577782263E+04  0.13577782301E+04  0.10100000352E+00 0.  1.
    10030    2    1    2    0    0  0.00000000000E+00  0.00000000000E+00  0.55113254605E+03  0.32666890051E+04  0.32198617940E+04 0.  0.
        3    1    3    3  502    0 -0.70486726909E+03  0.14467974316E+04  0.23232235177E+03  0.16260486956E+04  0.10100000352E+00 0. -1.
       -3    1    3    3    0  502  0.70486726909E+03 -0.14467974316E+04  0.31881019428E+03  0.16406403095E+04  0.10100000352E+00 0.  1.
</event>
<event>
 5   0  0.1846850E-06  0.3126367E+04  0.7818609E-02  0.8208539E-01
       -1   -1    0    0    0  501  0.00000000000E+00  0.00000000000E+00  0.11423749709E+04  0.11423749709E+04  0.50400001928E-02 0.  1.
        1   -1    0    0  501    0  0.00000000000E+00  0.00000000000E+00 -0.21390017160E+04  0.21390017160E+04  0.50400001928E-02 0. -1.
    10030    2    1    2    0    0  0.00000000000E+00  0.00000000000E+00 -0.99662674511E+03  0.32813766869E+04  0.31263665960E+04 0.  0.
        5    1    3    3  502    0  0.12283014573E+04 -0.71981447964E+03 -0.11758120235E+04  0.18464596827E+04  0.46999998093E+01 0. -1.
       -5    1    3    3    0  502 -0.12283014573E+04  0.71981447964E+03  0.17918527843E+03  0.14349170042E+04  0.46999998093E+01 0.  1.
</event>
<event>
 5   0  0.5131083E-06  0.3445574E+04  0.7818609E-02  0.8126811E-01
        2   -1    0    0  501    0  0.00000000000E+00  0.00000000000E+00  0.25597127654E+04  0.25597127654E+04  0.25500000920E-02 0. -1.
       -2   -1    0    0    0  501  0.00000000000E+00  0.00000000000E+00 -0.11595034222E+04  0.11595034223E+04  0.25500000920E-02 0.  1.
    10030    2    1    2    0    0  0.00000000000E+00  0.00000000000E+00  0.14002093432E+04  0.37192161877E+04  0.34455743855E+04 0.  0.
        3    1    3    3  502    0  0.88493252902E+03  0.14454777646E+04  0.36655889815E+03  0.17340348857E+04  0.10100000352E+00 0. -1.
       -3    1    3    3    0  502 -0.88493252902E+03 -0.14454777646E+04  0.10336504450E+04  0.19851813020E+04  0.10100000352E+00 0.  1.
</event>
<event>
 5   0  0.5347280E-06  0.2988059E+04  0.7818609E-02  0.8247149E-01
        2   -1    0    0  501    0  0.00000000000E+00  0.00000000000E+00  0.22733519248E+04  0.22733519248E+04  0.25500000920E-02 0.  1.
       -2   -1    0    0    0  501  0.00000000000E+00  0.00000000000E+00 -0.98186506288E+03  0.98186506289E+03  0.25500000920E-02 0. -1.
    10030    2    1    2    0    0  0.00000000000E+00  0.00000000000E+00  0.12914868619E+04  0.32552169877E+04  0.29880594577E+04 0.  0.
        2    1    3    3  502    0 -0.14794375304E+04  0.29475971161E+02  0.87038512065E+03  0.17167336711E+04  0.25500000920E-02 0.  1.
       -2    1    3    3    0  502  0.14794375304E+04 -0.29475971161E+02  0.42110174129E+03  0.15384833166E+04  0.25500000920E-02 0. -1.
</event>
<event>
 5   0  0.5108810E-06  0.3173045E+04  0.7818609E-02  0.8195972E-01
        2   -1    0    0  501    0  0.00000000000E+00  0.00000000000E+00  0.21295368501E+04  0.21295368501E+04  0.25500000920E-02 0.  1.
       -2   -1    0    0    0  501  0.00000000000E+00  0.00000000000E+00 -0.11819721764E+04  0.11819721764E+04  0.25500000920E-02 0. -1.
    10030    2    1    2    0    0  0.00000000000E+00  0.00000000000E+00  0.94756467366E+03  0.33115090265E+04  0.31730447872E+04 0.  0.
        1    1    3    3  502    0  0.50574616597E+03  0.13245204169E+04 -0.26926992842E+03  0.14431354107E+04  0.50400001928E-02 0. -1.
       -1    1    3    3    0  502 -0.50574616597E+03 -0.13245204169E+04  0.12168346021E+04  0.18683736158E+04  0.50400001928E-02 0.  1.
</event>
<event>
 5   0  0.1977015E-06  0.3550824E+04  0.7818609E-02  0.8101850E-01
        1   -1    0    0  501    0  0.00000000000E+00  0.00000000000E+00  0.24067734215E+04  0.24067734215E+04  0.50400001928E-02 0.  1.
       -1   -1    0    0    0  501  0.00000000000E+00  0.00000000000E+00 -0.13096735810E+04  0.13096735810E+04  0.50400001928E-02 0. -1.
    10030    2    1    2    0    0  0.00000000000E+00  0.00000000000E+00  0.10970998405E+04  0.37164470025E+04  0.35508238850E+04 0.  0.
        1    1    3    3  502    0 -0.10401061725E+04  0.13544083579E+04  0.40259544921E+02  0.17081755416E+04  0.50400001928E-02 0. -1.
       -1    1    3    3    0  502  0.10401061725E+04 -0.13544083579E+04  0.10568402956E+04  0.20082714608E+04  0.50400001928E-02 0.  1.
</event>
<event>
 5   0  0.5121624E-06  0.3149534E+04  0.7818609E-02  0.8202274E-01
       -2   -1    0    0    0  501  0.00000000000E+00  0.00000000000E+00  0.16791223897E+04  0.16791223897E+04  0.25500000920E-02 0. -1.
        2   -1    0    0  501    0  0.00000000000E+00  0.00000000000E+00 -0.14768973884E+04  0.14768973884E+04  0.25500000920E-02 0.  1.
    10030    2    1    2    0    0  0.00000000000E+00  0.00000000000E+00  0.20222500135E+03  0.31560197781E+04  0.31495342336E+04 0.  0.
        4    1    3    3  502    0  0.10271802629E+04 -0.75423810385E+03 -0.82594957589E+03  0.15186074953E+04  0.12699999809E+01 0.  1.
       -4    1    3    3    0  502 -0.10271802629E+04  0.75423810385E+03  0.10281745772E+04  0.16374122829E+04  0.12699999809E+01 0. -1.
</event>
<event>
 5   0  0.5121624E-06  0.3219501E+04  0.7818609E-02  0.8183686E-01
       -2   -1    0    0    0  501  0.00000000000E+00  0.00000000000E+00  0.83129331551E+03  0.83129331551E+03  0.25500000920E-02 0.  1.
        2   -1    0    0  501    0  0.00000000000E+00  0.00000000000E+00 -0.31171864851E+04  0.31171864851E+04  0.25500000920E-02 0. -1.
    10030    2    1    2    0    0  0.00000000000E+00  0.00000000000E+00 -0.22858931696E+04  0.39484798006E+04  0.32195007615E+04 0.  0.
        4    1    3    3  502    0  0.14135642005E+04 -0.53779025912E+03 -0.46683914398E+03  0.15828210609E+04  0.12699999809E+01 0.  1.
       -4    1    3    3    0  502 -0.14135642005E+04  0.53779025912E+03 -0.18190540256E+04  0.23656587397E+04  0.12699999809E+01 0. -1.
</event>
<event>
 5   0  0.5131083E-06  0.3258860E+04  0.7818609E-02  0.8173443E-01
        2   -1    0    0  501    0  0.00000000000E+00  0.00000000000E+00  0.19674838106E+04  0.19674838106E+04  0.25500000920E-02 0.  1.
       -2   -1    0    0    0  501  0.00000000000E+00  0.00000000000E+00 -0.13494605712E+04  0.13494605712E+04  0.25500000920E-02 0. -1.
    10030    2    1    2    0    0  0.00000000000E+00  0.00000000000E+00  0.61802323939E+03  0.33169443818E+04  0.32588598171E+04 0.  0.
        3    1    3    3  502    0  0.85340581228E+03 -0.13710916697E+04  0.52931334385E+03  0.16995194831E+04  0.10100000352E+00 0.  1.
       -3    1    3    3    0  502 -0.85340581228E+03  0.13710916697E+04  0.88709895539E+02  0.16174248987E+04  0.10100000352E+00 0. -1.
</event>
<event>
 5   0  0.1886248E-06  0.3211737E+04  0.7818609E-02  0.8185724E-01
       -1   -1    0    0    0  501  0.00000000000E+00  0.00000000000E+00  0.96062967515E+03  0.96062967516E+03  0.50400001928E-02 0.  1.
        1   -1    0    0  501    0  0.00000000000E+00  0.00000000000E+00 -0.26845031737E+04  0.26845031737E+04  0.50400001928E-02 0. -1.
    10030    2    1    2    0    0  0.00000000000E+00  0.00000000000E+00 -0.17238734986E+04  0.36451328489E+04  0.32117368583E+04 0.  0.
        4    1    3    3  502    0  0.84035773402E+03 -0.96443393196E+03 -0.19637525235E+04  0.23436423611E+04  0.12699999809E+01 0. -1.
       -4    1    3    3    0  502 -0.84035773402E+03  0.96443393196E+03  0.23987902495E+03  0.13014904878E+04  0.12699999809E+01 0.  1.
</event>
<event>
 5   0  0.1969465E-06  0.2658055E+04  0.7818609E-02  0.8348744E-01
       -1   -1    0    0    0  501  0.00000000000E+00  0.00000000000E+00  0.15841714330E+04  0.15841714330E+04  0.50400001928E-02 0. -1.
        1   -1    0    0  501    0  0.00000000000E+00  0.00000000000E+00 -0.11149766640E+04  0.11149766640E+04  0.50400001928E-02 0.  1.
    10030    2    1    2    0    0  0.00000000000E+00  0.00000000000E+00  0.46919476904E+03  0.26991480970E+04  0.26580550630E+04 0.  0.
        2    1    3    3  502    0  0.10079823310E+04  0.34339258033E+03  0.10421065403E+04  0.14899439201E+04  0.25500000920E-02 0.  1.
       -2    1    3    3    0  502 -0.10079823310E+04 -0.34339258033E+03 -0.57291177122E+03  0.12092041769E+04  0.25500000920E-02 0. -1.
</event>
<event>
 5   0  0.5131083E-06  0.3460050E+04  0.7818609E-02  0.8123323E-01
       -2   -1    0    0    0  501  0.00000000000E+00  0.00000000000E+00  0.13461128462E+04  0.13461128462E+04  0.25500000920E-02 0. -1.
        2   -1    0    0  501    0  0.00000000000E+00  0.00000000000E+00 -0.22234289195E+04  0.22234289195E+04  0.25500000920E-02 0.  1.
    10030    2    1    2    0    0  0.00000000000E+00  0.00000000000E+00 -0.87731607332E+03  0.35695417656E+04  0.34600498442E+04 0.  0.
        3    1    3    3  502    0  0.17480628960E+03  0.96834588141E+03  0.10293020016E+04  0.14239780917E+04  0.10100000352E+00 0. -1.
       -3    1    3    3    0  502 -0.17480628960E+03 -0.96834588141E+03 -0.19066180750E+04  0.21455636739E+04  0.10100000352E+00 0.  1.
</event>
<event>
 5   0  0.5121624E-06  0.3193907E+04  0.7818609E-02  0.8190428E-01
        2   -1    0    0  501    0  0.00000000000E+00  0.00000000000E+00  0.11427977619E+04  0.11427977619E+04  0.25500000920E-02 0. -1.
       -2   -1    0    0    0  501  0.00000000000E+00  0.00000000000E+00 -0.22315931946E+04  0.22315931946E+04  0.25500000920E-02 0.  1.
    10030    2    1    2    0    0  0.00000000000E+00  0.00000000000E+00 -0.10887954327E+04  0.33743909564E+04  0.31939065160E+04 0.  0.
        4    1    3    3  502    0  0.15417365341E+04  0.40188391300E+03 -0.42965152488E+03  0.16501709808E+04  0.12699999809E+01 0.  1.
       -4    1    3    3    0  502 -0.15417365341E+04 -0.40188391300E+03 -0.65914390784E+03  0.17242199756E+04  0.12699999809E+01 0. -1.
</event>
<event>
 5   0  0.5121624E-06  0.3207357E+04  0.7818609E-02  0.8186877E-01
        2   -1    0    0  501    0  0.00000000000E+00  0.00000000000E+00  0.20902101097E+04  0.20902101097E+04  0.25500000920E-02 0. -1.
       -2   -1    0    0    0  501  0.00000000000E+00  0.00000000000E+00 -0.12303951495E+04  0.12303951495E+04  0.25500000920E-02 0.  1.
    10030    2    1    2    0    0  0.00000000000E+00  0.00000000000E+00  0.85981496019E+03  0.33206052592E+04  0.32073567811E+04 0.  0.
        4    1    3    3  502    0 -0.19276873228E+03  0.41765460842E+03  0.20204425223E+04  0.20721449647E+04  0.12699999809E+01 0. -1.
       -4    1    3    3    0  502  0.19276873228E+03 -0.41765460842E+03 -0.11606275621E+04  0.12484602945E+04  0.12699999809E+01 0.  1.
</event>
<event>
 5   0  0.1881144E-06  0.3119151E+04  0.7818609E-02  0.8210502E-01
        1   -1    0    0  501    0  0.00000000000E+00  0.00000000000E+00  0.10227652366E+04  0.10227652366E+04  0.50400001928E-02 0.  1.
       -1   -1    0    0    0  501  0.00000000000E+00  0.00000000000E+00 -0.23781367112E+04  0.23781367112E+04  0.50400001928E-02 0. -1.
    10030    2    1    2    0    0  0.00000000000E+00  0.00000000000E+00 -0.13553714746E+04  0.34009019478E+04  0.31191508820E+04 0.  0.
        3    1    3    3  502    0  0.10461084664E+03 -0.52883539789E+02  0.10179554463E+04  0.10246820965E+04  0.10100000352E+00 0.  1.
       -3    1    3    3    0  502 -0.10461084664E+03  0.52883539789E+02 -0.23733269209E+04  0.23762198513E+04  0.10100000352E+00 0. -1.
</event>
<event>
 5   0  0.1977015E-06  0.3184685E+04  0.7818609E-02  0.8192874E-01
       -1   -1    0    0    0  501  0.00000000000E+00  0.00000000000E+00  0.16559896234E+04  0.16559896234E+04  0.50400001928E-02 0.  1.
        1   -1    0    0  501    0  0.00000000000E+00  0.00000000000E+00 -0.15311415594E+04  0.15311415594E+04  0.50400001928E-02 0. -1.
    10030    2    1    2    0    0  0.00000000000E+00  0.00000000000E+00  0.12484806403E+03  0.31871311829E+04  0.31846849354E+04 0.  0.
        1    1    3    3  502    0 -0.12670583428E+04  0.93689290210E+03  0.29139964911E+03  0.16025351508E+04  0.50400001928E-02 0.  1.
       -1    1    3    3    0  502  0.12670583428E+04 -0.93689290210E+03 -0.16655158508E+03  0.15845960320E+04  0.50400001928E-02 0. -1.
</event>
<event>
 5   0  0.1886248E-06  0.2411651E+04  0.7818609E-02  0.8435154E-01
       -1   -1    0    0    0  501  0.00000000000E+00  0.00000000000E+00  0.11074105739E+04  0.11074105739E+04  0.50400001928E-02 0. -1.
        1   -1    0    0  501    0  0.00000000000E+00  0.00000000000E+00 -0.13129864101E+04  0.13129864102E+04  0.50400001928E-02 0.  1.
    10030    2    1    2    0    0  0.00000000000E+00  0.00000000000E+00 -0.20557583622E+03  0.24203969841E+04  0.24116509151E+04 0.  0.
        4    1    3    3  502    0 -0.28562345935E+03 -0.11529219208E+04  0.10582089665E+03  0.11924803525E+04  0.12699999809E+01 0. -1.
       -4    1    3    3    0  502  0.28562345935E+03  0.11529219208E+04 -0.31139673287E+03  0.12279166316E+04  0.12699999809E+01 0.  1.
</event>
<event>
 5   0  0.5108810E-06  0.3135482E+04  0.7818609E-02  0.8206067E-01
       -2   -1    0    0    0  501  0.00000000000E+00  0.00000000000E+00  0.99192614992E+03  0.99192614992E+03  0.25500000920E-02 0.  1.
        2   -1    0    0  501    0  0.00000000000E+00  0.00000000000E+00 -0.24778180370E+04  0.24778180370E+04  0.25500000920E-02 0. -1.
    10030    2    1    2    0    0  0.00000000000E+00  0.00000000000E+00 -0.14858918870E+04  0.34697441869E+04  0.31354824226E+04 0.  0.
        1    1    3    3  502    0  0.62663503235E+03  0.23852673789E+03  0.82525440368E+03  0.10633020734E+04  0.50400001928E-02 0.  1.
       -1    1    3    3    0  502 -0.62663503235E+03 -0.23852673789E+03 -0.23111462907E+04  0.24064421135E+04  0.50400001928E-02 0. -1.
</event>
<event>
 5   0  0.5121624E-06  0.2689406E+04  0.7818609E-02  0.8338451E-01
       -2   -1    0    0    0  501  0.00000000000E+00  0.00000000000E+00  0.10594266762E+04  0.10594266762E+04  0.25500000920E-02 0. -1.
        2   -1    0    0  501    0  0.00000000000E+00  0.00000000000E+00 -0.17067968248E+04  0.17067968248E+04  0.25500000920E-02 0.  1.
    10030    2    1    2    0    0  0.00000000000E+00  0.00000000000E+00 -0.64737014858E+03  0.27662235010E+04  0.26894059471E+04 0.  0.
        4    1    3    3  502    0  0.19953778506E+03  0.41353094424E+03 -0.16236688229E+04  0.16873426531E+04  0.12699999809E+01 0.  1.
       -4    1    3    3    0  502 -0.19953778506E+03 -0.41353094424E+03  0.97629867436E+03  0.10788808479E+04  0.12699999809E+01 0. -1.
</event>
<event>
 5   0  0.1846850E-06  0.3300947E+04  0.7818609E-02  0.8162654E-01
        1   -1    0    0  501    0  0.00000000000E+00  0.00000000000E+00  0.23753066868E+04  0.23753066868E+04  0.50400001928E-02 0. -1.
       -1   -1    0    0    0  501  0.00000000000E+00  0.00000000000E+00 -0.11468258847E+04  0.11468258847E+04  0.50400001928E-02 0.  1.
    10030    2    1    2    0    0  0.00000000000E+00  0.00000000000E+00  0.12284808021E+04  0.35221325716E+04  0.33009472535E+04 0.  0.
        5    1    3    3  502    0  0.10203123836E+04  0.12344397749E+04  0.10399241392E+04  0.19095400554E+04  0.46999998093E+01 0. -1.
       -5    1    3    3    0  502 -0.10203123836E+04 -0.12344397749E+04  0.18855666292E+03  0.16125925161E+04  0.46999998093E+01 0.  1.
</event>
<event>
 5   0  0.5108810E-06  0.3203267E+04  0.7818609E-02  0.8187955E-01
       -2   -1    0    0    0  501  0.00000000000E+00  0.00000000000E+00  0.14999150249E+04  0.14999150249E+04  0.25500000920E-02 0. -1.
        2   -1    0    0  501    0  0.00000000000E+00  0.00000000000E+00 -0.17102502906E+04  0.17102502906E+04  0.25500000920E-02 0.  1.
    10030    2    1    2    0    0  0.00000000000E+00  0.00000000000E+00 -0.21033526570E+03  0.32101653156E+04  0.32032671492E+04 0.  0.
        1    1    3    3  502    0 -0.47219164486E+03 -0.43903606664E+03  0.13641112091E+04  0.15088131124E+04  0.50400001928E-02 0. -1.
       -1    1    3    3    0  502  0.47219164486E+03  0.43903606664E+03 -0.15744464748E+04  0.17013522032E+04  0.50400001928E-02 0.  1.
</event>
<event>
 5   0  0.1881144E-06  0.3138417E+04  0.7818609E-02  0.8205273E-01
        1   -1    0    0  501    0  0.00000000000E+00  0.00000000000E+00  0.27334543204E+04  0.27334543204E+04  0.50400001928E-02 0.  1.
       -1   -1    0    0    0  501  0.00000000000E+00  0.00000000000E+00 -0.90084390544E+03  0.90084390546E+03  0.50400001928E-02 0. -1.
    10030    2    1    2    0    0  0.00000000000E+00  0.00000000000E+00  0.18326104149E+04  0.36342982258E+04  0.31384172223E+04 0.  0.
        3    1    3    3  502    0  0.42459496355E+03 -0.12017240622E+04 -0.14375455836E+03  0.12826094448E+04  0.10100000352E+00 0. -1.
       -3    1    3    3    0  502 -0.42459496355E+03  0.12017240622E+04  0.19763649733E+04  0.23516887810E+04  0.10100000352E+00 0.  1.
</event>
<event>
 5   0  0.1729500E-06  0.3205212E+04  0.7818609E-02  0.8187442E-01
        3   -1    0    0  501    0  0.00000000000E+00  0.00000000000E+00  0.13974322085E+04  0.13974322122E+04  0.10100000352E+00 0. -1.
       -3   -1    0    0    0  501  0.00000000000E+00  0.00000000000E+00 -0.18379034737E+04  0.18379034765E+04  0.10100000352E+00 0.  1.
    10030    2    1    2    0    0  0.00000000000E+00  0.00000000000E+00 -0.44047126518E+03  0.32353356887E+04  0.32052117064E+04 0.  0.
        2    1    3    3  502    0  0.14447706570E+04 -0.81513169722E+01 -0.92023494597E+03  0.17129684910E+04  0.25500000920E-02 0. -1.
       -2    1    3    3    0  502 -0.14447706570E+04  0.81513169722E+01  0.47976368079E+03  0.15223671977E+04  0.25500000920E-02 0.  1.
</event>
<event>
 5   0  0.1846850E-06  0.3245227E+04  0.7818609E-02  0.8176974E-01
       -1   -1    0    0    0  501  0.00000000000E+00  0.00000000000E+00  0.25839417631E+04  0.25839417631E+04  0.50400001928E-02 0.  1.
        1   -1    0    0  501    0  0.00000000000E+00  0.00000000000E+00 -0.10189370023E+04  0.10189370023E+04  0.50400001928E-02 0. -1.
    10030    2    1    2    0    0  0.00000000000E+00  0.00000000000E+00  0.15650047608E+04  0.36028787655E+04  0.32452265710E+04 0.  0.
        5    1    3    3  502    0  0.45271038773E+03 -0.27929412044E+03 -0.91937907220E+03  0.10621825970E+04  0.46999998093E+01 0. -1.
       -5    1    3    3    0  502 -0.45271038773E+03  0.27929412044E+03  0.24843838330E+04  0.25406961685E+04  0.46999998093E+01 0.  1.
</event>
<event>
 5   0  0.5373060E-06  0.3206336E+04  0.7818609E-02  0.8187146E-01
       -2   -1    0    0    0  501  0.00000000000E+00  0.00000000000E+00  0.11154178679E+04  0.11154178679E+04  0.25500000920E-02 0.  1.
        2   -1    0    0  501    0  0.00000000000E+00  0.00000000000E+00 -0.23042022021E+04  0.23042022021E+04  0.25500000920E-02 0. -1.
    10030    2    1    2    0    0  0.00000000000E+00  0.00000000000E+00 -0.11887843342E+04  0.34196200699E+04  0.32063364186E+04 0.  0.
        5    1    3    3  502    0 -0.16622889920E+03  0.13862012198E+04 -0.14348070021E+04  0.20019688040E+04  0.46999998093E+01 0. -1.
       -5    1    3    3    0  502  0.16622889920E+03 -0.13862012198E+04  0.24602266789E+03  0.14176512660E+04  0.46999998093E+01 0.  1.
</event>
<event>
 5   0  0.5373060E-06  0.3265327E+04  0.7818609E-02  0.8171774E-01
       -2   -1    0    0    0  501  0.00000000000E+00  0.00000000000E+00  0.19783718194E+04  0.19783718194E+04  0.25500000920E-02 0.  1.
        2   -1    0    0  501    0  0.00000000000E+00  0.00000000000E+00 -0.13473657971E+04  0.13473657971E+04  0.25500000920E-02 0. -1.
    10030    2    1    2    0    0  0.00000000000E+00  0.00000000000E+00  0.63100602230E+03  0.33257376166E+04  0.32653272568E+04 0.  0.
        5    1    3    3  502    0 -0.15829145299E+04  0.27474454722E+03  0.61150923346E+03  0.17190312993E+04  0.46999998093E+01 0.  1.
       -5    1    3    3    0  502  0.15829145299E+04 -0.27474454722E+03  0.19496788837E+02  0.16067063173E+04  0.46999998093E+01 0. -1.
</event>
<event>
 5   0  0.5121624E-06  0.3193673E+04  0.7818609E-02  0.8190490E-01
       -2   -1    0    0    0  501  0.00000000000E+00  0.00000000000E+00  0.12194353226E+04  0.12194353226E+04  0.25500000920E-02 0. -1.
        2   -1    0    0  501    0  0.00000000000E+00  0.00000000000E+00 -0.20910391150E+04  0.20910391150E+04  0.25500000920E-02 0.  1.
    10030    2    1    2    0    0  0.00000000000E+00  0.00000000000E+00 -0.87160379238E+03  0.33104744377E+04  0.31936730940E+04 0.  0.
        4    1    3    3  502    0  0.12320254041E+04  0.87565630345E+03 -0.96963663767E+03  0.17957887905E+04  0.12699999809E+01 0.  1.
       -4    1    3    3    0  502 -0.12320254041E+04 -0.87565630345E+03  0.98032845291E+02  0.15146856472E+04  0.12699999809E+01 0. -1.
</event>
<event>
 5   0  0.1977015E-06  0.2420486E+04  0.7818609E-02  0.8431873E-01
        1   -1    0    0  501    0  0.00000000000E+00  0.00000000000E+00  0.12297893390E+04  0.12297893390E+04  0.50400001928E-02 0.  1.
       -1   -1    0    0    0  501  0.00000000000E+00  0.00000000000E+00 -0.11910075323E+04  0.11910075323E+04  0.50400001928E-02 0. -1.
    10030    2    1    2    0    0  0.00000000000E+00  0.00000000000E+00  0.38781806755E+02  0.24207968713E+04  0.24204862040E+04 0.  0.
        1    1    3    3  502    0  0.55008453093E+03  0.99297595456E+03  0.43908047239E+03  0.12171219737E+04  0.50400001928E-02 0.  1.
       -1    1    3    3    0  502 -0.55008453093E+03 -0.99297595456E+03 -0.40029866563E+03  0.12036748976E+04  0.50400001928E-02 0. -1.
</event>
<event>
 5   0  0.5373060E-06  0.3199373E+04  0.7818609E-02  0.8188983E-01
       -2   -1    0    0    0  501  0.00000000000E+00  0.00000000000E+00  0.99767995934E+03  0.99767995934E+03  0.25500000920E-02 0.  1.
        2   -1    0    0  501    0  0.00000000000E+00  0.00000000000E+00 -0.25649475283E+04  0.25649475283E+04  0.25500000920E-02 0. -1.
    10030    2    1    2    0    0  0.00000000000E+00  0.00000000000E+00 -0.15672675689E+04  0.35626274876E+04  0.31993729046E+04 0.  0.
        5    1    3    3  502    0  0.10722679382E+04  0.42197154265E+03  0.45192132187E+03  0.12377695606E+04  0.46999998093E+01 0.  1.
       -5    1    3    3    0  502 -0.10722679382E+04 -0.42197154265E+03 -0.20191888908E+04  0.23248579270E+04  0.46999998093E+01 0. -1.
</event>
<event>
 5   0  0.1846850E-06  0.2628650E+04  0.7818609E-02  0.8358534E-01
       -1   -1    0    0    0  501  0.00000000000E+00  0.00000000000E+00  0.12915501916E+04  0.12915501917E+04  0.50400001928E-02 0.  1.
        1   -1    0    0  501    0  0.00000000000E+00  0.00000000000E+00 -0.13375012508E+04  0.13375012508E+04  0.50400001928E-02 0. -1.
    10030    2    1    2    0    0  0.00000000000E+00  0.00000000000E+00 -0.45951059175E+02  0.26290514425E+04  0.26286498412E+04 0.  0.
        5    1    3    3  502    0 -0.17471368178E+02 -0.31941776329E+03 -0.12979624111E+04  0.13368101835E+04  0.46999998093E+01 0. -1.
       -5    1    3    3    0  502  0.17471368178E+02  0.31941776329E+03  0.12520113519E+04  0.12922412590E+04  0.46999998093E+01 0.  1.
</event>
<event>
 5   0  0.5131083E-06  0.2650425E+04  0.7818609E-02  0.8351272E-01
       -2   -1    0    0    0  501  0.00000000000E+00  0.00000000000E+00  0.92392178913E+03  0.92392178913E+03  0.25500000920E-02 0.  1.
        2   -1    0    0  501    0  0.00000000000E+00  0.00000000000E+00 -0.19007971586E+04  0.19007971586E+04  0.25500000920E-02 0. -1.
    10030    2    1    2    0    0  0.00000000000E+00  0.00000000000E+00 -0.97687536948E+03  0.28247189477E+04  0.26504248049E+04 0.  0.
        3    1    3    3  502    0 -0.11704780543E+04 -0.30943018484E+03  0.85909506558E+02  0.12137324122E+04  0.10100000352E+00 0.  1.
       -3    1    3    3    0  502  0.11704780543E+04  0.30943018484E+03 -0.10627848760E+04  0.16109865356E+04  0.10100000352E+00 0. -1.
</event>
<event>
 5   0  0.5373060E-06  0.3030549E+04  0.7818609E-02  0.8235061E-01
        2   -1    0    0  501    0  0.00000000000E+00  0.00000000000E+00  0.18331078604E+04  0.18331078604E+04  0.25500000920E-02 0. -1.
       -2   -1    0    0    0  501  0.00000000000E+00  0.00000000000E+00 -0.12525484349E+04  0.12525484349E+04  0.25500000920E-02 0.  1.
    10030    2    1    2    0    0  0.00000000000E+00  0.00000000000E+00  0.58055942552E+03  0.30856562953E+04  0.30305487170E+04 0.  0.
        5    1    3    3  502    0  0.74041291040E+03 -0.10392196544E+04  0.11223581911E+04  0.16993818779E+04  0.46999998093E+01 0. -1.
       -5    1    3    3    0  502 -0.74041291040E+03  0.10392196544E+04 -0.54179876556E+03  0.13862744174E+04  0.46999998093E+01 0.  1.
</event>
<event>
 5   0  0.1886248E-06  0.3070492E+04  0.7818609E-02  0.8223883E-01
       -1   -1    0    0    0  501  0.00000000000E+00  0.00000000000E+00  0.91374225608E+03  0.91374225609E+03  0.50400001928E-02 0.  1.
        1   -1    0    0  501    0  0.00000000000E+00  0.00000000000E+00 -0.25794808487E+04  0.25794808487E+04  0.50400001928E-02 0. -1.
    10030    2    1    2    0    0  0.00000000000E+00  0.00000000000E+00 -0.16657385926E+04  0.34932231048E+04  0.30704922408E+04 0.  0.
        4    1    3    3  502    0  0.14889498869E+04  0.98131736337E+02 -0.12436589858E+04  0.19424960461E+04  0.12699999809E+01 0. -1.
       -4    1    3    3    0  502 -0.14889498869E+04 -0.98131736337E+02 -0.42207960684E+03  0.15507270587E+04  0.12699999809E+01 0.  1.
</event>
<event>
 5   0  0.5131083E-06  0.2074302E+04  0.7818609E-02  0.8572649E-01
        2   -1    0    0  501    0  0.00000000000E+00  0.00000000000E+00  0.11713884087E+04  0.11713884087E+04  0.25500000920E-02 0. -1.
       -2   -1    0    0    0  501  0.00000000000E+00  0.00000000000E+00 -0.91829636447E+03  0.91829636447E+03  0.25500000920E-02 0.  1.
    10030    2    1    2    0    0  0.00000000000E+00  0.00000000000E+00  0.25309204419E+03  0.20896847731E+04  0.20743015374E+04 0.  0.
        3    1    3    3  502    0  0.95802345338E+03 -0.94435417766E+02  0.51535476837E+03  0.10919329342E+04  0.10100000352E+00 0. -1.
       -3    1    3    3    0  502 -0.95802345338E+03  0.94435417766E+02 -0.26226272418E+03  0.99775183891E+03  0.10100000352E+00 0.  1.
</event>
<event>
 5   0  0.5347280E-06  0.3046199E+04  0.7818609E-02  0.8230660E-01
        2   -1    0    0  501    0  0.00000000000E+00  0.00000000000E+00  0.12619272698E+04  0.12619272698E+04  0.25500000920E-02 0. -1.
       -2   -1    0    0    0  501  0.00000000000E+00  0.00000000000E+00 -0.18383245706E+04  0.18383245706E+04  0.25500000920E-02 0.  1.
    10030    2    1    2    0    0  0.00000000000E+00  0.00000000000E+00 -0.57639730081E+03  0.31002518405E+04  0.30461988815E+04 0.  0.
        2    1    3    3  502    0 -0.23646324871E+03  0.16401642627E+03 -0.18104039545E+04  0.18331335834E+04  0.25500000920E-02 0.  1.
       -2    1    3    3    0  502  0.23646324871E+03 -0.16401642627E+03  0.12340066537E+04  0.12671182571E+04  0.25500000920E-02 0. -1.
</event>
<event>
 5   0  0.5121624E-06  0.3173231E+04  0.7818609E-02  0.8195923E-01
        2   -1    0    0  501    0  0.00000000000E+00  0.00000000000E+00  0.20728493348E+04  0.20728493348E+04  0.25500000920E-02 0. -1.
       -2   -1    0    0    0  501  0.00000000000E+00  0.00000000000E+00 -0.12144387789E+04  0.12144387790E+04  0.25500000920E-02 0.  1.
    10030    2    1    2    0    0  0.00000000000E+00  0.00000000000E+00  0.85841055587E+03  0.32872881138E+04  0.31732309182E+04 0.  0.
        4    1    3    3  502    0  0.89011396124E+03 -0.12649386137E+04  0.62981368017E+02  0.15480118947E+04  0.12699999809E+01 0. -1.
       -4    1    3    3    0  502 -0.89011396124E+03  0.12649386137E+04  0.79542918785E+03  0.17392762191E+04  0.12699999809E+01 0.  1.
</event>
<event>
 5   0  0.5131083E-06  0.3181029E+04  0.7818609E-02  0.8193845E-01
       -2   -1    0    0    0  501  0.00000000000E+00  0.00000000000E+00  0.93387143940E+03  0.93387143941E+03  0.25500000920E-02 0.  1.
        2   -1    0    0  501    0  0.00000000000E+00  0.00000000000E+00 -0.27088706238E+04  0.27088706238E+04  0.25500000920E-02 0. -1.
    10030    2    1    2    0    0  0.00000000000E+00  0.00000000000E+00 -0.17749991844E+04  0.36427420632E+04  0.31810293357E+04 0.  0.
        3    1    3    3  502    0 -0.48832308057E+03  0.11666127646E+04  0.21701235710E+03  0.12831754155E+04  0.10100000352E+00 0.  1.
       -3    1    3    3    0  502  0.48832308057E+03 -0.11666127646E+04 -0.19920115415E+04  0.23595666477E+04  0.10100000352E+00 0. -1.
</event>
<event>
 5   0  0.5108810E-06  0.3032831E+04  0.7818609E-02  0.8234418E-01
       -2   -1    0    0    0  501  0.00000000000E+00  0.00000000000E+00  0.21894732834E+04  0.21894732834E+04  0.25500000920E-02 0. -1.
        2   -1    0    0  501    0  0.00000000000E+00  0.00000000000E+00 -0.10502597232E+04  0.10502597232E+04  0.25500000920E-02 0.  1.
    10030    2    1    2    0    0  0.00000000000E+00  0.00000000000E+00  0.11392135603E+04  0.32397330066E+04  0.30328307599E+04 0.  0.
        1    1    3    3  502    0 -0.10036442071E+04 -0.10946407421E+04  0.89707449971E+03  0.17350166302E+04  0.50400001928E-02 0.  1.
       -1    1    3    3    0  502  0.10036442071E+04  0.10946407421E+04  0.24213906055E+03  0.15047163764E+04  0.50400001928E-02 0. -1.
</event>
<event>
 5   0  0.5108810E-06  0.3184150E+04  0.7818609E-02  0.8193016E-01
       -2   -1    0    0    0  501  0.00000000000E+00  0.00000000000E+00  0.13221412467E+04  0.13221412467E+04  0.25500000920E-02 0. -1.
        2   -1    0    0  501    0  0.00000000000E+00  0.00000000000E+00 -0.19171193073E+04  0.19171193073E+04  0.25500000920E-02 0.  1.
    10030    2    1    2    0    0  0.00000000000E+00  0.00000000000E+00 -0.59497806054E+03  0.32392605540E+04  0.31841498150E+04 0.  0.
        1    1    3    3  502    0 -0.82335430387E+03 -0.10055415210E+04 -0.12330121135E+04  0.17914644658E+04  0.50400001928E-02 0.  1.
       -1    1    3    3    0  502  0.82335430387E+03  0.10055415210E+04  0.63803405299E+03  0.14477960882E+04  0.50400001928E-02 0. -1.
</event>
<event>
 5   0  0.1977015E-06  0.3196202E+04  0.7818609E-02  0.8189821E-01
        1   -1    0    0  501    0  0.00000000000E+00  0.00000000000E+00  0.14548201703E+04  0.14548201703E+04  0.50400001928E-02 0.  1.
       -1   -1    0    0    0  501  0.00000000000E+00  0.00000000000E+00 -0.17554934679E+04  0.17554934679E+04  0.50400001928E-02 0. -1.
    10030    2    1    2    0    0  0.00000000000E+00  0.00000000000E+00 -0.30067329767E+03  0.32103136382E+04  0.31962023127E+04 0.  0.
        1    1    3    3  502    0 -0.12011866213E+04  0.76129288484E+02 -0.12063023631E+04  0.17040570293E+04  0.50400001928E-02 0. -1.
       -1    1    3    3    0  502  0.12011866213E+04 -0.76129288484E+02  0.90562906538E+03  0.15062566089E+04  0.50400001928E-02 0.  1.
</event>
<event>
 5   0  0.1969465E-06  0.3164302E+04  0.7818609E-02  0.8198309E-01
       -1   -1    0    0    0  501  0.00000000000E+00  0.00000000000E+00  0.13993735802E+04  0.13993735803E+04  0.50400001928E-02 0.  1.
        1   -1    0    0  501    0  0.00000000000E+00  0.00000000000E+00 -0.17888021741E+04  0.17888021741E+04  0.50400001928E-02 0. -1.
    10030    2    1    2    0    0  0.00000000000E+00  0.00000000000E+00 -0.38942859381E+03  0.31881757543E+04  0.31643024525E+04 0.  0.
        2    1    3    3  502    0  0.52086941290E+03 -0.42297969779E+03  0.12489201373E+04  0.14177511345E+04  0.25500000920E-02 0.  1.
       -2    1    3    3    0  502 -0.52086941290E+03  0.42297969779E+03 -0.16383487311E+04  0.17704246199E+04  0.25500000920E-02 0. -1.
</event>
<event>
 5   0  0.5108810E-06  0.3158079E+04  0.7818609E-02  0.8199977E-01
       -2   -1    0    0    0  501  0.00000000000E+00  0.00000000000E+00  0.13213885134E+04  0.13213885134E+04  0.25500000920E-02 0. -1.
        2   -1    0    0  501    0  0.00000000000E+00  0.00000000000E+00 -0.18869284069E+04  0.18869284069E+04  0.25500000920E-02 0.  1.
    10030    2    1    2    0    0  0.00000000000E+00  0.00000000000E+00 -0.56553989355E+03  0.32083169203E+04  0.31580788606E+04 0.  0.
        1    1    3    3  502    0 -0.56665515014E+03  0.62541340175E+03  0.10730485569E+04  0.13651641615E+04  0.50400001928E-02 0. -1.
       -1    1    3    3    0  502  0.56665515014E+03 -0.62541340175E+03 -0.16385884505E+04  0.18431527588E+04  0.50400001928E-02 0.  1.
</event>
<event>
 5   0  0.1846850E-06  0.3166571E+04  0.7818609E-02  0.8197702E-01
        1   -1    0    0  501    0  0.00000000000E+00  0.00000000000E+00  0.13545403999E+04  0.13545403999E+04  0.50400001928E-02 0. -1.
       -1   -1    0    0    0  501  0.00000000000E+00  0.00000000000E+00 -0.18506594321E+04  0.18506594321E+04  0.50400001928E-02 0.  1.
    10030    2    1    2    0    0  0.00000000000E+00  0.00000000000E+00 -0.49611903214E+03  0.32051998320E+04  0.31665709954E+04 0.  0.
        5    1    3    3  502    0 -0.59922635355E+03  0.76684715682E+03 -0.15121513743E+04  0.17982632325E+04  0.46999998093E+01 0.  1.
       -5    1    3    3    0  502  0.59922635355E+03 -0.76684715682E+03  0.10160323421E+04  0.14069365995E+04  0.46999998093E+01 0. -1.
</event>
<event>
 5   0  0.5373060E-06  0.3244475E+04  0.7818609E-02  0.8177169E-01
       -2   -1    0    0    0  501  0.00000000000E+00  0.00000000000E+00  0.13981193761E+04  0.13981193761E+04  0.25500000920E-02 0.  1.
        2   -1    0    0  501    0  0.00000000000E+00  0.00000000000E+00 -0.18822812240E+04  0.18822812240E+04  0.25500000920E-02 0. -1.
    10030    2    1    2    0    0  0.00000000000E+00  0.00000000000E+00 -0.48416184786E+03  0.32804006001E+04  0.32444745957E+04 0.  0.
        5    1    3    3  502    0  0.13797292897E+04 -0.62265024114E+03 -0.83188020994E+03  0.17272501293E+04  0.46999998093E+01 0. -1.
       -5    1    3    3    0  502 -0.13797292897E+04  0.62265024114E+03  0.34771836208E+03  0.15531504708E+04  0.46999998093E+01 0.  1.
</event>
<event>
 5   0  0.1881144E-06  0.2982211E+04  0.7818609E-02  0.8248829E-01
       -1   -1    0    0    0  501  0.00000000000E+00  0.00000000000E+00  0.19343680575E+04  0.19343680575E+04  0.50400001928E-02 0. -1.
        1   -1    0    0  501    0  0.00000000000E+00  0.00000000000E+00 -0.11494169470E+04  0.11494169470E+04  0.50400001928E-02 0.  1.
    10030    2    1    2    0    0  0.00000000000E+00  0.00000000000E+00  0.78495111048E+03  0.30837850045E+04  0.29822108759E+04 0.  0.
        3    1    3    3  502    0 -0.66451179200E+03 -0.94997022238E+03  0.13621658849E+04  0.17887188861E+04  0.10100000352E+00 0. -1.
       -3    1    3    3    0  502  0.66451179200E+03  0.94997022238E+03 -0.57721477446E+03  0.12950661185E+04  0.10100000352E+00 0.  1.
</event>
<event>
 5   0  0.5347280E-06  0.3121622E+04  0.7818609E-02  0.8209829E-01
       -2   -1    0    0    0  501  0.00000000000E+00  0.00000000000E+00  0.17718075799E+04  0.17718075799E+04  0.25500000920E-02 0. -1.
        2   -1    0    0  501    0  0.00000000000E+00  0.00000000000E+00 -0.13749408321E+04  0.13749408321E+04  0.25500000920E-02 0.  1.
    10030    2    1    2    0    0  0.00000000000E+00  0.00000000000E+00  0.39686674787E+03  0.31467484120E+04  0.31216217505E+04 0.  0.
        2    1    3    3  502    0  0.23826099547E+03 -0.10172773400E+04 -0.97042964006E+03  0.14259576343E+04  0.25500000920E-02 0.  1.
       -2    1    3    3    0  502 -0.23826099547E+03  0.10172773400E+04  0.13672963879E+04  0.17207907778E+04  0.25500000920E-02 0. -1.
</event>
<event>
 5   0  0.1886248E-06  0.2690008E+04  0.7818609E-02  0.8338254E-01
        1   -1    0    0  501    0  0.00000000000E+00  0.00000000000E+00  0.12154497565E+04  0.12154497565E+04  0.50400001928E-02 0. -1.
       -1   -1    0    0    0  501  0.00000000000E+00  0.00000000000E+00 -0.14883675070E+04  0.14883675071E+04  0.50400001928E-02 0.  1.
    10030    2    1    2    0    0  0.00000000000E+00  0.00000000000E+00 -0.27291775054E+03  0.27038172636E+04  0.26900081220E+04 0.  0.
        4    1    3    3  502    0  0.12250340485E+04  0.55516026821E+03 -0.12531286896E+03  0.13507835768E+04  0.12699999809E+01 0.  1.
       -4    1    3    3    0  502 -0.12250340485E+04 -0.55516026821E+03 -0.14760488158E+03  0.13530336867E+04  0.12699999809E+01 0. -1.
</event>
<event>
 5   0  0.1846850E-06  0.3195751E+04  0.7818609E-02  0.8189940E-01
       -1   -1    0    0    0  501  0.00000000000E+00  0.00000000000E+00  0.15804566013E+04  0.15804566013E+04  0.50400001928E-02 0. -1.
        1   -1    0    0  501    0  0.00000000000E+00  0.00000000000E+00 -0.16154867258E+04  0.16154867258E+04  0.50400001928E-02 0.  1.
    10030    2    1    2    0    0  0.00000000000E+00  0.00000000000E+00 -0.35030124532E+02  0.31959433271E+04  0.31957513421E+04 0.  0.
        5    1    3    3  502    0 -0.49503516069E+03  0.13379811056E+04 -0.73723275153E+03  0.16058603517E+04  0.46999998093E+01 0.  1.
       -5    1    3    3    0  502  0.49503516069E+03 -0.13379811056E+04  0.70220262699E+03  0.15900829754E+04  0.46999998093E+01 0. -1.
</event>
<event>
 5   0  0.1977015E-06  0.1958573E+04  0.7818609E-02  0.8626238E-01
       -1   -1    0    0    0  501  0.00000000000E+00  0.00000000000E+00  0.72877941132E+03  0.72877941134E+03  0.50400001928E-02 0.  1.
        1   -1    0    0  501    0  0.00000000000E+00  0.00000000000E+00 -0.13159010086E+04  0.13159010086E+04  0.50400001928E-02 0. -1.
    10030    2    1    2    0    0  0.00000000000E+00  0.00000000000E+00 -0.58712159728E+03  0.20446804199E+04  0.19585725030E+04 0.  0.
        1    1    3    3  502    0  0.64471896121E+03 -0.69295447847E+03 -0.55591206863E+03  0.10976733012E+04  0.50400001928E-02 0. -1.
       -1    1    3    3    0  502 -0.64471896121E+03  0.69295447847E+03 -0.31209528647E+02  0.94700711870E+03  0.50400001928E-02 0.  1.
</event>
<event>
 5   0  0.1969465E-06  0.3224289E+04  0.7818609E-02  0.8182432E-01
        1   -1    0    0  501    0  0.00000000000E+00  0.00000000000E+00  0.16067366512E+04  0.16067366512E+04  0.50400001928E-02 0. -1.
       -1   -1    0    0    0  501  0.00000000000E+00  0.00000000000E+00 -0.16175707403E+04  0.16175707403E+04  0.50400001928E-02 0.  1.
    10030    2    1    2    0    0  0.00000000000E+00  0.00000000000E+00 -0.10834089073E+02  0.32243073915E+04  0.32242891895E+04 0.  0.
        2    1    3    3  502    0  0.61817782437E+03  0.15720615984E+03 -0.14860173775E+04  0.16171287040E+04  0.25500000920E-02 0.  1.
       -2    1    3    3    0  502 -0.61817782437E+03 -0.15720615984E+03  0.14751832884E+04  0.16071786875E+04  0.25500000920E-02 0. -1.
</event>
<event>
 5   0  0.5131083E-06  0.3207075E+04  0.7818609E-02  0.8186951E-01
        2   -1    0    0  501    0  0.00000000000E+00  0.00000000000E+00  0.31665914071E+04  0.31665914071E+04  0.25500000920E-02 0.  1.
       -2   -1    0    0    0  501  0.00000000000E+00  0.00000000000E+00 -0.81201909628E+03  0.81201909629E+03  0.25500000920E-02 0. -1.
    10030    2    1    2    0    0  0.00000000000E+00  0.00000000000E+00  0.23545723108E+04  0.39786105034E+04  0.32070751115E+04 0.  0.
        3    1    3    3  502    0 -0.12789592199E+04 -0.79349380048E+03  0.18634963469E+04  0.23954097233E+04  0.10100000352E+00 0.  1.
       -3    1    3    3    0  502  0.12789592199E+04  0.79349380048E+03  0.49107596390E+03  0.15832007801E+04  0.10100000352E+00 0. -1.
</event>
<event>
 5   0  0.5108810E-06  0.3210175E+04  0.7818609E-02  0.8186135E-01
        2   -1    0    0  501    0  0.00000000000E+00  0.00000000000E+00  0.18670859143E+04  0.18670859143E+04  0.25500000920E-02 0.  1.
       -2   -1    0    0    0  501  0.00000000000E+00  0.00000000000E+00 -0.13798540488E+04  0.13798540488E+04  0.25500000920E-02 0. -1.
    10030    2    1    2    0    0  0.00000000000E+00  0.00000000000E+00  0.48723186547E+03  0.32469399631E+04  0.32101751094E+04 0.  0.
        1    1    3    3  502    0  0.10971323902E+04  0.18270289936E+03  0.14141188713E+04  0.17991142302E+04  0.50400001928E-02 0. -1.
       -1    1    3    3    0  502 -0.10971323902E+04 -0.18270289936E+03 -0.92688700587E+03  0.14478257329E+04  0.50400001928E-02 0.  1.
</event>
<event>
 5   0  0.1969465E-06  0.2763143E+04  0.7818609E-02  0.8314803E-01
        1   -1    0    0  501    0  0.00000000000E+00  0.00000000000E+00  0.18932966499E+04  0.18932966499E+04  0.50400001928E-02 0. -1.
       -1   -1    0    0    0  501  0.00000000000E+00  0.00000000000E+00 -0.10081565793E+04  0.10081565793E+04  0.50400001928E-02 0.  1.
    10030    2    1    2    0    0  0.00000000000E+00  0.00000000000E+00  0.88514007066E+03  0.29014532292E+04  0.27631427572E+04 0.  0.
        2    1    3    3  502    0  0.47427473152E+03  0.66321938653E+03  0.16137199498E+04  0.18080067898E+04  0.25500000920E-02 0. -1.
       -2    1    3    3    0  502 -0.47427473152E+03 -0.66321938653E+03 -0.72857987913E+03  0.10934464394E+04  0.25500000920E-02 0.  1.
</event>
<event>
 5   0  0.1886248E-06  0.1985692E+04  0.7818609E-02  0.8613339E-01
        1   -1    0    0  501    0  0.00000000000E+00  0.00000000000E+00  0.20614258716E+04  0.20614258716E+04  0.50400001928E-02 0. -1.
       -1   -1    0    0    0  501  0.00000000000E+00  0.00000000000E+00 -0.47818517987E+03  0.47818517989E+03  0.50400001928E-02 0.  1.
    10030    2    1    2    0    0  0.00000000000E+00  0.00000000000E+00  0.15832406917E+04  0.25396110515E+04  0.19856921224E+04 0.  0.
        4    1    3    3  502    0  0.13421581355E+03 -0.15153733392E+02  0.20496195637E+04  0.20540656000E+04  0.12699999809E+01 0. -1.
       -4    1    3    3    0  502 -0.13421581355E+03  0.15153733392E+02 -0.46637887203E+03  0.48554545145E+03  0.12699999809E+01 0.  1.
</event>
<event>
 5   0  0.1881144E-06  0.3249803E+04  0.7818609E-02  0.8175787E-01
        1   -1    0    0  501    0  0.00000000000E+00  0.00000000000E+00  0.21262114489E+04  0.21262114489E+04  0.50400001928E-02 0.  1.
       -1   -1    0    0    0  501  0.00000000000E+00  0.00000000000E+00 -0.12417887254E+04  0.12417887254E+04  0.50400001928E-02 0. -1.
    10030    2    1    2    0    0  0.00000000000E+00  0.00000000000E+00  0.88442272347E+03  0.33680001743E+04  0.32498033202E+04 0.  0.
        3    1    3    3  502    0 -0.16169363643E+04  0.14487642861E+03  0.37016304564E+03  0.16650805014E+04  0.10100000352E+00 0. -1.
       -3    1    3    3    0  502  0.16169363643E+04 -0.14487642861E+03  0.51425967783E+03  0.17029196728E+04  0.10100000352E+00 0.  1.
</event>
<event>
 5   0  0.1886248E-06  0.3185458E+04  0.7818609E-02  0.8192668E-01
        1   -1    0    0  501    0  0.00000000000E+00  0.00000000000E+00  0.24790766239E+04  0.24790766239E+04  0.50400001928E-02 0.  1.
       -1   -1    0    0    0  501  0.00000000000E+00  0.00000000000E+00 -0.10232786498E+04  0.10232786498E+04  0.50400001928E-02 0. -1.
    10030    2    1    2    0    0  0.00000000000E+00  0.00000000000E+00  0.14557979741E+04  0.35023552736E+04  0.31854583220E+04 0.  0.
        4    1    3    3  502    0  0.58473576431E+03  0.88365525666E+03  0.20353227086E+04  0.22946247335E+04  0.12699999809E+01 0.  1.
       -4    1    3    3    0  502 -0.58473576431E+03 -0.88365525666E+03 -0.57952473451E+03  0.12077305401E+04  0.12699999809E+01 0. -1.
</event>
<event>
 5   0  0.5347280E-06  0.3181623E+04  0.7818609E-02  0.8193687E-01
        2   -1    0    0  501    0  0.00000000000E+00  0.00000000000E+00  0.19809575411E+04  0.19809575411E+04  0.25500000920E-02 0.  1.
       -2   -1    0    0    0  501  0.00000000000E+00  0.00000000000E+00 -0.12775043629E+04  0.12775043629E+04  0.25500000920E-02 0. -1.
    10030    2    1    2    0    0  0.00000000000E+00  0.00000000000E+00  0.70345317824E+03  0.32584619040E+04  0.31816234230E+04 0.  0.
        2    1    3    3  502    0  0.10854892754E+04  0.78940624725E+03 -0.52284817863E+03  0.14404233434E+04  0.25500000920E-02 0. -1.
       -2    1    3    3    0  502 -0.10854892754E+04 -0.78940624725E+03  0.12263013569E+04  0.18180385607E+04  0.25500000920E-02 0.  1.
</event>
<event>
 5   0  0.5108810E-06  0.3206935E+04  0.7818609E-02  0.8186988E-01
        2   -1    0    0  501    0  0.00000000000E+00  0.00000000000E+00  0.19119770712E+04  0.19119770712E+04  0.25500000920E-02 0.  1.
       -2   -1    0    0    0  501  0.00000000000E+00  0.00000000000E+00 -0.13447382521E+04  0.13447382521E+04  0.25500000920E-02 0. -1.
    10030    2    1    2    0    0  0.00000000000E+00  0.00000000000E+00  0.56723881905E+03  0.32567153233E+04  0.32069354248E+04 0.  0.
        1    1    3    3  502    0  0.15081284974E+04  0.38179072626E+03  0.67809860385E+03  0.16970661271E+04  0.50400001928E-02 0. -1.
       -1    1    3    3    0  502 -0.15081284974E+04 -0.38179072626E+03 -0.11085978480E+03  0.15596491962E+04  0.50400001928E-02 0.  1.
</event>
<event>
 5   0  0.1977015E-06  0.3167353E+04  0.7818609E-02  0.8197493E-01
        1   -1    0    0  501    0  0.00000000000E+00  0.00000000000E+00  0.22412534833E+04  0.22412534833E+04  0.50400001928E-02 0.  1.
       -1   -1    0    0    0  501  0.00000000000E+00  0.00000000000E+00 -0.11190305640E+04  0.11190305641E+04  0.50400001928E-02 0. -1.
    10030    2    1    2    0    0  0.00000000000E+00  0.00000000000E+00  0.11222229193E+04  0.33602840474E+04  0.31673529324E+04 0.  0.
        1    1    3    3  502    0 -0.11243995963E+04 -0.25687343601E+03 -0.59024626665E+03  0.12956269022E+04  0.50400001928E-02 0. -1.
       -1    1    3    3    0  502  0.11243995963E+04  0.25687343601E+03  0.17124691859E+04  0.20646571452E+04  0.50400001928E-02 0.  1.
</event>
<event>
 5   0  0.5347280E-06  0.3148967E+04  0.7818609E-02  0.8202426E-01
       -2   -1    0    0    0  501  0.00000000000E+00  0.00000000000E+00  0.11750825109E+04  0.11750825109E+04  0.25500000920E-02 0.  1.
        2   -1    0    0  501    0  0.00000000000E+00  0.00000000000E+00 -0.21096376212E+04  0.21096376212E+04  0.25500000920E-02 0. -1.
    10030    2    1    2    0    0  0.00000000000E+00  0.00000000000E+00 -0.93455511028E+03  0.32847201321E+04  0.31489669881E+04 0.  0.
        2    1    3    3  502    0 -0.13657778511E+04 -0.71781328911E+03 -0.79447721513E+03  0.17354535724E+04  0.25500000920E-02 0. -1.
       -2    1    3    3    0  502  0.13657778511E+04  0.71781328911E+03 -0.14007789516E+03  0.15492665598E+04  0.25500000920E-02 0.  1.
</event>
<event>
 5   0  0.1881144E-06  0.2088675E+04  0.7818609E-02  0.8566248E-01
       -1   -1    0    0    0  501  0.00000000000E+00  0.00000000000E+00  0.66965804994E+03  0.66965804996E+03  0.50400001928E-02 0.  1.
        1   -1    0    0  501    0  0.00000000000E+00  0.00000000000E+00 -0.16286540953E+04  0.16286540953E+04  0.50400001928E-02 0. -1.
    10030    2    1    2    0    0  0.00000000000E+00  0.00000000000E+00 -0.95899604535E+03  0.22983121453E+04  0.20886754899E+04 0.  0.
        3    1    3    3  502    0 -0.13593477228E+03 -0.10039263287E+04 -0.20048365164E+03  0.10327342546E+04  0.10100000352E+00 0.  1.
       -3    1    3    3    0  502  0.13593477228E+03  0.10039263287E+04 -0.75851239371E+03  0.12655778907E+04  0.10100000352E+00 0. -1.
</event>
<event>
 5   0  0.5108810E-06  0.3265051E+04  0.7818609E-02  0.8171845E-01
        2   -1    0    0  501    0  0.00000000000E+00  0.00000000000E+00  0.15668148336E+04  0.15668148336E+04  0.25500000920E-02 0.  1.
       -2   -1    0    0    0  501  0.00000000000E+00  0.00000000000E+00 -0.17009925073E+04  0.17009925073E+04  0.25500000920E-02 0. -1.
    10030    2    1    2    0    0  0.00000000000E+00  0.00000000000E+00 -0.13417767379E+03  0.32678073409E+04  0.32650514803E+04 0.  0.
        1    1    3    3  502    0 -0.12389367615E+04 -0.10549394665E+04  0.64470638441E+02  0.16285017778E+04  0.50400001928E-02 0.  1.
       -1    1    3    3    0  502  0.12389367615E+04  0.10549394665E+04 -0.19864831223E+03  0.16393055631E+04  0.50400001928E-02 0. -1.
</event>
<event>
 5   0  0.1881144E-06  0.2564616E+04  0.7818609E-02  0.8380321E-01
        1   -1    0    0  501    0  0.00000000000E+00  0.00000000000E+00  0.16541620494E+04  0.16541620494E+04  0.50400001928E-02 0.  1.
       -1   -1    0    0    0  501  0.00000000000E+00  0.00000000000E+00 -0.99404623640E+03  0.99404623642E+03  0.50400001928E-02 0. -1.
    10030    2    1    2    0    0  0.00000000000E+00  0.00000000000E+00  0.66011581301E+03  0.26482082858E+04  0.25646158072E+04 0.  0.
        3    1    3    3  502    0  0.18641666943E+03 -0.12401449324E+04  0.53748801420E+02  0.12552288922E+04  0.10100000352E+00 0.  1.
       -3    1    3    3    0  502 -0.18641666943E+03  0.12401449324E+04  0.60636701159E+03  0.13929793936E+04  0.10100000352E+00 0. -1.
</event>
<event>
 5   0  0.5373060E-06  0.3048715E+04  0.7818609E-02  0.8229955E-01
       -2   -1    0    0    0  501  0.00000000000E+00  0.00000000000E+00  0.12566336749E+04  0.12566336749E+04  0.25500000920E-02 0. -1.
        2   -1    0    0  501    0  0.00000000000E+00  0.00000000000E+00 -0.18491190316E+04  0.18491190316E+04  0.25500000920E-02 0.  1.
    10030    2    1    2    0    0  0.00000000000E+00  0.00000000000E+00 -0.59248535673E+03  0.31057527065E+04  0.30487146433E+04 0.  0.
        5    1    3    3  502    0 -0.10381442197E+04 -0.97764351522E+03 -0.84494097055E+03  0.16575516877E+04  0.46999998093E+01 0.  1.
       -5    1    3    3    0  502  0.10381442197E+04  0.97764351522E+03  0.25245561382E+03  0.14482010188E+04  0.46999998093E+01 0. -1.
</event>
<event>
 5   0  0.5108810E-06  0.3190834E+04  0.7818609E-02  0.8191242E-01
        2   -1    0    0  501    0  0.00000000000E+00  0.00000000000E+00  0.18273280009E+04  0.18273280009E+04  0.25500000920E-02 0. -1.
       -2   -1    0    0    0  501  0.00000000000E+00  0.00000000000E+00 -0.13929387974E+04  0.13929387974E+04  0.25500000920E-02 0.  1.
    10030    2    1    2    0    0  0.00000000000E+00  0.00000000000E+00  0.43438920352E+03  0.32202667982E+04  0.31908344162E+04 0.  0.
        1    1    3    3  502    0 -0.88878238104E+03  0.19944635913E+03 -0.11047128789E+04  0.14318182552E+04  0.50400001928E-02 0.  1.
       -1    1    3    3    0  502  0.88878238104E+03 -0.19944635913E+03  0.15391020824E+04  0.17884485431E+04  0.50400001928E-02 0. -1.
</event>
<event>
 5   0  0.1969465E-06  0.3205384E+04  0.7818609E-02  0.8187397E-01
       -1   -1    0    0    0  501  0.00000000000E+00  0.00000000000E+00  0.13400110008E+04  0.13400110008E+04  0.50400001928E-02 0. -1.
        1   -1    0    0  501    0  0.00000000000E+00  0.00000000000E+00 -0.19168659842E+04  0.19168659842E+04  0.50400001928E-02 0.  1.
    10030    2    1    2    0    0  0.00000000000E+00  0.00000000000E+00 -0.57685498347E+03  0.32568769850E+04  0.32053839120E+04 0.  0.
        2    1    3    3  502    0 -0.30563875937E+02 -0.13096169446E+04  0.64976429554E+03  0.14622668470E+04  0.25500000920E-02 0. -1.
       -2    1    3    3    0  502  0.30563875937E+02  0.13096169446E+04 -0.12266192790E+04  0.17946101381E+04  0.25500000920E-02 0.  1.
</event>
<event>
 5   0  0.5347280E-06  0.3185498E+04  0.7818609E-02  0.8192658E-01
       -2   -1    0    0    0  501  0.00000000000E+00  0.00000000000E+00  0.10581418028E+04  0.10581418028E+04  0.25500000920E-02 0.  1.
        2   -1    0    0  501    0  0.00000000000E+00  0.00000000000E+00 -0.23974565885E+04  0.23974565885E+04  0.25500000920E-02 0. -1.
    10030    2    1    2    0    0  0.00000000000E+00  0.00000000000E+00 -0.13393147858E+04  0.34555983913E+04  0.31854977863E+04 0.  0.
        2    1    3    3  502    0  0.59740203834E+03  0.46762863789E+03 -0.21888614815E+04  0.23166096615E+04  0.25500000920E-02 0. -1.
       -2    1    3    3    0  502 -0.59740203834E+03 -0.46762863789E+03  0.84954669577E+03  0.11389887298E+04  0.25500000920E-02 0.  1.
</event>
<event>
 5   0  0.5108810E-06  0.3093022E+04  0.7818609E-02  0.8217656E-01
       -2   -1    0    0    0  501  0.00000000000E+00  0.00000000000E+00  0.10740960007E+04  0.10740960007E+04  0.25500000920E-02 0. -1.
        2   -1    0    0  501    0  0.00000000000E+00  0.00000000000E+00 -0.22267062777E+04  0.22267062777E+04  0.25500000920E-02 0.  1.
    10030    2    1    2    0    0  0.00000000000E+00  0.00000000000E+00 -0.11526102770E+04  0.33008022784E+04  0.30930220223E+04 0.  0.
        1    1    3    3  502    0 -0.84515806868E+03  0.12920316159E+04 -0.67210442124E+03  0.16838533816E+04  0.50400001928E-02 0. -1.
       -1    1    3    3    0  502  0.84515806868E+03 -0.12920316159E+04 -0.48050585575E+03  0.16169488969E+04  0.50400001928E-02 0.  1.
</event>
<event>
 5   0  0.1969465E-06  0.3235792E+04  0.7818609E-02  0.8179428E-01
        1   -1    0    0  501    0  0.00000000000E+00  0.00000000000E+00  0.16609042640E+04  0.16609042640E+04  0.50400001928E-02 0. -1.
       -1   -1    0    0    0  501  0.00000000000E+00  0.00000000000E+00 -0.15760012895E+04  0.15760012895E+04  0.50400001928E-02 0.  1.
    10030    2    1    2    0    0  0.00000000000E+00  0.00000000000E+00  0.84902974490E+02  0.32369055535E+04  0.32357918733E+04 0.  0.
        2    1    3    3  502    0 -0.33764265206E+03 -0.12745908930E+04 -0.89542266388E+03  0.15938526444E+04  0.25500000920E-02 0.  1.
       -2    1    3    3    0  502  0.33764265206E+03  0.12745908930E+04  0.98032563837E+03  0.16430529091E+04  0.25500000920E-02 0. -1.
</event>
<event>
 5   0  0.1886248E-06  0.3413744E+04  0.7818609E-02  0.8134541E-01
        1   -1    0    0  501    0  0.00000000000E+00  0.00000000000E+00  0.16863181351E+04  0.16863181351E+04  0.50400001928E-02 0. -1.
       -1   -1    0    0    0  501  0.00000000000E+00  0.00000000000E+00 -0.17276763861E+04  0.17276763861E+04  0.50400001928E-02 0.  1.
    10030    2    1    2    0    0  0.00000000000E+00  0.00000000000E+00 -0.41358251019E+02  0.34139945213E+04  0.34137439984E+04 0.  0.
        4    1    3    3  502    0 -0.72489046475E+03  0.32355745435E+03 -0.15318342894E+04  0.17253038907E+04  0.12699999809E+01 0.  1.
       -4    1    3    3    0  502  0.72489046475E+03 -0.32355745435E+03  0.14904760383E+04  0.16886906306E+04  0.12699999809E+01 0. -1.
</event>
<event>
 5   0  0.5373060E-06  0.3108741E+04  0.7818609E-02  0.8213343E-01
        2   -1    0    0  501    0  0.00000000000E+00  0.00000000000E+00  0.27495402751E+04  0.27495402751E+04  0.25500000920E-02 0. -1.
       -2   -1    0    0    0  501  0.00000000000E+00  0.00000000000E+00 -0.87871681229E+03  0.87871681229E+03  0.25500000920E-02 0.  1.
    10030    2    1    2    0    0  0.00000000000E+00  0.00000000000E+00  0.18708234628E+04  0.36282570874E+04  0.31087407520E+04 0.  0.
        5    1    3    3  502    0  0.13422859899E+04 -0.26782130357E+03  0.75710524923E+02  0.13708443030E+04  0.46999998093E+01 0.  1.
       -5    1    3    3    0  502 -0.13422859899E+04  0.26782130357E+03  0.17951129379E+04  0.22574127844E+04  0.46999998093E+01 0. -1.
</event>
<event>
 5   0  0.1846850E-06  0.3179340E+04  0.7818609E-02  0.8194295E-01
        1   -1    0    0  501    0  0.00000000000E+00  0.00000000000E+00  0.23876805698E+04  0.23876805698E+04  0.50400001928E-02 0. -1.
       -1   -1    0    0    0  501  0.00000000000E+00  0.00000000000E+00 -0.10583702399E+04  0.10583702399E+04  0.50400001928E-02 0.  1.
    10030    2    1    2    0    0  0.00000000000E+00  0.00000000000E+00  0.13293103299E+04  0.34460508098E+04  0.31793395903E+04 0.  0.
        5    1    3    3  502    0 -0.11744476360E+04 -0.10608790244E+04  0.50302696781E+03  0.16606775047E+04  0.46999998093E+01 0. -1.
       -5    1    3    3    0  502  0.11744476360E+04  0.10608790244E+04  0.82628336211E+03  0.17853733051E+04  0.46999998093E+01 0.  1.
</event>
<event>
 5   0  0.1881144E-06  0.2975277E+04  0.7818609E-02  0.8250826E-01
       -1   -1    0    0    0  501  0.00000000000E+00  0.00000000000E+00  0.15459979416E+04  0.15459979416E+04  0.50400001928E-02 0.  1.
        1   -1    0    0  501    0  0.00000000000E+00  0.00000000000E+00 -0.14314816750E+04  0.14314816750E+04  0.50400001928E-02 0. -1.
    10030    2    1    2    0    0  0.00000000000E+00  0.00000000000E+00  0.11451626655E+03  0.29774796166E+04  0.29752766077E+04 0.  0.
        3    1    3    3  502    0 -0.18703833964E+03  0.55647030768E+03 -0.13106574711E+04  0.14361286713E+04  0.10100000352E+00 0. -1.
       -3    1    3    3    0  502  0.18703833964E+03 -0.55647030768E+03  0.14251737377E+04  0.15413509453E+04  0.10100000352E+00 0.  1.
</event>
<event>
 5   0  0.5131083E-06  0.3211386E+04  0.7818609E-02  0.8185817E-01
        2   -1    0    0  501    0  0.00000000000E+00  0.00000000000E+00  0.13104966812E+04  0.13104966812E+04  0.25500000920E-02 0.  1.
       -2   -1    0    0    0  501  0.00000000000E+00  0.00000000000E+00 -0.19673832549E+04  0.19673832549E+04  0.25500000920E-02 0. -1.
    10030    2    1    2    0    0  0.00000000000E+00  0.00000000000E+00 -0.65688657365E+03  0.32778799361E+04  0.32113855117E+04 0.  0.
        3    1    3    3  502    0  0.15013415967E+04 -0.47742639619E+03 -0.64516924899E+03  0.17024117962E+04  0.10100000352E+00 0. -1.
       -3    1    3    3    0  502 -0.15013415967E+04  0.47742639619E+03 -0.11717324660E+02  0.15754681399E+04  0.10100000352E+00 0.  1.
</event>
<event>
 5   0  0.5373060E-06  0.2878292E+04  0.7818609E-02  0.8279366E-01
        2   -1    0    0  501    0  0.00000000000E+00  0.00000000000E+00  0.20638921512E+04  0.20638921512E+04  0.25500000920E-02 0.  1.
       -2   -1    0    0    0  501  0.00000000000E+00  0.00000000000E+00 -0.10035123806E+04  0.10035123806E+04  0.25500000920E-02 0. -1.
    10030    2    1    2    0    0  0.00000000000E+00  0.00000000000E+00  0.10603797706E+04  0.30674045318E+04  0.28782920810E+04 0.  0.
        5    1    3    3  502    0 -0.95959934331E+03 -0.83173110282E+03  0.12518146141E+04  0.17831627646E+04  0.46999998093E+01 0.  1.
       -5    1    3    3    0  502  0.95959934331E+03  0.83173110282E+03 -0.19143484356E+03  0.12842417671E+04  0.46999998093E+01 0. -1.
</event>
<event>
 5   0  0.1846850E-06  0.3215877E+04  0.7818609E-02  0.8184637E-01
        1   -1    0    0  501    0  0.00000000000E+00  0.00000000000E+00  0.20327067969E+04  0.20327067969E+04  0.50400001928E-02 0.  1.
       -1   -1    0    0    0  501  0.00000000000E+00  0.00000000000E+00 -0.12719323012E+04  0.12719323012E+04  0.50400001928E-02 0. -1.
    10030    2    1    2    0    0  0.00000000000E+00  0.00000000000E+00  0.76077449573E+03  0.33046390981E+04  0.32158765112E+04 0.  0.
        5    1    3    3  502    0 -0.19614122333E+03 -0.14268102234E+04 -0.35431866186E+03  0.14831798937E+04  0.46999998093E+01 0. -1.
       -5    1    3    3    0  502  0.19614122333E+03  0.14268102234E+04  0.11150931576E+04  0.18214592043E+04  0.46999998093E+01 0.  1.
</event>
<event>
 5   0  0.1969465E-06  0.3164630E+04  0.7818609E-02  0.8198221E-01
        1   -1    0    0  501    0  0.00000000000E+00  0.00000000000E+00  0.10860160438E+04  0.10860160439E+04  0.50400001928E-02 0. -1.
       -1   -1    0    0    0  501  0.00000000000E+00  0.00000000000E+00 -0.23054179015E+04  0.23054179015E+04  0.50400001928E-02 0.  1.
    10030    2    1    2    0    0  0.00000000000E+00  0.00000000000E+00 -0.12194018577E+04  0.33914339454E+04  0.31646300440E+04 0.  0.
        2    1    3    3  502    0 -0.13407240028E+04  0.34041015033E+03  0.21367305620E+03  0.13996699958E+04  0.25500000920E-02 0. -1.
       -2    1    3    3    0  502  0.13407240028E+04 -0.34041015033E+03 -0.14330749139E+04  0.19917639496E+04  0.25500000920E-02 0.  1.
</event>
<event>
 5   0  0.5121624E-06  0.2524723E+04  0.7818609E-02  0.8394230E-01
       -2   -1    0    0    0  501  0.00000000000E+00  0.00000000000E+00  0.97528996846E+03  0.97528996847E+03  0.25500000920E-02 0.  1.
        2   -1    0    0  501    0  0.00000000000E+00  0.00000000000E+00 -0.16339316095E+04  0.16339316095E+04  0.25500000920E-02 0. -1.
    10030    2    1    2    0    0  0.00000000000E+00  0.00000000000E+00 -0.65864164107E+03  0.26092215780E+04  0.25247234367E+04 0.  0.
        4    1    3    3  502    0 -0.60189321685E+03 -0.18536710850E+03  0.80133271718E+03  0.10192017199E+04  0.12699999809E+01 0.  1.
       -4    1    3    3    0  502  0.60189321685E+03  0.18536710850E+03 -0.14599743582E+04  0.15900198581E+04  0.12699999809E+01 0. -1.
</event>
<event>
 5   0  0.5373060E-06  0.3158127E+04  0.7818609E-02  0.8199964E-01
       -2   -1    0    0    0  501  0.00000000000E+00  0.00000000000E+00  0.11831825335E+04  0.11831825335E+04  0.25500000920E-02 0. -1.
        2   -1    0    0  501    0  0.00000000000E+00  0.00000000000E+00 -0.21074016249E+04  0.21074016249E+04  0.25500000920E-02 0.  1.
    10030    2    1    2    0    0  0.00000000000E+00  0.00000000000E+00 -0.92421909144E+03  0.32905841584E+04  0.31581265292E+04 0.  0.
        5    1    3    3  502    0  0.14583837278E+03  0.76143638034E+03  0.97121940897E+03  0.12427161472E+04  0.46999998093E+01 0. -1.
       -5    1    3    3    0  502 -0.14583837278E+03 -0.76143638034E+03 -0.18954385004E+04  0.20478680111E+04  0.46999998093E+01 0.  1.
</event>
<event>
 5   0  0.1977015E-06  0.3255476E+04  0.7818609E-02  0.8174318E-01
        1   -1    0    0  501    0  0.00000000000E+00  0.00000000000E+00  0.14630893296E+04  0.14630893296E+04  0.50400001928E-02 0.  1.
       -1   -1    0    0    0  501  0.00000000000E+00  0.00000000000E+00 -0.18109152884E+04  0.18109152884E+04  0.50400001928E-02 0. -1.
    10030    2    1    2    0    0  0.00000000000E+00  0.00000000000E+00 -0.34782595880E+03  0.32740046179E+04  0.32554759008E+04 0.  0.
        1    1    3    3  502    0  0.11038848840E+04 -0.63160758578E+03  0.84776315327E+03  0.15284607759E+04  0.50400001928E-02 0.  1.
       -1    1    3    3    0  502 -0.11038848840E+04  0.63160758578E+03 -0.11955891121E+04  0.17455438420E+04  0.50400001928E-02 0. -1.
</event>
<event>
 5   0  0.5347280E-06  0.3189667E+04  0.7818609E-02  0.8191551E-01
       -2   -1    0    0    0  501  0.00000000000E+00  0.00000000000E+00  0.13317179813E+04  0.13317179813E+04  0.25500000920E-02 0. -1.
        2   -1    0    0  501    0  0.00000000000E+00  0.00000000000E+00 -0.19099340792E+04  0.19099340792E+04  0.25500000920E-02 0.  1.
    10030    2    1    2    0    0  0.00000000000E+00  0.00000000000E+00 -0.57821609789E+03  0.32416520605E+04  0.31896667891E+04 0.  0.
        2    1    3    3  502    0  0.67914343160E+03 -0.14356517398E+04 -0.14126606885E+03  0.15944553368E+04  0.25500000920E-02 0.  1.
       -2    1    3    3    0  502 -0.67914343160E+03  0.14356517398E+04 -0.43695002905E+03  0.16471967237E+04  0.25500000920E-02 0. -1.
</event>
<event>
 5   0  0.1969465E-06  0.3312230E+04  0.7818609E-02  0.8159790E-01
        1   -1    0    0  501    0  0.00000000000E+00  0.00000000000E+00  0.22416131709E+04  0.22416131709E+04  0.50400001928E-02 0.  1.
       -1   -1    0    0    0  501  0.00000000000E+00  0.00000000000E+00 -0.12235461156E+04  0.12235461156E+04  0.50400001928E-02 0. -1.
    10030    2    1    2    0    0  0.00000000000E+00  0.00000000000E+00  0.10180670553E+04  0.34651592865E+04  0.33122301176E+04 0.  0.
        2    1    3    3  502    0 -0.10926139681E+04 -0.10599194497E+04  0.11914407042E+04  0.19330715131E+04  0.25500000920E-02 0.  1.
       -2    1    3    3    0  502  0.10926139681E+04  0.10599194497E+04 -0.17337364890E+03  0.15320877734E+04  0.25500000920E-02 0. -1.
</event>
<event>
 5   0  0.5108810E-06  0.3200779E+04  0.7818609E-02  0.8188611E-01
        2   -1    0    0  501    0  0.00000000000E+00  0.00000000000E+00  0.16803298303E+04  0.16803298303E+04  0.25500000920E-02 0. -1.
       -2   -1    0    0    0  501  0.00000000000E+00  0.00000000000E+00 -0.15242526938E+04  0.15242526938E+04  0.25500000920E-02 0.  1.
    10030    2    1    2    0    0  0.00000000000E+00  0.00000000000E+00  0.15607713650E+03  0.32045825242E+04  0.32007794491E+04 0.  0.
        1    1    3    3  502    0 -0.10620158694E+04 -0.11641157235E+04 -0.20194374579E+03  0.15886549031E+04  0.50400001928E-02 0.  1.
       -1    1    3    3    0  502  0.10620158694E+04  0.11641157235E+04  0.35802088229E+03  0.16159276211E+04  0.50400001928E-02 0. -1.
</event>
<event>
 5   0  0.1881144E-06  0.3185875E+04  0.7818609E-02  0.8192558E-01
       -1   -1    0    0    0  501  0.00000000000E+00  0.00000000000E+00  0.15357615946E+04  0.15357615946E+04  0.50400001928E-02 0. -1.
        1   -1    0    0  501    0  0.00000000000E+00  0.00000000000E+00 -0.16522418967E+04  0.16522418967E+04  0.50400001928E-02 0.  1.
    10030    2    1    2    0    0  0.00000000000E+00  0.00000000000E+00 -0.11648030214E+03  0.31880034913E+04  0.31858748562E+04 0.  0.
        3    1    3    3  502    0 -0.68998267301E+03 -0.60334065558E+03  0.12454555679E+04  0.15463685258E+04  0.10100000352E+00 0. -1.
       -3    1    3    3    0  502  0.68998267301E+03  0.60334065558E+03 -0.13619358700E+04  0.16416349655E+04  0.10100000352E+00 0.  1.
</event>
<event>
 5   0  0.1881144E-06  0.3199316E+04  0.7818609E-02  0.8188998E-01
        1   -1    0    0  501    0  0.00000000000E+00  0.00000000000E+00  0.20684231107E+04  0.20684231107E+04  0.50400001928E-02 0. -1.
       -1   -1    0    0    0  501  0.00000000000E+00  0.00000000000E+00 -0.12371284076E+04  0.12371284076E+04  0.50400001928E-02 0.  1.
    10030    2    1    2    0    0  0.00000000000E+00  0.00000000000E+00  0.83129470306E+03  0.33055515183E+04  0.31993155451E+04 0.  0.
        3    1    3    3  502    0 -0.37522408796E+03  0.36415536173E+03  0.19776354725E+04  0.20455914342E+04  0.10100000352E+00 0. -1.
       -3    1    3    3    0  502  0.37522408796E+03 -0.36415536173E+03 -0.11463407694E+04  0.12599600841E+04  0.10100000352E+00 0.  1.
</event>
<event>
 5   0  0.5121624E-06  0.2848113E+04  0.7818609E-02  0.8288485E-01
        2   -1    0    0  501    0  0.00000000000E+00  0.00000000000E+00  0.12609602181E+04  0.12609602181E+04  0.25500000920E-02 0. -1.
       -2   -1    0    0    0  501  0.00000000000E+00  0.00000000000E+00 -0.16082480557E+04  0.16082480557E+04  0.25500000920E-02 0.  1.
    10030    2    1    2    0    0  0.00000000000E+00  0.00000000000E+00 -0.34728783753E+03  0.28692082738E+04  0.28481129325E+04 0.  0.
        4    1    3    3  502    0  0.49459076010E+03  0.23944789445E+03 -0.14971402282E+04  0.15947996081E+04  0.12699999809E+01 0.  1.
       -4    1    3    3    0  502 -0.49459076010E+03 -0.23944789445E+03  0.11498523906E+04  0.12744086657E+04  0.12699999809E+01 0. -1.
</event>
<event>
 5   0  0.5108810E-06  0.3171125E+04  0.7818609E-02  0.8196485E-01
       -2   -1    0    0    0  501  0.00000000000E+00  0.00000000000E+00  0.17406219695E+04  0.17406219695E+04  0.25500000920E-02 0.  1.
        2   -1    0    0  501    0  0.00000000000E+00  0.00000000000E+00 -0.14443161401E+04  0.14443161401E+04  0.25500000920E-02 0. -1.
    10030    2    1    2    0    0  0.00000000000E+00  0.00000000000E+00  0.29630582941E+03  0.31849381096E+04  0.31711249767E+04 0.  0.
        1    1    3    3  502    0 -0.89465262623E+02 -0.13561506344E+04 -0.67201904457E+03  0.15161656152E+04  0.50400001928E-02 0. -1.
       -1    1    3    3    0  502  0.89465262623E+02  0.13561506344E+04  0.96832487397E+03  0.16687724944E+04  0.50400001928E-02 0.  1.
</event>
<event>
 5   0  0.5373060E-06  0.3212957E+04  0.7818609E-02  0.8185404E-01
       -2   -1    0    0    0  501  0.00000000000E+00  0.00000000000E+00  0.12661793371E+04  0.12661793371E+04  0.25500000920E-02 0.  1.
        2   -1    0    0  501    0  0.00000000000E+00  0.00000000000E+00 -0.20382360641E+04  0.20382360641E+04  0.25500000920E-02 0. -1.
    10030    2    1    2    0    0  0.00000000000E+00  0.00000000000E+00 -0.77205672696E+03  0.33044154012E+04  0.32129565130E+04 0.  0.
        5    1    3    3  502    0  0.40104601942E+03 -0.14347751031E+04 -0.10042489727E+04  0.17966512170E+04  0.46999998093E+01 0. -1.
       -5    1    3    3    0  502 -0.40104601942E+03  0.14347751031E+04  0.23219224575E+03  0.15077641842E+04  0.46999998093E+01 0.  1.
</event>
<event>
 5   0  0.1886248E-06  0.2259256E+04  0.7818609E-02  0.8494161E-01
        1   -1    0    0  501    0  0.00000000000E+00  0.00000000000E+00  0.17526975227E+04  0.17526975227E+04  0.50400001928E-02 0. -1.
       -1   -1    0    0    0  501  0.00000000000E+00  0.00000000000E+00 -0.72805463970E+03  0.72805463972E+03  0.50400001928E-02 0.  1.
    10030    2    1    2    0    0  0.00000000000E+00  0.00000000000E+00  0.10246428830E+04  0.24807521624E+04  0.22592561284E+04 0.  0.
        4    1    3    3  502    0 -0.96915198794E+03 -0.53042721421E+03  0.25375859477E+03  0.11335800116E+04  0.12699999809E+01 0.  1.
       -4    1    3    3    0  502  0.96915198794E+03  0.53042721421E+03  0.77088428823E+03  0.13471721509E+04  0.12699999809E+01 0. -1.
</event>
<event>
 5   0  0.1846850E-06  0.3204440E+04  0.7818609E-02  0.8187646E-01
       -1   -1    0    0    0  501  0.00000000000E+00  0.00000000000E+00  0.16772000649E+04  0.16772000649E+04  0.50400001928E-02 0. -1.
        1   -1    0    0  501    0  0.00000000000E+00  0.00000000000E+00 -0.15305919567E+04  0.15305919567E+04  0.50400001928E-02 0.  1.
    10030    2    1    2    0    0  0.00000000000E+00  0.00000000000E+00  0.14660810817E+03  0.32077920216E+04  0.32044400004E+04 0.  0.
        5    1    3    3  502    0 -0.13192797229E+04 -0.37257632475E+03 -0.75688531430E+03  0.15659532477E+04  0.46999998093E+01 0.  1.
       -5    1    3    3    0  502  0.13192797229E+04  0.37257632475E+03  0.90349342248E+03  0.16418387739E+04  0.46999998093E+01 0. -1.
</event>
<event>
 5   0  0.5347280E-06  0.3121644E+04  0.7818609E-02  0.8209823E-01
       -2   -1    0    0    0  501  0.00000000000E+00  0.00000000000E+00  0.14789813491E+04  0.14789813491E+04  0.25500000920E-02 0. -1.
        2   -1    0    0  501    0  0.00000000000E+00  0.00000000000E+00 -0.16471913774E+04  0.16471913774E+04  0.25500000920E-02 0.  1.
    10030    2    1    2    0    0  0.00000000000E+00  0.00000000000E+00 -0.16821002821E+03  0.31261727265E+04  0.31216440063E+04 0.  0.
        2    1    3    3  502    0  0.37578800674E+03  0.88610246262E+03 -0.13146150299E+04  0.16292964363E+04  0.25500000920E-02 0. -1.
       -2    1    3    3    0  502 -0.37578800674E+03 -0.88610246262E+03  0.11464050017E+04  0.14968762902E+04  0.25500000920E-02 0.  1.
</event>
<event>
 5   0  0.1886248E-06  0.2341301E+04  0.7818609E-02  0.8461812E-01
       -1   -1    0    0    0  501  0.00000000000E+00  0.00000000000E+00  0.19518113260E+04  0.19518113260E+04  0.50400001928E-02 0.  1.
        1   -1    0    0  501    0  0.00000000000E+00  0.00000000000E+00 -0.70212870620E+03  0.70212870622E+03  0.50400001928E-02 0. -1.
    10030    2    1    2    0    0  0.00000000000E+00  0.00000000000E+00  0.12496826198E+04  0.26539400323E+04  0.23413011435E+04 0.  0.
        4    1    3    3  502    0  0.66528202125E+03  0.82069682163E+03  0.53246901407E+02  0.10578186453E+04  0.12699999809E+01 0. -1.
       -4    1    3    3    0  502 -0.66528202125E+03 -0.82069682163E+03  0.11964357184E+04  0.15961213870E+04  0.12699999809E+01 0.  1.
</event>
<event>
 5   0  0.5373060E-06  0.1998717E+04  0.7818609E-02  0.8607221E-01
       -2   -1    0    0    0  501  0.00000000000E+00  0.00000000000E+00  0.79567989252E+03  0.79567989252E+03  0.25500000920E-02 0. -1.
        2   -1    0    0  501    0  0.00000000000E+00  0.00000000000E+00 -0.12551748915E+04  0.12551748915E+04  0.25500000920E-02 0.  1.
    10030    2    1    2    0    0  0.00000000000E+00  0.00000000000E+00 -0.45949499897E+03  0.20508547840E+04  0.19987170112E+04 0.  0.
        5    1    3    3  502    0 -0.27855045769E+03 -0.71055323690E+03 -0.89172707496E+03  0.11737442337E+04  0.46999998093E+01 0.  1.
       -5    1    3    3    0  502  0.27855045769E+03  0.71055323690E+03  0.43223207599E+03  0.87711055031E+03  0.46999998093E+01 0. -1.
</event>
<event>
 5   0  0.1846850E-06  0.2059432E+04  0.7818609E-02  0.8579328E-01
       -1   -1    0    0    0  501  0.00000000000E+00  0.00000000000E+00  0.88426757338E+03  0.88426757340E+03  0.50400001928E-02 0.  1.
        1   -1    0    0  501    0  0.00000000000E+00  0.00000000000E+00 -0.11990883335E+04  0.11990883335E+04  0.50400001928E-02 0. -1.
    10030    2    1    2    0    0  0.00000000000E+00  0.00000000000E+00 -0.31482076014E+03  0.20833559069E+04  0.20594318935E+04 0.  0.
        5    1    3    3  502    0 -0.30544971523E+03  0.96542946025E+03 -0.34650228888E+03  0.10702520719E+04  0.46999998093E+01 0.  1.
       -5    1    3    3    0  502  0.30544971523E+03 -0.96542946025E+03  0.31681528740E+02  0.10131038350E+04  0.46999998093E+01 0. -1.
</event>
<event>
 5   0  0.1977015E-06  0.3250808E+04  0.7818609E-02  0.8175526E-01
       -1   -1    0    0    0  501  0.00000000000E+00  0.00000000000E+00  0.11741473804E+04  0.11741473804E+04  0.50400001928E-02 0. -1.
        1   -1    0    0  501    0  0.00000000000E+00  0.00000000000E+00 -0.22500908003E+04  0.22500908003E+04  0.50400001928E-02 0.  1.
    10030    2    1    2    0    0  0.00000000000E+00  0.00000000000E+00 -0.10759434199E+04  0.34242381807E+04  0.32508080342E+04 0.  0.
        1    1    3    3  502    0 -0.65525496453E+03 -0.35499076957E+03 -0.20595284529E+04  0.21902134516E+04  0.50400001928E-02 0.  1.
       -1    1    3    3    0  502  0.65525496453E+03  0.35499076957E+03  0.98358503298E+03  0.12340247292E+04  0.50400001928E-02 0. -1.
</event>
<event>
 5   0  0.5347280E-06  0.3321865E+04  0.7818609E-02  0.8157354E-01
        2   -1    0    0  501    0  0.00000000000E+00  0.00000000000E+00  0.14706604103E+04  0.14706604103E+04  0.25500000920E-02 0. -1.
       -2   -1    0    0    0  501  0.00000000000E+00  0.00000000000E+00 -0.18758219567E+04  0.18758219567E+04  0.25500000920E-02 0.  1.
    10030    2    1    2    0    0  0.00000000000E+00  0.00000000000E+00 -0.40516154646E+03  0.33464823670E+04  0.33218651920E+04 0.  0.
        2    1    3    3  502    0 -0.17206635814E+03  0.12630133433E+04 -0.12753135013E+04  0.18031178729E+04  0.25500000920E-02 0.  1.
       -2    1    3    3    0  502  0.17206635814E+03 -0.12630133433E+04  0.87015195486E+03  0.15433644941E+04  0.25500000920E-02 0. -1.
</event>
<event>
 5   0  0.1846850E-06  0.3271693E+04  0.7818609E-02  0.8170136E-01
       -1   -1    0    0    0  501  0.00000000000E+00  0.00000000000E+00  0.12116543869E+04  0.12116543869E+04  0.50400001928E-02 0. -1.
        1   -1    0    0  501    0  0.00000000000E+00  0.00000000000E+00 -0.22085458543E+04  0.22085458543E+04  0.50400001928E-02 0.  1.
    10030    2    1    2    0    0  0.00000000000E+00  0.00000000000E+00 -0.99689146741E+03  0.34202002413E+04  0.32716933066E+04 0.  0.
        5    1    3    3  502    0 -0.22366053758E+03  0.13342208704E+04  0.46297506076E+03  0.14298731985E+04  0.46999998093E+01 0. -1.
       -5    1    3    3    0  502  0.22366053758E+03 -0.13342208704E+04 -0.14598665282E+04  0.19903270427E+04  0.46999998093E+01 0.  1.
</event>
<event>
 5   0  0.5108810E-06  0.2521344E+04  0.7818609E-02  0.8395421E-01
        2   -1    0    0  501    0  0.00000000000E+00  0.00000000000E+00  0.90881761669E+03  0.90881761669E+03  0.25500000920E-02 0.  1.
       -2   -1    0    0    0  501  0.00000000000E+00  0.00000000000E+00 -0.17487489879E+04  0.17487489879E+04  0.25500000920E-02 0. -1.
    10030    2    1    2    0    0  0.00000000000E+00  0.00000000000E+00 -0.83993137122E+03  0.26575666046E+04  0.25213439967E+04 0.  0.
        1    1    3    3  502    0  0.58962554662E+03  0.97720302173E+02 -0.15899300332E+04  0.16985538123E+04  0.50400001928E-02 0. -1.
       -1    1    3    3    0  502 -0.58962554662E+03 -0.97720302173E+02  0.74999866203E+03  0.95901279228E+03  0.50400001928E-02 0.  1.
</event>
<event>
 5   0  0.1977015E-06  0.3066452E+04  0.7818609E-02  0.8225006E-01
        1   -1    0    0  501    0  0.00000000000E+00  0.00000000000E+00  0.13143583608E+04  0.13143583608E+04  0.50400001928E-02 0. -1.
       -1   -1    0    0    0  501  0.00000000000E+00  0.00000000000E+00 -0.17885390199E+04  0.17885390200E+04  0.50400001928E-02 0.  1.
    10030    2    1    2    0    0  0.00000000000E+00  0.00000000000E+00 -0.47418065914E+03  0.31028973808E+04  0.30664515092E+04 0.  0.
        1    1    3    3  502    0  0.12175183602E+04  0.82309599363E+03 -0.67925440834E+03  0.16190196180E+04  0.50400001928E-02 0.  1.
       -1    1    3    3    0  502 -0.12175183602E+04 -0.82309599363E+03  0.20507374920E+03  0.14838777628E+04  0.50400001928E-02 0. -1.
</event>
<event>
 5   0  0.1969465E-06  0.3074039E+04  0.7818609E-02  0.8222899E-01
        1   -1    0    0  501    0  0.00000000000E+00  0.00000000000E+00  0.11375969716E+04  0.11375969716E+04  0.50400001928E-02 0.  1.
       -1   -1    0    0    0  501  0.00000000000E+00  0.00000000000E+00 -0.20766829549E+04  0.20766829549E+04  0.50400001928E-02 0. -1.
    10030    2    1    2    0    0  0.00000000000E+00  0.00000000000E+00 -0.93908598328E+03  0.32142799265E+04  0.30740385427E+04 0.  0.
        2    1    3    3  502    0 -0.73094845397E+03  0.11630984775E+04  0.25136300474E+03  0.13965196278E+04  0.25500000920E-02 0.  1.
       -2    1    3    3    0  502  0.73094845397E+03 -0.11630984775E+04 -0.11904489880E+04  0.18177602987E+04  0.25500000920E-02 0. -1.
</event>
<event>
 5   0  0.5121624E-06  0.3169345E+04  0.7818609E-02  0.8196960E-01
        2   -1    0    0  501    0  0.00000000000E+00  0.00000000000E+00  0.19055532474E+04  0.19055532474E+04  0.25500000920E-02 0. -1.
       -2   -1    0    0    0  501  0.00000000000E+00  0.00000000000E+00 -0.13178257213E+04  0.13178257213E+04  0.25500000920E-02 0.  1.
    10030    2    1    2    0    0  0.00000000000E+00  0.00000000000E+00  0.58772752610E+03  0.32233789688E+04  0.31693450950E+04 0.  0.
        4    1    3    3  502    0  0.12444011362E+04  0.95655335922E+03  0.51589034577E+03  0.16521722000E+04  0.12699999809E+01 0.  1.
       -4    1    3    3    0  502 -0.12444011362E+04 -0.95655335922E+03  0.71837180329E+02  0.15712067687E+04  0.12699999809E+01 0. -1.
</event>
<event>
 5   0  0.5347280E-06  0.2110199E+04  0.7818609E-02  0.8556764E-01
        2   -1    0    0  501    0  0.00000000000E+00  0.00000000000E+00  0.14656700374E+04  0.14656700374E+04  0.25500000920E-02 0. -1.
       -2   -1    0    0    0  501  0.00000000000E+00  0.00000000000E+00 -0.75954016112E+03  0.75954016113E+03  0.25500000920E-02 0.  1.
    10030    2    1    2    0    0  0.00000000000E+00  0.00000000000E+00  0.70612987626E+03  0.22252101985E+04  0.21101992857E+04 0.  0.
        2    1    3    3  502    0  0.10210698727E+02  0.45400777834E+03  0.13573410057E+04  0.14312937947E+04  0.25500000920E-02 0. -1.
       -2    1    3    3    0  502 -0.10210698727E+02 -0.45400777834E+03 -0.65121112940E+03  0.79391640380E+03  0.25500000920E-02 0.  1.
</event>
<event>
 5   0  0.5121624E-06  0.3166870E+04  0.7818609E-02  0.8197622E-01
        2   -1    0    0  501    0  0.00000000000E+00  0.00000000000E+00  0.23470563274E+04  0.23470563274E+04  0.25500000920E-02 0. -1.
       -2   -1    0    0    0  501  0.00000000000E+00  0.00000000000E+00 -0.10682598431E+04  0.10682598431E+04  0.25500000920E-02 0.  1.
    10030    2    1    2    0    0  0.00000000000E+00  0.00000000000E+00  0.12787964843E+04  0.34153161706E+04  0.31668697631E+04 0.  0.
        4    1    3    3  502    0 -0.51871006088E+02 -0.70636137033E+02  0.23444383877E+04  0.23460760925E+04  0.12699999809E+01 0. -1.
       -4    1    3    3    0  502  0.51871006088E+02  0.70636137033E+02 -0.10656419035E+04  0.10692400780E+04  0.12699999809E+01 0.  1.
</event>
<event>
 5   0  0.1969465E-06  0.1956721E+04  0.7818609E-02  0.8627126E-01
       -1   -1    0    0    0  501  0.00000000000E+00  0.00000000000E+00  0.97617762108E+03  0.97617762110E+03  0.50400001928E-02 0. -1.
        1   -1    0    0  501    0  0.00000000000E+00  0.00000000000E+00 -0.98054858815E+03  0.98054858817E+03  0.50400001928E-02 0.  1.
    10030    2    1    2    0    0  0.00000000000E+00  0.00000000000E+00 -0.43709670698E+01  0.19567262093E+04  0.19567213273E+04 0.  0.
        2    1    3    3  502    0  0.63138177023E+03 -0.26012957483E+03  0.69844402066E+03  0.97679802696E+03  0.25500000920E-02 0. -1.
       -2    1    3    3    0  502 -0.63138177023E+03  0.26012957483E+03 -0.70281498773E+03  0.97992818230E+03  0.25500000920E-02 0.  1.
</event>
<event>
 5   0  0.5108810E-06  0.3039866E+04  0.7818609E-02  0.8232438E-01
       -2   -1    0    0    0  501  0.00000000000E+00  0.00000000000E+00  0.30302478101E+04  0.30302478101E+04  0.25500000920E-02 0.  1.
        2   -1    0    0  501    0  0.00000000000E+00  0.00000000000E+00 -0.76237855378E+03  0.76237855379E+03  0.25500000920E-02 0. -1.
    10030    2    1    2    0    0  0.00000000000E+00  0.00000000000E+00  0.22678692563E+04  0.37926263639E+04  0.30398657491E+04 0.  0.
        1    1    3    3  502    0 -0.89981038123E+03  0.68035408659E+03  0.24048372032E+04  0.26562722713E+04  0.50400001928E-02 0.  1.
       -1    1    3    3    0  502  0.89981038123E+03 -0.68035408659E+03 -0.13696794687E+03  0.11363540926E+04  0.50400001928E-02 0. -1.
</event>
<event>
 5   0  0.1886248E-06  0.2924173E+04  0.7818609E-02  0.8265721E-01
        1   -1    0    0  501    0  0.00000000000E+00  0.00000000000E+00  0.13167126464E+04  0.13167126464E+04  0.50400001928E-02 0. -1.
       -1   -1    0    0    0  501  0.00000000000E+00  0.00000000000E+00 -0.16235108235E+04  0.16235108235E+04  0.50400001928E-02 0.  1.
    10030    2    1    2    0    0  0.00000000000E+00  0.00000000000E+00 -0.30679817713E+03  0.29402234699E+04  0.29241732048E+04 0.  0.
        4    1    3    3  502    0 -0.57670520239E+03  0.12105805748E+04 -0.73935101122E+03  0.15312529998E+04  0.12699999809E+01 0.  1.
       -4    1    3    3    0  502  0.57670520239E+03 -0.12105805748E+04  0.43255283408E+03  0.14089704701E+04  0.12699999809E+01 0. -1.
</event>
<event>
 5   0  0.1969465E-06  0.3183669E+04  0.7818609E-02  0.8193144E-01
        1   -1    0    0  501    0  0.00000000000E+00  0.00000000000E+00  0.17614162831E+04  0.17614162831E+04  0.50400001928E-02 0.  1.
       -1   -1    0    0    0  501  0.00000000000E+00  0.00000000000E+00 -0.14385790378E+04  0.14385790378E+04  0.50400001928E-02 0. -1.
    10030    2    1    2    0    0  0.00000000000E+00  0.00000000000E+00  0.32283724536E+03  0.31999953209E+04  0.31836686647E+04 0.  0.
        2    1    3    3  502    0 -0.84535936707E+03  0.69944207083E+03  0.13206260559E+04  0.17169463735E+04  0.25500000920E-02 0.  1.
       -2    1    3    3    0  502  0.84535936707E+03 -0.69944207083E+03 -0.99778881055E+03  0.14830489474E+04  0.25500000920E-02 0. -1.
</event>
<event>
 5   0  0.1977015E-06  0.3219438E+04  0.7818609E-02  0.8183702E-01
        1   -1    0    0  501    0  0.00000000000E+00  0.00000000000E+00  0.17114369146E+04  0.17114369146E+04  0.50400001928E-02 0. -1.
       -1   -1    0    0    0  501  0.00000000000E+00  0.00000000000E+00 -0.15140469911E+04  0.15140469911E+04  0.50400001928E-02 0.  1.
    10030    2    1    2    0    0  0.00000000000E+00  0.00000000000E+00  0.19738992353E+03  0.32254839057E+04  0.32194384051E+04 0.  0.
        1    1    3    3  502    0 -0.46431647992E+03 -0.15394280058E+04  0.22608081169E+02  0.16080856644E+04  0.50400001928E-02 0. -1.
       -1    1    3    3    0  502  0.46431647992E+03  0.15394280058E+04  0.17478184236E+03  0.16173982413E+04  0.50400001928E-02 0.  1.
</event>
<event>
 5   0  0.5108810E-06  0.2949379E+04  0.7818609E-02  0.8258335E-01
       -2   -1    0    0    0  501  0.00000000000E+00  0.00000000000E+00  0.14647579835E+04  0.14647579835E+04  0.25500000920E-02 0.  1.
        2   -1    0    0  501    0  0.00000000000E+00  0.00000000000E+00 -0.14846885433E+04  0.14846885433E+04  0.25500000920E-02 0. -1.
    10030    2    1    2    0    0  0.00000000000E+00  0.00000000000E+00 -0.19930559782E+02  0.29494465268E+04  0.29493791867E+04 0.  0.
        1    1    3    3  502    0 -0.95388201053E+03 -0.11223423702E+04 -0.81842582890E+02  0.14752089663E+04  0.50400001928E-02 0. -1.
       -1    1    3    3    0  502  0.95388201053E+03  0.11223423702E+04  0.61912023107E+02  0.14742375604E+04  0.50400001928E-02 0.  1.
</event>
<event>
 5   0  0.1881144E-06  0.2766621E+04  0.7818609E-02  0.8313707E-01
        1   -1    0    0  501    0  0.00000000000E+00  0.00000000000E+00  0.79227153196E+03  0.79227153197E+03  0.50400001928E-02 0. -1.
       -1   -1    0    0    0  501  0.00000000000E+00  0.00000000000E+00 -0.24152679251E+04  0.24152679251E+04  0.50400001928E-02 0.  1.
    10030    2    1    2    0    0  0.00000000000E+00  0.00000000000E+00 -0.16229963931E+04  0.32075394571E+04  0.27666210576E+04 0.  0.
        3    1    3    3  502    0 -0.17147272949E+03 -0.24424728766E+03  0.75450584848E+03  0.81138074914E+03  0.10100000352E+00 0. -1.
       -3    1    3    3    0  502  0.17147272949E+03  0.24424728766E+03 -0.23775022416E+04  0.23961587079E+04  0.10100000352E+00 0.  1.
</event>
<event>
 5   0  0.1846850E-06  0.3383780E+04  0.7818609E-02  0.8141899E-01
        1   -1    0    0  501    0  0.00000000000E+00  0.00000000000E+00  0.15891593312E+04  0.15891593312E+04  0.50400001928E-02 0.  1.
       -1   -1    0    0    0  501  0.00000000000E+00  0.00000000000E+00 -0.18012612032E+04  0.18012612032E+04  0.50400001928E-02 0. -1.
    10030    2    1    2    0    0  0.00000000000E+00  0.00000000000E+00 -0.21210187204E+03  0.33904205344E+04  0.33837795726E+04 0.  0.
        5    1    3    3  502    0  0.95350104224E+03  0.35283818744E+03  0.12489381327E+04  0.16104432847E+04  0.46999998093E+01 0.  1.
       -5    1    3    3    0  502 -0.95350104224E+03 -0.35283818744E+03 -0.14610400047E+04  0.17799772497E+04  0.46999998093E+01 0. -1.
</event>
<event>
 5   0  0.1881144E-06  0.3238654E+04  0.7818609E-02  0.8178683E-01
        1   -1    0    0  501    0  0.00000000000E+00  0.00000000000E+00  0.22788530521E+04  0.22788530521E+04  0.50400001928E-02 0. -1.
       -1   -1    0    0    0  501  0.00000000000E+00  0.00000000000E+00 -0.11506755705E+04  0.11506755705E+04  0.50400001928E-02 0.  1.
    10030    2    1    2    0    0  0.00000000000E+00  0.00000000000E+00  0.11281774816E+04  0.34295286227E+04  0.32386543724E+04 0.  0.
        3    1    3    3  502    0 -0.91627207847E+03  0.99712753505E+03  0.15043398962E+04  0.20240692617E+04  0.10100000352E+00 0. -1.
       -3    1    3    3    0  502  0.91627207847E+03 -0.99712753505E+03 -0.37616241454E+03  0.14054593609E+04  0.10100000352E+00 0.  1.
</event>
<event>
 5   0  0.5347280E-06  0.3249959E+04  0.7818609E-02  0.8175746E-01
        2   -1    0    0  501    0  0.00000000000E+00  0.00000000000E+00  0.35268158924E+04  0.35268158924E+04  0.25500000920E-02 0.  1.
       -2   -1    0    0    0  501  0.00000000000E+00  0.00000000000E+00 -0.74870871773E+03  0.74870871773E+03  0.25500000920E-02 0. -1.
    10030    2    1    2    0    0  0.00000000000E+00  0.00000000000E+00  0.27781071747E+04  0.42755246101E+04  0.32499586486E+04 0.  0.
        2    1    3    3  502    0  0.93051442398E+03  0.52325794112E+03 -0.22265945435E+03  0.10905196921E+04  0.25500000920E-02 0. -1.
       -2    1    3    3    0  502 -0.93051442398E+03 -0.52325794112E+03  0.30007666290E+04  0.31850049180E+04  0.25500000920E-02 0.  1.
</event>
<event>
 5   0  0.5347280E-06  0.2935176E+04  0.7818609E-02  0.8262488E-01
       -2   -1    0    0    0  501  0.00000000000E+00  0.00000000000E+00  0.16161814550E+04  0.16161814550E+04  0.25500000920E-02 0.  1.
        2   -1    0    0  501    0  0.00000000000E+00  0.00000000000E+00 -0.13326559799E+04  0.13326559799E+04  0.25500000920E-02 0. -1.
    10030    2    1    2    0    0  0.00000000000E+00  0.00000000000E+00  0.28352547513E+03  0.29488374349E+04  0.29351755523E+04 0.  0.
        2    1    3    3  502    0 -0.42925261664E+03 -0.62897225840E+03 -0.11186483403E+04  0.13532324339E+04  0.25500000920E-02 0. -1.
       -2    1    3    3    0  502  0.42925261664E+03  0.62897225840E+03  0.14021738155E+04  0.15956050011E+04  0.25500000920E-02 0.  1.
</event>
<event>
 5   0  0.5121624E-06  0.3245214E+04  0.7818609E-02  0.8176977E-01
       -2   -1    0    0    0  501  0.00000000000E+00  0.00000000000E+00  0.11947303958E+04  0.11947303958E+04  0.25500000920E-02 0.  1.
        2   -1    0    0  501    0  0.00000000000E+00  0.00000000000E+00 -0.22037216992E+04  0.22037216992E+04  0.25500000920E-02 0. -1.
    10030    2    1    2    0    0  0.00000000000E+00  0.00000000000E+00 -0.10089913034E+04  0.33984520951E+04  0.32452138900E+04 0.  0.
        4    1    3    3  502    0  0.75608400968E+03 -0.47945499184E+03 -0.19216558468E+04  0.21199771049E+04  0.12699999809E+01 0. -1.
       -4    1    3    3    0  502 -0.75608400968E+03  0.47945499184E+03  0.91266454337E+03  0.12784749902E+04  0.12699999809E+01 0.  1.
</event>
<event>
 5   0  0.1729500E-06  0.3223007E+04  0.7818609E-02  0.8182767E-01
       -3   -1    0    0    0  501  0.00000000000E+00  0.00000000000E+00  0.13106627004E+04  0.13106627043E+04  0.10100000352E+00 0.  1.
        3   -1    0    0  501    0  0.00000000000E+00  0.00000000000E+00 -0.19813974889E+04  0.19813974914E+04  0.10100000352E+00 0. -1.
    10030    2    1    2    0    0  0.00000000000E+00  0.00000000000E+00 -0.67073478848E+03  0.32920601957E+04  0.32230071635E+04 0.  0.
        3    1    3    3  502    0 -0.46470095325E+03  0.10092634850E+04  0.85685223601E+03  0.14031234880E+04  0.10100000352E+00 0.  1.
       -3    1    3    3    0  502  0.46470095325E+03 -0.10092634850E+04 -0.15275870245E+04  0.18889367077E+04  0.10100000352E+00 0. -1.
</event>
<event>
 5   0  0.1881144E-06  0.3009941E+04  0.7818609E-02  0.8240898E-01
       -1   -1    0    0    0  501  0.00000000000E+00  0.00000000000E+00  0.26015939848E+04  0.26015939848E+04  0.50400001928E-02 0. -1.
        1   -1    0    0  501    0  0.00000000000E+00  0.00000000000E+00 -0.87059532100E+03  0.87059532101E+03  0.50400001928E-02 0.  1.
    10030    2    1    2    0    0  0.00000000000E+00  0.00000000000E+00  0.17309986638E+04  0.34721893058E+04  0.30099405644E+04 0.  0.
        3    1    3    3  502    0 -0.22564508981E+03 -0.92516358010E+03 -0.47884369881E+03  0.10658961744E+04  0.10100000352E+00 0.  1.
       -3    1    3    3    0  502  0.22564508981E+03  0.92516358010E+03  0.22098423626E+04  0.24062931314E+04  0.10100000352E+00 0. -1.
</event>
<event>
 5   0  0.1886248E-06  0.2177971E+04  0.7818609E-02  0.8527653E-01
       -1   -1    0    0    0  501  0.00000000000E+00  0.00000000000E+00  0.10934115314E+04  0.10934115314E+04  0.50400001928E-02 0. -1.
        1   -1    0    0  501    0  0.00000000000E+00  0.00000000000E+00 -0.10845773821E+04  0.10845773822E+04  0.50400001928E-02 0.  1.
    10030    2    1    2    0    0  0.00000000000E+00  0.00000000000E+00  0.88341492457E+01  0.21779889135E+04  0.21779709974E+04 0.  0.
        4    1    3    3  502    0  0.65327941981E+03 -0.77922829807E+03  0.39418567514E+03  0.10905753987E+04  0.12699999809E+01 0. -1.
       -4    1    3    3    0  502 -0.65327941981E+03  0.77922829807E+03 -0.38535152589E+03  0.10874135148E+04  0.12699999809E+01 0.  1.
</event>
<event>
 5   0  0.5373060E-06  0.2997788E+04  0.7818609E-02  0.8244363E-01
        2   -1    0    0  501    0  0.00000000000E+00  0.00000000000E+00  0.13498435474E+04  0.13498435474E+04  0.25500000920E-02 0. -1.
       -2   -1    0    0    0  501  0.00000000000E+00  0.00000000000E+00 -0.16644031555E+04  0.16644031555E+04  0.25500000920E-02 0.  1.
    10030    2    1    2    0    0  0.00000000000E+00  0.00000000000E+00 -0.31455960810E+03  0.30142467030E+04  0.29977884247E+04 0.  0.
        5    1    3    3  502    0 -0.13338743357E+04 -0.29467109623E+03 -0.77760282284E+03  0.15718587845E+04  0.46999998093E+01 0.  1.
       -5    1    3    3    0  502  0.13338743357E+04  0.29467109623E+03  0.46304321474E+03  0.14423879184E+04  0.46999998093E+01 0. -1.
</event>
<event>
 5   0  0.1846850E-06  0.3115418E+04  0.7818609E-02  0.8211519E-01
        1   -1    0    0  501    0  0.00000000000E+00  0.00000000000E+00  0.16580000148E+04  0.16580000148E+04  0.50400001928E-02 0. -1.
       -1   -1    0    0    0  501  0.00000000000E+00  0.00000000000E+00 -0.14634845398E+04  0.14634845398E+04  0.50400001928E-02 0.  1.
    10030    2    1    2    0    0  0.00000000000E+00  0.00000000000E+00  0.19451547501E+03  0.31214845546E+04  0.31154180385E+04 0.  0.
        5    1    3    3  502    0  0.41568856458E+03  0.10185842332E+04 -0.10076699968E+04  0.14918886471E+04  0.46999998093E+01 0.  1.
       -5    1    3    3    0  502 -0.41568856458E+03 -0.10185842332E+04  0.12021854719E+04  0.16295959075E+04  0.46999998093E+01 0. -1.
</event>
<event>
 5   0  0.1969465E-06  0.2675249E+04  0.7818609E-02  0.8343081E-01
       -1   -1    0    0    0  501  0.00000000000E+00  0.00000000000E+00  0.76003484474E+03  0.76003484475E+03  0.50400001928E-02 0.  1.
        1   -1    0    0  501    0  0.00000000000E+00  0.00000000000E+00 -0.23541549829E+04  0.23541549829E+04  0.50400001928E-02 0. -1.
    10030    2    1    2    0    0  0.00000000000E+00  0.00000000000E+00 -0.15941201382E+04  0.31141898277E+04  0.26752493842E+04 0.  0.
        2    1    3    3  502    0  0.48209419126E+03 -0.23451902850E+02  0.65513173628E+03  0.81373361297E+03  0.25500000920E-02 0.  1.
       -2    1    3    3    0  502 -0.48209419126E+03  0.23451902850E+02 -0.22492518745E+04  0.23004562147E+04  0.25500000920E-02 0. -1.
</event>
<event>
 5   0  0.5131083E-06  0.2343722E+04  0.7818609E-02  0.8460879E-01
       -2   -1    0    0    0  501  0.00000000000E+00  0.00000000000E+00  0.82253957610E+03  0.82253957610E+03  0.25500000920E-02 0.  1.
        2   -1    0    0  501    0  0.00000000000E+00  0.00000000000E+00 -0.16695347507E+04  0.16695347507E+04  0.25500000920E-02 0. -1.
    10030    2    1    2    0    0  0.00000000000E+00  0.00000000000E+00 -0.84699517459E+03  0.24920743268E+04  0.23437221730E+04 0.  0.
        3    1    3    3  502    0 -0.68665010573E+03 -0.81309127568E+03 -0.94511267701E+03  0.14233213877E+04  0.10100000352E+00 0. -1.
       -3    1    3    3    0  502  0.68665010573E+03  0.81309127568E+03  0.98117502421E+02  0.10687529391E+04  0.10100000352E+00 0.  1.
</event>
<event>
 5   0  0.1881144E-06  0.3203564E+04  0.7818609E-02  0.8187877E-01
        1   -1    0    0  501    0  0.00000000000E+00  0.00000000000E+00  0.95663287476E+03  0.95663287478E+03  0.50400001928E-02 0. -1.
       -1   -1    0    0    0  501  0.00000000000E+00  0.00000000000E+00 -0.26820167140E+04  0.26820167140E+04  0.50400001928E-02 0.  1.
    10030    2    1    2    0    0  0.00000000000E+00  0.00000000000E+00 -0.17253838392E+04  0.36386495888E+04  0.32035638650E+04 0.  0.
        3    1    3    3  502    0 -0.12505811599E+04  0.72502641624E+03 -0.16463936998E+04  0.21909424381E+04  0.10100000352E+00 0.  1.
       -3    1    3    3    0  502  0.12505811599E+04 -0.72502641624E+03 -0.78990139395E+02  0.14477071507E+04  0.10100000352E+00 0. -1.
</event>
<event>
 5   0  0.1881144E-06  0.3191605E+04  0.7818609E-02  0.8191038E-01
        1   -1    0    0  501    0  0.00000000000E+00  0.00000000000E+00  0.23851392503E+04  0.23851392503E+04  0.50400001928E-02 0. -1.
       -1   -1    0    0    0  501  0.00000000000E+00  0.00000000000E+00 -0.10676882589E+04  0.10676882590E+04  0.50400001928E-02 0.  1.
    10030    2    1    2    0    0  0.00000000000E+00  0.00000000000E+00  0.13174509914E+04  0.34528275093E+04  0.31916047208E+04 0.  0.
        3    1    3    3  502    0 -0.75687708530E+03 -0.15450052181E+03  0.21693850074E+04  0.23028166783E+04  0.10100000352E+00 0. -1.
       -3    1    3    3    0  502  0.75687708530E+03  0.15450052181E+03 -0.85193401600E+03  0.11500108310E+04  0.10100000352E+00 0.  1.
</event>
<event>
 5   0  0.1881144E-06  0.3241386E+04  0.7818609E-02  0.8177972E-01
       -1   -1    0    0    0  501  0.00000000000E+00  0.00000000000E+00  0.18360679978E+04  0.18360679978E+04  0.50400001928E-02 0.  1.
        1   -1    0    0  501    0  0.00000000000E+00  0.00000000000E+00 -0.14305822363E+04  0.14305822363E+04  0.50400001928E-02 0. -1.
    10030    2    1    2    0    0  0.00000000000E+00  0.00000000000E+00  0.40548576156E+03  0.32666502341E+04  0.32413862851E+04 0.  0.
        3    1    3    3  502    0  0.19363137526E+03 -0.13804223265E+04  0.10359804678E+04  0.17367539978E+04  0.10100000352E+00 0.  1.
       -3    1    3    3    0  502 -0.19363137526E+03  0.13804223265E+04 -0.63049470624E+03  0.15298962363E+04  0.10100000352E+00 0. -1.
</event>
<event>
 5   0  0.5373060E-06  0.2433156E+04  0.7818609E-02  0.8427194E-01
       -2   -1    0    0    0  501  0.00000000000E+00  0.00000000000E+00  0.62803009066E+03  0.62803009067E+03  0.25500000920E-02 0.  1.
        2   -1    0    0  501    0  0.00000000000E+00  0.00000000000E+00 -0.23566738314E+04  0.23566738314E+04  0.25500000920E-02 0. -1.
    10030    2    1    2    0    0  0.00000000000E+00  0.00000000000E+00 -0.17286437408E+04  0.29847039221E+04  0.24331560410E+04 0.  0.
        5    1    3    3  502    0  0.16999287810E+03 -0.74107013775E+03 -0.20293175712E+04  0.21670796991E+04  0.46999998093E+01 0. -1.
       -5    1    3    3    0  502 -0.16999287810E+03  0.74107013775E+03  0.30067383043E+03  0.81762422296E+03  0.46999998093E+01 0.  1.
</event>
<event>
 5   0  0.1886248E-06  0.2456389E+04  0.7818609E-02  0.8418689E-01
        1   -1    0    0  501    0  0.00000000000E+00  0.00000000000E+00  0.89672110482E+03  0.89672110484E+03  0.50400001928E-02 0.  1.
       -1   -1    0    0    0  501  0.00000000000E+00  0.00000000000E+00 -0.16821976005E+04  0.16821976005E+04  0.50400001928E-02 0. -1.
    10030    2    1    2    0    0  0.00000000000E+00  0.00000000000E+00 -0.78547649566E+03  0.25789187053E+04  0.24563892940E+04 0.  0.
        4    1    3    3  502    0  0.63838812198E+03 -0.94291872660E+03 -0.87594103603E+03  0.14366312786E+04  0.12699999809E+01 0. -1.
       -4    1    3    3    0  502 -0.63838812198E+03  0.94291872660E+03  0.90464540361E+02  0.11422874267E+04  0.12699999809E+01 0.  1.
</event>
<event>
 5   0  0.1886248E-06  0.3176573E+04  0.7818609E-02  0.8195032E-01
        1   -1    0    0  501    0  0.00000000000E+00  0.00000000000E+00  0.80098968304E+03  0.80098968306E+03  0.50400001928E-02 0.  1.
       -1   -1    0    0    0  501  0.00000000000E+00  0.00000000000E+00 -0.31494215417E+04  0.31494215417E+04  0.50400001928E-02 0. -1.
    10030    2    1    2    0    0  0.00000000000E+00  0.00000000000E+00 -0.23484318586E+04  0.39504112248E+04  0.31765730985E+04 0.  0.
        4    1    3    3  502    0 -0.55026253268E+03  0.11673475124E+04 -0.22844939586E+02  0.12907410947E+04  0.12699999809E+01 0.  1.
       -4    1    3    3    0  502  0.55026253268E+03 -0.11673475124E+04 -0.23255869191E+04  0.26596701300E+04  0.12699999809E+01 0. -1.
</event>
<event>
 5   0  0.5131083E-06  0.3210051E+04  0.7818609E-02  0.8186168E-01
        2   -1    0    0  501    0  0.00000000000E+00  0.00000000000E+00  0.17272227326E+04  0.17272227326E+04  0.25500000920E-02 0.  1.
       -2   -1    0    0    0  501  0.00000000000E+00  0.00000000000E+00 -0.14914739086E+04  0.14914739086E+04  0.25500000920E-02 0. -1.
    10030    2    1    2    0    0  0.00000000000E+00  0.00000000000E+00  0.23574882402E+03  0.32186966411E+04  0.32100514886E+04 0.  0.
        3    1    3    3  502    0 -0.73068065669E+03  0.63915728755E+02  0.15493495053E+04  0.17141946629E+04  0.10100000352E+00 0.  1.
       -3    1    3    3    0  502  0.73068065669E+03 -0.63915728755E+02 -0.13136006813E+04  0.15045019782E+04  0.10100000352E+00 0. -1.
</event>
<event>
 5   0  0.5121624E-06  0.2533201E+04  0.7818609E-02  0.8391252E-01
       -2   -1    0    0    0  501  0.00000000000E+00  0.00000000000E+00  0.11945924685E+04  0.11945924685E+04  0.25500000920E-02 0. -1.
        2   -1    0    0  501    0  0.00000000000E+00  0.00000000000E+00 -0.13429488180E+04  0.13429488180E+04  0.25500000920E-02 0.  1.
    10030    2    1    2    0    0  0.00000000000E+00  0.00000000000E+00 -0.14835634950E+03  0.25375412866E+04  0.25332007766E+04 0.  0.
        4    1    3    3  502    0  0.51253046463E+03  0.40028456727E+03  0.10145879094E+04  0.12051163640E+04  0.12699999809E+01 0. -1.
       -4    1    3    3    0  502 -0.51253046463E+03 -0.40028456727E+03 -0.11629442589E+04  0.13324249226E+04  0.12699999809E+01 0.  1.
</event>
<event>
 5   0  0.5121624E-06  0.3257516E+04  0.7818609E-02  0.8173790E-01
       -2   -1    0    0    0  501  0.00000000000E+00  0.00000000000E+00  0.22465714658E+04  0.22465714658E+04  0.25500000920E-02 0. -1.
        2   -1    0    0  501    0  0.00000000000E+00  0.00000000000E+00 -0.11808452111E+04  0.11808452111E+04  0.25500000920E-02 0.  1.
    10030    2    1    2    0    0  0.00000000000E+00  0.00000000000E+00  0.10657262547E+04  0.34274166769E+04  0.32575163280E+04 0.  0.
        4    1    3    3  502    0  0.28319656433E+03 -0.41114780830E+03  0.21640818242E+04  0.22209220088E+04  0.12699999809E+01 0. -1.
       -4    1    3    3    0  502 -0.28319656433E+03  0.41114780830E+03 -0.10983555695E+04  0.12064946681E+04  0.12699999809E+01 0.  1.
</event>
<event>
 5   0  0.1846850E-06  0.3476513E+04  0.7818609E-02  0.8119379E-01
        1   -1    0    0  501    0  0.00000000000E+00  0.00000000000E+00  0.20560150005E+04  0.20560150005E+04  0.50400001928E-02 0.  1.
       -1   -1    0    0    0  501  0.00000000000E+00  0.00000000000E+00 -0.14696078144E+04  0.14696078144E+04  0.50400001928E-02 0. -1.
    10030    2    1    2    0    0  0.00000000000E+00  0.00000000000E+00  0.58640718606E+03  0.35256228149E+04  0.34765130296E+04 0.  0.
        5    1    3    3  502    0 -0.40326070086E+03  0.28036983650E+03 -0.13977699603E+04  0.14815564079E+04  0.46999998093E+01 0. -1.
       -5    1    3    3    0  502  0.40326070086E+03 -0.28036983650E+03  0.19841771463E+04  0.20440664070E+04  0.46999998093E+01 0.  1.
</event>
<event>
 5   0  0.1881144E-06  0.2186421E+04  0.7818609E-02  0.8524101E-01
        1   -1    0    0  501    0  0.00000000000E+00  0.00000000000E+00  0.13016105338E+04  0.13016105338E+04  0.50400001928E-02 0. -1.
       -1   -1    0    0    0  501  0.00000000000E+00  0.00000000000E+00 -0.91817729323E+03  0.91817729325E+03  0.50400001928E-02 0.  1.
    10030    2    1    2    0    0  0.00000000000E+00  0.00000000000E+00  0.38343324057E+03  0.22197878271E+04  0.21864210361E+04 0.  0.
        3    1    3    3  502    0 -0.81286810512E+03 -0.27085267979E+03 -0.49761002715E+03  0.99082363707E+03  0.10100000352E+00 0.  1.
       -3    1    3    3    0  502  0.81286810512E+03  0.27085267979E+03  0.88104326772E+03  0.12289641900E+04  0.10100000352E+00 0. -1.
</event>
<event>
 5   0  0.5121624E-06  0.3214194E+04  0.7818609E-02  0.8185079E-01
       -2   -1    0    0    0  501  0.00000000000E+00  0.00000000000E+00  0.19891538958E+04  0.19891538958E+04  0.25500000920E-02 0. -1.
        2   -1    0    0  501    0  0.00000000000E+00  0.00000000000E+00 -0.12984217964E+04  0.12984217964E+04  0.25500000920E-02 0.  1.
    10030    2    1    2    0    0  0.00000000000E+00  0.00000000000E+00  0.69073209937E+03  0.32875756923E+04  0.32141940046E+04 0.  0.
        4    1    3    3  502    0  0.38249763992E+02  0.34978273525E+03 -0.12585379120E+04  0.13068015516E+04  0.12699999809E+01 0.  1.
       -4    1    3    3    0  502 -0.38249763992E+02 -0.34978273525E+03  0.19492700114E+04  0.19807741407E+04  0.12699999809E+01 0. -1.
</event>
<event>
 5   0  0.5373060E-06  0.3094964E+04  0.7818609E-02  0.8217121E-01
        2   -1    0    0  501    0  0.00000000000E+00  0.00000000000E+00  0.19945006459E+04  0.19945006459E+04  0.25500000920E-02 0. -1.
       -2   -1    0    0    0  501  0.00000000000E+00  0.00000000000E+00 -0.12006513598E+04  0.12006513598E+04  0.25500000920E-02 0.  1.
    10030    2    1    2    0    0  0.00000000000E+00  0.00000000000E+00  0.79384928614E+03  0.31951520057E+04  0.30949635944E+04 0.  0.
        5    1    3    3  502    0  0.17094536329E+03 -0.84085127968E+02  0.19823410538E+04  0.19914795429E+04  0.46999998093E+01 0. -1.
       -5    1    3    3    0  502 -0.17094536329E+03  0.84085127968E+02 -0.11884917677E+04  0.12036724629E+04  0.46999998093E+01 0.  1.
</event>
<event>
 5   0  0.1846850E-06  0.2870637E+04  0.7818609E-02  0.8281668E-01
        1   -1    0    0  501    0  0.00000000000E+00  0.00000000000E+00  0.20245625385E+04  0.20245625385E+04  0.50400001928E-02 0.  1.
       -1   -1    0    0    0  501  0.00000000000E+00  0.00000000000E+00 -0.10175726653E+04  0.10175726653E+04  0.50400001928E-02 0. -1.
    10030    2    1    2    0    0  0.00000000000E+00  0.00000000000E+00  0.10069898732E+04  0.30421352039E+04  0.28706372104E+04 0.  0.
        5    1    3    3  502    0 -0.55600123307E+03 -0.11674349026E+04  0.11636690248E+04  0.17395945828E+04  0.46999998093E+01 0.  1.
       -5    1    3    3    0  502  0.55600123307E+03  0.11674349026E+04 -0.15667915162E+03  0.13025406211E+04  0.46999998093E+01 0. -1.
</event>
<event>
 5   0  0.1881144E-06  0.2795592E+04  0.7818609E-02  0.8304638E-01
       -1   -1    0    0    0  501  0.00000000000E+00  0.00000000000E+00  0.85147702237E+03  0.85147702239E+03  0.50400001928E-02 0. -1.
        1   -1    0    0  501    0  0.00000000000E+00  0.00000000000E+00 -0.22946411494E+04  0.22946411494E+04  0.50400001928E-02 0.  1.
    10030    2    1    2    0    0  0.00000000000E+00  0.00000000000E+00 -0.14431641270E+04  0.31461181718E+04  0.27955923976E+04 0.  0.
        3    1    3    3  502    0  0.11392544567E+04  0.35172820236E+03  0.99425361606E+02  0.11964526143E+04  0.10100000352E+00 0. -1.
       -3    1    3    3    0  502 -0.11392544567E+04 -0.35172820236E+03 -0.15425894886E+04  0.19496655575E+04  0.10100000352E+00 0.  1.
</event>
<event>
 5   0  0.5347280E-06  0.3170458E+04  0.7818609E-02  0.8196663E-01
       -2   -1    0    0    0  501  0.00000000000E+00  0.00000000000E+00  0.11680437359E+04  0.11680437359E+04  0.25500000920E-02 0.  1.
        2   -1    0    0  501    0  0.00000000000E+00  0.00000000000E+00 -0.21514184517E+04  0.21514184517E+04  0.25500000920E-02 0. -1.
    10030    2    1    2    0    0  0.00000000000E+00  0.00000000000E+00 -0.98337471584E+03  0.33194621877E+04  0.31704579139E+04 0.  0.
        2    1    3    3  502    0  0.68124114791E+03  0.32691221865E+03  0.96735936522E+03  0.12274955160E+04  0.25500000920E-02 0.  1.
       -2    1    3    3    0  502 -0.68124114791E+03 -0.32691221865E+03 -0.19507340811E+04  0.20919666717E+04  0.25500000920E-02 0. -1.
</event>
<event>
 5   0  0.5373060E-06  0.3134094E+04  0.7818609E-02  0.8206443E-01
        2   -1    0    0  501    0  0.00000000000E+00  0.00000000000E+00  0.97285535996E+03  0.97285535997E+03  0.25500000920E-02 0.  1.
       -2   -1    0    0    0  501  0.00000000000E+00  0.00000000000E+00 -0.25241540804E+04  0.25241540804E+04  0.25500000920E-02 0. -1.
    10030    2    1    2    0    0  0.00000000000E+00  0.00000000000E+00 -0.15512987204E+04  0.34970094403E+04  0.31340943358E+04 0.  0.
        5    1    3    3  502    0  0.65967585386E+02 -0.12162835552E+04  0.32436765424E+03  0.12605292039E+04  0.46999998093E+01 0.  1.
       -5    1    3    3    0  502 -0.65967585386E+02  0.12162835552E+04 -0.18756663746E+04  0.22364802364E+04  0.46999998093E+01 0. -1.
</event>
<event>
 5   0  0.5108810E-06  0.3818301E+04  0.7818609E-02  0.8042239E-01
       -2   -1    0    0    0  501  0.00000000000E+00  0.00000000000E+00  0.17158937817E+04  0.17158937817E+04  0.25500000920E-02 0.  1.
        2   -1    0    0  501    0  0.00000000000E+00  0.00000000000E+00 -0.21241734176E+04  0.21241734176E+04  0.25500000920E-02 0. -1.
    10030    2    1    2    0    0  0.00000000000E+00  0.00000000000E+00 -0.40827963590E+03  0.38400671993E+04  0.38183011712E+04 0.  0.
        1    1    3    3  502    0  0.33101530974E+03  0.11273623941E+04  0.13092100849E+04  0.17591327833E+04  0.50400001928E-02 0.  1.
       -1    1    3    3    0  502 -0.33101530974E+03 -0.11273623941E+04 -0.17174897208E+04  0.20809344160E+04  0.50400001928E-02 0. -1.
</event>
<event>
 5   0  0.5121624E-06  0.3182126E+04  0.7818609E-02  0.8193554E-01
        2   -1    0    0  501    0  0.00000000000E+00  0.00000000000E+00  0.14890947776E+04  0.14890947776E+04  0.25500000920E-02 0. -1.
       -2   -1    0    0    0  501  0.00000000000E+00  0.00000000000E+00 -0.17000141780E+04  0.17000141780E+04  0.25500000920E-02 0.  1.
    10030    2    1    2    0    0  0.00000000000E+00  0.00000000000E+00 -0.21091940040E+03  0.31891089556E+04  0.31821264804E+04 0.  0.
        4    1    3    3  502    0 -0.58354410129E+03  0.40017114280E+03  0.13227357036E+04  0.15000973355E+04  0.12699999809E+01 0. -1.
       -4    1    3    3    0  502  0.58354410129E+03 -0.40017114280E+03 -0.15336551040E+04  0.16890116200E+04  0.12699999809E+01 0.  1.
</event>
<event>
 5   0  0.5373060E-06  0.3149860E+04  0.7818609E-02  0.8202186E-01
       -2   -1    0    0    0  501  0.00000000000E+00  0.00000000000E+00  0.13763727420E+04  0.13763727420E+04  0.25500000920E-02 0.  1.
        2   -1    0    0  501    0  0.00000000000E+00  0.00000000000E+00 -0.18021311744E+04  0.18021311744E+04  0.25500000920E-02 0. -1.
    10030    2    1    2    0    0  0.00000000000E+00  0.00000000000E+00 -0.42575843241E+03  0.31785039165E+04  0.31498598230E+04 0.  0.
        5    1    3    3  502    0  0.55242962934E+03  0.14433440376E+04  0.93130244780E+02  0.15482621996E+04  0.46999998093E+01 0. -1.
       -5    1    3    3    0  502 -0.55242962934E+03 -0.14433440376E+04 -0.51888867719E+03  0.16302417169E+04  0.46999998093E+01 0.  1.
</event>
<event>
 5   0  0.5131083E-06  0.3192286E+04  0.7818609E-02  0.8190857E-01
       -2   -1    0    0    0  501  0.00000000000E+00  0.00000000000E+00  0.17692841469E+04  0.17692841469E+04  0.25500000920E-02 0. -1.
        2   -1    0    0  501    0  0.00000000000E+00  0.00000000000E+00 -0.14399457343E+04  0.14399457343E+04  0.25500000920E-02 0.  1.
    10030    2    1    2    0    0  0.00000000000E+00  0.00000000000E+00  0.32933841258E+03  0.32092298811E+04  0.31922864283E+04 0.  0.
        3    1    3    3  502    0  0.12703616736E+04 -0.30573606048E+03  0.10862571523E+04  0.16991903753E+04  0.10100000352E+00 0.  1.
       -3    1    3    3    0  502 -0.12703616736E+04  0.30573606048E+03 -0.75691873974E+03  0.15100395058E+04  0.10100000352E+00 0. -1.
</event>
<event>
 5   0  0.1886248E-06  0.3154032E+04  0.7818609E-02  0.8201064E-01
        1   -1    0    0  501    0  0.00000000000E+00  0.00000000000E+00  0.19369400784E+04  0.19369400784E+04  0.50400001928E-02 0.  1.
       -1   -1    0    0    0  501  0.00000000000E+00  0.00000000000E+00 -0.12839730953E+04  0.12839730953E+04  0.50400001928E-02 0. -1.
    10030    2    1    2    0    0  0.00000000000E+00  0.00000000000E+00  0.65296698317E+03  0.32209131737E+04  0.31540316725E+04 0.  0.
        4    1    3    3  502    0  0.22033314376E+03 -0.11766049264E+04 -0.72194728244E+03  0.13979110624E+04  0.12699999809E+01 0. -1.
       -4    1    3    3    0  502 -0.22033314376E+03  0.11766049264E+04  0.13749142656E+04  0.18230021113E+04  0.12699999809E+01 0.  1.
</event>
<event>
 5   0  0.5373060E-06  0.3084383E+04  0.7818609E-02  0.8220037E-01
        2   -1    0    0  501    0  0.00000000000E+00  0.00000000000E+00  0.65653156280E+03  0.65653156280E+03  0.25500000920E-02 0. -1.
       -2   -1    0    0    0  501  0.00000000000E+00  0.00000000000E+00 -0.36226040041E+04  0.36226040041E+04  0.25500000920E-02 0.  1.
    10030    2    1    2    0    0  0.00000000000E+00  0.00000000000E+00 -0.29660724413E+04  0.42791355669E+04  0.30843825108E+04 0.  0.
        5    1    3    3  502    0  0.85906367524E+03  0.45275780058E+03 -0.31451738660E+04  0.32916744616E+04  0.46999998093E+01 0.  1.
       -5    1    3    3    0  502 -0.85906367524E+03 -0.45275780058E+03  0.17910142468E+03  0.98746110527E+03  0.46999998093E+01 0. -1.
</event>
<event>
 5   0  0.1846850E-06  0.2963760E+04  0.7818609E-02  0.8254156E-01
        1   -1    0    0  501    0  0.00000000000E+00  0.00000000000E+00  0.10616366447E+04  0.10616366447E+04  0.50400001928E-02 0.  1.
       -1   -1    0    0    0  501  0.00000000000E+00  0.00000000000E+00 -0.20684740203E+04  0.20684740203E+04  0.50400001928E-02 0. -1.
    10030    2    1    2    0    0  0.00000000000E+00  0.00000000000E+00 -0.10068373756E+04  0.31301106650E+04  0.29637596519E+04 0.  0.
        5    1    3    3  502    0 -0.47527163823E+03 -0.46941940337E+03  0.89359127232E+03  0.11156904402E+04  0.46999998093E+01 0.  1.
       -5    1    3    3    0  502  0.47527163823E+03  0.46941940337E+03 -0.19004286479E+04  0.20144202249E+04  0.46999998093E+01 0. -1.
</event>
<event>
 5   0  0.1846850E-06  0.2608216E+04  0.7818609E-02  0.8365416E-01
        1   -1    0    0  501    0  0.00000000000E+00  0.00000000000E+00  0.13634710364E+04  0.13634710364E+04  0.50400001928E-02 0.  1.
       -1   -1    0    0    0  501  0.00000000000E+00  0.00000000000E+00 -0.12473292685E+04  0.12473292685E+04  0.50400001928E-02 0. -1.
    10030    2    1    2    0    0  0.00000000000E+00  0.00000000000E+00  0.11614176786E+03  0.26108003049E+04  0.26082157353E+04 0.  0.
        5    1    3    3  502    0 -0.63952392325E+03 -0.12959858046E+03 -0.10721576384E+04  0.12551217997E+04  0.46999998093E+01 0. -1.
       -5    1    3    3    0  502  0.63952392325E+03  0.12959858046E+03  0.11882994063E+04  0.13556785052E+04  0.46999998093E+01 0.  1.
</event>
<event>
 5   0  0.1846850E-06  0.2646669E+04  0.7818609E-02  0.8352519E-01
       -1   -1    0    0    0  501  0.00000000000E+00  0.00000000000E+00  0.11115721398E+04  0.11115721398E+04  0.50400001928E-02 0.  1.
        1   -1    0    0  501    0  0.00000000000E+00  0.00000000000E+00 -0.15754396152E+04  0.15754396152E+04  0.50400001928E-02 0. -1.
    10030    2    1    2    0    0  0.00000000000E+00  0.00000000000E+00 -0.46386747544E+03  0.26870117550E+04  0.26466694423E+04 0.  0.
        5    1    3    3  502    0 -0.17039309522E+03  0.12807821750E+04 -0.52222197268E+03  0.13936192685E+04  0.46999998093E+01 0. -1.
       -5    1    3    3    0  502  0.17039309522E+03 -0.12807821750E+04  0.58354497240E+02  0.12933924865E+04  0.46999998093E+01 0.  1.
</event>
<event>
 5   0  0.1977015E-06  0.3220264E+04  0.7818609E-02  0.8183486E-01
        1   -1    0    0  501    0  0.00000000000E+00  0.00000000000E+00  0.24639312384E+04  0.24639312384E+04  0.50400001928E-02 0.  1.
       -1   -1    0    0    0  501  0.00000000000E+00  0.00000000000E+00 -0.10521906164E+04  0.10521906164E+04  0.50400001928E-02 0. -1.
    10030    2    1    2    0    0  0.00000000000E+00  0.00000000000E+00  0.14117406220E+04  0.35161218548E+04  0.32202641684E+04 0.  0.
        1    1    3    3  502    0 -0.14319989688E+04  0.65479951033E+03  0.10731391816E+04  0.19055212275E+04  0.50400001928E-02 0. -1.
       -1    1    3    3    0  502  0.14319989688E+04 -0.65479951033E+03  0.33860144035E+03  0.16106006273E+04  0.50400001928E-02 0.  1.
</event>
<event>
 5   0  0.5131083E-06  0.2730435E+04  0.7818609E-02  0.8325197E-01
        2   -1    0    0  501    0  0.00000000000E+00  0.00000000000E+00  0.21801468750E+04  0.21801468750E+04  0.25500000920E-02 0. -1.
       -2   -1    0    0    0  501  0.00000000000E+00  0.00000000000E+00 -0.85490488491E+03  0.85490488491E+03  0.25500000920E-02 0.  1.
    10030    2    1    2    0    0  0.00000000000E+00  0.00000000000E+00  0.13252419901E+04  0.30350517599E+04  0.27304345539E+04 0.  0.
        3    1    3    3  502    0 -0.34983898084E+03  0.26990711031E+03 -0.77322540325E+03  0.89056987101E+03  0.10100000352E+00 0.  1.
       -3    1    3    3    0  502  0.34983898084E+03 -0.26990711031E+03  0.20984673933E+04  0.21444818889E+04  0.10100000352E+00 0. -1.
</event>
<event>
 5   0  0.5373060E-06  0.3201817E+04  0.7818609E-02  0.8188337E-01
       -2   -1    0    0    0  501  0.00000000000E+00  0.00000000000E+00  0.16455743638E+04  0.16455743639E+04  0.25500000920E-02 0.  1.
        2   -1    0    0  501    0  0.00000000000E+00  0.00000000000E+00 -0.15574553287E+04  0.15574553287E+04  0.25500000920E-02 0. -1.
    10030    2    1    2    0    0  0.00000000000E+00  0.00000000000E+00  0.88119035185E+02  0.32030296925E+04  0.32018173350E+04 0.  0.
        5    1    3    3  502    0  0.40076752660E+03 -0.94087467452E+03 -0.11880832338E+04  0.15676171803E+04  0.46999998093E+01 0. -1.
       -5    1    3    3    0  502 -0.40076752660E+03  0.94087467452E+03  0.12762022690E+04  0.16354125122E+04  0.46999998093E+01 0.  1.
</event>
<event>
 5   0  0.1886248E-06  0.3268041E+04  0.7818609E-02  0.8171075E-01
        1   -1    0    0  501    0  0.00000000000E+00  0.00000000000E+00  0.22838511986E+04  0.22838511986E+04  0.50400001928E-02 0.  1.
       -1   -1    0    0    0  501  0.00000000000E+00  0.00000000000E+00 -0.11690881486E+04  0.11690881486E+04  0.50400001928E-02 0. -1.
    10030    2    1    2    0    0  0.00000000000E+00  0.00000000000E+00  0.11147630500E+04  0.34529393472E+04  0.32680412295E+04 0.  0.
        4    1    3    3  502    0  0.37916579513E+03  0.12651777883E+04  0.15738840351E+04  0.20546420869E+04  0.12699999809E+01 0.  1.
       -4    1    3    3    0  502 -0.37916579513E+03 -0.12651777883E+04 -0.45912098517E+03  0.13982972603E+04  0.12699999809E+01 0. -1.
</event>
<event>
 5   0  0.5347280E-06  0.3353122E+04  0.7818609E-02  0.8149508E-01
       -2   -1    0    0    0  501  0.00000000000E+00  0.00000000000E+00  0.15998185689E+04  0.15998185689E+04  0.25500000920E-02 0. -1.
        2   -1    0    0  501    0  0.00000000000E+00  0.00000000000E+00 -0.17569849934E+04  0.17569849934E+04  0.25500000920E-02 0.  1.
    10030    2    1    2    0    0  0.00000000000E+00  0.00000000000E+00 -0.15716642458E+03  0.33568035623E+04  0.33531222571E+04 0.  0.
        2    1    3    3  502    0  0.11534359912E+04 -0.61983880138E+03  0.96958227346E+03  0.16293263978E+04  0.25500000920E-02 0. -1.
       -2    1    3    3    0  502 -0.11534359912E+04  0.61983880138E+03 -0.11267486980E+04  0.17274771645E+04  0.25500000920E-02 0.  1.
</event>
<event>
 5   0  0.5347280E-06  0.3034821E+04  0.7818609E-02  0.8233857E-01
        2   -1    0    0  501    0  0.00000000000E+00  0.00000000000E+00  0.18875818547E+04  0.18875818547E+04  0.25500000920E-02 0.  1.
       -2   -1    0    0    0  501  0.00000000000E+00  0.00000000000E+00 -0.12198328784E+04  0.12198328784E+04  0.25500000920E-02 0. -1.
    10030    2    1    2    0    0  0.00000000000E+00  0.00000000000E+00  0.66774897628E+03  0.31074147331E+04  0.30348208560E+04 0.  0.
        2    1    3    3  502    0  0.42571234699E+02  0.55997898874E+02  0.18859115225E+04  0.18872229188E+04  0.25500000920E-02 0.  1.
       -2    1    3    3    0  502 -0.42571234699E+02 -0.55997898874E+02 -0.12181625462E+04  0.12201918143E+04  0.25500000920E-02 0. -1.
</event>
<event>
 5   0  0.1977015E-06  0.2447690E+04  0.7818609E-02  0.8421862E-01
       -1   -1    0    0    0  501  0.00000000000E+00  0.00000000000E+00  0.11609470900E+04  0.11609470900E+04  0.50400001928E-02 0.  1.
        1   -1    0    0  501    0  0.00000000000E+00  0.00000000000E+00 -0.12901507151E+04  0.12901507152E+04  0.50400001928E-02 0. -1.
    10030    2    1    2    0    0  0.00000000000E+00  0.00000000000E+00 -0.12920362518E+03  0.24510978051E+04  0.24476901098E+04 0.  0.
        1    1    3    3  502    0  0.37934649082E+03  0.53323587910E+02  0.10993629883E+04  0.11641933453E+04  0.50400001928E-02 0.  1.
       -1    1    3    3    0  502 -0.37934649082E+03 -0.53323587910E+02 -0.12285666135E+04  0.12869044599E+04  0.50400001928E-02 0. -1.
</event>
<event>
 5   0  0.5373060E-06  0.2099732E+04  0.7818609E-02  0.8561361E-01
       -2   -1    0    0    0  501  0.00000000000E+00  0.00000000000E+00  0.10975887889E+04  0.10975887889E+04  0.25500000920E-02 0. -1.
        2   -1    0    0  501    0  0.00000000000E+00  0.00000000000E+00 -0.10042181676E+04  0.10042181676E+04  0.25500000920E-02 0.  1.
    10030    2    1    2    0    0  0.00000000000E+00  0.00000000000E+00  0.93370621291E+02  0.21018069566E+04  0.20997319852E+04 0.  0.
        5    1    3    3  502    0  0.61279613036E+03 -0.16961379920E+02 -0.80644192716E+03  0.10130041746E+04  0.46999998093E+01 0.  1.
       -5    1    3    3    0  502 -0.61279613036E+03  0.16961379920E+02  0.89981254845E+03  0.10888027820E+04  0.46999998093E+01 0. -1.
</event>
<event>
 5   0  0.1881144E-06  0.3412698E+04  0.7818609E-02  0.8134797E-01
       -1   -1    0    0    0  501  0.00000000000E+00  0.00000000000E+00  0.97712743283E+03  0.97712743284E+03  0.50400001928E-02 0. -1.
        1   -1    0    0  501    0  0.00000000000E+00  0.00000000000E+00 -0.29797827603E+04  0.29797827603E+04  0.50400001928E-02 0.  1.
    10030    2    1    2    0    0  0.00000000000E+00  0.00000000000E+00 -0.20026553275E+04  0.39569101932E+04  0.34126983336E+04 0.  0.
        3    1    3    3  502    0 -0.46426788287E+03  0.16332315207E+04 -0.80511518987E+03  0.18791488357E+04  0.10100000352E+00 0.  1.
       -3    1    3    3    0  502  0.46426788287E+03 -0.16332315207E+04 -0.11975401376E+04  0.20777613575E+04  0.10100000352E+00 0. -1.
</event>
<event>
 5   0  0.5121624E-06  0.3215399E+04  0.7818609E-02  0.8184762E-01
       -2   -1    0    0    0  501  0.00000000000E+00  0.00000000000E+00  0.14748438084E+04  0.14748438084E+04  0.25500000920E-02 0.  1.
        2   -1    0    0  501    0  0.00000000000E+00  0.00000000000E+00 -0.17525232163E+04  0.17525232163E+04  0.25500000920E-02 0. -1.
    10030    2    1    2    0    0  0.00000000000E+00  0.00000000000E+00 -0.27767940786E+03  0.32273670247E+04  0.32153992067E+04 0.  0.
        4    1    3    3  502    0  0.10455391169E+04 -0.38402230853E+01  0.10869878996E+04  0.15082145401E+04  0.12699999809E+01 0.  1.
       -4    1    3    3    0  502 -0.10455391169E+04  0.38402230853E+01 -0.13646673074E+04  0.17191524846E+04  0.12699999809E+01 0. -1.
</event>
<event>
 5   0  0.5373060E-06  0.2557813E+04  0.7818609E-02  0.8382674E-01
        2   -1    0    0  501    0  0.00000000000E+00  0.00000000000E+00  0.13857648161E+04  0.13857648161E+04  0.25500000920E-02 0. -1.
       -2   -1    0    0    0  501  0.00000000000E+00  0.00000000000E+00 -0.11802880449E+04  0.11802880449E+04  0.25500000920E-02 0.  1.
    10030    2    1    2    0    0  0.00000000000E+00  0.00000000000E+00  0.20547677126E+03  0.25660528610E+04  0.25578128512E+04 0.  0.
        5    1    3    3  502    0  0.12607138893E+03 -0.12577173464E+04 -0.92394353308E+02  0.12674011697E+04  0.46999998093E+01 0. -1.
       -5    1    3    3    0  502 -0.12607138893E+03  0.12577173464E+04  0.29787112457E+03  0.12986516913E+04  0.46999998093E+01 0.  1.
</event>
<event>
 5   0  0.1977015E-06  0.2871222E+04  0.7818609E-02  0.8281491E-01
       -1   -1    0    0    0  501  0.00000000000E+00  0.00000000000E+00  0.13850829664E+04  0.13850829664E+04  0.50400001928E-02 0.  1.
        1   -1    0    0  501    0  0.00000000000E+00  0.00000000000E+00 -0.14879828162E+04  0.14879828162E+04  0.50400001928E-02 0. -1.
    10030    2    1    2    0    0  0.00000000000E+00  0.00000000000E+00 -0.10289984980E+03  0.28730657827E+04  0.28712224944E+04 0.  0.
        1    1    3    3  502    0 -0.20351504424E+03 -0.32349539858E+03 -0.14361417658E+04  0.14861261110E+04  0.50400001928E-02 0. -1.
       -1    1    3    3    0  502  0.20351504424E+03  0.32349539858E+03  0.13332419160E+04  0.13869396717E+04  0.50400001928E-02 0.  1.
</event>
<event>
 5   0  0.1977015E-06  0.3121882E+04  0.7818609E-02  0.8209758E-01
        1   -1    0    0  501    0  0.00000000000E+00  0.00000000000E+00  0.18812460835E+04  0.18812460835E+04  0.50400001928E-02 0.  1.
       -1   -1    0    0    0  501  0.00000000000E+00  0.00000000000E+00 -0.12951717537E+04  0.12951717537E+04  0.50400001928E-02 0. -1.
    10030    2    1    2    0    0  0.00000000000E+00  0.00000000000E+00  0.58607432987E+03  0.31764178372E+04  0.31218819895E+04 0.  0.
        1    1    3    3  502    0 -0.57237977583E+03 -0.90607148628E+03 -0.86166795438E+03  0.13751566491E+04  0.50400001928E-02 0. -1.
       -1    1    3    3    0  502  0.57237977583E+03  0.90607148628E+03  0.14477422843E+04  0.18012611881E+04  0.50400001928E-02 0.  1.
</event>
<event>
 5   0  0.1881144E-06  0.2959100E+04  0.7818609E-02  0.8255508E-01
       -1   -1    0    0    0  501  0.00000000000E+00  0.00000000000E+00  0.26815588687E+04  0.26815588687E+04  0.50400001928E-02 0.  1.
        1   -1    0    0  501    0  0.00000000000E+00  0.00000000000E+00 -0.81634161542E+03  0.81634161544E+03  0.50400001928E-02 0. -1.
    10030    2    1    2    0    0  0.00000000000E+00  0.00000000000E+00  0.18652172533E+04  0.34979004841E+04  0.29590999299E+04 0.  0.
        3    1    3    3  502    0  0.43101129471E+03 -0.22290262409E+03 -0.71960785341E+03  0.86792383818E+03  0.10100000352E+00 0. -1.
       -3    1    3    3    0  502 -0.43101129471E+03  0.22290262409E+03  0.25848251067E+04  0.26299766460E+04  0.10100000352E+00 0.  1.
</event>
<event>
 5   0  0.5121624E-06  0.3172157E+04  0.7818609E-02  0.8196209E-01
       -2   -1    0    0    0  501  0.00000000000E+00  0.00000000000E+00  0.22682139398E+04  0.22682139398E+04  0.25500000920E-02 0.  1.
        2   -1    0    0  501    0  0.00000000000E+00  0.00000000000E+00 -0.11090863131E+04  0.11090863131E+04  0.25500000920E-02 0. -1.
    10030    2    1    2    0    0  0.00000000000E+00  0.00000000000E+00  0.11591276268E+04  0.33773002529E+04  0.31721570174E+04 0.  0.
        4    1    3    3  502    0  0.90018724180E+03  0.81696924895E+03  0.16642047044E+04  0.20609111420E+04  0.12699999809E+01 0.  1.
       -4    1    3    3    0  502 -0.90018724180E+03 -0.81696924895E+03 -0.50507707765E+03  0.13163891109E+04  0.12699999809E+01 0. -1.
</event>
<event>
 5   0  0.5108810E-06  0.2973379E+04  0.7818609E-02  0.8251374E-01
        2   -1    0    0  501    0  0.00000000000E+00  0.00000000000E+00  0.17147223163E+04  0.17147223163E+04  0.25500000920E-02 0.  1.
       -2   -1    0    0    0  501  0.00000000000E+00  0.00000000000E+00 -0.12889821097E+04  0.12889821097E+04  0.25500000920E-02 0. -1.
    10030    2    1    2    0    0  0.00000000000E+00  0.00000000000E+00  0.42574020666E+03  0.30037044260E+04  0.29733794839E+04 0.  0.
        1    1    3    3  502    0 -0.61795945974E+03 -0.13506834101E+04  0.27697452566E+03  0.15109382701E+04  0.50400001928E-02 0. -1.
       -1    1    3    3    0  502  0.61795945974E+03  0.13506834101E+04  0.14876568101E+03  0.14927661559E+04  0.50400001928E-02 0.  1.
</event>
<event>
 5   0  0.5373060E-06  0.3265331E+04  0.7818609E-02  0.8171773E-01
        2   -1    0    0  501    0  0.00000000000E+00  0.00000000000E+00  0.10818536041E+04  0.10818536041E+04  0.25500000920E-02 0.  1.
       -2   -1    0    0    0  501  0.00000000000E+00  0.00000000000E+00 -0.24639162269E+04  0.24639162269E+04  0.25500000920E-02 0. -1.
    10030    2    1    2    0    0  0.00000000000E+00  0.00000000000E+00 -0.13820626228E+04  0.35457698310E+04  0.32653310094E+04 0.  0.
        5    1    3    3  502    0  0.13779901937E+04  0.83046353840E+03 -0.38961710012E+03  0.16554003254E+04  0.46999998093E+01 0. -1.
       -5    1    3    3    0  502 -0.13779901937E+04 -0.83046353840E+03 -0.99244552263E+03  0.18903695056E+04  0.46999998093E+01 0.  1.
</event>
<event>
 5   0  0.1969465E-06  0.3113869E+04  0.7818609E-02  0.8211942E-01
       -1   -1    0    0    0  501  0.00000000000E+00  0.00000000000E+00  0.14935687351E+04  0.14935687351E+04  0.50400001928E-02 0.  1.
        1   -1    0    0  501    0  0.00000000000E+00  0.00000000000E+00 -0.16229889194E+04  0.16229889194E+04  0.50400001928E-02 0. -1.
    10030    2    1    2    0    0  0.00000000000E+00  0.00000000000E+00 -0.12942018429E+03  0.31165576545E+04  0.31138693020E+04 0.  0.
        2    1    3    3  502    0  0.75485339942E+03  0.11619087136E+04  0.64598040819E+03  0.15287662349E+04  0.25500000920E-02 0.  1.
       -2    1    3    3    0  502 -0.75485339942E+03 -0.11619087136E+04 -0.77540059248E+03  0.15877914196E+04  0.25500000920E-02 0. -1.
</event>
<event>
 5   0  0.1729500E-06  0.3180030E+04  0.7818609E-02  0.8194111E-01
       -3   -1    0    0    0  501  0.00000000000E+00  0.00000000000E+00  0.10966302871E+04  0.10966302918E+04  0.10100000352E+00 0. -1.
        3   -1    0    0  501    0  0.00000000000E+00  0.00000000000E+00 -0.23053783828E+04  0.23053783851E+04  0.10100000352E+00 0.  1.
    10030    2    1    2    0    0  0.00000000000E+00  0.00000000000E+00 -0.12087480957E+04  0.34020086768E+04  0.31800300436E+04 0.  0.
        2    1    3    3  502    0 -0.54174308637E+03 -0.37735360531E+03  0.94306192978E+03  0.11511937797E+04  0.25500000920E-02 0. -1.
       -2    1    3    3    0  502  0.54174308637E+03  0.37735360531E+03 -0.21518100255E+04  0.22508148971E+04  0.25500000920E-02 0.  1.
</event>
<event>
 5   0  0.5121624E-06  0.3160002E+04  0.7818609E-02  0.8199461E-01
        2   -1    0    0  501    0  0.00000000000E+00  0.00000000000E+00  0.24501742467E+04  0.24501742467E+04  0.25500000920E-02 0. -1.
       -2   -1    0    0    0  501  0.00000000000E+00  0.00000000000E+00 -0.10188676784E+04  0.10188676784E+04  0.25500000920E-02 0.  1.
    10030    2    1    2    0    0  0.00000000000E+00  0.00000000000E+00  0.14313065684E+04  0.34690419251E+04  0.31600021180E+04 0.  0.
        4    1    3    3  502    0 -0.95116541856E+03  0.50563112141E+03 -0.55325193201E+03  0.12109780335E+04  0.12699999809E+01 0.  1.
       -4    1    3    3    0  502  0.95116541856E+03 -0.50563112141E+03  0.19845585004E+04  0.22580638916E+04  0.12699999809E+01 0. -1.
</event>
<event>
 5   0  0.1881144E-06  0.3036203E+04  0.7818609E-02  0.8233468E-01
       -1   -1    0    0    0  501  0.00000000000E+00  0.00000000000E+00  0.15368035745E+04  0.15368035746E+04  0.50400001928E-02 0. -1.
        1   -1    0    0  501    0  0.00000000000E+00  0.00000000000E+00 -0.14996268802E+04  0.14996268802E+04  0.50400001928E-02 0.  1.
    10030    2    1    2    0    0  0.00000000000E+00  0.00000000000E+00  0.37176694313E+02  0.30364304548E+04  0.30362028589E+04 0.  0.
        3    1    3    3  502    0 -0.76733597383E+03 -0.55038015407E+03 -0.11701592974E+04  0.15036607337E+04  0.10100000352E+00 0.  1.
       -3    1    3    3    0  502  0.76733597383E+03  0.55038015407E+03  0.12073359917E+04  0.15327697211E+04  0.10100000352E+00 0. -1.
</event>
<event>
 5   0  0.5121624E-06  0.3261318E+04  0.7818609E-02  0.8172808E-01
       -2   -1    0    0    0  501  0.00000000000E+00  0.00000000000E+00  0.12207280896E+04  0.12207280896E+04  0.25500000920E-02 0.  1.
        2   -1    0    0  501    0  0.00000000000E+00  0.00000000000E+00 -0.21782486091E+04  0.21782486091E+04  0.25500000920E-02 0. -1.
    10030    2    1    2    0    0  0.00000000000E+00  0.00000000000E+00 -0.95752051958E+03  0.33989766987E+04  0.32613182998E+04 0.  0.
        4    1    3    3  502    0  0.10791000751E+04 -0.67444171385E+03  0.58394541871E+03  0.14001151604E+04  0.12699999809E+01 0.  1.
       -4    1    3    3    0  502 -0.10791000751E+04  0.67444171385E+03 -0.15414659383E+04  0.19988615383E+04  0.12699999809E+01 0. -1.
</event>
<event>
 5   0  0.1881144E-06  0.3090414E+04  0.7818609E-02  0.8218374E-01
        1   -1    0    0  501    0  0.00000000000E+00  0.00000000000E+00  0.20297276768E+04  0.20297276768E+04  0.50400001928E-02 0.  1.
       -1   -1    0    0    0  501  0.00000000000E+00  0.00000000000E+00 -0.11763470986E+04  0.11763470986E+04  0.50400001928E-02 0. -1.
    10030    2    1    2    0    0  0.00000000000E+00  0.00000000000E+00  0.85338057825E+03  0.32060747754E+04  0.30904137351E+04 0.  0.
        3    1    3    3  502    0  0.59207463652E+03 -0.92407132705E+03  0.15551520512E+04  0.19034069731E+04  0.10100000352E+00 0.  1.
       -3    1    3    3    0  502 -0.59207463652E+03  0.92407132705E+03 -0.70177147294E+03  0.13026678023E+04  0.10100000352E+00 0. -1.
</event>
<event>
 5   0  0.1881144E-06  0.3223461E+04  0.7818609E-02  0.8182649E-01
        1   -1    0    0  501    0  0.00000000000E+00  0.00000000000E+00  0.16707918605E+04  0.16707918605E+04  0.50400001928E-02 0. -1.
       -1   -1    0    0    0  501  0.00000000000E+00  0.00000000000E+00 -0.15547566410E+04  0.15547566411E+04  0.50400001928E-02 0.  1.
    10030    2    1    2    0    0  0.00000000000E+00  0.00000000000E+00  0.11603521947E+03  0.32255485016E+04  0.32234607123E+04 0.  0.
        3    1    3    3  502    0  0.11034821105E+04 -0.11345357889E+04 -0.24686071894E+03  0.16018066204E+04  0.10100000352E+00 0.  1.
       -3    1    3    3    0  502 -0.11034821105E+04  0.11345357889E+04  0.36289593841E+03  0.16237418812E+04  0.10100000352E+00 0. -1.
</event>
<event>
 5   0  0.5121624E-06  0.3183043E+04  0.7818609E-02  0.8193310E-01
        2   -1    0    0  501    0  0.00000000000E+00  0.00000000000E+00  0.24261396485E+04  0.24261396485E+04  0.25500000920E-02 0. -1.
       -2   -1    0    0    0  501  0.00000000000E+00  0.00000000000E+00 -0.10440206723E+04  0.10440206723E+04  0.25500000920E-02 0.  1.
    10030    2    1    2    0    0  0.00000000000E+00  0.00000000000E+00  0.13821189762E+04  0.34701603208E+04  0.31830425362E+04 0.  0.
        4    1    3    3  502    0 -0.41698213960E+01  0.32935709468E+03  0.23885730477E+04  0.24111773681E+04  0.12699999809E+01 0. -1.
       -4    1    3    3    0  502  0.41698213960E+01 -0.32935709468E+03 -0.10064540715E+04  0.10589829527E+04  0.12699999809E+01 0.  1.
</event>
<event>
 5   0  0.5108810E-06  0.3386176E+04  0.7818609E-02  0.8141307E-01
       -2   -1    0    0    0  501  0.00000000000E+00  0.00000000000E+00  0.14452150464E+04  0.14452150464E+04  0.25500000920E-02 0.  1.
        2   -1    0    0  501    0  0.00000000000E+00  0.00000000000E+00 -0.19834748804E+04  0.19834748804E+04  0.25500000920E-02 0. -1.
    10030    2    1    2    0    0  0.00000000000E+00  0.00000000000E+00 -0.53825983404E+03  0.34286899268E+04  0.33861764522E+04 0.  0.
        1    1    3    3  502    0 -0.35376175093E+03 -0.12730117166E+04  0.80286008336E+03  0.15460564415E+04  0.50400001928E-02 0.  1.
       -1    1    3    3    0  502  0.35376175093E+03  0.12730117166E+04 -0.13411199174E+04  0.18826334853E+04  0.50400001928E-02 0. -1.
</event>
<event>
 5   0  0.5347280E-06  0.3260083E+04  0.7818609E-02  0.8173127E-01
        2   -1    0    0  501    0  0.00000000000E+00  0.00000000000E+00  0.19041142560E+04  0.19041142560E+04  0.25500000920E-02 0. -1.
       -2   -1    0    0    0  501  0.00000000000E+00  0.00000000000E+00 -0.13954183863E+04  0.13954183863E+04  0.25500000920E-02 0.  1.
    10030    2    1    2    0    0  0.00000000000E+00  0.00000000000E+00  0.50869586970E+03  0.32995326423E+04  0.32600834605E+04 0.  0.
        2    1    3    3  502    0 -0.69471947873E+03 -0.14539821700E+04  0.57402080620E+01  0.16114379463E+04  0.25500000920E-02 0.  1.
       -2    1    3    3    0  502  0.69471947873E+03  0.14539821700E+04  0.50295566164E+03  0.16880946959E+04  0.25500000920E-02 0. -1.
</event>
<event>
 5   0  0.5121624E-06  0.3312363E+04  0.7818609E-02  0.8159757E-01
       -2   -1    0    0    0  501  0.00000000000E+00  0.00000000000E+00  0.10997789662E+04  0.10997789662E+04  0.25500000920E-02 0. -1.
        2   -1    0    0  501    0  0.00000000000E+00  0.00000000000E+00 -0.24940799187E+04  0.24940799187E+04  0.25500000920E-02 0.  1.
    10030    2    1    2    0    0  0.00000000000E+00  0.00000000000E+00 -0.13943009524E+04  0.35938588849E+04  0.33123626822E+04 0.  0.
        4    1    3    3  502    0 -0.19775628561E+03  0.12106258872E+04  0.51016486066E+03  0.13285301597E+04  0.12699999809E+01 0. -1.
       -4    1    3    3    0  502  0.19775628561E+03 -0.12106258872E+04 -0.19044658131E+04  0.22653287252E+04  0.12699999809E+01 0.  1.
</event>
<event>
 5   0  0.1977015E-06  0.3167602E+04  0.7818609E-02  0.8197426E-01
       -1   -1    0    0    0  501  0.00000000000E+00  0.00000000000E+00  0.15244915286E+04  0.15244915286E+04  0.50400001928E-02 0.  1.
        1   -1    0    0  501    0  0.00000000000E+00  0.00000000000E+00 -0.16454177203E+04  0.16454177204E+04  0.50400001928E-02 0. -1.
    10030    2    1    2    0    0  0.00000000000E+00  0.00000000000E+00 -0.12092619175E+03  0.31699092490E+04  0.31676018536E+04 0.  0.
        1    1    3    3  502    0  0.42096648388E+03  0.12563545009E+04  0.80780130830E+03  0.15518319387E+04  0.50400001928E-02 0.  1.
       -1    1    3    3    0  502 -0.42096648388E+03 -0.12563545009E+04 -0.92872750005E+03  0.16180773102E+04  0.50400001928E-02 0. -1.
</event>
<event>
 5   0  0.1881144E-06  0.3009993E+04  0.7818609E-02  0.8240883E-01
       -1   -1    0    0    0  501  0.00000000000E+00  0.00000000000E+00  0.81027972899E+03  0.81027972901E+03  0.50400001928E-02 0. -1.
        1   -1    0    0  501    0  0.00000000000E+00  0.00000000000E+00 -0.27953484874E+04  0.27953484874E+04  0.50400001928E-02 0.  1.
    10030    2    1    2    0    0  0.00000000000E+00  0.00000000000E+00 -0.19850687584E+04  0.36056282164E+04  0.30099928338E+04 0.  0.
        3    1    3    3  502    0 -0.85935403862E+02 -0.50179837470E+03 -0.26890673123E+04  0.27368356770E+04  0.10100000352E+00 0.  1.
       -3    1    3    3    0  502  0.85935403862E+02  0.50179837470E+03  0.70399855389E+03  0.86879253943E+03  0.10100000352E+00 0. -1.
</event>
<event>
 5   0  0.5347280E-06  0.2106654E+04  0.7818609E-02  0.8558318E-01
        2   -1    0    0  501    0  0.00000000000E+00  0.00000000000E+00  0.14951125739E+04  0.14951125739E+04  0.25500000920E-02 0.  1.
       -2   -1    0    0    0  501  0.00000000000E+00  0.00000000000E+00 -0.74208291730E+03  0.74208291731E+03  0.25500000920E-02 0. -1.
    10030    2    1    2    0    0  0.00000000000E+00  0.00000000000E+00  0.75302965658E+03  0.22371954912E+04  0.21066537452E+04 0.  0.
        2    1    3    3  502    0  0.49642739514E+03  0.35553380231E+03 -0.53495495034E+03  0.81180123314E+03  0.25500000920E-02 0. -1.
       -2    1    3    3    0  502 -0.49642739514E+03 -0.35553380231E+03  0.12879846069E+04  0.14253942581E+04  0.25500000920E-02 0.  1.
</event>
<event>
 5   0  0.1969465E-06  0.3284518E+04  0.7818609E-02  0.8166846E-01
        1   -1    0    0  501    0  0.00000000000E+00  0.00000000000E+00  0.14879017683E+04  0.14879017683E+04  0.50400001928E-02 0.  1.
       -1   -1    0    0    0  501  0.00000000000E+00  0.00000000000E+00 -0.18126291337E+04  0.18126291337E+04  0.50400001928E-02 0. -1.
    10030    2    1    2    0    0  0.00000000000E+00  0.00000000000E+00 -0.32472736546E+03  0.33005309020E+04  0.32845176774E+04 0.  0.
        2    1    3    3  502    0 -0.63630583419E+03 -0.80792883537E+03  0.11242613971E+04  0.15236790366E+04  0.25500000920E-02 0.  1.
       -2    1    3    3    0  502  0.63630583419E+03  0.80792883537E+03 -0.14489887625E+04  0.17768518654E+04  0.25500000920E-02 0. -1.
</event>
<event>
 5   0  0.1886248E-06  0.3295984E+04  0.7818609E-02  0.8163918E-01
        1   -1    0    0  501    0  0.00000000000E+00  0.00000000000E+00  0.15135017912E+04  0.15135017912E+04  0.50400001928E-02 0. -1.
       -1   -1    0    0    0  501  0.00000000000E+00  0.00000000000E+00 -0.17944333371E+04  0.17944333372E+04  0.50400001928E-02 0.  1.
    10030    2    1    2    0    0  0.00000000000E+00  0.00000000000E+00 -0.28093154598E+03  0.33079351283E+04  0.32959842657E+04 0.  0.
        4    1    3    3  502    0 -0.57248917808E+03  0.78454859711E+03  0.11957580139E+04  0.15404866766E+04  0.12699999809E+01 0. -1.
       -4    1    3    3    0  502  0.57248917808E+03 -0.78454859711E+03 -0.14766895599E+04  0.17674484517E+04  0.12699999809E+01 0.  1.
</event>
<event>
 5   0  0.1886248E-06  0.2048596E+04  0.7818609E-02  0.8584232E-01
       -1   -1    0    0    0  501  0.00000000000E+00  0.00000000000E+00  0.14755558757E+04  0.14755558757E+04  0.50400001928E-02 0. -1.
        1   -1    0    0  501    0  0.00000000000E+00  0.00000000000E+00 -0.71104485256E+03  0.71104485258E+03  0.50400001928E-02 0.  1.
    10030    2    1    2    0    0  0.00000000000E+00  0.00000000000E+00  0.76451102310E+03  0.21866007283E+04  0.20485960169E+04 0.  0.
        4    1    3    3  502    0  0.41621947826E+03 -0.68719913880E+03  0.10604346318E+04  0.13304151727E+04  0.12699999809E+01 0. -1.
       -4    1    3    3    0  502 -0.41621947826E+03  0.68719913880E+03 -0.29592360873E+03  0.85618555556E+03  0.12699999809E+01 0.  1.
</event>
<event>
 5   0  0.5347280E-06  0.3176735E+04  0.7818609E-02  0.8194989E-01
       -2   -1    0    0    0  501  0.00000000000E+00  0.00000000000E+00  0.13976930034E+04  0.13976930034E+04  0.25500000920E-02 0. -1.
        2   -1    0    0  501    0  0.00000000000E+00  0.00000000000E+00 -0.18050536140E+04  0.18050536140E+04  0.25500000920E-02 0.  1.
    10030    2    1    2    0    0  0.00000000000E+00  0.00000000000E+00 -0.40736061062E+03  0.32027466174E+04  0.31767346802E+04 0.  0.
        2    1    3    3  502    0 -0.35124573227E+03  0.56142963343E+03  0.12518635472E+04  0.14162412007E+04  0.25500000920E-02 0. -1.
       -2    1    3    3    0  502  0.35124573227E+03 -0.56142963343E+03 -0.16592241579E+04  0.17865054167E+04  0.25500000920E-02 0.  1.
</event>
<event>
 5   0  0.1977015E-06  0.3270812E+04  0.7818609E-02  0.8170362E-01
       -1   -1    0    0    0  501  0.00000000000E+00  0.00000000000E+00  0.19100814475E+04  0.19100814475E+04  0.50400001928E-02 0. -1.
        1   -1    0    0  501    0  0.00000000000E+00  0.00000000000E+00 -0.14002295886E+04  0.14002295886E+04  0.50400001928E-02 0.  1.
    10030    2    1    2    0    0  0.00000000000E+00  0.00000000000E+00  0.50985185897E+03  0.33103110361E+04  0.32708118622E+04 0.  0.
        1    1    3    3  502    0 -0.21072225160E+02 -0.25622175779E+03  0.18895023867E+04  0.19069118746E+04  0.50400001928E-02 0. -1.
       -1    1    3    3    0  502  0.21072225160E+02  0.25622175779E+03 -0.13796505278E+04  0.14033991615E+04  0.50400001928E-02 0.  1.
</event>
<event>
 5   0  0.5347280E-06  0.2599027E+04  0.7818609E-02  0.8368532E-01
        2   -1    0    0  501    0  0.00000000000E+00  0.00000000000E+00  0.26078840333E+04  0.26078840333E+04  0.25500000920E-02 0. -1.
       -2   -1    0    0    0  501  0.00000000000E+00  0.00000000000E+00 -0.64755011995E+03  0.64755011995E+03  0.25500000920E-02 0.  1.
    10030    2    1    2    0    0  0.00000000000E+00  0.00000000000E+00  0.19603339134E+04  0.32554341533E+04  0.25990272169E+04 0.  0.
        2    1    3    3  502    0  0.90831108895E+03 -0.25552002996E+02 -0.18346862375E+03  0.92700737596E+03  0.25500000920E-02 0.  1.
       -2    1    3    3    0  502 -0.90831108895E+03  0.25552002996E+02  0.21438025371E+04  0.23284267773E+04  0.25500000920E-02 0. -1.
</event>
<event>
 5   0  0.5347280E-06  0.3245922E+04  0.7818609E-02  0.8176793E-01
       -2   -1    0    0    0  501  0.00000000000E+00  0.00000000000E+00  0.14894328286E+04  0.14894328286E+04  0.25500000920E-02 0. -1.
        2   -1    0    0  501    0  0.00000000000E+00  0.00000000000E+00 -0.17684605070E+04  0.17684605070E+04  0.25500000920E-02 0.  1.
    10030    2    1    2    0    0  0.00000000000E+00  0.00000000000E+00 -0.27902767842E+03  0.32578933357E+04  0.32459224484E+04 0.  0.
        2    1    3    3  502    0  0.15310135421E+02 -0.97790889664E+03 -0.14394594649E+04  0.17402826671E+04  0.25500000920E-02 0.  1.
       -2    1    3    3    0  502 -0.15310135421E+02  0.97790889664E+03  0.11604317864E+04  0.15176106686E+04  0.25500000920E-02 0. -1.
</event>
<event>
 5   0  0.5347280E-06  0.3166983E+04  0.7818609E-02  0.8197592E-01
        2   -1    0    0  501    0  0.00000000000E+00  0.00000000000E+00  0.22669252010E+04  0.22669252010E+04  0.25500000920E-02 0. -1.
       -2   -1    0    0    0  501  0.00000000000E+00  0.00000000000E+00 -0.11060999593E+04  0.11060999593E+04  0.25500000920E-02 0.  1.
    10030    2    1    2    0    0  0.00000000000E+00  0.00000000000E+00  0.11608252417E+04  0.33730251602E+04  0.31669833422E+04 0.  0.
        2    1    3    3  502    0  0.41926434725E+03  0.56050231818E+03  0.20932094994E+04  0.22071410127E+04  0.25500000920E-02 0. -1.
       -2    1    3    3    0  502 -0.41926434725E+03 -0.56050231818E+03 -0.93238425769E+03  0.11658841476E+04  0.25500000920E-02 0.  1.
</event>
<event>
 5   0  0.5108810E-06  0.3182587E+04  0.7818609E-02  0.8193431E-01
        2   -1    0    0  501    0  0.00000000000E+00  0.00000000000E+00  0.24541423360E+04  0.24541423360E+04  0.25500000920E-02 0.  1.
       -2   -1    0    0    0  501  0.00000000000E+00  0.00000000000E+00 -0.10318125543E+04  0.10318125543E+04  0.25500000920E-02 0. -1.
    10030    2    1    2    0    0  0.00000000000E+00  0.00000000000E+00  0.14223297817E+04  0.34859548902E+04  0.31825869177E+04 0.  0.
        1    1    3    3  502    0  0.19169355486E+03 -0.66615433969E+03  0.22800789101E+04  0.23831214529E+04  0.50400001928E-02 0.  1.
       -1    1    3    3    0  502 -0.19169355486E+03  0.66615433969E+03 -0.85774912834E+03  0.11028334373E+04  0.50400001928E-02 0. -1.
</event>
<event>
 5   0  0.1969465E-06  0.3369924E+04  0.7818609E-02  0.8145328E-01
        1   -1    0    0  501    0  0.00000000000E+00  0.00000000000E+00  0.17745653527E+04  0.17745653527E+04  0.50400001928E-02 0. -1.
       -1   -1    0    0    0  501  0.00000000000E+00  0.00000000000E+00 -0.15998831474E+04  0.15998831474E+04  0.50400001928E-02 0.  1.
    10030    2    1    2    0    0  0.00000000000E+00  0.00000000000E+00  0.17468220533E+03  0.33744485000E+04  0.33699241544E+04 0.  0.
        2    1    3    3  502    0 -0.83538503564E+03 -0.13117094581E+04  0.73678516745E+03  0.17208434685E+04  0.25500000920E-02 0. -1.
       -2    1    3    3    0  502  0.83538503564E+03  0.13117094581E+04 -0.56210296212E+03  0.16536050315E+04  0.25500000920E-02 0.  1.
</event>
<event>
 5   0  0.5121624E-06  0.2014928E+04  0.7818609E-02  0.8599673E-01
       -2   -1    0    0    0  501  0.00000000000E+00  0.00000000000E+00  0.62726483547E+03  0.62726483548E+03  0.25500000920E-02 0. -1.
        2   -1    0    0  501    0  0.00000000000E+00  0.00000000000E+00 -0.16181101142E+04  0.16181101142E+04  0.25500000920E-02 0.  1.
    10030    2    1    2    0    0  0.00000000000E+00  0.00000000000E+00 -0.99084527872E+03  0.22453749497E+04  0.20149278643E+04 0.  0.
        4    1    3    3  502    0 -0.83483966841E+03  0.32852925289E+03 -0.10062044095E+04  0.13480866695E+04  0.12699999809E+01 0. -1.
       -4    1    3    3    0  502  0.83483966841E+03 -0.32852925289E+03  0.15359130745E+02  0.89728828018E+03  0.12699999809E+01 0.  1.
</event>
<event>
 5   0  0.5373060E-06  0.2953407E+04  0.7818609E-02  0.8257162E-01
        2   -1    0    0  501    0  0.00000000000E+00  0.00000000000E+00  0.24446505786E+04  0.24446505786E+04  0.25500000920E-02 0.  1.
       -2   -1    0    0    0  501  0.00000000000E+00  0.00000000000E+00 -0.89201001673E+03  0.89201001673E+03  0.25500000920E-02 0. -1.
    10030    2    1    2    0    0  0.00000000000E+00  0.00000000000E+00  0.15526405618E+04  0.33366605953E+04  0.29534067133E+04 0.  0.
        5    1    3    3  502    0 -0.12972353981E+02  0.89866353390E+03  0.21000608973E+04  0.22843034588E+04  0.46999998093E+01 0.  1.
       -5    1    3    3    0  502  0.12972353981E+02 -0.89866353390E+03 -0.54742033550E+03  0.10523571366E+04  0.46999998093E+01 0. -1.
</event>
<event>
 5   0  0.1881144E-06  0.2963671E+04  0.7818609E-02  0.8254182E-01
        1   -1    0    0  501    0  0.00000000000E+00  0.00000000000E+00  0.12638474562E+04  0.12638474562E+04  0.50400001928E-02 0.  1.
       -1   -1    0    0    0  501  0.00000000000E+00  0.00000000000E+00 -0.17374216780E+04  0.17374216780E+04  0.50400001928E-02 0. -1.
    10030    2    1    2    0    0  0.00000000000E+00  0.00000000000E+00 -0.47357422178E+03  0.30012691342E+04  0.29636706755E+04 0.  0.
        3    1    3    3  502    0  0.62047632723E+03 -0.83303620404E+03 -0.13070274632E+04  0.16695092063E+04  0.10100000352E+00 0. -1.
       -3    1    3    3    0  502 -0.62047632723E+03  0.83303620404E+03  0.83345324147E+03  0.13317599280E+04  0.10100000352E+00 0.  1.
</event>
<event>
 5   0  0.5373060E-06  0.3125415E+04  0.7818609E-02  0.8208797E-01
       -2   -1    0    0    0  501  0.00000000000E+00  0.00000000000E+00  0.80910539341E+03  0.80910539341E+03  0.25500000920E-02 0. -1.
        2   -1    0    0  501    0  0.00000000000E+00  0.00000000000E+00 -0.30182158307E+04  0.30182158307E+04  0.25500000920E-02 0.  1.
    10030    2    1    2    0    0  0.00000000000E+00  0.00000000000E+00 -0.22091104373E+04  0.38273212241E+04  0.31254149850E+04 0.  0.
        5    1    3    3  502    0  0.10205115277E+04  0.11792329095E+04 -0.98210587090E+03  0.18429834684E+04  0.46999998093E+01 0.  1.
       -5    1    3    3    0  502 -0.10205115277E+04 -0.11792329095E+04 -0.12270045664E+04  0.19843377557E+04  0.46999998093E+01 0. -1.
</event>
<event>
 5   0  0.1846850E-06  0.3138423E+04  0.7818609E-02  0.8205272E-01
        1   -1    0    0  501    0  0.00000000000E+00  0.00000000000E+00  0.17281281482E+04  0.17281281482E+04  0.50400001928E-02 0. -1.
       -1   -1    0    0    0  501  0.00000000000E+00  0.00000000000E+00 -0.14249085192E+04  0.14249085192E+04  0.50400001928E-02 0.  1.
    10030    2    1    2    0    0  0.00000000000E+00  0.00000000000E+00  0.30321962894E+03  0.31530366674E+04  0.31384228655E+04 0.  0.
        5    1    3    3  502    0 -0.72521998200E+03  0.52711664366E+03 -0.11422559967E+04  0.14520905035E+04  0.46999998093E+01 0.  1.
       -5    1    3    3    0  502  0.72521998200E+03 -0.52711664366E+03  0.14454756256E+04  0.17009461639E+04  0.46999998093E+01 0. -1.
</event>
<event>
 5   0  0.5131083E-06  0.3266876E+04  0.7818609E-02  0.8171375E-01
        2   -1    0    0  501    0  0.00000000000E+00  0.00000000000E+00  0.19935077866E+04  0.19935077866E+04  0.25500000920E-02 0.  1.
       -2   -1    0    0    0  501  0.00000000000E+00  0.00000000000E+00 -0.13384045653E+04  0.13384045653E+04  0.25500000920E-02 0. -1.
    10030    2    1    2    0    0  0.00000000000E+00  0.00000000000E+00  0.65510322126E+03  0.33319123518E+04  0.32668761363E+04 0.  0.
        3    1    3    3  502    0  0.13052995325E+04  0.40006664617E+02  0.13282638408E+04  0.18627109931E+04  0.10100000352E+00 0.  1.
       -3    1    3    3    0  502 -0.13052995325E+04 -0.40006664617E+02 -0.67316061950E+03  0.14692013588E+04  0.10100000352E+00 0. -1.
</event>
<event>
 5   0  0.5347280E-06  0.2078968E+04  0.7818609E-02  0.8570565E-01
       -2   -1    0    0    0  501  0.00000000000E+00  0.00000000000E+00  0.14644534107E+04  0.14644534107E+04  0.25500000920E-02 0.  1.
        2   -1    0    0  501    0  0.00000000000E+00  0.00000000000E+00 -0.73783634348E+03  0.73783634348E+03  0.25500000920E-02 0. -1.
    10030    2    1    2    0    0  0.00000000000E+00  0.00000000000E+00  0.72661706725E+03  0.22022897542E+04  0.20789679649E+04 0.  0.
        2    1    3    3  502    0 -0.58109102219E+03 -0.64376709736E+03 -0.24376901109E+03  0.90084748014E+03  0.25500000920E-02 0. -1.
       -2    1    3    3    0  502  0.58109102219E+03  0.64376709736E+03  0.97038607834E+03  0.13014422741E+04  0.25500000920E-02 0.  1.
</event>
<event>
 5   0  0.1977015E-06  0.3218397E+04  0.7818609E-02  0.8183975E-01
       -1   -1    0    0    0  501  0.00000000000E+00  0.00000000000E+00  0.30143209078E+04  0.30143209078E+04  0.50400001928E-02 0. -1.
        1   -1    0    0  501    0  0.00000000000E+00  0.00000000000E+00 -0.85907259442E+03  0.85907259443E+03  0.50400001928E-02 0.  1.
    10030    2    1    2    0    0  0.00000000000E+00  0.00000000000E+00  0.21552483134E+04  0.38733935022E+04  0.32183974165E+04 0.  0.
        1    1    3    3  502    0  0.35096331738E+03  0.70175978726E+03  0.27685016745E+04  0.28775412370E+04  0.50400001928E-02 0. -1.
       -1    1    3    3    0  502 -0.35096331738E+03 -0.70175978726E+03 -0.61325336111E+03  0.99585226520E+03  0.50400001928E-02 0.  1.
</event>
<event>
 5   0  0.1881144E-06  0.2742885E+04  0.7818609E-02  0.8321223E-01
        1   -1    0    0  501    0  0.00000000000E+00  0.00000000000E+00  0.58164364383E+03  0.58164364385E+03  0.50400001928E-02 0.  1.
       -1   -1    0    0    0  501  0.00000000000E+00  0.00000000000E+00 -0.32336898120E+04  0.32336898120E+04  0.50400001928E-02 0. -1.
    10030    2    1    2    0    0  0.00000000000E+00  0.00000000000E+00 -0.26520461682E+04  0.38153334558E+04  0.27428854335E+04 0.  0.
        3    1    3    3  502    0 -0.12918101080E+04 -0.14750231734E+03 -0.71918538374E+03  0.14858525886E+04  0.10100000352E+00 0.  1.
       -3    1    3    3    0  502  0.12918101080E+04  0.14750231734E+03 -0.19328607844E+04  0.23294808672E+04  0.10100000352E+00 0. -1.
</event>
<event>
 5   0  0.5121624E-06  0.3150857E+04  0.7818609E-02  0.8201918E-01
        2   -1    0    0  501    0  0.00000000000E+00  0.00000000000E+00  0.23088247037E+04  0.23088247037E+04  0.25500000920E-02 0.  1.
       -2   -1    0    0    0  501  0.00000000000E+00  0.00000000000E+00 -0.10749948659E+04  0.10749948659E+04  0.25500000920E-02 0. -1.
    10030    2    1    2    0    0  0.00000000000E+00  0.00000000000E+00  0.12338298378E+04  0.33838195696E+04  0.31508568376E+04 0.  0.
        4    1    3    3  502    0  0.71597047151E+03 -0.13033476409E+04  0.11756140163E+04  0.18956262072E+04  0.12699999809E+01 0.  1.
       -4    1    3    3    0  502 -0.71597047151E+03  0.13033476409E+04  0.58215821450E+02  0.14881933624E+04  0.12699999809E+01 0. -1.
</event>
<event>
 5   0  0.5121624E-06  0.3200358E+04  0.7818609E-02  0.8188723E-01
       -2   -1    0    0    0  501  0.00000000000E+00  0.00000000000E+00  0.10838892994E+04  0.10838892994E+04  0.25500000920E-02 0. -1.
        2   -1    0    0  501    0  0.00000000000E+00  0.00000000000E+00 -0.23623933599E+04  0.23623933599E+04  0.25500000920E-02 0.  1.
    10030    2    1    2    0    0  0.00000000000E+00  0.00000000000E+00 -0.12785040605E+04  0.34462826593E+04  0.32003580324E+04 0.  0.
        4    1    3    3  502    0  0.93397918967E+03  0.67450337476E+03  0.55662514779E+03  0.12794940787E+04  0.12699999809E+01 0. -1.
       -4    1    3    3    0  502 -0.93397918967E+03 -0.67450337476E+03 -0.18351292083E+04  0.21667885807E+04  0.12699999809E+01 0.  1.
</event>
<event>
 5   0  0.5108810E-06  0.3187633E+04  0.7818609E-02  0.8192091E-01
        2   -1    0    0  501    0  0.00000000000E+00  0.00000000000E+00  0.12139359723E+04  0.12139359723E+04  0.25500000920E-02 0. -1.
       -2   -1    0    0    0  501  0.00000000000E+00  0.00000000000E+00 -0.20925737348E+04  0.20925737348E+04  0.25500000920E-02 0.  1.
    10030    2    1    2    0    0  0.00000000000E+00  0.00000000000E+00 -0.87863776251E+03  0.33065097071E+04  0.31876326836E+04 0.  0.
        1    1    3    3  502    0  0.60962046106E+03 -0.14079304264E+04 -0.88709486670E+03  0.17722422224E+04  0.50400001928E-02 0.  1.
       -1    1    3    3    0  502 -0.60962046106E+03  0.14079304264E+04  0.84571041868E+01  0.15342674848E+04  0.50400001928E-02 0. -1.
</event>
<event>
 5   0  0.5373060E-06  0.3000159E+04  0.7818609E-02  0.8243686E-01
       -2   -1    0    0    0  501  0.00000000000E+00  0.00000000000E+00  0.12460136823E+04  0.12460136823E+04  0.25500000920E-02 0. -1.
        2   -1    0    0  501    0  0.00000000000E+00  0.00000000000E+00 -0.18059498797E+04  0.18059498797E+04  0.25500000920E-02 0.  1.
    10030    2    1    2    0    0  0.00000000000E+00  0.00000000000E+00 -0.55993619748E+03  0.30519635620E+04  0.30001588356E+04 0.  0.
        5    1    3    3  502    0 -0.74310262905E+03  0.48853560785E+02 -0.16046157803E+04  0.17690116111E+04  0.46999998093E+01 0.  1.
       -5    1    3    3    0  502  0.74310262905E+03 -0.48853560785E+02  0.10446795828E+04  0.12829519510E+04  0.46999998093E+01 0. -1.
</event>
<event>
 5   0  0.1881144E-06  0.3140752E+04  0.7818609E-02  0.8204642E-01
       -1   -1    0    0    0  501  0.00000000000E+00  0.00000000000E+00  0.19753069935E+04  0.19753069935E+04  0.50400001928E-02 0.  1.
        1   -1    0    0  501    0  0.00000000000E+00  0.00000000000E+00 -0.12484543727E+04  0.12484543727E+04  0.50400001928E-02 0. -1.
    10030    2    1    2    0    0  0.00000000000E+00  0.00000000000E+00  0.72685262082E+03  0.32237613662E+04  0.31407519185E+04 0.  0.
        3    1    3    3  502    0 -0.11940700921E+04  0.97582203696E+03  0.58853938215E+02  0.15432095869E+04  0.10100000352E+00 0.  1.
       -3    1    3    3    0  502  0.11940700921E+04 -0.97582203696E+03  0.66799868260E+03  0.16805517793E+04  0.10100000352E+00 0. -1.
</event>
<event>
 5   0  0.1977015E-06  0.3177198E+04  0.7818609E-02  0.8194865E-01
       -1   -1    0    0    0  501  0.00000000000E+00  0.00000000000E+00  0.14225003969E+04  0.14225003969E+04  0.50400001928E-02 0.  1.
        1   -1    0    0  501    0  0.00000000000E+00  0.00000000000E+00 -0.17740924088E+04  0.17740924088E+04  0.50400001928E-02 0. -1.
    10030    2    1    2    0    0  0.00000000000E+00  0.00000000000E+00 -0.35159201191E+03  0.31965928056E+04  0.31771982346E+04 0.  0.
        1    1    3    3  502    0 -0.69377050660E+03 -0.14226811990E+04 -0.31192844517E+03  0.16132695574E+04  0.50400001928E-02 0. -1.
       -1    1    3    3    0  502  0.69377050660E+03  0.14226811990E+04 -0.39663566746E+02  0.15833232482E+04  0.50400001928E-02 0.  1.
</event>
<event>
 5   0  0.5347280E-06  0.3202423E+04  0.7818609E-02  0.8188177E-01
       -2   -1    0    0    0  501  0.00000000000E+00  0.00000000000E+00  0.10242527047E+04  0.10242527047E+04  0.25500000920E-02 0. -1.
        2   -1    0    0  501    0  0.00000000000E+00  0.00000000000E+00 -0.25031702478E+04  0.25031702478E+04  0.25500000920E-02 0.  1.
    10030    2    1    2    0    0  0.00000000000E+00  0.00000000000E+00 -0.14789175430E+04  0.35274229525E+04  0.32024233928E+04 0.  0.
        2    1    3    3  502    0  0.94319318394E+03 -0.11206032976E+04 -0.26878720954E+02  0.14649531046E+04  0.25500000920E-02 0.  1.
       -2    1    3    3    0  502 -0.94319318394E+03  0.11206032976E+04 -0.14520388221E+04  0.20624698480E+04  0.25500000920E-02 0. -1.
</event>
<event>
 5   0  0.1846850E-06  0.3104442E+04  0.7818609E-02  0.8214520E-01
        1   -1    0    0  501    0  0.00000000000E+00  0.00000000000E+00  0.13861757830E+04  0.13861757830E+04  0.50400001928E-02 0. -1.
       -1   -1    0    0    0  501  0.00000000000E+00  0.00000000000E+00 -0.17381562585E+04  0.17381562585E+04  0.50400001928E-02 0.  1.
    10030    2    1    2    0    0  0.00000000000E+00  0.00000000000E+00 -0.35198047549E+03  0.31243320415E+04  0.31044420513E+04 0.  0.
        5    1    3    3  502    0 -0.96197601637E+03  0.84222459292E+03 -0.10617586591E+04  0.16619547711E+04  0.46999998093E+01 0.  1.
       -5    1    3    3    0  502  0.96197601637E+03 -0.84222459292E+03  0.70977818359E+03  0.14623772704E+04  0.46999998093E+01 0. -1.
</event>
<event>
 5   0  0.1881144E-06  0.3212401E+04  0.7818609E-02  0.8185550E-01
       -1   -1    0    0    0  501  0.00000000000E+00  0.00000000000E+00  0.18874146875E+04  0.18874146875E+04  0.50400001928E-02 0.  1.
        1   -1    0    0  501    0  0.00000000000E+00  0.00000000000E+00 -0.13668858639E+04  0.13668858640E+04  0.50400001928E-02 0. -1.
    10030    2    1    2    0    0  0.00000000000E+00  0.00000000000E+00  0.52052882357E+03  0.32543005515E+04  0.32124012550E+04 0.  0.
        3    1    3    3  502    0  0.13621972258E+04  0.40375750045E+03  0.10192216144E+04  0.17485462850E+04  0.10100000352E+00 0.  1.
       -3    1    3    3    0  502 -0.13621972258E+04 -0.40375750045E+03 -0.49869279083E+03  0.15057542665E+04  0.10100000352E+00 0. -1.
</event>
<event>
 5   0  0.1969465E-06  0.3160515E+04  0.7818609E-02  0.8199323E-01
       -1   -1    0    0    0  501  0.00000000000E+00  0.00000000000E+00  0.23719083853E+04  0.23719083853E+04  0.50400001928E-02 0. -1.
        1   -1    0    0  501    0  0.00000000000E+00  0.00000000000E+00 -0.10528291774E+04  0.10528291774E+04  0.50400001928E-02 0.  1.
    10030    2    1    2    0    0  0.00000000000E+00  0.00000000000E+00  0.13190792080E+04  0.34247375627E+04  0.31605153720E+04 0.  0.
        2    1    3    3  502    0 -0.11056965385E+04 -0.70340178387E+03 -0.29739446032E+03  0.13437940206E+04  0.25500000920E-02 0.  1.
       -2    1    3    3    0  502  0.11056965385E+04  0.70340178387E+03  0.16164736683E+04  0.20809435420E+04  0.25500000920E-02 0. -1.
</event>
<event>
 5   0  0.5347280E-06  0.3174475E+04  0.7818609E-02  0.8195591E-01
       -2   -1    0    0    0  501  0.00000000000E+00  0.00000000000E+00  0.17059043462E+04  0.17059043462E+04  0.25500000920E-02 0.  1.
        2   -1    0    0  501    0  0.00000000000E+00  0.00000000000E+00 -0.14768255241E+04  0.14768255241E+04  0.25500000920E-02 0. -1.
    10030    2    1    2    0    0  0.00000000000E+00  0.00000000000E+00  0.22907882207E+03  0.31827298704E+04  0.31744751253E+04 0.  0.
        2    1    3    3  502    0  0.59167212559E+02  0.36900679954E+03 -0.14320853885E+04  0.14800457213E+04  0.25500000920E-02 0. -1.
       -2    1    3    3    0  502 -0.59167212559E+02 -0.36900679954E+03  0.16611642105E+04  0.17026841491E+04  0.25500000920E-02 0.  1.
</event>
<event>
 5   0  0.5131083E-06  0.3202211E+04  0.7818609E-02  0.8188234E-01
       -2   -1    0    0    0  501  0.00000000000E+00  0.00000000000E+00  0.19675965794E+04  0.19675965794E+04  0.25500000920E-02 0. -1.
        2   -1    0    0  501    0  0.00000000000E+00  0.00000000000E+00 -0.13028780805E+04  0.13028780805E+04  0.25500000920E-02 0.  1.
    10030    2    1    2    0    0  0.00000000000E+00  0.00000000000E+00  0.66471849889E+03  0.32704746599E+04  0.32022107704E+04 0.  0.
        3    1    3    3  502    0  0.85836170318E+03  0.11950536198E+04 -0.31244780694E+03  0.15041813753E+04  0.10100000352E+00 0.  1.
       -3    1    3    3    0  502 -0.85836170318E+03 -0.11950536198E+04  0.97716630583E+03  0.17662932845E+04  0.10100000352E+00 0. -1.
</event>
<event>
 5   0  0.1846850E-06  0.2823881E+04  0.7818609E-02  0.8295892E-01
       -1   -1    0    0    0  501  0.00000000000E+00  0.00000000000E+00  0.10502988219E+04  0.10502988219E+04  0.50400001928E-02 0.  1.
        1   -1    0    0  501    0  0.00000000000E+00  0.00000000000E+00 -0.18981041204E+04  0.18981041204E+04  0.50400001928E-02 0. -1.
    10030    2    1    2    0    0  0.00000000000E+00  0.00000000000E+00 -0.84780529855E+03  0.29484029423E+04  0.28238813866E+04 0.  0.
        5    1    3    3  502    0  0.93540272852E+03 -0.10366081680E+04 -0.64296300639E+03  0.15371916849E+04  0.46999998093E+01 0.  1.
       -5    1    3    3    0  502 -0.93540272852E+03  0.10366081680E+04 -0.20484229216E+03  0.14112112574E+04  0.46999998093E+01 0. -1.
</event>
<event>
 5   0  0.1977015E-06  0.3146913E+04  0.7818609E-02  0.8202980E-01
        1   -1    0    0  501    0  0.00000000000E+00  0.00000000000E+00  0.19119592692E+04  0.19119592692E+04  0.50400001928E-02 0. -1.
       -1   -1    0    0    0  501  0.00000000000E+00  0.00000000000E+00 -0.12948841059E+04  0.12948841059E+04  0.50400001928E-02 0.  1.
    10030    2    1    2    0    0  0.00000000000E+00  0.00000000000E+00  0.61707516335E+03  0.32068433751E+04  0.31469131979E+04 0.  0.
        1    1    3    3  502    0  0.13577903537E+03  0.62324701020E+03  0.17742946208E+04  0.18854692211E+04  0.50400001928E-02 0. -1.
       -1    1    3    3    0  502 -0.13577903537E+03 -0.62324701020E+03 -0.11572194575E+04  0.13213741540E+04  0.50400001928E-02 0.  1.
</event>
<event>
 5   0  0.1846850E-06  0.3133218E+04  0.7818609E-02  0.8206680E-01
       -1   -1    0    0    0  501  0.00000000000E+00  0.00000000000E+00  0.10078555417E+04  0.10078555417E+04  0.50400001928E-02 0.  1.
        1   -1    0    0  501    0  0.00000000000E+00  0.00000000000E+00 -0.24351352247E+04  0.24351352247E+04  0.50400001928E-02 0. -1.
    10030    2    1    2    0    0  0.00000000000E+00  0.00000000000E+00 -0.14272796830E+04  0.34429907664E+04  0.31332184929E+04 0.  0.
        5    1    3    3  502    0  0.68353776639E+03  0.16834449335E+03  0.82425548258E+03  0.10839662989E+04  0.46999998093E+01 0.  1.
       -5    1    3    3    0  502 -0.68353776639E+03 -0.16834449335E+03 -0.22515351656E+04  0.23590244675E+04  0.46999998093E+01 0. -1.
</event>
<event>
 5   0  0.5373060E-06  0.2505621E+04  0.7818609E-02  0.8400986E-01
       -2   -1    0    0    0  501  0.00000000000E+00  0.00000000000E+00  0.10284878816E+04  0.10284878816E+04  0.25500000920E-02 0.  1.
        2   -1    0    0  501    0  0.00000000000E+00  0.00000000000E+00 -0.15260601645E+04  0.15260601645E+04  0.25500000920E-02 0. -1.
    10030    2    1    2    0    0  0.00000000000E+00  0.00000000000E+00 -0.49757228295E+03  0.25545480461E+04  0.25056211891E+04 0.  0.
        5    1    3    3  502    0  0.50947408898E+03 -0.98295803397E+03 -0.84652973706E+03  0.13937019156E+04  0.46999998093E+01 0. -1.
       -5    1    3    3    0  502 -0.50947408898E+03  0.98295803397E+03  0.34895745410E+03  0.11608461305E+04  0.46999998093E+01 0.  1.
</event>
<event>
 5   0  0.1729500E-06  0.2749972E+04  0.7818609E-02  0.8318970E-01
        3   -1    0    0  501    0  0.00000000000E+00  0.00000000000E+00  0.10475479482E+04  0.10475479530E+04  0.10100000352E+00 0.  1.
       -3   -1    0    0    0  501  0.00000000000E+00  0.00000000000E+00 -0.18047738783E+04  0.18047738811E+04  0.10100000352E+00 0. -1.
    10030    2    1    2    0    0  0.00000000000E+00  0.00000000000E+00 -0.75722593014E+03  0.28523218341E+04  0.27499724974E+04 0.  0.
        5    1    3    3  502    0  0.52569407979E+03  0.89041264649E+03  0.56141596478E+03  0.11766048283E+04  0.46999998093E+01 0.  1.
       -5    1    3    3    0  502 -0.52569407979E+03 -0.89041264649E+03 -0.13186418949E+04  0.16757170058E+04  0.46999998093E+01 0. -1.
</event>
<event>
 5   0  0.5347280E-06  0.3236075E+04  0.7818609E-02  0.8179354E-01
       -2   -1    0    0    0  501  0.00000000000E+00  0.00000000000E+00  0.34141115324E+04  0.34141115324E+04  0.25500000920E-02 0. -1.
        2   -1    0    0  501    0  0.00000000000E+00  0.00000000000E+00 -0.76683071745E+03  0.76683071745E+03  0.25500000920E-02 0.  1.
    10030    2    1    2    0    0  0.00000000000E+00  0.00000000000E+00  0.26472808150E+04  0.41809422499E+04  0.32360751511E+04 0.  0.
        2    1    3    3  502    0  0.75726686497E+02 -0.15497564012E+04  0.19164972827E+04  0.24658550786E+04  0.25500000920E-02 0. -1.
       -2    1    3    3    0  502 -0.75726686497E+02  0.15497564012E+04  0.73078353225E+03  0.17150871713E+04  0.25500000920E-02 0.  1.
</event>
<event>
 5   0  0.5347280E-06  0.3166505E+04  0.7818609E-02  0.8197719E-01
       -2   -1    0    0    0  501  0.00000000000E+00  0.00000000000E+00  0.13076191200E+04  0.13076191200E+04  0.25500000920E-02 0. -1.
        2   -1    0    0  501    0  0.00000000000E+00  0.00000000000E+00 -0.19169872081E+04  0.19169872081E+04  0.25500000920E-02 0.  1.
    10030    2    1    2    0    0  0.00000000000E+00  0.00000000000E+00 -0.60936808810E+03  0.32246063281E+04  0.31665054089E+04 0.  0.
        2    1    3    3  502    0 -0.14063365189E+04 -0.72716789959E+03 -0.29291484715E+03  0.16100790870E+04  0.25500000920E-02 0. -1.
       -2    1    3    3    0  502  0.14063365189E+04  0.72716789959E+03 -0.31645324095E+03  0.16145272411E+04  0.25500000920E-02 0.  1.
</event>
<event>
 5   0  0.5373060E-06  0.3128704E+04  0.7818609E-02  0.8207904E-01
        2   -1    0    0  501    0  0.00000000000E+00  0.00000000000E+00  0.14290663161E+04  0.14290663161E+04  0.25500000920E-02 0.  1.
       -2   -1    0    0    0  501  0.00000000000E+00  0.00000000000E+00 -0.17124442872E+04  0.17124442872E+04  0.25500000920E-02 0. -1.
    10030    2    1    2    0    0  0.00000000000E+00  0.00000000000E+00 -0.28337797112E+03  0.31415106033E+04  0.31287035328E+04 0.  0.
        5    1    3    3  502    0  0.95272792249E+03  0.11690372986E+04  0.27574787231E+03  0.15331006747E+04  0.46999998093E+01 0.  1.
       -5    1    3    3    0  502 -0.95272792249E+03 -0.11690372986E+04 -0.55912584343E+03  0.16084099286E+04  0.46999998093E+01 0. -1.
</event>
<event>
 5   0  0.5108810E-06  0.3215159E+04  0.7818609E-02  0.8184825E-01
        2   -1    0    0  501    0  0.00000000000E+00  0.00000000000E+00  0.15633782832E+04  0.15633782832E+04  0.25500000920E-02 0. -1.
       -2   -1    0    0    0  501  0.00000000000E+00  0.00000000000E+00 -0.16530304260E+04  0.16530304260E+04  0.25500000920E-02 0.  1.
    10030    2    1    2    0    0  0.00000000000E+00  0.00000000000E+00 -0.89652142864E+02  0.32164087092E+04  0.32151590129E+04 0.  0.
        1    1    3    3  502    0 -0.13540363820E+04 -0.30963797876E+03 -0.85447473963E+03  0.16307719897E+04  0.50400001928E-02 0.  1.
       -1    1    3    3    0  502  0.13540363820E+04  0.30963797876E+03  0.76482259676E+03  0.15856367195E+04  0.50400001928E-02 0. -1.
</event>
<event>
 5   0  0.5347280E-06  0.3425026E+04  0.7818609E-02  0.8131791E-01
       -2   -1    0    0    0  501  0.00000000000E+00  0.00000000000E+00  0.14406585185E+04  0.14406585185E+04  0.25500000920E-02 0. -1.
        2   -1    0    0  501    0  0.00000000000E+00  0.00000000000E+00 -0.20356672741E+04  0.20356672741E+04  0.25500000920E-02 0.  1.
    10030    2    1    2    0    0  0.00000000000E+00  0.00000000000E+00 -0.59500875558E+03  0.34763257926E+04  0.34250263645E+04 0.  0.
        2    1    3    3  502    0 -0.15690725737E+04 -0.45125527693E+03  0.22703526871E+03  0.16483825648E+04  0.25500000920E-02 0. -1.
       -2    1    3    3    0  502  0.15690725737E+04  0.45125527693E+03 -0.82204402429E+03  0.18279432279E+04  0.25500000920E-02 0.  1.
</event>
<event>
 5   0  0.5108810E-06  0.3170833E+04  0.7818609E-02  0.8196563E-01
        2   -1    0    0  501    0  0.00000000000E+00  0.00000000000E+00  0.17514418524E+04  0.17514418524E+04  0.25500000920E-02 0.  1.
       -2   -1    0    0    0  501  0.00000000000E+00  0.00000000000E+00 -0.14351292034E+04  0.14351292034E+04  0.25500000920E-02 0. -1.
    10030    2    1    2    0    0  0.00000000000E+00  0.00000000000E+00  0.31631264895E+03  0.31865710558E+04  0.31708329192E+04 0.  0.
        1    1    3    3  502    0  0.18863356273E+03  0.91677120450E+03  0.14441534947E+04  0.17209390979E+04  0.50400001928E-02 0.  1.
       -1    1    3    3    0  502 -0.18863356273E+03 -0.91677120450E+03 -0.11278408458E+04  0.14656319578E+04  0.50400001928E-02 0. -1.
</event>
<event>
 5   0  0.1886248E-06  0.3206465E+04  0.7818609E-02  0.8187112E-01
        1   -1    0    0  501    0  0.00000000000E+00  0.00000000000E+00  0.16926423794E+04  0.16926423794E+04  0.50400001928E-02 0.  1.
       -1   -1    0    0    0  501  0.00000000000E+00  0.00000000000E+00 -0.15185458693E+04  0.15185458693E+04  0.50400001928E-02 0. -1.
    10030    2    1    2    0    0  0.00000000000E+00  0.00000000000E+00  0.17409651009E+03  0.32111882486E+04  0.32064654019E+04 0.  0.
        4    1    3    3  502    0 -0.12518664383E+04 -0.71060345791E+03  0.79393961678E+03  0.16439186664E+04  0.12699999809E+01 0.  1.
       -4    1    3    3    0  502  0.12518664383E+04  0.71060345791E+03 -0.61984310669E+03  0.15672695823E+04  0.12699999809E+01 0. -1.
</event>
<event>
 5   0  0.1886248E-06  0.2527802E+04  0.7818609E-02  0.8393147E-01
        1   -1    0    0  501    0  0.00000000000E+00  0.00000000000E+00  0.13351718893E+04  0.13351718893E+04  0.50400001928E-02 0. -1.
       -1   -1    0    0    0  501  0.00000000000E+00  0.00000000000E+00 -0.11964349673E+04  0.11964349673E+04  0.50400001928E-02 0.  1.
    10030    2    1    2    0    0  0.00000000000E+00  0.00000000000E+00  0.13873692198E+03  0.25316068566E+04  0.25278024731E+04 0.  0.
        4    1    3    3  502    0  0.32197242252E+02  0.10094120150E+04  0.83044337999E+03  0.13075117968E+04  0.12699999809E+01 0. -1.
       -4    1    3    3    0  502 -0.32197242252E+02 -0.10094120150E+04 -0.69170645802E+03  0.12240950598E+04  0.12699999809E+01 0.  1.
</event>
<event>
 5   0  0.1886248E-06  0.3177058E+04  0.7818609E-02  0.8194902E-01
        1   -1    0    0  501    0  0.00000000000E+00  0.00000000000E+00  0.23838672429E+04  0.23838672429E+04  0.50400001928E-02 0. -1.
       -1   -1    0    0    0  501  0.00000000000E+00  0.00000000000E+00 -0.10585424372E+04  0.10585424372E+04  0.50400001928E-02 0.  1.
    10030    2    1    2    0    0  0.00000000000E+00  0.00000000000E+00  0.13253248057E+04  0.34424096801E+04  0.31770581620E+04 0.  0.
        4    1    3    3  502    0  0.58698838374E+03  0.14242802012E+04  0.10827187925E+04  0.18829261936E+04  0.12699999809E+01 0. -1.
       -4    1    3    3    0  502 -0.58698838374E+03 -0.14242802012E+04  0.24260601324E+03  0.15594834865E+04  0.12699999809E+01 0.  1.
</event>
<event>
 5   0  0.5121624E-06  0.2528124E+04  0.7818609E-02  0.8393034E-01
       -2   -1    0    0    0  501  0.00000000000E+00  0.00000000000E+00  0.81193004823E+03  0.81193004824E+03  0.25500000920E-02 0. -1.
        2   -1    0    0  501    0  0.00000000000E+00  0.00000000000E+00 -0.19679690707E+04  0.19679690707E+04  0.25500000920E-02 0.  1.
    10030    2    1    2    0    0  0.00000000000E+00  0.00000000000E+00 -0.11560390224E+04  0.27798991189E+04  0.25281243818E+04 0.  0.
        4    1    3    3  502    0  0.64893244334E+03 -0.60481662870E+02 -0.17689720719E+04  0.18852148821E+04  0.12699999809E+01 0.  1.
       -4    1    3    3    0  502 -0.64893244334E+03  0.60481662870E+02  0.61293304947E+03  0.89468423681E+03  0.12699999809E+01 0. -1.
</event>
<event>
 5   0  0.1846850E-06  0.3102029E+04  0.7818609E-02  0.8215181E-01
        1   -1    0    0  501    0  0.00000000000E+00  0.00000000000E+00  0.15782774476E+04  0.15782774476E+04  0.50400001928E-02 0. -1.
       -1   -1    0    0    0  501  0.00000000000E+00  0.00000000000E+00 -0.15242224752E+04  0.15242224752E+04  0.50400001928E-02 0.  1.
    10030    2    1    2    0    0  0.00000000000E+00  0.00000000000E+00  0.54054972399E+02  0.31024999228E+04  0.31020289861E+04 0.  0.
        5    1    3    3  502    0 -0.85857919563E+02 -0.54678937129E+03  0.14761344949E+04  0.15764978071E+04  0.46999998093E+01 0. -1.
       -5    1    3    3    0  502  0.85857919563E+02  0.54678937129E+03 -0.14220795225E+04  0.15260021157E+04  0.46999998093E+01 0.  1.
</event>
<event>
 5   0  0.1969465E-06  0.3082453E+04  0.7818609E-02  0.8220570E-01
        1   -1    0    0  501    0  0.00000000000E+00  0.00000000000E+00  0.20607470112E+04  0.20607470113E+04  0.50400001928E-02 0. -1.
       -1   -1    0    0    0  501  0.00000000000E+00  0.00000000000E+00 -0.11526785860E+04  0.11526785861E+04  0.50400001928E-02 0.  1.
    10030    2    1    2    0    0  0.00000000000E+00  0.00000000000E+00  0.90806842520E+03  0.32134255973E+04  0.30824528877E+04 0.  0.
        2    1    3    3  502    0  0.89600769789E+03  0.11080685629E+03 -0.84814818121E+03  0.12387345524E+04  0.25500000920E-02 0.  1.
       -2    1    3    3    0  502 -0.89600769789E+03 -0.11080685629E+03  0.17562166064E+04  0.19746910449E+04  0.25500000920E-02 0. -1.
</event>
<event>
 5   0  0.1886248E-06  0.3064856E+04  0.7818609E-02  0.8225450E-01
       -1   -1    0    0    0  501  0.00000000000E+00  0.00000000000E+00  0.89139727513E+03  0.89139727515E+03  0.50400001928E-02 0.  1.
        1   -1    0    0  501    0  0.00000000000E+00  0.00000000000E+00 -0.26344429039E+04  0.26344429039E+04  0.50400001928E-02 0. -1.
    10030    2    1    2    0    0  0.00000000000E+00  0.00000000000E+00 -0.17430456288E+04  0.35258401791E+04  0.30648557722E+04 0.  0.
        4    1    3    3  502    0 -0.44349607087E+03  0.11873579734E+04  0.11931728446E+03  0.12730852089E+04  0.12699999809E+01 0.  1.
       -4    1    3    3    0  502  0.44349607087E+03 -0.11873579734E+04 -0.18623629133E+04  0.22527549701E+04  0.12699999809E+01 0. -1.
</event>
<event>
 5   0  0.1886248E-06  0.2830818E+04  0.7818609E-02  0.8293764E-01
       -1   -1    0    0    0  501  0.00000000000E+00  0.00000000000E+00  0.80899954277E+03  0.80899954278E+03  0.50400001928E-02 0. -1.
        1   -1    0    0  501    0  0.00000000000E+00  0.00000000000E+00 -0.24763713688E+04  0.24763713688E+04  0.50400001928E-02 0.  1.
    10030    2    1    2    0    0  0.00000000000E+00  0.00000000000E+00 -0.16673718260E+04  0.32853709116E+04  0.28308184718E+04 0.  0.
        4    1    3    3  502    0  0.99485219144E+03 -0.13752643004E+03 -0.19912008027E+04  0.22301405003E+04  0.12699999809E+01 0.  1.
       -4    1    3    3    0  502 -0.99485219144E+03  0.13752643004E+03  0.32382897665E+03  0.10552304112E+04  0.12699999809E+01 0. -1.
</event>
<event>
 5   0  0.5131083E-06  0.3166987E+04  0.7818609E-02  0.8197591E-01
        2   -1    0    0  501    0  0.00000000000E+00  0.00000000000E+00  0.12730754616E+04  0.12730754616E+04  0.25500000920E-02 0.  1.
       -2   -1    0    0    0  501  0.00000000000E+00  0.00000000000E+00 -0.19696020098E+04  0.19696020098E+04  0.25500000920E-02 0. -1.
    10030    2    1    2    0    0  0.00000000000E+00  0.00000000000E+00 -0.69652654819E+03  0.32426774715E+04  0.31669872042E+04 0.  0.
        3    1    3    3  502    0  0.56507802527E+03 -0.11193278244E+03  0.11619836308E+04  0.12969379673E+04  0.10100000352E+00 0.  1.
       -3    1    3    3    0  502 -0.56507802527E+03  0.11193278244E+03 -0.18585101790E+04  0.19457395042E+04  0.10100000352E+00 0. -1.
</event>
<event>
 5   0  0.1969465E-06  0.3270532E+04  0.7818609E-02  0.8170434E-01
       -1   -1    0    0    0  501  0.00000000000E+00  0.00000000000E+00  0.14692400479E+04  0.14692400480E+04  0.50400001928E-02 0. -1.
        1   -1    0    0  501    0  0.00000000000E+00  0.00000000000E+00 -0.18200526862E+04  0.18200526862E+04  0.50400001928E-02 0.  1.
    10030    2    1    2    0    0  0.00000000000E+00  0.00000000000E+00 -0.35081263821E+03  0.32892927341E+04  0.32705316362E+04 0.  0.
        2    1    3    3  502    0 -0.13064997571E+03  0.78688504306E+03  0.12603107790E+04  0.14915229622E+04  0.25500000920E-02 0. -1.
       -2    1    3    3    0  502  0.13064997571E+03 -0.78688504306E+03 -0.16111234172E+04  0.17977697719E+04  0.25500000920E-02 0.  1.
</event>
<event>
 5   0  0.5131083E-06  0.3173365E+04  0.7818609E-02  0.8195887E-01
       -2   -1    0    0    0  501  0.00000000000E+00  0.00000000000E+00  0.15124665918E+04  0.15124665918E+04  0.25500000920E-02 0. -1.
        2   -1    0    0  501    0  0.00000000000E+00  0.00000000000E+00 -0.16645405469E+04  0.16645405469E+04  0.25500000920E-02 0.  1.
    10030    2    1    2    0    0  0.00000000000E+00  0.00000000000E+00 -0.15207395513E+03  0.31770071387E+04  0.31733653858E+04 0.  0.
        3    1    3    3  502    0  0.18553668736E+03 -0.65255792819E+03  0.13599403492E+04  0.15197675729E+04  0.10100000352E+00 0. -1.
       -3    1    3    3    0  502 -0.18553668736E+03  0.65255792819E+03 -0.15120143043E+04  0.16572395659E+04  0.10100000352E+00 0.  1.
</event>
<event>
 5   0  0.1846850E-06  0.3168993E+04  0.7818609E-02  0.8197054E-01
       -1   -1    0    0    0  501  0.00000000000E+00  0.00000000000E+00  0.12559599872E+04  0.12559599872E+04  0.50400001928E-02 0.  1.
        1   -1    0    0  501    0  0.00000000000E+00  0.00000000000E+00 -0.19989725706E+04  0.19989725706E+04  0.50400001928E-02 0. -1.
    10030    2    1    2    0    0  0.00000000000E+00  0.00000000000E+00 -0.74301258342E+03  0.32549325578E+04  0.31689932560E+04 0.  0.
        5    1    3    3  502    0 -0.12601223904E+04  0.58701448891E+03 -0.11524631742E+04  0.18057374967E+04  0.46999998093E+01 0. -1.
       -5    1    3    3    0  502  0.12601223904E+04 -0.58701448891E+03  0.40945059074E+03  0.14491950612E+04  0.46999998093E+01 0.  1.
</event>
<event>
 5   0  0.5131083E-06  0.3199092E+04  0.7818609E-02  0.8189057E-01
       -2   -1    0    0    0  501  0.00000000000E+00  0.00000000000E+00  0.13678166503E+04  0.13678166503E+04  0.25500000920E-02 0. -1.
        2   -1    0    0  501    0  0.00000000000E+00  0.00000000000E+00 -0.18705338507E+04  0.18705338507E+04  0.25500000920E-02 0.  1.
    10030    2    1    2    0    0  0.00000000000E+00  0.00000000000E+00 -0.50271720036E+03  0.32383505010E+04  0.31990919624E+04 0.  0.
        3    1    3    3  502    0 -0.18236825843E+03  0.11246633942E+04  0.88510364560E+03  0.14427523715E+04  0.10100000352E+00 0.  1.
       -3    1    3    3    0  502  0.18236825843E+03 -0.11246633942E+04 -0.13878208460E+04  0.17955981295E+04  0.10100000352E+00 0. -1.
</event>
<event>
 5   0  0.1881144E-06  0.3219518E+04  0.7818609E-02  0.8183682E-01
       -1   -1    0    0    0  501  0.00000000000E+00  0.00000000000E+00  0.15039712838E+04  0.15039712838E+04  0.50400001928E-02 0.  1.
        1   -1    0    0  501    0  0.00000000000E+00  0.00000000000E+00 -0.17229874664E+04  0.17229874664E+04  0.50400001928E-02 0. -1.
    10030    2    1    2    0    0  0.00000000000E+00  0.00000000000E+00 -0.21901618258E+03  0.32269587501E+04  0.32195177724E+04 0.  0.
        3    1    3    3  502    0  0.15068023330E+04 -0.53386938831E+03 -0.29929689479E+03  0.16263604877E+04  0.10100000352E+00 0.  1.
       -3    1    3    3    0  502 -0.15068023330E+04  0.53386938831E+03  0.80280712213E+02  0.16005982624E+04  0.10100000352E+00 0. -1.
</event>
<event>
 5   0  0.1846850E-06  0.3222031E+04  0.7818609E-02  0.8183023E-01
       -1   -1    0    0    0  501  0.00000000000E+00  0.00000000000E+00  0.14496839029E+04  0.14496839029E+04  0.50400001928E-02 0. -1.
        1   -1    0    0  501    0  0.00000000000E+00  0.00000000000E+00 -0.17903009647E+04  0.17903009648E+04  0.50400001928E-02 0.  1.
    10030    2    1    2    0    0  0.00000000000E+00  0.00000000000E+00 -0.34061706186E+03  0.32399848677E+04  0.32220307199E+04 0.  0.
        5    1    3    3  502    0 -0.44283113102E+03 -0.12252998946E+04 -0.11231588170E+04  0.17201648353E+04  0.46999998093E+01 0.  1.
       -5    1    3    3    0  502  0.44283113102E+03  0.12252998946E+04  0.78254175511E+03  0.15198200324E+04  0.46999998093E+01 0. -1.
</event>
<event>
 5   0  0.5131083E-06  0.3200438E+04  0.7818609E-02  0.8188702E-01
       -2   -1    0    0    0  501  0.00000000000E+00  0.00000000000E+00  0.15151959855E+04  0.15151959855E+04  0.25500000920E-02 0.  1.
        2   -1    0    0  501    0  0.00000000000E+00  0.00000000000E+00 -0.16900125248E+04  0.16900125248E+04  0.25500000920E-02 0. -1.
    10030    2    1    2    0    0  0.00000000000E+00  0.00000000000E+00 -0.17481653926E+03  0.32052085103E+04  0.32004375907E+04 0.  0.
        3    1    3    3  502    0 -0.46576688847E+03 -0.19643359749E+03 -0.16079519361E+04  0.16855368259E+04  0.10100000352E+00 0. -1.
       -3    1    3    3    0  502  0.46576688847E+03  0.19643359749E+03  0.14331353968E+04  0.15196716844E+04  0.10100000352E+00 0.  1.
</event>
<event>
 5   0  0.1881144E-06  0.3170046E+04  0.7818609E-02  0.8196773E-01
       -1   -1    0    0    0  501  0.00000000000E+00  0.00000000000E+00  0.12962415872E+04  0.12962415872E+04  0.50400001928E-02 0. -1.
        1   -1    0    0  501    0  0.00000000000E+00  0.00000000000E+00 -0.19381400217E+04  0.19381400217E+04  0.50400001928E-02 0.  1.
    10030    2    1    2    0    0  0.00000000000E+00  0.00000000000E+00 -0.64189843445E+03  0.32343816089E+04  0.31700458659E+04 0.  0.
        3    1    3    3  502    0  0.67881702253E+03  0.88563994830E+03 -0.14694709467E+04  0.18451275136E+04  0.10100000352E+00 0.  1.
       -3    1    3    3    0  502 -0.67881702253E+03 -0.88563994830E+03  0.82757251223E+03  0.13892540953E+04  0.10100000352E+00 0. -1.
</event>
<event>
 5   0  0.1969465E-06  0.2690860E+04  0.7818609E-02  0.8337977E-01
        1   -1    0    0  501    0  0.00000000000E+00  0.00000000000E+00  0.16314104656E+04  0.16314104656E+04  0.50400001928E-02 0.  1.
       -1   -1    0    0    0  501  0.00000000000E+00  0.00000000000E+00 -0.11095811216E+04  0.11095811216E+04  0.50400001928E-02 0. -1.
    10030    2    1    2    0    0  0.00000000000E+00  0.00000000000E+00  0.52182934400E+03  0.27409915871E+04  0.26908602744E+04 0.  0.
        2    1    3    3  502    0  0.42642253234E+02  0.25229208710E+03  0.16063985662E+04  0.16266487060E+04  0.25500000920E-02 0.  1.
       -2    1    3    3    0  502 -0.42642253234E+02 -0.25229208710E+03 -0.10845692223E+04  0.11143428812E+04  0.25500000920E-02 0. -1.
</event>
<event>
 5   0  0.5347280E-06  0.3370787E+04  0.7818609E-02  0.8145114E-01
       -2   -1    0    0    0  501  0.00000000000E+00  0.00000000000E+00  0.13345209401E+04  0.13345209401E+04  0.25500000920E-02 0. -1.
        2   -1    0    0  501    0  0.00000000000E+00  0.00000000000E+00 -0.21285176768E+04  0.21285176768E+04  0.25500000920E-02 0.  1.
    10030    2    1    2    0    0  0.00000000000E+00  0.00000000000E+00 -0.79399673676E+03  0.34630386169E+04  0.33707870956E+04 0.  0.
        2    1    3    3  502    0  0.62570919005E+03  0.15551023315E+04 -0.21700022269E+03  0.16902497888E+04  0.25500000920E-02 0.  1.
       -2    1    3    3    0  502 -0.62570919005E+03 -0.15551023315E+04 -0.57699651406E+03  0.17727888281E+04  0.25500000920E-02 0. -1.
</event>
<event>
 5   0  0.5347280E-06  0.3244591E+04  0.7818609E-02  0.8177139E-01
        2   -1    0    0  501    0  0.00000000000E+00  0.00000000000E+00  0.12099792534E+04  0.12099792534E+04  0.25500000920E-02 0.  1.
       -2   -1    0    0    0  501  0.00000000000E+00  0.00000000000E+00 -0.21751132584E+04  0.21751132584E+04  0.25500000920E-02 0. -1.
    10030    2    1    2    0    0  0.00000000000E+00  0.00000000000E+00 -0.96513400499E+03  0.33850925119E+04  0.32445905237E+04 0.  0.
        2    1    3    3  502    0 -0.14031568479E+04 -0.54158433725E+03 -0.11169085309E+04  0.18734052953E+04  0.25500000920E-02 0. -1.
       -2    1    3    3    0  502  0.14031568479E+04  0.54158433725E+03  0.15177452591E+03  0.15116872166E+04  0.25500000920E-02 0.  1.
</event>
<event>
 5   0  0.5121624E-06  0.3207894E+04  0.7818609E-02  0.8186735E-01
       -2   -1    0    0    0  501  0.00000000000E+00  0.00000000000E+00  0.18663135641E+04  0.18663135641E+04  0.25500000920E-02 0. -1.
        2   -1    0    0  501    0  0.00000000000E+00  0.00000000000E+00 -0.13784642718E+04  0.13784642718E+04  0.25500000920E-02 0.  1.
    10030    2    1    2    0    0  0.00000000000E+00  0.00000000000E+00  0.48784929235E+03  0.32447778359E+04  0.32078943674E+04 0.  0.
        4    1    3    3  502    0  0.14459229576E+04  0.11566292594E+03  0.93631965518E+03  0.17264898556E+04  0.12699999809E+01 0. -1.
       -4    1    3    3    0  502 -0.14459229576E+04 -0.11566292594E+03 -0.44847036283E+03  0.15182879803E+04  0.12699999809E+01 0.  1.
</event>
<event>
 5   0  0.5108810E-06  0.3053379E+04  0.7818609E-02  0.8228650E-01
       -2   -1    0    0    0  501  0.00000000000E+00  0.00000000000E+00  0.13413389460E+04  0.13413389460E+04  0.25500000920E-02 0. -1.
        2   -1    0    0  501    0  0.00000000000E+00  0.00000000000E+00 -0.17376519588E+04  0.17376519588E+04  0.25500000920E-02 0.  1.
    10030    2    1    2    0    0  0.00000000000E+00  0.00000000000E+00 -0.39631301288E+03  0.30789909048E+04  0.30533786184E+04 0.  0.
        1    1    3    3  502    0  0.84544369613E+02 -0.13456017141E+04  0.52408354866E+03  0.14465321598E+04  0.50400001928E-02 0. -1.
       -1    1    3    3    0  502 -0.84544369613E+02  0.13456017141E+04 -0.92039656154E+03  0.16324587450E+04  0.50400001928E-02 0.  1.
</event>
<event>
 5   0  0.5373060E-06  0.2181961E+04  0.7818609E-02  0.8525974E-01
        2   -1    0    0  501    0  0.00000000000E+00  0.00000000000E+00  0.22311919528E+04  0.22311919528E+04  0.25500000920E-02 0. -1.
       -2   -1    0    0    0  501  0.00000000000E+00  0.00000000000E+00 -0.53345420114E+03  0.53345420115E+03  0.25500000920E-02 0.  1.
    10030    2    1    2    0    0  0.00000000000E+00  0.00000000000E+00  0.16977377516E+04  0.27646461539E+04  0.21819612469E+04 0.  0.
        5    1    3    3  502    0 -0.34594577101E+03  0.75477500487E+03  0.17455697520E+04  0.19329768839E+04  0.46999998093E+01 0. -1.
       -5    1    3    3    0  502  0.34594577101E+03 -0.75477500487E+03 -0.47832000386E+02  0.83166927004E+03  0.46999998093E+01 0.  1.
</event>
<event>
 5   0  0.5121624E-06  0.2998627E+04  0.7818609E-02  0.8244123E-01
        2   -1    0    0  501    0  0.00000000000E+00  0.00000000000E+00  0.15681160802E+04  0.15681160802E+04  0.25500000920E-02 0. -1.
       -2   -1    0    0    0  501  0.00000000000E+00  0.00000000000E+00 -0.14335295267E+04  0.14335295267E+04  0.25500000920E-02 0.  1.
    10030    2    1    2    0    0  0.00000000000E+00  0.00000000000E+00  0.13458655347E+03  0.30016456069E+04  0.29986268206E+04 0.  0.
        4    1    3    3  502    0  0.75112045310E+03 -0.38554206251E+03 -0.11729514160E+04  0.14452132211E+04  0.12699999809E+01 0.  1.
       -4    1    3    3    0  502 -0.75112045310E+03  0.38554206251E+03  0.13075379695E+04  0.15564323858E+04  0.12699999809E+01 0. -1.
</event>
<event>
 5   0  0.5108810E-06  0.3245190E+04  0.7818609E-02  0.8176983E-01
        2   -1    0    0  501    0  0.00000000000E+00  0.00000000000E+00  0.15683065973E+04  0.15683065973E+04  0.25500000920E-02 0. -1.
       -2   -1    0    0    0  501  0.00000000000E+00  0.00000000000E+00 -0.16787631333E+04  0.16787631333E+04  0.25500000920E-02 0.  1.
    10030    2    1    2    0    0  0.00000000000E+00  0.00000000000E+00 -0.11045653597E+03  0.32470697306E+04  0.32451904704E+04 0.  0.
        1    1    3    3  502    0 -0.27350698330E+03 -0.14186499163E+04 -0.79419616030E+03  0.16486725557E+04  0.50400001928E-02 0.  1.
       -1    1    3    3    0  502  0.27350698330E+03  0.14186499163E+04  0.68373962433E+03  0.15983971749E+04  0.50400001928E-02 0. -1.
</event>
<event>
 5   0  0.1881144E-06  0.3204858E+04  0.7818609E-02  0.8187535E-01
       -1   -1    0    0    0  501  0.00000000000E+00  0.00000000000E+00  0.11933649834E+04  0.11933649834E+04  0.50400001928E-02 0. -1.
        1   -1    0    0  501    0  0.00000000000E+00  0.00000000000E+00 -0.21517129503E+04  0.21517129504E+04  0.50400001928E-02 0.  1.
    10030    2    1    2    0    0  0.00000000000E+00  0.00000000000E+00 -0.95834796696E+03  0.33450779337E+04  0.32048581181E+04 0.  0.
        3    1    3    3  502    0  0.10700948375E+04 -0.29216235725E+02  0.76539822234E+03  0.13159753032E+04  0.10100000352E+00 0. -1.
       -3    1    3    3    0  502 -0.10700948375E+04  0.29216235725E+02 -0.17237461893E+04  0.20291026305E+04  0.10100000352E+00 0.  1.
</event>
<event>
 5   0  0.5373060E-06  0.3169371E+04  0.7818609E-02  0.8196953E-01
        2   -1    0    0  501    0  0.00000000000E+00  0.00000000000E+00  0.17187143732E+04  0.17187143732E+04  0.25500000920E-02 0. -1.
       -2   -1    0    0    0  501  0.00000000000E+00  0.00000000000E+00 -0.14611086987E+04  0.14611086987E+04  0.25500000920E-02 0.  1.
    10030    2    1    2    0    0  0.00000000000E+00  0.00000000000E+00  0.25760567451E+03  0.31798230720E+04  0.31693712445E+04 0.  0.
        5    1    3    3  502    0  0.78207705612E+03 -0.61599921946E+03  0.13657948743E+04  0.16901234537E+04  0.46999998093E+01 0. -1.
       -5    1    3    3    0  502 -0.78207705612E+03  0.61599921946E+03 -0.11081891998E+04  0.14896996183E+04  0.46999998093E+01 0.  1.
</event>
<event>
 5   0  0.1886248E-06  0.3181726E+04  0.7818609E-02  0.8193660E-01
        1   -1    0    0  501    0  0.00000000000E+00  0.00000000000E+00  0.17601401112E+04  0.17601401112E+04  0.50400001928E-02 0. -1.
       -1   -1    0    0    0  501  0.00000000000E+00  0.00000000000E+00 -0.14378661275E+04  0.14378661275E+04  0.50400001928E-02 0.  1.
    10030    2    1    2    0    0  0.00000000000E+00  0.00000000000E+00  0.32227398370E+03  0.31980062388E+04  0.31817264783E+04 0.  0.
        4    1    3    3  502    0 -0.38839889468E+03 -0.20799225910E+03 -0.13753210629E+04  0.14441690068E+04  0.12699999809E+01 0.  1.
       -4    1    3    3    0  502  0.38839889468E+03  0.20799225910E+03  0.16975950466E+04  0.17538372320E+04  0.12699999809E+01 0. -1.
</event>
<event>
 5   0  0.5108810E-06  0.3272363E+04  0.7818609E-02  0.8169963E-01
        2   -1    0    0  501    0  0.00000000000E+00  0.00000000000E+00  0.27906370739E+04  0.27906370739E+04  0.25500000920E-02 0.  1.
       -2   -1    0    0    0  501  0.00000000000E+00  0.00000000000E+00 -0.95931160997E+03  0.95931160997E+03  0.25500000920E-02 0. -1.
    10030    2    1    2    0    0  0.00000000000E+00  0.00000000000E+00  0.18313254639E+04  0.37499486838E+04  0.32723633931E+04 0.  0.
        1    1    3    3  502    0 -0.11056485327E+04 -0.84236559204E+03  0.19048012485E+04  0.23580301663E+04  0.50400001928E-02 0.  1.
       -1    1    3    3    0  502  0.11056485327E+04  0.84236559204E+03 -0.73475784624E+02  0.13919185176E+04  0.50400001928E-02 0. -1.
</event>
<event>
 5   0  0.5347280E-06  0.3172784E+04  0.7818609E-02  0.8196042E-01
       -2   -1    0    0    0  501  0.00000000000E+00  0.00000000000E+00  0.12170378725E+04  0.12170378725E+04  0.25500000920E-02 0.  1.
        2   -1    0    0  501    0  0.00000000000E+00  0.00000000000E+00 -0.20678395063E+04  0.20678395063E+04  0.25500000920E-02 0. -1.
    10030    2    1    2    0    0  0.00000000000E+00  0.00000000000E+00 -0.85080163384E+03  0.32848773788E+04  0.31727836317E+04 0.  0.
        2    1    3    3  502    0 -0.12371044603E+04  0.99308105883E+03 -0.42410842768E+03  0.16421039533E+04  0.25500000920E-02 0.  1.
       -2    1    3    3    0  502  0.12371044603E+04 -0.99308105883E+03 -0.42669320615E+03  0.16427734254E+04  0.25500000920E-02 0. -1.
</event>
<event>
 5   0  0.1846850E-06  0.3152912E+04  0.7818609E-02  0.8201365E-01
       -1   -1    0    0    0  501  0.00000000000E+00  0.00000000000E+00  0.17237521273E+04  0.17237521273E+04  0.50400001928E-02 0. -1.
        1   -1    0    0  501    0  0.00000000000E+00  0.00000000000E+00 -0.14417465297E+04  0.14417465297E+04  0.50400001928E-02 0.  1.
    10030    2    1    2    0    0  0.00000000000E+00  0.00000000000E+00  0.28200559762E+03  0.31654986571E+04  0.31529120810E+04 0.  0.
        5    1    3    3  502    0  0.55558940170E+03  0.11558084474E+04 -0.77950998483E+03  0.15007433681E+04  0.46999998093E+01 0.  1.
       -5    1    3    3    0  502 -0.55558940170E+03 -0.11558084474E+04  0.10615155825E+04  0.16647552890E+04  0.46999998093E+01 0. -1.
</event>
<event>
 5   0  0.5121624E-06  0.3104619E+04  0.7818609E-02  0.8214471E-01
        2   -1    0    0  501    0  0.00000000000E+00  0.00000000000E+00  0.93744887203E+03  0.93744887203E+03  0.25500000920E-02 0. -1.
       -2   -1    0    0    0  501  0.00000000000E+00  0.00000000000E+00 -0.25704498462E+04  0.25704498462E+04  0.25500000920E-02 0.  1.
    10030    2    1    2    0    0  0.00000000000E+00  0.00000000000E+00 -0.16330009742E+04  0.35078987182E+04  0.31046193383E+04 0.  0.
        4    1    3    3  502    0 -0.36916456834E+03 -0.13064462398E+04  0.33989280395E+02  0.13580284018E+04  0.12699999809E+01 0. -1.
       -4    1    3    3    0  502  0.36916456834E+03  0.13064462398E+04 -0.16669902546E+04  0.21498703165E+04  0.12699999809E+01 0.  1.
</event>
<event>
 5   0  0.5373060E-06  0.2384716E+04  0.7818609E-02  0.8445248E-01
        2   -1    0    0  501    0  0.00000000000E+00  0.00000000000E+00  0.19198445251E+04  0.19198445251E+04  0.25500000920E-02 0.  1.
       -2   -1    0    0    0  501  0.00000000000E+00  0.00000000000E+00 -0.74053780290E+03  0.74053780290E+03  0.25500000920E-02 0. -1.
    10030    2    1    2    0    0  0.00000000000E+00  0.00000000000E+00  0.11793067222E+04  0.26603823280E+04  0.23847158712E+04 0.  0.
        5    1    3    3  502    0 -0.73795931441E+03 -0.88429335091E+02  0.16297894585E+04  0.17912675584E+04  0.46999998093E+01 0.  1.
       -5    1    3    3    0  502  0.73795931441E+03  0.88429335091E+02 -0.45048273624E+03  0.86911476957E+03  0.46999998093E+01 0. -1.
</event>
<event>
 5   0  0.1886248E-06  0.2078185E+04  0.7818609E-02  0.8570914E-01
       -1   -1    0    0    0  501  0.00000000000E+00  0.00000000000E+00  0.53175883394E+03  0.53175883397E+03  0.50400001928E-02 0. -1.
        1   -1    0    0  501    0  0.00000000000E+00  0.00000000000E+00 -0.20304569317E+04  0.20304569318E+04  0.50400001928E-02 0.  1.
    10030    2    1    2    0    0  0.00000000000E+00  0.00000000000E+00 -0.14986980978E+04  0.25622157657E+04  0.20781851798E+04 0.  0.
        4    1    3    3  502    0  0.56808511683E+02 -0.10300023003E+04 -0.59545808574E+03  0.11910935691E+04  0.12699999809E+01 0. -1.
       -4    1    3    3    0  502 -0.56808511683E+02  0.10300023003E+04 -0.90324001206E+03  0.13711221966E+04  0.12699999809E+01 0.  1.
</event>
<event>
 5   0  0.5108810E-06  0.2930381E+04  0.7818609E-02  0.8263895E-01
       -2   -1    0    0    0  501  0.00000000000E+00  0.00000000000E+00  0.12564332765E+04  0.12564332765E+04  0.25500000920E-02 0. -1.
        2   -1    0    0  501    0  0.00000000000E+00  0.00000000000E+00 -0.17086328362E+04  0.17086328362E+04  0.25500000920E-02 0.  1.
    10030    2    1    2    0    0  0.00000000000E+00  0.00000000000E+00 -0.45219955969E+03  0.29650661128E+04  0.29303809669E+04 0.  0.
        1    1    3    3  502    0 -0.40871343816E+03  0.11730357533E+04 -0.10122931424E+04  0.16024346973E+04  0.50400001928E-02 0.  1.
       -1    1    3    3    0  502  0.40871343816E+03 -0.11730357533E+04  0.56009358271E+03  0.13626314155E+04  0.50400001928E-02 0. -1.
</event>
<event>
 5   0  0.1846850E-06  0.3145701E+04  0.7818609E-02  0.8203306E-01
       -1   -1    0    0    0  501  0.00000000000E+00  0.00000000000E+00  0.15050365058E+04  0.15050365058E+04  0.50400001928E-02 0.  1.
        1   -1    0    0  501    0  0.00000000000E+00  0.00000000000E+00 -0.16437197800E+04  0.16437197800E+04  0.50400001928E-02 0. -1.
    10030    2    1    2    0    0  0.00000000000E+00  0.00000000000E+00 -0.13868327419E+03  0.31487562858E+04  0.31457007323E+04 0.  0.
        5    1    3    3  502    0 -0.82426487892E+03 -0.13383363528E+04 -0.12019962198E+02  0.15718534770E+04  0.46999998093E+01 0.  1.
       -5    1    3    3    0  502  0.82426487892E+03  0.13383363528E+04 -0.12666331200E+03  0.15769028088E+04  0.46999998093E+01 0. -1.
</event>
<event>
 5   0  0.1881144E-06  0.2726013E+04  0.7818609E-02  0.8326614E-01
       -1   -1    0    0    0  501  0.00000000000E+00  0.00000000000E+00  0.12284975883E+04  0.12284975883E+04  0.50400001928E-02 0. -1.
        1   -1    0    0  501    0  0.00000000000E+00  0.00000000000E+00 -0.15122433079E+04  0.15122433079E+04  0.50400001928E-02 0.  1.
    10030    2    1    2    0    0  0.00000000000E+00  0.00000000000E+00 -0.28374571958E+03  0.27407408962E+04  0.27260133944E+04 0.  0.
        3    1    3    3  502    0 -0.62623465053E+03  0.10546605729E+04 -0.73948172103E+03  0.14322401989E+04  0.10100000352E+00 0.  1.
       -3    1    3    3    0  502  0.62623465053E+03 -0.10546605729E+04  0.45573600145E+03  0.13085006973E+04  0.10100000352E+00 0. -1.
</event>
<event>
 5   0  0.1881144E-06  0.3161184E+04  0.7818609E-02  0.8199144E-01
        1   -1    0    0  501    0  0.00000000000E+00  0.00000000000E+00  0.12425750725E+04  0.12425750725E+04  0.50400001928E-02 0. -1.
       -1   -1    0    0    0  501  0.00000000000E+00  0.00000000000E+00 -0.20105599748E+04  0.20105599748E+04  0.50400001928E-02 0.  1.
    10030    2    1    2    0    0  0.00000000000E+00  0.00000000000E+00 -0.76798490232E+03  0.32531350473E+04  0.31611844024E+04 0.  0.
        3    1    3    3  502    0 -0.24481772786E+03 -0.44914683883E+02  0.12222803544E+04  0.12473661546E+04  0.10100000352E+00 0. -1.
       -3    1    3    3    0  502  0.24481772786E+03  0.44914683883E+02 -0.19902652567E+04  0.20057688927E+04  0.10100000352E+00 0.  1.
</event>
<event>
 5   0  0.1977015E-06  0.3195403E+04  0.7818609E-02  0.8190032E-01
        1   -1    0    0  501    0  0.00000000000E+00  0.00000000000E+00  0.20993171084E+04  0.20993171084E+04  0.50400001928E-02 0. -1.
       -1   -1    0    0    0  501  0.00000000000E+00  0.00000000000E+00 -0.12159427807E+04  0.12159427807E+04  0.50400001928E-02 0.  1.
    10030    2    1    2    0    0  0.00000000000E+00  0.00000000000E+00  0.88337432778E+03  0.33152598891E+04  0.31954026240E+04 0.  0.
        1    1    3    3  502    0 -0.45088426267E+03 -0.66656165398E+03 -0.99031937660E+03  0.12760617244E+04  0.50400001928E-02 0.  1.
       -1    1    3    3    0  502  0.45088426267E+03  0.66656165398E+03  0.18736937044E+04  0.20391981647E+04  0.50400001928E-02 0. -1.
</event>
<event>
 5   0  0.5131083E-06  0.3157736E+04  0.7818609E-02  0.8200069E-01
        2   -1    0    0  501    0  0.00000000000E+00  0.00000000000E+00  0.16224764290E+04  0.16224764290E+04  0.25500000920E-02 0.  1.
       -2   -1    0    0    0  501  0.00000000000E+00  0.00000000000E+00 -0.15364319894E+04  0.15364319894E+04  0.25500000920E-02 0. -1.
    10030    2    1    2    0    0  0.00000000000E+00  0.00000000000E+00  0.86044439589E+02  0.31589084184E+04  0.31577363333E+04 0.  0.
        3    1    3    3  502    0 -0.83942305763E+01 -0.97386978247E+03 -0.12001505440E+04  0.15455918461E+04  0.10100000352E+00 0. -1.
       -3    1    3    3    0  502  0.83942305763E+01  0.97386978247E+03  0.12861949836E+04  0.16133165723E+04  0.10100000352E+00 0.  1.
</event>
<event>
 5   0  0.1729500E-06  0.3272081E+04  0.7818609E-02  0.8170036E-01
        3   -1    0    0  501    0  0.00000000000E+00  0.00000000000E+00  0.89494037496E+03  0.89494038066E+03  0.10100000352E+00 0.  1.
       -3   -1    0    0    0  501  0.00000000000E+00  0.00000000000E+00 -0.29908461303E+04  0.29908461320E+04  0.10100000352E+00 0. -1.
    10030    2    1    2    0    0  0.00000000000E+00  0.00000000000E+00 -0.20959057553E+04  0.38857865126E+04  0.32720812775E+04 0.  0.
        1    1    3    3  502    0  0.75607904853E+03 -0.11064549945E+04 -0.21624435630E+04  0.25440244389E+04  0.50400001928E-02 0. -1.
       -1    1    3    3    0  502 -0.75607904853E+03  0.11064549945E+04  0.66537807737E+02  0.13417620737E+04  0.50400001928E-02 0.  1.
</event>
<event>
 5   0  0.5131083E-06  0.3198922E+04  0.7818609E-02  0.8189102E-01
        2   -1    0    0  501    0  0.00000000000E+00  0.00000000000E+00  0.10486989325E+04  0.10486989325E+04  0.25500000920E-02 0.  1.
       -2   -1    0    0    0  501  0.00000000000E+00  0.00000000000E+00 -0.24394761514E+04  0.24394761514E+04  0.25500000920E-02 0. -1.
    10030    2    1    2    0    0  0.00000000000E+00  0.00000000000E+00 -0.13907772189E+04  0.34881750839E+04  0.31989223410E+04 0.  0.
        3    1    3    3  502    0  0.57080158442E+03  0.30490375372E+03 -0.22903502579E+04  0.23800178701E+04  0.10100000352E+00 0. -1.
       -3    1    3    3    0  502 -0.57080158442E+03 -0.30490375372E+03  0.89957303904E+03  0.11081572138E+04  0.10100000352E+00 0.  1.
</event>
<event>
 5   0  0.5373060E-06  0.1958952E+04  0.7818609E-02  0.8626056E-01
       -2   -1    0    0    0  501  0.00000000000E+00  0.00000000000E+00  0.59678607003E+03  0.59678607003E+03  0.25500000920E-02 0.  1.
        2   -1    0    0  501    0  0.00000000000E+00  0.00000000000E+00 -0.16075658391E+04  0.16075658391E+04  0.25500000920E-02 0. -1.
    10030    2    1    2    0    0  0.00000000000E+00  0.00000000000E+00 -0.10107797691E+04  0.22043519091E+04  0.19589516578E+04 0.  0.
        5    1    3    3  502    0 -0.54017610258E+03  0.67307945989E+03 -0.10265795409E+04  0.13411613717E+04  0.46999998093E+01 0.  1.
       -5    1    3    3    0  502  0.54017610258E+03 -0.67307945989E+03  0.15799771839E+02  0.86319053743E+03  0.46999998093E+01 0. -1.
</event>
<event>
 5   0  0.1969465E-06  0.3171624E+04  0.7818609E-02  0.8196352E-01
        1   -1    0    0  501    0  0.00000000000E+00  0.00000000000E+00  0.13228311898E+04  0.13228311898E+04  0.50400001928E-02 0.  1.
       -1   -1    0    0    0  501  0.00000000000E+00  0.00000000000E+00 -0.19010743746E+04  0.19010743746E+04  0.50400001928E-02 0. -1.
    10030    2    1    2    0    0  0.00000000000E+00  0.00000000000E+00 -0.57824318477E+03  0.32239055644E+04  0.31716244903E+04 0.  0.
        2    1    3    3  502    0  0.14597299073E+04  0.53121173466E+03  0.35203981104E+02  0.15537813970E+04  0.25500000920E-02 0.  1.
       -2    1    3    3    0  502 -0.14597299073E+04 -0.53121173466E+03 -0.61344716588E+03  0.16701241674E+04  0.25500000920E-02 0. -1.
</event>
<event>
 5   0  0.1886248E-06  0.2508683E+04  0.7818609E-02  0.8399899E-01
       -1   -1    0    0    0  501  0.00000000000E+00  0.00000000000E+00  0.28569748249E+04  0.28569748249E+04  0.50400001928E-02 0. -1.
        1   -1    0    0  501    0  0.00000000000E+00  0.00000000000E+00 -0.55071294340E+03  0.55071294343E+03  0.50400001928E-02 0.  1.
    10030    2    1    2    0    0  0.00000000000E+00  0.00000000000E+00  0.23062618815E+04  0.34076877683E+04  0.25086833320E+04 0.  0.
        4    1    3    3  502    0 -0.18949565141E+03  0.69585485983E+03 -0.24092255733E+03  0.76037351307E+03  0.12699999809E+01 0.  1.
       -4    1    3    3    0  502  0.18949565141E+03 -0.69585485983E+03  0.25471844388E+04  0.26473142553E+04  0.12699999809E+01 0. -1.
</event>
<event>
 5   0  0.5347280E-06  0.3161630E+04  0.7818609E-02  0.8199025E-01
       -2   -1    0    0    0  501  0.00000000000E+00  0.00000000000E+00  0.10922166399E+04  0.10922166399E+04  0.25500000920E-02 0.  1.
        2   -1    0    0  501    0  0.00000000000E+00  0.00000000000E+00 -0.22879860620E+04  0.22879860620E+04  0.25500000920E-02 0. -1.
    10030    2    1    2    0    0  0.00000000000E+00  0.00000000000E+00 -0.11957694221E+04  0.33802027020E+04  0.31616302434E+04 0.  0.
        2    1    3    3  502    0 -0.14585528733E+04 -0.50479745183E+03 -0.23252978442E+03  0.15608545904E+04  0.25500000920E-02 0.  1.
       -2    1    3    3    0  502  0.14585528733E+04  0.50479745183E+03 -0.96323963769E+03  0.18193481116E+04  0.25500000920E-02 0. -1.
</event>
<event>
 5   0  0.5131083E-06  0.1978458E+04  0.7818609E-02  0.8616759E-01
        2   -1    0    0  501    0  0.00000000000E+00  0.00000000000E+00  0.12573270915E+04  0.12573270915E+04  0.25500000920E-02 0. -1.
       -2   -1    0    0    0  501  0.00000000000E+00  0.00000000000E+00 -0.77829720358E+03  0.77829720358E+03  0.25500000920E-02 0.  1.
    10030    2    1    2    0    0  0.00000000000E+00  0.00000000000E+00  0.47902988794E+03  0.20356242951E+04  0.19784581465E+04 0.  0.
        3    1    3    3  502    0 -0.77551059922E+03 -0.47773108993E+02 -0.39044669961E+03  0.86956747575E+03  0.10100000352E+00 0.  1.
       -3    1    3    3    0  502  0.77551059922E+03  0.47773108993E+02  0.86947658755E+03  0.11660568193E+04  0.10100000352E+00 0. -1.
</event>
<event>
 5   0  0.1977015E-06  0.3167959E+04  0.7818609E-02  0.8197331E-01
       -1   -1    0    0    0  501  0.00000000000E+00  0.00000000000E+00  0.11725047217E+04  0.11725047217E+04  0.50400001928E-02 0. -1.
        1   -1    0    0  501    0  0.00000000000E+00  0.00000000000E+00 -0.21398562620E+04  0.21398562620E+04  0.50400001928E-02 0.  1.
    10030    2    1    2    0    0  0.00000000000E+00  0.00000000000E+00 -0.96735154030E+03  0.33123609837E+04  0.31679593248E+04 0.  0.
        1    1    3    3  502    0 -0.93478170110E+03  0.65061963478E+03  0.66735218582E+03  0.13200309382E+04  0.50400001928E-02 0. -1.
       -1    1    3    3    0  502  0.93478170110E+03 -0.65061963478E+03 -0.16347037261E+04  0.19923300455E+04  0.50400001928E-02 0.  1.
</event>
<event>
 5   0  0.5373060E-06  0.3195817E+04  0.7818609E-02  0.8189923E-01
       -2   -1    0    0    0  501  0.00000000000E+00  0.00000000000E+00  0.19412197924E+04  0.19412197924E+04  0.25500000920E-02 0. -1.
        2   -1    0    0  501    0  0.00000000000E+00  0.00000000000E+00 -0.13153130735E+04  0.13153130735E+04  0.25500000920E-02 0.  1.
    10030    2    1    2    0    0  0.00000000000E+00  0.00000000000E+00  0.62590671889E+03  0.32565328660E+04  0.31958171234E+04 0.  0.
        5    1    3    3  502    0 -0.91561518120E+03 -0.44890974431E+03  0.15665363031E+04  0.18692054990E+04  0.46999998093E+01 0. -1.
       -5    1    3    3    0  502  0.91561518120E+03  0.44890974431E+03 -0.94062958416E+03  0.13873273670E+04  0.46999998093E+01 0.  1.
</event>
<event>
 5   0  0.1886248E-06  0.3067531E+04  0.7818609E-02  0.8224706E-01
       -1   -1    0    0    0  501  0.00000000000E+00  0.00000000000E+00  0.14924903556E+04  0.14924903556E+04  0.50400001928E-02 0.  1.
        1   -1    0    0  501    0  0.00000000000E+00  0.00000000000E+00 -0.15761819779E+04  0.15761819779E+04  0.50400001928E-02 0. -1.
    10030    2    1    2    0    0  0.00000000000E+00  0.00000000000E+00 -0.83691622281E+02  0.30686723335E+04  0.30675308642E+04 0.  0.
        4    1    3    3  502    0  0.45980733798E+03 -0.13162666965E+04 -0.68118767783E+03  0.15517728795E+04  0.12699999809E+01 0. -1.
       -4    1    3    3    0  502 -0.45980733798E+03  0.13162666965E+04  0.59749605554E+03  0.15168994540E+04  0.12699999809E+01 0.  1.
</event>
<event>
 5   0  0.1846850E-06  0.3010530E+04  0.7818609E-02  0.8240730E-01
        1   -1    0    0  501    0  0.00000000000E+00  0.00000000000E+00  0.21386748743E+04  0.21386748743E+04  0.50400001928E-02 0. -1.
       -1   -1    0    0    0  501  0.00000000000E+00  0.00000000000E+00 -0.10594516997E+04  0.10594516997E+04  0.50400001928E-02 0.  1.
    10030    2    1    2    0    0  0.00000000000E+00  0.00000000000E+00  0.10792231746E+04  0.31981265740E+04  0.30105300070E+04 0.  0.
        5    1    3    3  502    0  0.88956428999E+03 -0.96631249438E+03  0.13207668618E+04  0.18626678867E+04  0.46999998093E+01 0.  1.
       -5    1    3    3    0  502 -0.88956428999E+03  0.96631249438E+03 -0.24154368715E+03  0.13354586874E+04  0.46999998093E+01 0. -1.
</event>
<event>
 5   0  0.5347280E-06  0.2221422E+04  0.7818609E-02  0.8509565E-01
       -2   -1    0    0    0  501  0.00000000000E+00  0.00000000000E+00  0.67002135778E+03  0.67002135779E+03  0.25500000920E-02 0.  1.
        2   -1    0    0  501    0  0.00000000000E+00  0.00000000000E+00 -0.18412523745E+04  0.18412523745E+04  0.25500000920E-02 0. -1.
    10030    2    1    2    0    0  0.00000000000E+00  0.00000000000E+00 -0.11712310168E+04  0.25112737323E+04  0.22214215413E+04 0.  0.
        2    1    3    3  502    0 -0.49420200111E+02  0.51417648473E+03 -0.16972053208E+04  0.17740703804E+04  0.25500000920E-02 0. -1.
       -2    1    3    3    0  502  0.49420200111E+02 -0.51417648473E+03  0.52597430402E+03  0.73720335195E+03  0.25500000920E-02 0.  1.
</event>
<event>
 5   0  0.1977015E-06  0.3208151E+04  0.7818609E-02  0.8186668E-01
       -1   -1    0    0    0  501  0.00000000000E+00  0.00000000000E+00  0.16627667499E+04  0.16627667499E+04  0.50400001928E-02 0. -1.
        1   -1    0    0  501    0  0.00000000000E+00  0.00000000000E+00 -0.15474558493E+04  0.15474558493E+04  0.50400001928E-02 0.  1.
    10030    2    1    2    0    0  0.00000000000E+00  0.00000000000E+00  0.11531090051E+03  0.32102225992E+04  0.32081509523E+04 0.  0.
        1    1    3    3  502    0 -0.25834715775E+03  0.65880469819E+02  0.16404400094E+04  0.16619647754E+04  0.50400001928E-02 0. -1.
       -1    1    3    3    0  502  0.25834715775E+03 -0.65880469819E+02 -0.15251291089E+04  0.15482578238E+04  0.50400001928E-02 0.  1.
</event>
<event>
 5   0  0.1969465E-06  0.3266360E+04  0.7818609E-02  0.8171508E-01
        1   -1    0    0  501    0  0.00000000000E+00  0.00000000000E+00  0.22261769540E+04  0.22261769540E+04  0.50400001928E-02 0.  1.
       -1   -1    0    0    0  501  0.00000000000E+00  0.00000000000E+00 -0.11981423629E+04  0.11981423629E+04  0.50400001928E-02 0. -1.
    10030    2    1    2    0    0  0.00000000000E+00  0.00000000000E+00  0.10280345911E+04  0.34243193169E+04  0.32663600021E+04 0.  0.
        2    1    3    3  502    0 -0.93573348124E+03  0.71619971154E+03  0.16995156310E+04  0.20680649300E+04  0.25500000920E-02 0.  1.
       -2    1    3    3    0  502  0.93573348124E+03 -0.71619971154E+03 -0.67148103997E+03  0.13562543868E+04  0.25500000920E-02 0. -1.
</event>
<event>
 5   0  0.5373060E-06  0.3237983E+04  0.7818609E-02  0.8178857E-01
        2   -1    0    0  501    0  0.00000000000E+00  0.00000000000E+00  0.11170767720E+04  0.11170767720E+04  0.25500000920E-02 0.  1.
       -2   -1    0    0    0  501  0.00000000000E+00  0.00000000000E+00 -0.23464224919E+04  0.23464224919E+04  0.25500000920E-02 0. -1.
    10030    2    1    2    0    0  0.00000000000E+00  0.00000000000E+00 -0.12293457199E+04  0.34634992639E+04  0.32379833619E+04 0.  0.
        5    1    3    3  502    0 -0.70410366612E+03  0.14363608713E+04 -0.34786625109E+03  0.16370484244E+04  0.46999998093E+01 0. -1.
       -5    1    3    3    0  502  0.70410366612E+03 -0.14363608713E+04 -0.88147946886E+03  0.18264508395E+04  0.46999998093E+01 0.  1.
</event>
<event>
 5   0  0.5121624E-06  0.3200445E+04  0.7818609E-02  0.8188700E-01
        2   -1    0    0  501    0  0.00000000000E+00  0.00000000000E+00  0.20918773765E+04  0.20918773765E+04  0.25500000920E-02 0.  1.
       -2   -1    0    0    0  501  0.00000000000E+00  0.00000000000E+00 -0.12241211445E+04  0.12241211445E+04  0.25500000920E-02 0. -1.
    10030    2    1    2    0    0  0.00000000000E+00  0.00000000000E+00  0.86775623200E+03  0.33159985211E+04  0.32004445494E+04 0.  0.
        4    1    3    3  502    0 -0.98344673494E+03  0.98145778851E+03  0.12564460288E+04  0.18732552168E+04  0.12699999809E+01 0.  1.
       -4    1    3    3    0  502  0.98344673494E+03 -0.98145778851E+03 -0.38868979676E+03  0.14427433043E+04  0.12699999809E+01 0. -1.
</event>
<event>
 5   0  0.1969465E-06  0.3163054E+04  0.7818609E-02  0.8198643E-01
       -1   -1    0    0    0  501  0.00000000000E+00  0.00000000000E+00  0.14767412427E+04  0.14767412427E+04  0.50400001928E-02 0. -1.
        1   -1    0    0  501    0  0.00000000000E+00  0.00000000000E+00 -0.16937479689E+04  0.16937479689E+04  0.50400001928E-02 0.  1.
    10030    2    1    2    0    0  0.00000000000E+00  0.00000000000E+00 -0.21700672618E+03  0.31704892116E+04  0.31630538917E+04 0.  0.
        2    1    3    3  502    0  0.44853480385E+03 -0.91021151728E+03  0.11074265103E+04  0.15020192915E+04  0.25500000920E-02 0. -1.
       -2    1    3    3    0  502 -0.44853480385E+03  0.91021151728E+03 -0.13244332364E+04  0.16684699201E+04  0.25500000920E-02 0.  1.
</event>
<event>
 5   0  0.1881144E-06  0.3056049E+04  0.7818609E-02  0.8227904E-01
        1   -1    0    0  501    0  0.00000000000E+00  0.00000000000E+00  0.24891154588E+04  0.24891154588E+04  0.50400001928E-02 0. -1.
       -1   -1    0    0    0  501  0.00000000000E+00  0.00000000000E+00 -0.93802770709E+03  0.93802770711E+03  0.50400001928E-02 0.  1.
    10030    2    1    2    0    0  0.00000000000E+00  0.00000000000E+00  0.15510877517E+04  0.34271431659E+04  0.30560492578E+04 0.  0.
        3    1    3    3  502    0  0.70268033602E+03  0.13408276999E+04  0.54224161936E+03  0.16079815171E+04  0.10100000352E+00 0.  1.
       -3    1    3    3    0  502 -0.70268033602E+03 -0.13408276999E+04  0.10088461324E+04  0.18191616488E+04  0.10100000352E+00 0. -1.
</event>
<event>
 5   0  0.1969465E-06  0.3062097E+04  0.7818609E-02  0.8226218E-01
        1   -1    0    0  501    0  0.00000000000E+00  0.00000000000E+00  0.10407819923E+04  0.10407819923E+04  0.50400001928E-02 0.  1.
       -1   -1    0    0    0  501  0.00000000000E+00  0.00000000000E+00 -0.22522578356E+04  0.22522578356E+04  0.50400001928E-02 0. -1.
    10030    2    1    2    0    0  0.00000000000E+00  0.00000000000E+00 -0.12114758433E+04  0.32930398279E+04  0.30620969268E+04 0.  0.
        2    1    3    3  502    0 -0.52771717827E+03  0.14360578905E+04 -0.54338478397E+03  0.16235808291E+04  0.25500000920E-02 0. -1.
       -2    1    3    3    0  502  0.52771717827E+03 -0.14360578905E+04 -0.66809105933E+03  0.16694589988E+04  0.25500000920E-02 0.  1.
</event>
<event>
 5   0  0.5131083E-06  0.3168395E+04  0.7818609E-02  0.8197214E-01
       -2   -1    0    0    0  501  0.00000000000E+00  0.00000000000E+00  0.11475472322E+04  0.11475472322E+04  0.25500000920E-02 0.  1.
        2   -1    0    0  501    0  0.00000000000E+00  0.00000000000E+00 -0.21869969267E+04  0.21869969267E+04  0.25500000920E-02 0. -1.
    10030    2    1    2    0    0  0.00000000000E+00  0.00000000000E+00 -0.10394496945E+04  0.33345441589E+04  0.31683953478E+04 0.  0.
        3    1    3    3  502    0  0.55851262856E+03 -0.10697585904E+03  0.10364277756E+04  0.11821855755E+04  0.10100000352E+00 0.  1.
       -3    1    3    3    0  502 -0.55851262856E+03  0.10697585904E+03 -0.20758774701E+04  0.21523585834E+04  0.10100000352E+00 0. -1.
</event>
<event>
 5   0  0.1729500E-06  0.3197387E+04  0.7818609E-02  0.8189508E-01
       -3   -1    0    0    0  501  0.00000000000E+00  0.00000000000E+00  0.19819683300E+04  0.19819683326E+04  0.10100000352E+00 0. -1.
        3   -1    0    0  501    0  0.00000000000E+00  0.00000000000E+00 -0.12895367350E+04  0.12895367389E+04  0.10100000352E+00 0.  1.
    10030    2    1    2    0    0  0.00000000000E+00  0.00000000000E+00  0.69243159502E+03  0.32715050715E+04  0.31973870456E+04 0.  0.
        2    1    3    3  502    0 -0.96040129040E+03 -0.10118329174E+03  0.16498028760E+04  0.19116637327E+04  0.25500000920E-02 0. -1.
       -2    1    3    3    0  502  0.96040129040E+03  0.10118329174E+03 -0.95737128101E+03  0.13598413388E+04  0.25500000920E-02 0.  1.
</event>
<event>
 5   0  0.1886248E-06  0.2985875E+04  0.7818609E-02  0.8247776E-01
        1   -1    0    0  501    0  0.00000000000E+00  0.00000000000E+00  0.31489023613E+04  0.31489023613E+04  0.50400001928E-02 0.  1.
       -1   -1    0    0    0  501  0.00000000000E+00  0.00000000000E+00 -0.70782182513E+03  0.70782182515E+03  0.50400001928E-02 0. -1.
    10030    2    1    2    0    0  0.00000000000E+00  0.00000000000E+00  0.24410805362E+04  0.38567241865E+04  0.29858746234E+04 0.  0.
        4    1    3    3  502    0  0.29299435683E+03  0.18989098036E+02  0.31112420304E+04  0.31250655775E+04  0.12699999809E+01 0.  1.
       -4    1    3    3    0  502 -0.29299435683E+03 -0.18989098036E+02 -0.67016149418E+03  0.73165860902E+03  0.12699999809E+01 0. -1.
</event>
<event>
 5   0  0.1881144E-06  0.2970624E+04  0.7818609E-02  0.8252170E-01
        1   -1    0    0  501    0  0.00000000000E+00  0.00000000000E+00  0.20356482165E+04  0.20356482165E+04  0.50400001928E-02 0.  1.
       -1   -1    0    0    0  501  0.00000000000E+00  0.00000000000E+00 -0.10837586656E+04  0.10837586656E+04  0.50400001928E-02 0. -1.
    10030    2    1    2    0    0  0.00000000000E+00  0.00000000000E+00  0.95188955090E+03  0.31194068821E+04  0.29706237694E+04 0.  0.
        3    1    3    3  502    0 -0.64130103646E+03  0.30474727408E+03  0.18458984132E+04  0.19777459095E+04  0.10100000352E+00 0.  1.
       -3    1    3    3    0  502  0.64130103646E+03 -0.30474727408E+03 -0.89400886228E+03  0.11416609726E+04  0.10100000352E+00 0. -1.
</event>
<event>
 5   0  0.5108810E-06  0.2956151E+04  0.7818609E-02  0.8256364E-01
        2   -1    0    0  501    0  0.00000000000E+00  0.00000000000E+00  0.21614178495E+04  0.21614178495E+04  0.25500000920E-02 0. -1.
       -2   -1    0    0    0  501  0.00000000000E+00  0.00000000000E+00 -0.10107751397E+04  0.10107751398E+04  0.25500000920E-02 0.  1.
    10030    2    1    2    0    0  0.00000000000E+00  0.00000000000E+00  0.11506427098E+04  0.31721929893E+04  0.29561511659E+04 0.  0.
        1    1    3    3  502    0  0.37533544360E+03 -0.77102037178E+03 -0.71655469386E+03  0.11174970865E+04  0.50400001928E-02 0.  1.
       -1    1    3    3    0  502 -0.37533544360E+03  0.77102037178E+03  0.18671974036E+04  0.20546959028E+04  0.50400001928E-02 0. -1.
</event>
<event>
 5   0  0.1977015E-06  0.2073720E+04  0.7818609E-02  0.8572909E-01
        1   -1    0    0  501    0  0.00000000000E+00  0.00000000000E+00  0.14364636612E+04  0.14364636612E+04  0.50400001928E-02 0. -1.
       -1   -1    0    0    0  501  0.00000000000E+00  0.00000000000E+00 -0.74842001586E+03  0.74842001588E+03  0.50400001928E-02 0.  1.
    10030    2    1    2    0    0  0.00000000000E+00  0.00000000000E+00  0.68804364529E+03  0.21848836770E+04  0.20737195144E+04 0.  0.
        1    1    3    3  502    0 -0.79974337335E+03  0.54116983156E+03 -0.53878662871E+02  0.96713864577E+03  0.50400001928E-02 0.  1.
       -1    1    3    3    0  502  0.79974337335E+03 -0.54116983156E+03  0.74192230816E+03  0.12177450313E+04  0.50400001928E-02 0. -1.
</event>
<event>
 5   0  0.5131083E-06  0.3253667E+04  0.7818609E-02  0.8174786E-01
        2   -1    0    0  501    0  0.00000000000E+00  0.00000000000E+00  0.15689536597E+04  0.15689536597E+04  0.25500000920E-02 0. -1.
       -2   -1    0    0    0  501  0.00000000000E+00  0.00000000000E+00 -0.16868489463E+04  0.16868489463E+04  0.25500000920E-02 0.  1.
    10030    2    1    2    0    0  0.00000000000E+00  0.00000000000E+00 -0.11789528657E+03  0.32558026060E+04  0.32536673633E+04 0.  0.
        3    1    3    3  502    0  0.75667501931E+03 -0.76492837575E+03  0.11620643046E+04  0.15836874575E+04  0.10100000352E+00 0. -1.
       -3    1    3    3    0  502 -0.75667501931E+03  0.76492837575E+03 -0.12799595911E+04  0.16721151486E+04  0.10100000352E+00 0.  1.
</event>
<event>
 5   0  0.5131083E-06  0.3189829E+04  0.7818609E-02  0.8191508E-01
        2   -1    0    0  501    0  0.00000000000E+00  0.00000000000E+00  0.18939293177E+04  0.18939293177E+04  0.25500000920E-02 0.  1.
       -2   -1    0    0    0  501  0.00000000000E+00  0.00000000000E+00 -0.13431083918E+04  0.13431083918E+04  0.25500000920E-02 0. -1.
    10030    2    1    2    0    0  0.00000000000E+00  0.00000000000E+00  0.55082092585E+03  0.32370377095E+04  0.31898290613E+04 0.  0.
        3    1    3    3  502    0  0.91138234251E+03 -0.34780399457E+03  0.15558959234E+04  0.18364088672E+04  0.10100000352E+00 0.  1.
       -3    1    3    3    0  502 -0.91138234251E+03  0.34780399457E+03 -0.10050749976E+04  0.14006288423E+04  0.10100000352E+00 0. -1.
</event>
<event>
 5   0  0.5121624E-06  0.3191904E+04  0.7818609E-02  0.8190958E-01
       -2   -1    0    0    0  501  0.00000000000E+00  0.00000000000E+00  0.94540923830E+03  0.94540923830E+03  0.25500000920E-02 0.  1.
        2   -1    0    0  501    0  0.00000000000E+00  0.00000000000E+00 -0.26941384835E+04  0.26941384835E+04  0.25500000920E-02 0. -1.
    10030    2    1    2    0    0  0.00000000000E+00  0.00000000000E+00 -0.17487292452E+04  0.36395477218E+04  0.31919043918E+04 0.  0.
        4    1    3    3  502    0 -0.13644312263E+04  0.33893750784E+03 -0.13114294607E+02  0.14059604557E+04  0.12699999809E+01 0.  1.
       -4    1    3    3    0  502  0.13644312263E+04 -0.33893750784E+03 -0.17356149506E+04  0.22335872661E+04  0.12699999809E+01 0. -1.
</event>
<event>
 5   0  0.1881144E-06  0.3295225E+04  0.7818609E-02  0.8164111E-01
       -1   -1    0    0    0  501  0.00000000000E+00  0.00000000000E+00  0.12704740661E+04  0.12704740661E+04  0.50400001928E-02 0. -1.
        1   -1    0    0  501    0  0.00000000000E+00  0.00000000000E+00 -0.21367045083E+04  0.21367045083E+04  0.50400001928E-02 0.  1.
    10030    2    1    2    0    0  0.00000000000E+00  0.00000000000E+00 -0.86623044223E+03  0.34071785744E+04  0.32952254336E+04 0.  0.
        3    1    3    3  502    0  0.10893010017E+04 -0.63491264209E+03 -0.15297798849E+04  0.19824018871E+04  0.10100000352E+00 0.  1.
       -3    1    3    3    0  502 -0.10893010017E+04  0.63491264209E+03  0.66354944268E+03  0.14247766873E+04  0.10100000352E+00 0. -1.
</event>
<event>
 5   0  0.5121624E-06  0.3195873E+04  0.7818609E-02  0.8189908E-01
       -2   -1    0    0    0  501  0.00000000000E+00  0.00000000000E+00  0.12711399920E+04  0.12711399920E+04  0.25500000920E-02 0.  1.
        2   -1    0    0  501    0  0.00000000000E+00  0.00000000000E+00 -0.20087486114E+04  0.20087486114E+04  0.25500000920E-02 0. -1.
    10030    2    1    2    0    0  0.00000000000E+00  0.00000000000E+00 -0.73760861940E+03  0.32798886035E+04  0.31958727722E+04 0.  0.
        4    1    3    3  502    0  0.67786786410E+03  0.33607862988E+03 -0.18132654550E+04  0.19647867339E+04  0.12699999809E+01 0. -1.
       -4    1    3    3    0  502 -0.67786786410E+03 -0.33607862988E+03  0.10756568356E+04  0.13151018696E+04  0.12699999809E+01 0.  1.
</event>
<event>
 5   0  0.1846850E-06  0.2956960E+04  0.7818609E-02  0.8256129E-01
        1   -1    0    0  501    0  0.00000000000E+00  0.00000000000E+00  0.22930279664E+04  0.22930279664E+04  0.50400001928E-02 0. -1.
       -1   -1    0    0    0  501  0.00000000000E+00  0.00000000000E+00 -0.95328225972E+03  0.95328225974E+03  0.50400001928E-02 0.  1.
    10030    2    1    2    0    0  0.00000000000E+00  0.00000000000E+00  0.13397457066E+04  0.32463102261E+04  0.29569598451E+04 0.  0.
        5    1    3    3  502    0  0.77722509088E+03 -0.93286079927E+03  0.15959650509E+04  0.20053515020E+04  0.46999998093E+01 0. -1.
       -5    1    3    3    0  502 -0.77722509088E+03  0.93286079927E+03 -0.25621934424E+03  0.12409587242E+04  0.46999998093E+01 0.  1.
</event>
<event>
 5   0  0.5108810E-06  0.3201977E+04  0.7818609E-02  0.8188295E-01
       -2   -1    0    0    0  501  0.00000000000E+00  0.00000000000E+00  0.21195434459E+04  0.21195434459E+04  0.25500000920E-02 0. -1.
        2   -1    0    0  501    0  0.00000000000E+00  0.00000000000E+00 -0.12093002014E+04  0.12093002014E+04  0.25500000920E-02 0.  1.
    10030    2    1    2    0    0  0.00000000000E+00  0.00000000000E+00  0.91024324446E+03  0.33288436473E+04  0.32019770868E+04 0.  0.
        1    1    3    3  502    0  0.56777685918E+03 -0.43198916270E+03 -0.10349060444E+04  0.12569867617E+04  0.50400001928E-02 0.  1.
       -1    1    3    3    0  502 -0.56777685918E+03  0.43198916270E+03  0.19451492888E+04  0.20718568856E+04  0.50400001928E-02 0. -1.
</event>
<event>
 5   0  0.1969465E-06  0.3171963E+04  0.7818609E-02  0.8196261E-01
        1   -1    0    0  501    0  0.00000000000E+00  0.00000000000E+00  0.13476366468E+04  0.13476366469E+04  0.50400001928E-02 0.  1.
       -1   -1    0    0    0  501  0.00000000000E+00  0.00000000000E+00 -0.18664799191E+04  0.18664799191E+04  0.50400001928E-02 0. -1.
    10030    2    1    2    0    0  0.00000000000E+00  0.00000000000E+00 -0.51884327221E+03  0.32141165659E+04  0.31719626351E+04 0.  0.
        2    1    3    3  502    0 -0.11933901218E+04  0.74581915767E+03  0.48167379943E+03  0.14874259134E+04  0.25500000920E-02 0.  1.
       -2    1    3    3    0  502  0.11933901218E+04 -0.74581915767E+03 -0.10005170716E+04  0.17266906525E+04  0.25500000920E-02 0. -1.
</event>
<event>
 5   0  0.5373060E-06  0.3187954E+04  0.7818609E-02  0.8192006E-01
        2   -1    0    0  501    0  0.00000000000E+00  0.00000000000E+00  0.18815466636E+04  0.18815466636E+04  0.25500000920E-02 0. -1.
       -2   -1    0    0    0  501  0.00000000000E+00  0.00000000000E+00 -0.13503587664E+04  0.13503587664E+04  0.25500000920E-02 0.  1.
    10030    2    1    2    0    0  0.00000000000E+00  0.00000000000E+00  0.53118789722E+03  0.32319054300E+04  0.31879542228E+04 0.  0.
        5    1    3    3  502    0 -0.68159012705E+03  0.63166305586E+03 -0.10473195017E+04  0.14001655424E+04  0.46999998093E+01 0.  1.
       -5    1    3    3    0  502  0.68159012705E+03 -0.63166305586E+03  0.15785073989E+04  0.18317398876E+04  0.46999998093E+01 0. -1.
</event>
<event>
 5   0  0.1881144E-06  0.2946524E+04  0.7818609E-02  0.8259168E-01
       -1   -1    0    0    0  501  0.00000000000E+00  0.00000000000E+00  0.17045973042E+04  0.17045973042E+04  0.50400001928E-02 0. -1.
        1   -1    0    0  501    0  0.00000000000E+00  0.00000000000E+00 -0.12733218994E+04  0.12733218994E+04  0.50400001928E-02 0.  1.
    10030    2    1    2    0    0  0.00000000000E+00  0.00000000000E+00  0.43127540485E+03  0.29779192036E+04  0.29465241062E+04 0.  0.
        3    1    3    3  502    0  0.61638731728E+03 -0.94714584146E+03  0.11709512496E+04  0.16273123269E+04  0.10100000352E+00 0. -1.
       -3    1    3    3    0  502 -0.61638731728E+03  0.94714584146E+03 -0.73967584480E+03  0.13506068767E+04  0.10100000352E+00 0.  1.
</event>
<event>
 5   0  0.1881144E-06  0.3206627E+04  0.7818609E-02  0.8187069E-01
        1   -1    0    0  501    0  0.00000000000E+00  0.00000000000E+00  0.16243568782E+04  0.16243568782E+04  0.50400001928E-02 0. -1.
       -1   -1    0    0    0  501  0.00000000000E+00  0.00000000000E+00 -0.15825423730E+04  0.15825423730E+04  0.50400001928E-02 0.  1.
    10030    2    1    2    0    0  0.00000000000E+00  0.00000000000E+00  0.41814505179E+02  0.32068992513E+04  0.32066266317E+04 0.  0.
        3    1    3    3  502    0  0.10149880320E+04  0.55453521672E+03 -0.10895490557E+04  0.15889704738E+04  0.10100000352E+00 0.  1.
       -3    1    3    3    0  502 -0.10149880320E+04 -0.55453521672E+03  0.11313635609E+04  0.16179287774E+04  0.10100000352E+00 0. -1.
</event>
<event>
 5   0  0.1729500E-06  0.2917141E+04  0.7818609E-02  0.8267796E-01
       -3   -1    0    0    0  501  0.00000000000E+00  0.00000000000E+00  0.14869303864E+04  0.14869303899E+04  0.10100000352E+00 0.  1.
        3   -1    0    0  501    0  0.00000000000E+00  0.00000000000E+00 -0.14307516239E+04  0.14307516274E+04  0.10100000352E+00 0. -1.
    10030    2    1    2    0    0  0.00000000000E+00  0.00000000000E+00  0.56178762551E+02  0.29176820173E+04  0.29171411177E+04 0.  0.
        5    1    3    3  502    0  0.16986082095E+02  0.10433775794E+04 -0.99115829869E+03  0.14392158154E+04  0.46999998093E+01 0. -1.
       -5    1    3    3    0  502 -0.16986082095E+02 -0.10433775794E+04  0.10473370612E+04  0.14784662019E+04  0.46999998093E+01 0.  1.
</event>
<event>
 5   0  0.1881144E-06  0.3180911E+04  0.7818609E-02  0.8193877E-01
        1   -1    0    0  501    0  0.00000000000E+00  0.00000000000E+00  0.14513850699E+04  0.14513850699E+04  0.50400001928E-02 0.  1.
       -1   -1    0    0    0  501  0.00000000000E+00  0.00000000000E+00 -0.17428511097E+04  0.17428511097E+04  0.50400001928E-02 0. -1.
    10030    2    1    2    0    0  0.00000000000E+00  0.00000000000E+00 -0.29146603977E+03  0.31942361797E+04  0.31809106116E+04 0.  0.
        3    1    3    3  502    0  0.12713091820E+04  0.41495268458E+03 -0.10102316508E+04  0.16760014216E+04  0.10100000352E+00 0. -1.
       -3    1    3    3    0  502 -0.12713091820E+04 -0.41495268458E+03  0.71876561101E+03  0.15182347581E+04  0.10100000352E+00 0.  1.
</event>
<event>
 5   0  0.1969465E-06  0.3160067E+04  0.7818609E-02  0.8199444E-01
       -1   -1    0    0    0  501  0.00000000000E+00  0.00000000000E+00  0.15909745198E+04  0.15909745198E+04  0.50400001928E-02 0. -1.
        1   -1    0    0  501    0  0.00000000000E+00  0.00000000000E+00 -0.15691680322E+04  0.15691680322E+04  0.50400001928E-02 0.  1.
    10030    2    1    2    0    0  0.00000000000E+00  0.00000000000E+00  0.21806487634E+02  0.31601425520E+04  0.31600673136E+04 0.  0.
        2    1    3    3  502    0  0.12475210196E+04 -0.95372450598E+03 -0.16405013972E+03  0.15788640144E+04  0.25500000920E-02 0.  1.
       -2    1    3    3    0  502 -0.12475210196E+04  0.95372450598E+03  0.18585662735E+03  0.15812785376E+04  0.25500000920E-02 0. -1.
</event>
<event>
 5   0  0.1846850E-06  0.3089834E+04  0.7818609E-02  0.8218534E-01
       -1   -1    0    0    0  501  0.00000000000E+00  0.00000000000E+00  0.14252568426E+04  0.14252568426E+04  0.50400001928E-02 0.  1.
        1   -1    0    0  501    0  0.00000000000E+00  0.00000000000E+00 -0.16746229745E+04  0.16746229746E+04  0.50400001928E-02 0. -1.
    10030    2    1    2    0    0  0.00000000000E+00  0.00000000000E+00 -0.24936613194E+03  0.30998798172E+04  0.30898335575E+04 0.  0.
        5    1    3    3  502    0 -0.10681865519E+04 -0.22031092264E+03  0.97303458946E+03  0.14616353220E+04  0.46999998093E+01 0.  1.
       -5    1    3    3    0  502  0.10681865519E+04  0.22031092264E+03 -0.12224007214E+04  0.16382444952E+04  0.46999998093E+01 0. -1.
</event>
<event>
 5   0  0.5373060E-06  0.3192340E+04  0.7818609E-02  0.8190843E-01
       -2   -1    0    0    0  501  0.00000000000E+00  0.00000000000E+00  0.12776991747E+04  0.12776991747E+04  0.25500000920E-02 0.  1.
        2   -1    0    0  501    0  0.00000000000E+00  0.00000000000E+00 -0.19940205465E+04  0.19940205465E+04  0.25500000920E-02 0. -1.
    10030    2    1    2    0    0  0.00000000000E+00  0.00000000000E+00 -0.71632137178E+03  0.32717197213E+04  0.31923398357E+04 0.  0.
        5    1    3    3  502    0 -0.62441220280E+03  0.12096309450E+04  0.49601353550E+03  0.14488440701E+04  0.46999998093E+01 0.  1.
       -5    1    3    3    0  502  0.62441220280E+03 -0.12096309450E+04 -0.12123349073E+04  0.18228756511E+04  0.46999998093E+01 0. -1.
</event>
<event>
 5   0  0.1729500E-06  0.3263434E+04  0.7818609E-02  0.8172262E-01
        3   -1    0    0  501    0  0.00000000000E+00  0.00000000000E+00  0.13249556390E+04  0.13249556428E+04  0.10100000352E+00 0.  1.
       -3   -1    0    0    0  501  0.00000000000E+00  0.00000000000E+00 -0.20095019660E+04  0.20095019686E+04  0.10100000352E+00 0. -1.
    10030    2    1    2    0    0  0.00000000000E+00  0.00000000000E+00 -0.68454632706E+03  0.33344576114E+04  0.32634343702E+04 0.  0.
        2    1    3    3  502    0  0.58488492833E+03 -0.21798128969E+03  0.11981497870E+04  0.13509882065E+04  0.25500000920E-02 0.  1.
       -2    1    3    3    0  502 -0.58488492833E+03  0.21798128969E+03 -0.18826961141E+04  0.19834694049E+04  0.25500000920E-02 0. -1.
</event>
<event>
 5   0  0.5108810E-06  0.2556253E+04  0.7818609E-02  0.8383215E-01
        2   -1    0    0  501    0  0.00000000000E+00  0.00000000000E+00  0.26207755513E+04  0.26207755513E+04  0.25500000920E-02 0. -1.
       -2   -1    0    0    0  501  0.00000000000E+00  0.00000000000E+00 -0.62332997081E+03  0.62332997082E+03  0.25500000920E-02 0.  1.
    10030    2    1    2    0    0  0.00000000000E+00  0.00000000000E+00  0.19974455805E+04  0.32441055221E+04  0.25562534678E+04 0.  0.
        1    1    3    3  502    0 -0.63352137542E+03  0.49200640064E+03  0.22615675212E+04  0.23996056518E+04  0.50400001928E-02 0. -1.
       -1    1    3    3    0  502  0.63352137542E+03 -0.49200640064E+03 -0.26412194067E+03  0.84449987031E+03  0.50400001928E-02 0.  1.
</event>
<event>
 5   0  0.1977015E-06  0.3107005E+04  0.7818609E-02  0.8213818E-01
        1   -1    0    0  501    0  0.00000000000E+00  0.00000000000E+00  0.14237878638E+04  0.14237878639E+04  0.50400001928E-02 0. -1.
       -1   -1    0    0    0  501  0.00000000000E+00  0.00000000000E+00 -0.16950349967E+04  0.16950349968E+04  0.50400001928E-02 0.  1.
    10030    2    1    2    0    0  0.00000000000E+00  0.00000000000E+00 -0.27124713291E+03  0.31188228606E+04  0.31070051543E+04 0.  0.
        1    1    3    3  502    0 -0.90838591362E+03 -0.12521938528E+04 -0.27834679911E+03  0.15718242121E+04  0.50400001928E-02 0. -1.
       -1    1    3    3    0  502  0.90838591362E+03  0.12521938528E+04  0.70996662002E+01  0.15469986485E+04  0.50400001928E-02 0.  1.
</event>
<event>
 5   0  0.5121624E-06  0.2665652E+04  0.7818609E-02  0.8346236E-01
       -2   -1    0    0    0  501  0.00000000000E+00  0.00000000000E+00  0.11245983416E+04  0.11245983416E+04  0.25500000920E-02 0. -1.
        2   -1    0    0  501    0  0.00000000000E+00  0.00000000000E+00 -0.15796088930E+04  0.15796088930E+04  0.25500000920E-02 0.  1.
    10030    2    1    2    0    0  0.00000000000E+00  0.00000000000E+00 -0.45501055141E+03  0.27042072347E+04  0.26656522966E+04 0.  0.
        4    1    3    3  502    0 -0.23926537307E+03  0.53662457469E+03  0.98612992042E+03  0.11478970711E+04  0.12699999809E+01 0. -1.
       -4    1    3    3    0  502  0.23926537307E+03 -0.53662457469E+03 -0.14411404718E+04  0.15563101636E+04  0.12699999809E+01 0.  1.
</event>
<event>
 5   0  0.5131083E-06  0.3149317E+04  0.7818609E-02  0.8202332E-01
        2   -1    0    0  501    0  0.00000000000E+00  0.00000000000E+00  0.22210762993E+04  0.22210762993E+04  0.25500000920E-02 0. -1.
       -2   -1    0    0    0  501  0.00000000000E+00  0.00000000000E+00 -0.11163729740E+04  0.11163729740E+04  0.25500000920E-02 0.  1.
    10030    2    1    2    0    0  0.00000000000E+00  0.00000000000E+00  0.11047033252E+04  0.33374492733E+04  0.31493171030E+04 0.  0.
        3    1    3    3  502    0  0.93528668375E+03 -0.29131780633E+03  0.18588503418E+04  0.21011786808E+04  0.10100000352E+00 0. -1.
       -3    1    3    3    0  502 -0.93528668375E+03  0.29131780633E+03 -0.75414701660E+03  0.12362705925E+04  0.10100000352E+00 0.  1.
</event>
<event>
 5   0  0.1881144E-06  0.3230680E+04  0.7818609E-02  0.8180761E-01
        1   -1    0    0  501    0  0.00000000000E+00  0.00000000000E+00  0.16052387405E+04  0.16052387405E+04  0.50400001928E-02 0. -1.
       -1   -1    0    0    0  501  0.00000000000E+00  0.00000000000E+00 -0.16255052164E+04  0.16255052164E+04  0.50400001928E-02 0.  1.
    10030    2    1    2    0    0  0.00000000000E+00  0.00000000000E+00 -0.20266475886E+02  0.32307439570E+04  0.32306803905E+04 0.  0.
        3    1    3    3  502    0  0.78637379450E+03 -0.12332490659E+04 -0.69573912330E+03  0.16196727882E+04  0.10100000352E+00 0. -1.
       -3    1    3    3    0  502 -0.78637379450E+03  0.12332490659E+04  0.67547264742E+03  0.16110711687E+04  0.10100000352E+00 0.  1.
</event>
<event>
 5   0  0.1846850E-06  0.3196605E+04  0.7818609E-02  0.8189714E-01
       -1   -1    0    0    0  501  0.00000000000E+00  0.00000000000E+00  0.14927938130E+04  0.14927938130E+04  0.50400001928E-02 0.  1.
        1   -1    0    0  501    0  0.00000000000E+00  0.00000000000E+00 -0.17112683417E+04  0.17112683417E+04  0.50400001928E-02 0. -1.
    10030    2    1    2    0    0  0.00000000000E+00  0.00000000000E+00 -0.21847452874E+03  0.32040621547E+04  0.31966049446E+04 0.  0.
        5    1    3    3  502    0 -0.14472027217E+04 -0.56049138503E+02  0.56836604730E+03  0.15558275217E+04  0.46999998093E+01 0.  1.
       -5    1    3    3    0  502  0.14472027217E+04  0.56049138503E+02 -0.78684057604E+03  0.16482346331E+04  0.46999998093E+01 0. -1.
</event>
<event>
 5   0  0.1886248E-06  0.3187116E+04  0.7818609E-02  0.8192228E-01
       -1   -1    0    0    0  501  0.00000000000E+00  0.00000000000E+00  0.11907111144E+04  0.11907111145E+04  0.50400001928E-02 0. -1.
        1   -1    0    0  501    0  0.00000000000E+00  0.00000000000E+00 -0.21326983184E+04  0.21326983184E+04  0.50400001928E-02 0.  1.
    10030    2    1    2    0    0  0.00000000000E+00  0.00000000000E+00 -0.94198720395E+03  0.33234094329E+04  0.31871163088E+04 0.  0.
        4    1    3    3  502    0 -0.66650105703E+02 -0.85858308637E+03  0.92717291476E+03  0.12654083845E+04  0.12699999809E+01 0. -1.
       -4    1    3    3    0  502  0.66650105703E+02  0.85858308637E+03 -0.18691601187E+04  0.20580010484E+04  0.12699999809E+01 0.  1.
</event>
<event>
 5   0  0.5131083E-06  0.3057450E+04  0.7818609E-02  0.8227513E-01
       -2   -1    0    0    0  501  0.00000000000E+00  0.00000000000E+00  0.12621791653E+04  0.12621791654E+04  0.25500000920E-02 0.  1.
        2   -1    0    0  501    0  0.00000000000E+00  0.00000000000E+00 -0.18515602748E+04  0.18515602748E+04  0.25500000920E-02 0. -1.
    10030    2    1    2    0    0  0.00000000000E+00  0.00000000000E+00 -0.58938110942E+03  0.31137394401E+04  0.30574504426E+04 0.  0.
        3    1    3    3  502    0  0.11323098394E+04 -0.40083500944E+03  0.66834374669E+03  0.13745827189E+04  0.10100000352E+00 0.  1.
       -3    1    3    3    0  502 -0.11323098394E+04  0.40083500944E+03 -0.12577248561E+04  0.17391567212E+04  0.10100000352E+00 0. -1.
</event>
<event>
 5   0  0.5347280E-06  0.3163378E+04  0.7818609E-02  0.8198556E-01
       -2   -1    0    0    0  501  0.00000000000E+00  0.00000000000E+00  0.10782904243E+04  0.10782904243E+04  0.25500000920E-02 0.  1.
        2   -1    0    0  501    0  0.00000000000E+00  0.00000000000E+00 -0.23200987870E+04  0.23200987870E+04  0.25500000920E-02 0. -1.
    10030    2    1    2    0    0  0.00000000000E+00  0.00000000000E+00 -0.12418083627E+04  0.33983892113E+04  0.31633781345E+04 0.  0.
        2    1    3    3  502    0  0.12321392743E+04  0.95058937103E+03 -0.31713809468E+03  0.15881951753E+04  0.25500000920E-02 0.  1.
       -2    1    3    3    0  502 -0.12321392743E+04 -0.95058937103E+03 -0.92467026805E+03  0.18101940361E+04  0.25500000920E-02 0. -1.
</event>
<event>
 5   0  0.5131083E-06  0.2311700E+04  0.7818609E-02  0.8473322E-01
       -2   -1    0    0    0  501  0.00000000000E+00  0.00000000000E+00  0.70191777083E+03  0.70191777083E+03  0.25500000920E-02 0.  1.
        2   -1    0    0  501    0  0.00000000000E+00  0.00000000000E+00 -0.19033412738E+04  0.19033412738E+04  0.25500000920E-02 0. -1.
    10030    2    1    2    0    0  0.00000000000E+00  0.00000000000E+00 -0.12014235030E+04  0.26052590446E+04  0.23116998629E+04 0.  0.
        3    1    3    3  502    0  0.45482708712E+03 -0.63946538816E+03  0.35570604651E+03  0.86157440976E+03  0.10100000352E+00 0.  1.
       -3    1    3    3    0  502 -0.45482708712E+03  0.63946538816E+03 -0.15571295495E+04  0.17436846349E+04  0.10100000352E+00 0. -1.
</event>
<event>
 5   0  0.5347280E-06  0.2257125E+04  0.7818609E-02  0.8495021E-01
        2   -1    0    0  501    0  0.00000000000E+00  0.00000000000E+00  0.22672314963E+04  0.22672314963E+04  0.25500000920E-02 0.  1.
       -2   -1    0    0    0  501  0.00000000000E+00  0.00000000000E+00 -0.56176575684E+03  0.56176575684E+03  0.25500000920E-02 0. -1.
    10030    2    1    2    0    0  0.00000000000E+00  0.00000000000E+00  0.17054657394E+04  0.28289972531E+04  0.22571247351E+04 0.  0.
        2    1    3    3  502    0  0.76630429560E+03 -0.78748485818E+03  0.53001107216E+03  0.12199452496E+04  0.25500000920E-02 0. -1.
       -2    1    3    3    0  502 -0.76630429560E+03  0.78748485818E+03  0.11754546673E+04  0.16090520036E+04  0.25500000920E-02 0.  1.
</event>
<event>
 5   0  0.5131083E-06  0.2666510E+04  0.7818609E-02  0.8345954E-01
       -2   -1    0    0    0  501  0.00000000000E+00  0.00000000000E+00  0.84677906749E+03  0.84677906749E+03  0.25500000920E-02 0.  1.
        2   -1    0    0  501    0  0.00000000000E+00  0.00000000000E+00 -0.20992121178E+04  0.20992121178E+04  0.25500000920E-02 0. -1.
    10030    2    1    2    0    0  0.00000000000E+00  0.00000000000E+00 -0.12524330503E+04  0.29459911853E+04  0.26665099884E+04 0.  0.
        3    1    3    3  502    0 -0.51204977543E+03 -0.77852312674E+03  0.42728703084E+03  0.10251182606E+04  0.10100000352E+00 0.  1.
       -3    1    3    3    0  502  0.51204977543E+03  0.77852312674E+03 -0.16797200811E+04  0.19208729246E+04  0.10100000352E+00 0. -1.
</event>
<event>
 5   0  0.5373060E-06  0.3238198E+04  0.7818609E-02  0.8178801E-01
       -2   -1    0    0    0  501  0.00000000000E+00  0.00000000000E+00  0.25616336812E+04  0.25616336812E+04  0.25500000920E-02 0. -1.
        2   -1    0    0  501    0  0.00000000000E+00  0.00000000000E+00 -0.10233633932E+04  0.10233633932E+04  0.25500000920E-02 0.  1.
    10030    2    1    2    0    0  0.00000000000E+00  0.00000000000E+00  0.15382702880E+04  0.35849970744E+04  0.32381983485E+04 0.  0.
        5    1    3    3  502    0 -0.13630998085E+04  0.43234835946E+03 -0.71451914800E+02  0.14318148127E+04  0.46999998093E+01 0.  1.
       -5    1    3    3    0  502  0.13630998085E+04 -0.43234835946E+03  0.16097222028E+04  0.21531822617E+04  0.46999998093E+01 0. -1.
</event>
<event>
 5   0  0.5121624E-06  0.3209970E+04  0.7818609E-02  0.8186189E-01
       -2   -1    0    0    0  501  0.00000000000E+00  0.00000000000E+00  0.14543083176E+04  0.14543083176E+04  0.25500000920E-02 0.  1.
        2   -1    0    0  501    0  0.00000000000E+00  0.00000000000E+00 -0.17712731851E+04  0.17712731851E+04  0.25500000920E-02 0. -1.
    10030    2    1    2    0    0  0.00000000000E+00  0.00000000000E+00 -0.31696486758E+03  0.32255815027E+04  0.32099702963E+04 0.  0.
        4    1    3    3  502    0 -0.78276683223E+03  0.32966696780E+02 -0.15660678815E+04  0.17511084887E+04  0.12699999809E+01 0. -1.
       -4    1    3    3    0  502  0.78276683223E+03 -0.32966696780E+02  0.12491030139E+04  0.14744730140E+04  0.12699999809E+01 0.  1.
</event>
<event>
 5   0  0.5121624E-06  0.3186126E+04  0.7818609E-02  0.8192491E-01
        2   -1    0    0  501    0  0.00000000000E+00  0.00000000000E+00  0.24485534547E+04  0.24485534547E+04  0.25500000920E-02 0.  1.
       -2   -1    0    0    0  501  0.00000000000E+00  0.00000000000E+00 -0.10364688056E+04  0.10364688056E+04  0.25500000920E-02 0. -1.
    10030    2    1    2    0    0  0.00000000000E+00  0.00000000000E+00  0.14120846491E+04  0.34850222603E+04  0.31861257193E+04 0.  0.
        4    1    3    3  502    0 -0.13904490360E+04 -0.63949090465E+03  0.22234672195E+03  0.15465241079E+04  0.12699999809E+01 0. -1.
       -4    1    3    3    0  502  0.13904490360E+04  0.63949090465E+03  0.11897379271E+04  0.19384981524E+04  0.12699999809E+01 0.  1.
</event>
<event>
 5   0  0.1977015E-06  0.3155121E+04  0.7818609E-02  0.8200771E-01
        1   -1    0    0  501    0  0.00000000000E+00  0.00000000000E+00  0.18407502839E+04  0.18407502839E+04  0.50400001928E-02 0. -1.
       -1   -1    0    0    0  501  0.00000000000E+00  0.00000000000E+00 -0.13520012222E+04  0.13520012222E+04  0.50400001928E-02 0.  1.
    10030    2    1    2    0    0  0.00000000000E+00  0.00000000000E+00  0.48874906170E+03  0.31927515062E+04  0.31551206847E+04 0.  0.
        1    1    3    3  502    0  0.15361528829E+04 -0.35791314829E+03  0.21523643930E+03  0.15919152698E+04  0.50400001928E-02 0.  1.
       -1    1    3    3    0  502 -0.15361528829E+04  0.35791314829E+03  0.27351262240E+03  0.16008362364E+04  0.50400001928E-02 0. -1.
</event>
<event>
 5   0  0.5347280E-06  0.3011477E+04  0.7818609E-02  0.8240461E-01
        2   -1    0    0  501    0  0.00000000000E+00  0.00000000000E+00  0.14126758709E+04  0.14126758709E+04  0.25500000920E-02 0. -1.
       -2   -1    0    0    0  501  0.00000000000E+00  0.00000000000E+00 -0.16049313285E+04  0.16049313285E+04  0.25500000920E-02 0.  1.
    10030    2    1    2    0    0  0.00000000000E+00  0.00000000000E+00 -0.19225545762E+03  0.30176071993E+04  0.30114765562E+04 0.  0.
        2    1    3    3  502    0 -0.69773939371E+03  0.28603398654E+03  0.12098259265E+04  0.14255996897E+04  0.25500000920E-02 0. -1.
       -2    1    3    3    0  502  0.69773939371E+03 -0.28603398654E+03 -0.14020813841E+04  0.15920075096E+04  0.25500000920E-02 0.  1.
</event>
<event>
 5   0  0.1846850E-06  0.3166560E+04  0.7818609E-02  0.8197705E-01
        1   -1    0    0  501    0  0.00000000000E+00  0.00000000000E+00  0.13151253804E+04  0.13151253804E+04  0.50400001928E-02 0.  1.
       -1   -1    0    0    0  501  0.00000000000E+00  0.00000000000E+00 -0.19061116405E+04  0.19061116405E+04  0.50400001928E-02 0. -1.
    10030    2    1    2    0    0  0.00000000000E+00  0.00000000000E+00 -0.59098626011E+03  0.32212370209E+04  0.31665601503E+04 0.  0.
        5    1    3    3  502    0  0.15464440483E+03 -0.10954513728E+04 -0.14476687060E+04  0.18220031215E+04  0.46999998093E+01 0. -1.
       -5    1    3    3    0  502 -0.15464440483E+03  0.10954513728E+04  0.85668244593E+03  0.13992338995E+04  0.46999998093E+01 0.  1.
</event>
<event>
 5   0  0.1886248E-06  0.2076287E+04  0.7818609E-02  0.8571762E-01
       -1   -1    0    0    0  501  0.00000000000E+00  0.00000000000E+00  0.46535774684E+03  0.46535774686E+03  0.50400001928E-02 0. -1.
        1   -1    0    0  501    0  0.00000000000E+00  0.00000000000E+00 -0.23159431042E+04  0.23159431042E+04  0.50400001928E-02 0.  1.
    10030    2    1    2    0    0  0.00000000000E+00  0.00000000000E+00 -0.18505853573E+04  0.27813008510E+04  0.20762871331E+04 0.  0.
        4    1    3    3  502    0  0.20167989597E+03 -0.80637729088E+03 -0.92156936449E+02  0.83630952973E+03  0.12699999809E+01 0. -1.
       -4    1    3    3    0  502 -0.20167989597E+03  0.80637729088E+03 -0.17584284209E+04  0.19449913213E+04  0.12699999809E+01 0.  1.
</event>
<event>
 5   0  0.1846850E-06  0.3169460E+04  0.7818609E-02  0.8196930E-01
        1   -1    0    0  501    0  0.00000000000E+00  0.00000000000E+00  0.18722477272E+04  0.18722477272E+04  0.50400001928E-02 0. -1.
       -1   -1    0    0    0  501  0.00000000000E+00  0.00000000000E+00 -0.13413654955E+04  0.13413654955E+04  0.50400001928E-02 0.  1.
    10030    2    1    2    0    0  0.00000000000E+00  0.00000000000E+00  0.53088223173E+03  0.32136132228E+04  0.31694595756E+04 0.  0.
        5    1    3    3  502    0  0.32582533755E+03  0.22067836330E+03 -0.12910288971E+04  0.13496809971E+04  0.46999998093E+01 0.  1.
       -5    1    3    3    0  502 -0.32582533755E+03 -0.22067836330E+03  0.18219111288E+04  0.18639322257E+04  0.46999998093E+01 0. -1.
</event>
<event>
 5   0  0.5108810E-06  0.3193917E+04  0.7818609E-02  0.8190425E-01
        2   -1    0    0  501    0  0.00000000000E+00  0.00000000000E+00  0.17405412248E+04  0.17405412248E+04  0.25500000920E-02 0. -1.
       -2   -1    0    0    0  501  0.00000000000E+00  0.00000000000E+00 -0.14652205545E+04  0.14652205545E+04  0.25500000920E-02 0.  1.
    10030    2    1    2    0    0  0.00000000000E+00  0.00000000000E+00  0.27532067033E+03  0.32057617793E+04  0.31939172052E+04 0.  0.
        1    1    3    3  502    0 -0.31184040503E+03  0.13878674383E+04  0.86620081487E+03  0.16654501842E+04  0.50400001928E-02 0. -1.
       -1    1    3    3    0  502  0.31184040503E+03 -0.13878674383E+04 -0.59088014454E+03  0.15403115950E+04  0.50400001928E-02 0.  1.
</event>
<event>
 5   0  0.5131083E-06  0.3193252E+04  0.7818609E-02  0.8190602E-01
        2   -1    0    0  501    0  0.00000000000E+00  0.00000000000E+00  0.24678469234E+04  0.24678469234E+04  0.25500000920E-02 0. -1.
       -2   -1    0    0    0  501  0.00000000000E+00  0.00000000000E+00 -0.10329709515E+04  0.10329709515E+04  0.25500000920E-02 0.  1.
    10030    2    1    2    0    0  0.00000000000E+00  0.00000000000E+00  0.14348759719E+04  0.35008178749E+04  0.31932517499E+04 0.  0.
        3    1    3    3  502    0 -0.39119861707E+03 -0.14079023880E+04  0.14228300886E+04  0.20395271421E+04  0.10100000352E+00 0. -1.
       -3    1    3    3    0  502  0.39119861707E+03  0.14079023880E+04  0.12045883322E+02  0.14612907328E+04  0.10100000352E+00 0.  1.
</event>
<event>
 5   0  0.5373060E-06  0.2977446E+04  0.7818609E-02  0.8250201E-01
        2   -1    0    0  501    0  0.00000000000E+00  0.00000000000E+00  0.26714099646E+04  0.26714099646E+04  0.25500000920E-02 0. -1.
       -2   -1    0    0    0  501  0.00000000000E+00  0.00000000000E+00 -0.82963511791E+03  0.82963511791E+03  0.25500000920E-02 0.  1.
    10030    2    1    2    0    0  0.00000000000E+00  0.00000000000E+00  0.18417748467E+04  0.35010450825E+04  0.29774455636E+04 0.  0.
        5    1    3    3  502    0  0.27138090479E+03  0.50891666806E+03 -0.69291971934E+03  0.90155620899E+03  0.46999998093E+01 0.  1.
       -5    1    3    3    0  502 -0.27138090479E+03 -0.50891666806E+03  0.25346945660E+04  0.25994888735E+04  0.46999998093E+01 0. -1.
</event>
<event>
 5   0  0.1846850E-06  0.2630453E+04  0.7818609E-02  0.8357930E-01
        1   -1    0    0  501    0  0.00000000000E+00  0.00000000000E+00  0.22438956422E+04  0.22438956422E+04  0.50400001928E-02 0.  1.
       -1   -1    0    0    0  501  0.00000000000E+00  0.00000000000E+00 -0.77090075286E+03  0.77090075287E+03  0.50400001928E-02 0. -1.
    10030    2    1    2    0    0  0.00000000000E+00  0.00000000000E+00  0.14729948894E+04  0.30147963951E+04  0.26304530712E+04 0.  0.
        5    1    3    3  502    0  0.11190660942E+04  0.29297437454E+03  0.14537626010E+04  0.18578457141E+04  0.46999998093E+01 0.  1.
       -5    1    3    3    0  502 -0.11190660942E+04 -0.29297437454E+03  0.19232288359E+02  0.11569506810E+04  0.46999998093E+01 0. -1.
</event>
<event>
 5   0  0.5131083E-06  0.2348075E+04  0.7818609E-02  0.8459204E-01
        2   -1    0    0  501    0  0.00000000000E+00  0.00000000000E+00  0.96156730781E+03  0.96156730782E+03  0.25500000920E-02 0.  1.
       -2   -1    0    0    0  501  0.00000000000E+00  0.00000000000E+00 -0.14334550655E+04  0.14334550655E+04  0.25500000920E-02 0. -1.
    10030    2    1    2    0    0  0.00000000000E+00  0.00000000000E+00 -0.47188775765E+03  0.23950223733E+04  0.23480745543E+04 0.  0.
        3    1    3    3  502    0 -0.86682794806E+03  0.74751449472E+03 -0.50230673437E+03  0.12499922708E+04  0.10100000352E+00 0.  1.
       -3    1    3    3    0  502  0.86682794806E+03 -0.74751449472E+03  0.30418976719E+02  0.11450301025E+04  0.10100000352E+00 0. -1.
</event>
<event>
 5   0  0.5121624E-06  0.3116302E+04  0.7818609E-02  0.8211278E-01
       -2   -1    0    0    0  501  0.00000000000E+00  0.00000000000E+00  0.11678568047E+04  0.11678568047E+04  0.25500000920E-02 0.  1.
        2   -1    0    0  501    0  0.00000000000E+00  0.00000000000E+00 -0.20788796871E+04  0.20788796871E+04  0.25500000920E-02 0. -1.
    10030    2    1    2    0    0  0.00000000000E+00  0.00000000000E+00 -0.91102288245E+03  0.32467364918E+04  0.31163015186E+04 0.  0.
        4    1    3    3  502    0 -0.74870331131E+02 -0.77506983685E+03 -0.18616281433E+04  0.20179196652E+04  0.12699999809E+01 0. -1.
       -4    1    3    3    0  502  0.74870331131E+02  0.77506983685E+03  0.95060526081E+03  0.12288168266E+04  0.12699999809E+01 0.  1.
</event>
<event>
 5   0  0.5373060E-06  0.3094502E+04  0.7818609E-02  0.8217248E-01
        2   -1    0    0  501    0  0.00000000000E+00  0.00000000000E+00  0.18895468707E+04  0.18895468707E+04  0.25500000920E-02 0. -1.
       -2   -1    0    0    0  501  0.00000000000E+00  0.00000000000E+00 -0.12669626085E+04  0.12669626085E+04  0.25500000920E-02 0.  1.
    10030    2    1    2    0    0  0.00000000000E+00  0.00000000000E+00  0.62258426223E+03  0.31565094792E+04  0.30945017254E+04 0.  0.
        5    1    3    3  502    0  0.41937775346E+03  0.33084110037E+03  0.17925017337E+04  0.18704058621E+04  0.46999998093E+01 0. -1.
       -5    1    3    3    0  502 -0.41937775346E+03 -0.33084110037E+03 -0.11699174715E+04  0.12861036171E+04  0.46999998093E+01 0.  1.
</event>
<event>
 5   0  0.1846850E-06  0.3214769E+04  0.7818609E-02  0.8184927E-01
        1   -1    0    0  501    0  0.00000000000E+00  0.00000000000E+00  0.12707752950E+04  0.12707752950E+04  0.50400001928E-02 0. -1.
       -1   -1    0    0    0  501  0.00000000000E+00  0.00000000000E+00 -0.20331568279E+04  0.20331568279E+04  0.50400001928E-02 0.  1.
    10030    2    1    2    0    0  0.00000000000E+00  0.00000000000E+00 -0.76238153295E+03  0.33039321229E+04  0.32147693340E+04 0.  0.
        5    1    3    3  502    0 -0.10042241956E+04 -0.10147206982E+04 -0.11402824267E+04  0.18271262772E+04  0.46999998093E+01 0.  1.
       -5    1    3    3    0  502  0.10042241956E+04  0.10147206982E+04  0.37790089371E+03  0.14768058457E+04  0.46999998093E+01 0. -1.
</event>
<event>
 5   0  0.5131083E-06  0.2478501E+04  0.7818609E-02  0.8410685E-01
        2   -1    0    0  501    0  0.00000000000E+00  0.00000000000E+00  0.21178322606E+04  0.21178322606E+04  0.25500000920E-02 0. -1.
       -2   -1    0    0    0  501  0.00000000000E+00  0.00000000000E+00 -0.72514770791E+03  0.72514770791E+03  0.25500000920E-02 0.  1.
    10030    2    1    2    0    0  0.00000000000E+00  0.00000000000E+00  0.13926845527E+04  0.28429799685E+04  0.24785005221E+04 0.  0.
        3    1    3    3  502    0  0.58460424167E+03  0.10679716228E+04  0.96144806949E+03  0.15513567955E+04  0.10100000352E+00 0.  1.
       -3    1    3    3    0  502 -0.58460424167E+03 -0.10679716228E+04  0.43123648322E+03  0.12916231730E+04  0.10100000352E+00 0. -1.
</event>
<event>
 5   0  0.5108810E-06  0.2065800E+04  0.7818609E-02  0.8576460E-01
        2   -1    0    0  501    0  0.00000000000E+00  0.00000000000E+00  0.13130273818E+04  0.13130273818E+04  0.25500000920E-02 0. -1.
       -2   -1    0    0    0  501  0.00000000000E+00  0.00000000000E+00 -0.81253631453E+03  0.81253631453E+03  0.25500000920E-02 0.  1.
    10030    2    1    2    0    0  0.00000000000E+00  0.00000000000E+00  0.50049106725E+03  0.21255636963E+04  0.20658000191E+04 0.  0.
        1    1    3    3  502    0 -0.91030055010E+03 -0.15400707059E+03  0.72680474293E+03  0.11749937888E+04  0.50400001928E-02 0. -1.
       -1    1    3    3    0  502  0.91030055010E+03  0.15400707059E+03 -0.22631367568E+03  0.95056990754E+03  0.50400001928E-02 0.  1.
</event>
<event>
 5   0  0.5121624E-06  0.3143849E+04  0.7818609E-02  0.8203806E-01
       -2   -1    0    0    0  501  0.00000000000E+00  0.00000000000E+00  0.21697752178E+04  0.21697752178E+04  0.25500000920E-02 0.  1.
        2   -1    0    0  501    0  0.00000000000E+00  0.00000000000E+00 -0.11388031449E+04  0.11388031450E+04  0.25500000920E-02 0. -1.
    10030    2    1    2    0    0  0.00000000000E+00  0.00000000000E+00  0.10309720729E+04  0.33085783628E+04  0.31438491324E+04 0.  0.
        4    1    3    3  502    0  0.88803622754E+03  0.98864617687E+03 -0.36809888677E+03  0.13789590305E+04  0.12699999809E+01 0. -1.
       -4    1    3    3    0  502 -0.88803622754E+03 -0.98864617687E+03  0.13990709596E+04  0.19296193323E+04  0.12699999809E+01 0.  1.
</event>
<event>
 5   0  0.5108810E-06  0.3314686E+04  0.7818609E-02  0.8159168E-01
       -2   -1    0    0    0  501  0.00000000000E+00  0.00000000000E+00  0.21382287763E+04  0.21382287763E+04  0.25500000920E-02 0.  1.
        2   -1    0    0  501    0  0.00000000000E+00  0.00000000000E+00 -0.12846083493E+04  0.12846083493E+04  0.25500000920E-02 0. -1.
    10030    2    1    2    0    0  0.00000000000E+00  0.00000000000E+00  0.85362042704E+03  0.34228371256E+04  0.33146864338E+04 0.  0.
        1    1    3    3  502    0 -0.42265841210E+03 -0.87568131856E+02 -0.12255484684E+04  0.12993372770E+04  0.50400001928E-02 0. -1.
       -1    1    3    3    0  502  0.42265841210E+03  0.87568131856E+02  0.20791688954E+04  0.21234998486E+04  0.50400001928E-02 0.  1.
</event>
<event>
 5   0  0.5131083E-06  0.3156552E+04  0.7818609E-02  0.8200387E-01
        2   -1    0    0  501    0  0.00000000000E+00  0.00000000000E+00  0.20529978407E+04  0.20529978407E+04  0.25500000920E-02 0.  1.
       -2   -1    0    0    0  501  0.00000000000E+00  0.00000000000E+00 -0.12133256305E+04  0.12133256305E+04  0.25500000920E-02 0. -1.
    10030    2    1    2    0    0  0.00000000000E+00  0.00000000000E+00  0.83967221027E+03  0.32663234712E+04  0.31565518526E+04 0.  0.
        3    1    3    3  502    0 -0.83851683832E+03  0.11719002356E+04  0.10860374624E+04  0.18044217994E+04  0.10100000352E+00 0.  1.
       -3    1    3    3    0  502  0.83851683832E+03 -0.11719002356E+04 -0.24636525212E+03  0.14619016718E+04  0.10100000352E+00 0. -1.
</event>
<event>
 5   0  0.5347280E-06  0.2017783E+04  0.7818609E-02  0.8598352E-01
        2   -1    0    0  501    0  0.00000000000E+00  0.00000000000E+00  0.24379310297E+04  0.24379310297E+04  0.25500000920E-02 0.  1.
       -2   -1    0    0    0  501  0.00000000000E+00  0.00000000000E+00 -0.41751043360E+03  0.41751043361E+03  0.25500000920E-02 0. -1.
    10030    2    1    2    0    0  0.00000000000E+00  0.00000000000E+00  0.20204205961E+04  0.28554414633E+04  0.20177825862E+04 0.  0.
        2    1    3    3  502    0  0.12015088979E+03  0.49058267031E+03  0.22461325531E+04  0.23022204584E+04  0.25500000920E-02 0.  1.
       -2    1    3    3    0  502 -0.12015088979E+03 -0.49058267031E+03 -0.22571195705E+03  0.55322100492E+03  0.25500000920E-02 0. -1.
</event>
<event>
 5   0  0.5108810E-06  0.3191494E+04  0.7818609E-02  0.8191067E-01
        2   -1    0    0  501    0  0.00000000000E+00  0.00000000000E+00  0.13046327825E+04  0.13046327825E+04  0.25500000920E-02 0.  1.
       -2   -1    0    0    0  501  0.00000000000E+00  0.00000000000E+00 -0.19518197295E+04  0.19518197295E+04  0.25500000920E-02 0. -1.
    10030    2    1    2    0    0  0.00000000000E+00  0.00000000000E+00 -0.64718694700E+03  0.32564525121E+04  0.31914936972E+04 0.  0.
        1    1    3    3  502    0  0.11577635996E+04 -0.67066299951E+03  0.56370521474E+03  0.14518846306E+04  0.50400001928E-02 0.  1.
       -1    1    3    3    0  502 -0.11577635996E+04  0.67066299951E+03 -0.12108921617E+04  0.18045678815E+04  0.50400001928E-02 0. -1.
</event>
<event>
 5   0  0.5347280E-06  0.2121888E+04  0.7818609E-02  0.8551662E-01
        2   -1    0    0  501    0  0.00000000000E+00  0.00000000000E+00  0.20508483938E+04  0.20508483938E+04  0.25500000920E-02 0.  1.
       -2   -1    0    0    0  501  0.00000000000E+00  0.00000000000E+00 -0.54884697558E+03  0.54884697558E+03  0.25500000920E-02 0. -1.
    10030    2    1    2    0    0  0.00000000000E+00  0.00000000000E+00  0.15020014182E+04  0.25996953694E+04  0.21218877806E+04 0.  0.
        2    1    3    3  502    0 -0.15739382186E+03  0.92003288409E+03  0.13689200826E+04  0.16568571198E+04  0.25500000920E-02 0.  1.
       -2    1    3    3    0  502  0.15739382186E+03 -0.92003288409E+03  0.13308133563E+03  0.94283824957E+03  0.25500000920E-02 0. -1.
</event>
<event>
 5   0  0.1977015E-06  0.2394278E+04  0.7818609E-02  0.8441649E-01
       -1   -1    0    0    0  501  0.00000000000E+00  0.00000000000E+00  0.68786333738E+03  0.68786333740E+03  0.50400001928E-02 0. -1.
        1   -1    0    0  501    0  0.00000000000E+00  0.00000000000E+00 -0.20834681802E+04  0.20834681802E+04  0.50400001928E-02 0.  1.
    10030    2    1    2    0    0  0.00000000000E+00  0.00000000000E+00 -0.13956048428E+04  0.27713315176E+04  0.23942776579E+04 0.  0.
        1    1    3    3  502    0 -0.87548857545E+03 -0.37162499659E+03 -0.15393127837E+04  0.18094389269E+04  0.50400001928E-02 0.  1.
       -1    1    3    3    0  502  0.87548857545E+03  0.37162499659E+03  0.14370794091E+03  0.96189259075E+03  0.50400001928E-02 0. -1.
</event>
<event>
 5   0  0.1969465E-06  0.3266962E+04  0.7818609E-02  0.8171353E-01
        1   -1    0    0  501    0  0.00000000000E+00  0.00000000000E+00  0.19884151051E+04  0.19884151051E+04  0.50400001928E-02 0.  1.
       -1   -1    0    0    0  501  0.00000000000E+00  0.00000000000E+00 -0.13419029442E+04  0.13419029442E+04  0.50400001928E-02 0. -1.
    10030    2    1    2    0    0  0.00000000000E+00  0.00000000000E+00  0.64651216083E+03  0.33303180493E+04  0.32669619428E+04 0.  0.
        2    1    3    3  502    0 -0.11234633663E+02 -0.17815161003E+03 -0.13319304640E+04  0.13438388944E+04  0.25500000920E-02 0. -1.
       -2    1    3    3    0  502  0.11234633663E+02  0.17815161003E+03  0.19784426248E+04  0.19864791549E+04  0.25500000920E-02 0.  1.
</event>
<event>
 5   0  0.1886248E-06  0.3221209E+04  0.7818609E-02  0.8183238E-01
       -1   -1    0    0    0  501  0.00000000000E+00  0.00000000000E+00  0.99432246725E+03  0.99432246727E+03  0.50400001928E-02 0.  1.
        1   -1    0    0  501    0  0.00000000000E+00  0.00000000000E+00 -0.26088589896E+04  0.26088589896E+04  0.50400001928E-02 0. -1.
    10030    2    1    2    0    0  0.00000000000E+00  0.00000000000E+00 -0.16145365224E+04  0.36031814569E+04  0.32212091564E+04 0.  0.
        4    1    3    3  502    0 -0.21432742263E+03  0.27812107586E+03 -0.25655250655E+04  0.25894416486E+04  0.12699999809E+01 0. -1.
       -4    1    3    3    0  502  0.21432742263E+03 -0.27812107586E+03  0.95098854311E+03  0.10137398083E+04  0.12699999809E+01 0.  1.
</event>
<event>
 5   0  0.1846850E-06  0.2813932E+04  0.7818609E-02  0.8298956E-01
       -1   -1    0    0    0  501  0.00000000000E+00  0.00000000000E+00  0.12442902404E+04  0.12442902404E+04  0.50400001928E-02 0. -1.
        1   -1    0    0  501    0  0.00000000000E+00  0.00000000000E+00 -0.15909098029E+04  0.15909098029E+04  0.50400001928E-02 0.  1.
    10030    2    1    2    0    0  0.00000000000E+00  0.00000000000E+00 -0.34661956250E+03  0.28352000433E+04  0.28139321535E+04 0.  0.
        5    1    3    3  502    0  0.24887232493E+03  0.71837329679E+03 -0.13661214430E+04  0.15634281290E+04  0.46999998093E+01 0.  1.
       -5    1    3    3    0  502 -0.24887232493E+03 -0.71837329679E+03  0.10195018805E+04  0.12717719143E+04  0.46999998093E+01 0. -1.
</event>
<event>
 5   0  0.5131083E-06  0.3190196E+04  0.7818609E-02  0.8191411E-01
        2   -1    0    0  501    0  0.00000000000E+00  0.00000000000E+00  0.15034925944E+04  0.15034925944E+04  0.25500000920E-02 0. -1.
       -2   -1    0    0    0  501  0.00000000000E+00  0.00000000000E+00 -0.16922852884E+04  0.16922852884E+04  0.25500000920E-02 0.  1.
    10030    2    1    2    0    0  0.00000000000E+00  0.00000000000E+00 -0.18879269398E+03  0.31957778828E+04  0.31901964822E+04 0.  0.
        3    1    3    3  502    0 -0.12979776079E+04  0.71493699887E+03  0.49693939396E+03  0.15629553911E+04  0.10100000352E+00 0. -1.
       -3    1    3    3    0  502  0.12979776079E+04 -0.71493699887E+03 -0.68573208794E+03  0.16328224918E+04  0.10100000352E+00 0.  1.
</event>
<event>
 5   0  0.5131083E-06  0.3166404E+04  0.7818609E-02  0.8197747E-01
       -2   -1    0    0    0  501  0.00000000000E+00  0.00000000000E+00  0.14382706628E+04  0.14382706628E+04  0.25500000920E-02 0. -1.
        2   -1    0    0  501    0  0.00000000000E+00  0.00000000000E+00 -0.17427377649E+04  0.17427377649E+04  0.25500000920E-02 0.  1.
    10030    2    1    2    0    0  0.00000000000E+00  0.00000000000E+00 -0.30446710209E+03  0.31810084277E+04  0.31664040173E+04 0.  0.
        3    1    3    3  502    0  0.92417645371E+03  0.11354233288E+04  0.45324048825E+03  0.15325518600E+04  0.10100000352E+00 0. -1.
       -3    1    3    3    0  502 -0.92417645371E+03 -0.11354233288E+04 -0.75770759033E+03  0.16484565677E+04  0.10100000352E+00 0.  1.
</event>
<event>
 5   0  0.1881144E-06  0.3184450E+04  0.7818609E-02  0.8192936E-01
       -1   -1    0    0    0  501  0.00000000000E+00  0.00000000000E+00  0.12376467310E+04  0.12376467310E+04  0.50400001928E-02 0.  1.
        1   -1    0    0  501    0  0.00000000000E+00  0.00000000000E+00 -0.20483878187E+04  0.20483878187E+04  0.50400001928E-02 0. -1.
    10030    2    1    2    0    0  0.00000000000E+00  0.00000000000E+00 -0.81074108771E+03  0.32860345497E+04  0.31844500232E+04 0.  0.
        3    1    3    3  502    0  0.12750430013E+04 -0.88730878545E+03 -0.76598819832E+03  0.17319900306E+04  0.10100000352E+00 0. -1.
       -3    1    3    3    0  502 -0.12750430013E+04  0.88730878545E+03 -0.44752889391E+02  0.15540445191E+04  0.10100000352E+00 0.  1.
</event>
<event>
 5   0  0.1886248E-06  0.3141127E+04  0.7818609E-02  0.8204541E-01
       -1   -1    0    0    0  501  0.00000000000E+00  0.00000000000E+00  0.14053636954E+04  0.14053636954E+04  0.50400001928E-02 0. -1.
        1   -1    0    0  501    0  0.00000000000E+00  0.00000000000E+00 -0.17551829991E+04  0.17551829991E+04  0.50400001928E-02 0.  1.
    10030    2    1    2    0    0  0.00000000000E+00  0.00000000000E+00 -0.34981930368E+03  0.31605466945E+04  0.31411274827E+04 0.  0.
        4    1    3    3  502    0  0.58949086377E+03  0.14312716894E+04 -0.44231708902E+03  0.16098708481E+04  0.12699999809E+01 0.  1.
       -4    1    3    3    0  502 -0.58949086377E+03 -0.14312716894E+04  0.92497785341E+02  0.15506758464E+04  0.12699999809E+01 0. -1.
</event>
<event>
 5   0  0.1846850E-06  0.3060858E+04  0.7818609E-02  0.8226563E-01
        1   -1    0    0  501    0  0.00000000000E+00  0.00000000000E+00  0.16309449330E+04  0.16309449330E+04  0.50400001928E-02 0.  1.
       -1   -1    0    0    0  501  0.00000000000E+00  0.00000000000E+00 -0.14361078098E+04  0.14361078098E+04  0.50400001928E-02 0. -1.
    10030    2    1    2    0    0  0.00000000000E+00  0.00000000000E+00  0.19483712328E+03  0.30670527428E+04  0.30608578900E+04 0.  0.
        5    1    3    3  502    0 -0.68755811780E+03 -0.91808779199E+02  0.14643736852E+04  0.16203633534E+04  0.46999998093E+01 0.  1.
       -5    1    3    3    0  502  0.68755811780E+03  0.91808779199E+02 -0.12695365619E+04  0.14466893894E+04  0.46999998093E+01 0. -1.
</event>
<event>
 5   0  0.5121624E-06  0.3273689E+04  0.7818609E-02  0.8169623E-01
       -2   -1    0    0    0  501  0.00000000000E+00  0.00000000000E+00  0.14220909360E+04  0.14220909360E+04  0.25500000920E-02 0.  1.
        2   -1    0    0  501    0  0.00000000000E+00  0.00000000000E+00 -0.18840291080E+04  0.18840291080E+04  0.25500000920E-02 0. -1.
    10030    2    1    2    0    0  0.00000000000E+00  0.00000000000E+00 -0.46193817201E+03  0.33061200440E+04  0.32736894891E+04 0.  0.
        4    1    3    3  502    0  0.78157774723E+03  0.34299853999E+02 -0.16829949854E+04  0.18559401899E+04  0.12699999809E+01 0. -1.
       -4    1    3    3    0  502 -0.78157774723E+03 -0.34299853999E+02  0.12210568134E+04  0.14501798541E+04  0.12699999809E+01 0.  1.
</event>
<event>
 5   0  0.5121624E-06  0.3124256E+04  0.7818609E-02  0.8209113E-01
       -2   -1    0    0    0  501  0.00000000000E+00  0.00000000000E+00  0.11741062555E+04  0.11741062555E+04  0.25500000920E-02 0.  1.
        2   -1    0    0  501    0  0.00000000000E+00  0.00000000000E+00 -0.20783837350E+04  0.20783837350E+04  0.25500000920E-02 0. -1.
    10030    2    1    2    0    0  0.00000000000E+00  0.00000000000E+00 -0.90427747950E+03  0.32524899905E+04  0.31242556519E+04 0.  0.
        4    1    3    3  502    0 -0.76701911460E+03  0.45397310222E+03 -0.17876948341E+04  0.19975646003E+04  0.12699999809E+01 0. -1.
       -4    1    3    3    0  502  0.76701911460E+03 -0.45397310222E+03  0.88341735455E+03  0.12549253902E+04  0.12699999809E+01 0.  1.
</event>
<event>
 5   0  0.5131083E-06  0.3278574E+04  0.7818609E-02  0.8168369E-01
        2   -1    0    0  501    0  0.00000000000E+00  0.00000000000E+00  0.23007211096E+04  0.23007211096E+04  0.25500000920E-02 0.  1.
       -2   -1    0    0    0  501  0.00000000000E+00  0.00000000000E+00 -0.11680083270E+04  0.11680083270E+04  0.25500000920E-02 0. -1.
    10030    2    1    2    0    0  0.00000000000E+00  0.00000000000E+00  0.11327127826E+04  0.34687294366E+04  0.32785737230E+04 0.  0.
        3    1    3    3  502    0  0.48943544447E+03 -0.62610495078E+03 -0.95057546969E+03  0.12390109755E+04  0.10100000352E+00 0. -1.
       -3    1    3    3    0  502 -0.48943544447E+03  0.62610495078E+03  0.20832882522E+04  0.22297184611E+04  0.10100000352E+00 0.  1.
</event>
<event>
 5   0  0.1977015E-06  0.3309488E+04  0.7818609E-02  0.8160485E-01
        1   -1    0    0  501    0  0.00000000000E+00  0.00000000000E+00  0.16781286042E+04  0.16781286042E+04  0.50400001928E-02 0.  1.
       -1   -1    0    0    0  501  0.00000000000E+00  0.00000000000E+00 -0.16316848536E+04  0.16316848536E+04  0.50400001928E-02 0. -1.
    10030    2    1    2    0    0  0.00000000000E+00  0.00000000000E+00  0.46443750583E+02  0.33098134578E+04  0.33094875892E+04 0.  0.
        1    1    3    3  502    0 -0.87454654722E+03  0.13432199508E+04  0.43448678984E+03  0.16606776539E+04  0.50400001928E-02 0.  1.
       -1    1    3    3    0  502  0.87454654722E+03 -0.13432199508E+04 -0.38804303926E+03  0.16491358039E+04  0.50400001928E-02 0. -1.
</event>
<event>
 5   0  0.5121624E-06  0.3209517E+04  0.7818609E-02  0.8186308E-01
        2   -1    0    0  501    0  0.00000000000E+00  0.00000000000E+00  0.22655958133E+04  0.22655958133E+04  0.25500000920E-02 0. -1.
       -2   -1    0    0    0  501  0.00000000000E+00  0.00000000000E+00 -0.11366768600E+04  0.11366768600E+04  0.25500000920E-02 0.  1.
    10030    2    1    2    0    0  0.00000000000E+00  0.00000000000E+00  0.11289189533E+04  0.34022726733E+04  0.32095173064E+04 0.  0.
        4    1    3    3  502    0  0.15793364706E+04  0.13192630378E+03  0.83167067708E+03  0.17898005378E+04  0.12699999809E+01 0.  1.
       -4    1    3    3    0  502 -0.15793364706E+04 -0.13192630378E+03  0.29724827620E+03  0.16124721355E+04  0.12699999809E+01 0. -1.
</event>
<event>
 5   0  0.1886248E-06  0.3201315E+04  0.7818609E-02  0.8188470E-01
       -1   -1    0    0    0  501  0.00000000000E+00  0.00000000000E+00  0.20834627065E+04  0.20834627065E+04  0.50400001928E-02 0.  1.
        1   -1    0    0  501    0  0.00000000000E+00  0.00000000000E+00 -0.12297337369E+04  0.12297337369E+04  0.50400001928E-02 0. -1.
    10030    2    1    2    0    0  0.00000000000E+00  0.00000000000E+00  0.85372896963E+03  0.33131964434E+04  0.32013149672E+04 0.  0.
        4    1    3    3  502    0 -0.81952230921E+03  0.14257596553E+02 -0.99606100114E+03  0.12899454350E+04  0.12699999809E+01 0. -1.
       -4    1    3    3    0  502  0.81952230921E+03 -0.14257596553E+02  0.18497899708E+04  0.20232510085E+04  0.12699999809E+01 0.  1.
</event>
<event>
 5   0  0.5108810E-06  0.3201061E+04  0.7818609E-02  0.8188537E-01
       -2   -1    0    0    0  501  0.00000000000E+00  0.00000000000E+00  0.12404626294E+04  0.12404626294E+04  0.25500000920E-02 0.  1.
        2   -1    0    0  501    0  0.00000000000E+00  0.00000000000E+00 -0.20651142842E+04  0.20651142842E+04  0.25500000920E-02 0. -1.
    10030    2    1    2    0    0  0.00000000000E+00  0.00000000000E+00 -0.82465165482E+03  0.33055769136E+04  0.32010605086E+04 0.  0.
        1    1    3    3  502    0 -0.57143006996E+03  0.13433913053E+04  0.26519412548E+03  0.14837656312E+04  0.50400001928E-02 0.  1.
       -1    1    3    3    0  502  0.57143006996E+03 -0.13433913053E+04 -0.10898457803E+04  0.18218112825E+04  0.50400001928E-02 0. -1.
</event>
<event>
 5   0  0.5373060E-06  0.3161630E+04  0.7818609E-02  0.8199025E-01
       -2   -1    0    0    0  501  0.00000000000E+00  0.00000000000E+00  0.92740131755E+03  0.92740131755E+03  0.25500000920E-02 0.  1.
        2   -1    0    0  501    0  0.00000000000E+00  0.00000000000E+00 -0.26946003503E+04  0.26946003503E+04  0.25500000920E-02 0. -1.
    10030    2    1    2    0    0  0.00000000000E+00  0.00000000000E+00 -0.17671990328E+04  0.36220016678E+04  0.31616299057E+04 0.  0.
        5    1    3    3  502    0  0.96187243344E+02  0.84105885149E+03 -0.24130333047E+04  0.25572218905E+04  0.46999998093E+01 0. -1.
       -5    1    3    3    0  502 -0.96187243344E+02 -0.84105885149E+03  0.64583427196E+03  0.10647797774E+04  0.46999998093E+01 0.  1.
</event>
<event>
 5   0  0.1977015E-06  0.3191814E+04  0.7818609E-02  0.8190982E-01
       -1   -1    0    0    0  501  0.00000000000E+00  0.00000000000E+00  0.18191560743E+04  0.18191560743E+04  0.50400001928E-02 0. -1.
        1   -1    0    0  501    0  0.00000000000E+00  0.00000000000E+00 -0.14000551920E+04  0.14000551920E+04  0.50400001928E-02 0.  1.
    10030    2    1    2    0    0  0.00000000000E+00  0.00000000000E+00  0.41910088228E+03  0.32192112663E+04  0.31918138460E+04 0.  0.
        1    1    3    3  502    0 -0.30413733000E+02  0.15365066548E+04  0.64352420534E+03  0.16661035677E+04  0.50400001928E-02 0. -1.
       -1    1    3    3    0  502  0.30413733000E+02 -0.15365066548E+04 -0.22442332306E+03  0.15531076986E+04  0.50400001928E-02 0.  1.
</event>
<event>
 5   0  0.1977015E-06  0.2679768E+04  0.7818609E-02  0.8341599E-01
       -1   -1    0    0    0  501  0.00000000000E+00  0.00000000000E+00  0.70034723869E+03  0.70034723871E+03  0.50400001928E-02 0. -1.
        1   -1    0    0  501    0  0.00000000000E+00  0.00000000000E+00 -0.25634280168E+04  0.25634280168E+04  0.50400001928E-02 0.  1.
    10030    2    1    2    0    0  0.00000000000E+00  0.00000000000E+00 -0.18630807781E+04  0.32637752555E+04  0.26797684476E+04 0.  0.
        1    1    3    3  502    0 -0.10546609753E+04  0.80815081367E+03 -0.72103813772E+03  0.15117253410E+04  0.50400001928E-02 0. -1.
       -1    1    3    3    0  502  0.10546609753E+04 -0.80815081367E+03 -0.11420426404E+04  0.17520499145E+04  0.50400001928E-02 0.  1.
</event>
<event>
 5   0  0.1886248E-06  0.3167682E+04  0.7818609E-02  0.8197405E-01
        1   -1    0    0  501    0  0.00000000000E+00  0.00000000000E+00  0.20177494373E+04  0.20177494373E+04  0.50400001928E-02 0.  1.
       -1   -1    0    0    0  501  0.00000000000E+00  0.00000000000E+00 -0.12432428140E+04  0.12432428140E+04  0.50400001928E-02 0. -1.
    10030    2    1    2    0    0  0.00000000000E+00  0.00000000000E+00  0.77450662333E+03  0.32609922513E+04  0.31676821105E+04 0.  0.
        4    1    3    3  502    0 -0.15226578067E+04  0.37909012880E+03  0.60889697141E+03  0.16831379197E+04  0.12699999809E+01 0.  1.
       -4    1    3    3    0  502  0.15226578067E+04 -0.37909012880E+03  0.16560965192E+03  0.15778543316E+04  0.12699999809E+01 0. -1.
</event>
<event>
 5   0  0.5121624E-06  0.3147413E+04  0.7818609E-02  0.8202845E-01
        2   -1    0    0  501    0  0.00000000000E+00  0.00000000000E+00  0.23118193292E+04  0.23118193292E+04  0.25500000920E-02 0. -1.
       -2   -1    0    0    0  501  0.00000000000E+00  0.00000000000E+00 -0.10712570116E+04  0.10712570116E+04  0.25500000920E-02 0.  1.
    10030    2    1    2    0    0  0.00000000000E+00  0.00000000000E+00  0.12405623176E+04  0.33830763408E+04  0.31474133290E+04 0.  0.
        4    1    3    3  502    0 -0.10740232155E+04  0.36463018438E+03  0.17928659975E+04  0.21215209490E+04  0.12699999809E+01 0. -1.
       -4    1    3    3    0  502  0.10740232155E+04 -0.36463018438E+03 -0.55230367994E+03  0.12615553918E+04  0.12699999809E+01 0.  1.
</event>
<event>
 5   0  0.1977015E-06  0.3164048E+04  0.7818609E-02  0.8198377E-01
       -1   -1    0    0    0  501  0.00000000000E+00  0.00000000000E+00  0.10312335234E+04  0.10312335234E+04  0.50400001928E-02 0. -1.
        1   -1    0    0  501    0  0.00000000000E+00  0.00000000000E+00 -0.24269961325E+04  0.24269961325E+04  0.50400001928E-02 0.  1.
    10030    2    1    2    0    0  0.00000000000E+00  0.00000000000E+00 -0.13957626091E+04  0.34582296559E+04  0.31640478966E+04 0.  0.
        1    1    3    3  502    0  0.16509931644E+03  0.63383585622E+03  0.87607835956E+03  0.10938550951E+04  0.50400001928E-02 0. -1.
       -1    1    3    3    0  502 -0.16509931644E+03 -0.63383585622E+03 -0.22718409686E+04  0.23643745608E+04  0.50400001928E-02 0.  1.
</event>
<event>
 5   0  0.5108810E-06  0.3160502E+04  0.7818609E-02  0.8199327E-01
        2   -1    0    0  501    0  0.00000000000E+00  0.00000000000E+00  0.14698851633E+04  0.14698851633E+04  0.25500000920E-02 0. -1.
       -2   -1    0    0    0  501  0.00000000000E+00  0.00000000000E+00 -0.16989037712E+04  0.16989037712E+04  0.25500000920E-02 0.  1.
    10030    2    1    2    0    0  0.00000000000E+00  0.00000000000E+00 -0.22901860792E+03  0.31687889346E+04  0.31605021419E+04 0.  0.
        1    1    3    3  502    0 -0.72523736366E+03  0.13743688231E+03 -0.15154328318E+04  0.16856437340E+04  0.50400001928E-02 0.  1.
       -1    1    3    3    0  502  0.72523736366E+03 -0.13743688231E+03  0.12864142239E+04  0.14831452005E+04  0.50400001928E-02 0. -1.
</event>
<event>
 5   0  0.1846850E-06  0.3301435E+04  0.7818609E-02  0.8162530E-01
        1   -1    0    0  501    0  0.00000000000E+00  0.00000000000E+00  0.24850407161E+04  0.24850407161E+04  0.50400001928E-02 0. -1.
       -1   -1    0    0    0  501  0.00000000000E+00  0.00000000000E+00 -0.10965083621E+04  0.10965083621E+04  0.50400001928E-02 0.  1.
    10030    2    1    2    0    0  0.00000000000E+00  0.00000000000E+00  0.13885323541E+04  0.35815490782E+04  0.33014347944E+04 0.  0.
        5    1    3    3  502    0 -0.18363317003E+02 -0.90515482548E+03 -0.80313735322E+03  0.12102454989E+04  0.46999998093E+01 0.  1.
       -5    1    3    3    0  502  0.18363317003E+02  0.90515482548E+03  0.21916697073E+04  0.23713035793E+04  0.46999998093E+01 0. -1.
</event>
<event>
 5   0  0.5131083E-06  0.1982729E+04  0.7818609E-02  0.8614738E-01
        2   -1    0    0  501    0  0.00000000000E+00  0.00000000000E+00  0.62208856001E+03  0.62208856001E+03  0.25500000920E-02 0. -1.
       -2   -1    0    0    0  501  0.00000000000E+00  0.00000000000E+00 -0.15798447400E+04  0.15798447400E+04  0.25500000920E-02 0.  1.
    10030    2    1    2    0    0  0.00000000000E+00  0.00000000000E+00 -0.95775618001E+03  0.22019333000E+04  0.19827287655E+04 0.  0.
        3    1    3    3  502    0  0.44093325350E+01  0.69127618159E+03  0.31025930479E+03  0.75772227620E+03  0.10100000352E+00 0. -1.
       -3    1    3    3    0  502 -0.44093325350E+01 -0.69127618159E+03 -0.12680154848E+04  0.14442110238E+04  0.10100000352E+00 0.  1.
</event>
<event>
 5   0  0.1977015E-06  0.3227949E+04  0.7818609E-02  0.8181475E-01
       -1   -1    0    0    0  501  0.00000000000E+00  0.00000000000E+00  0.13938792959E+04  0.13938792959E+04  0.50400001928E-02 0.  1.
        1   -1    0    0  501    0  0.00000000000E+00  0.00000000000E+00 -0.18688227989E+04  0.18688227990E+04  0.50400001928E-02 0. -1.
    10030    2    1    2    0    0  0.00000000000E+00  0.00000000000E+00 -0.47494350308E+03  0.32627020948E+04  0.32279488268E+04 0.  0.
        1    1    3    3  502    0  0.70344422551E+03  0.14437967529E+04 -0.39897489999E+03  0.16548606627E+04  0.50400001928E-02 0.  1.
       -1    1    3    3    0  502 -0.70344422551E+03 -0.14437967529E+04 -0.75968603091E+02  0.16078414321E+04  0.50400001928E-02 0. -1.
</event>
<event>
 5   0  0.1846850E-06  0.3243947E+04  0.7818609E-02  0.8177306E-01
       -1   -1    0    0    0  501  0.00000000000E+00  0.00000000000E+00  0.17110814844E+04  0.17110814844E+04  0.50400001928E-02 0. -1.
        1   -1    0    0  501    0  0.00000000000E+00  0.00000000000E+00 -0.15375056348E+04  0.15375056348E+04  0.50400001928E-02 0.  1.
    10030    2    1    2    0    0  0.00000000000E+00  0.00000000000E+00  0.17357584961E+03  0.32485871192E+04  0.32439466234E+04 0.  0.
        5    1    3    3  502    0 -0.11782306316E+04  0.10301098153E+04  0.51333347132E+03  0.16470843923E+04  0.46999998093E+01 0.  1.
       -5    1    3    3    0  502  0.11782306316E+04 -0.10301098153E+04 -0.33975762170E+03  0.16015027269E+04  0.46999998093E+01 0. -1.
</event>
<event>
 5   0  0.5373060E-06  0.3058919E+04  0.7818609E-02  0.8227104E-01
        2   -1    0    0  501    0  0.00000000000E+00  0.00000000000E+00  0.14805251620E+04  0.14805251620E+04  0.25500000920E-02 0. -1.
       -2   -1    0    0    0  501  0.00000000000E+00  0.00000000000E+00 -0.15800109297E+04  0.15800109297E+04  0.25500000920E-02 0.  1.
    10030    2    1    2    0    0  0.00000000000E+00  0.00000000000E+00 -0.99485767685E+02  0.30605360917E+04  0.30589187224E+04 0.  0.
        5    1    3    3  502    0 -0.29599493820E+03  0.15005170854E+04 -0.42036817782E+02  0.15300175525E+04  0.46999998093E+01 0.  1.
       -5    1    3    3    0  502  0.29599493820E+03 -0.15005170854E+04 -0.57448949903E+02  0.15305185392E+04  0.46999998093E+01 0. -1.
</event>
<event>
 5   0  0.1977015E-06  0.3251754E+04  0.7818609E-02  0.8175281E-01
        1   -1    0    0  501    0  0.00000000000E+00  0.00000000000E+00  0.21543840518E+04  0.21543840518E+04  0.50400001928E-02 0. -1.
       -1   -1    0    0    0  501  0.00000000000E+00  0.00000000000E+00 -0.12270214122E+04  0.12270214122E+04  0.50400001928E-02 0.  1.
    10030    2    1    2    0    0  0.00000000000E+00  0.00000000000E+00  0.92736263959E+03  0.33814054641E+04  0.32517535957E+04 0.  0.
        1    1    3    3  502    0 -0.73059134413E+03  0.13375694938E+04  0.10524905189E+04  0.18521857777E+04  0.50400001928E-02 0. -1.
       -1    1    3    3    0  502  0.73059134413E+03 -0.13375694938E+04 -0.12512787926E+03  0.15292196863E+04  0.50400001928E-02 0.  1.
</event>
<event>
 5   0  0.1846850E-06  0.3219534E+04  0.7818609E-02  0.8183677E-01
       -1   -1    0    0    0  501  0.00000000000E+00  0.00000000000E+00  0.90345491548E+03  0.90345491550E+03  0.50400001928E-02 0. -1.
        1   -1    0    0  501    0  0.00000000000E+00  0.00000000000E+00 -0.28682662734E+04  0.28682662734E+04  0.50400001928E-02 0.  1.
    10030    2    1    2    0    0  0.00000000000E+00  0.00000000000E+00 -0.19648113580E+04  0.37717211889E+04  0.32195336704E+04 0.  0.
        5    1    3    3  502    0  0.21460985350E+03 -0.37739687988E+03  0.83356637715E+03  0.93986211184E+03  0.46999998093E+01 0. -1.
       -5    1    3    3    0  502 -0.21460985350E+03  0.37739687988E+03 -0.27983777351E+04  0.28318590771E+04  0.46999998093E+01 0.  1.
</event>
<event>
 5   0  0.1881144E-06  0.3160269E+04  0.7818609E-02  0.8199390E-01
       -1   -1    0    0    0  501  0.00000000000E+00  0.00000000000E+00  0.92243793469E+03  0.92243793470E+03  0.50400001928E-02 0.  1.
        1   -1    0    0  501    0  0.00000000000E+00  0.00000000000E+00 -0.27067668106E+04  0.27067668106E+04  0.50400001928E-02 0. -1.
    10030    2    1    2    0    0  0.00000000000E+00  0.00000000000E+00 -0.17843288759E+04  0.36292047453E+04  0.31602685876E+04 0.  0.
        3    1    3    3  502    0 -0.34057967999E+03  0.14584919794E+04 -0.14705116496E+04  0.20989516179E+04  0.10100000352E+00 0. -1.
       -3    1    3    3    0  502  0.34057967999E+03 -0.14584919794E+04 -0.31381722630E+03  0.15302531274E+04  0.10100000352E+00 0.  1.
</event>
<event>
 5   0  0.5121624E-06  0.3294128E+04  0.7818609E-02  0.8164391E-01
       -2   -1    0    0    0  501  0.00000000000E+00  0.00000000000E+00  0.15930316714E+04  0.15930316714E+04  0.25500000920E-02 0.  1.
        2   -1    0    0  501    0  0.00000000000E+00  0.00000000000E+00 -0.17029287011E+04  0.17029287012E+04  0.25500000920E-02 0. -1.
    10030    2    1    2    0    0  0.00000000000E+00  0.00000000000E+00 -0.10989702974E+03  0.32959603726E+04  0.32941277177E+04 0.  0.
        4    1    3    3  502    0  0.15389681093E+04 -0.56426729508E+02 -0.63940611732E+03  0.16674677247E+04  0.12699999809E+01 0.  1.
       -4    1    3    3    0  502 -0.15389681093E+04  0.56426729508E+02  0.52950908758E+03  0.16284926478E+04  0.12699999809E+01 0. -1.
</event>
<event>
 5   0  0.1969465E-06  0.3013085E+04  0.7818609E-02  0.8240004E-01
       -1   -1    0    0    0  501  0.00000000000E+00  0.00000000000E+00  0.10041161488E+04  0.10041161488E+04  0.50400001928E-02 0. -1.
        1   -1    0    0  501    0  0.00000000000E+00  0.00000000000E+00 -0.22603662918E+04  0.22603662918E+04  0.50400001928E-02 0.  1.
    10030    2    1    2    0    0  0.00000000000E+00  0.00000000000E+00 -0.12562501430E+04  0.32644824406E+04  0.30130849943E+04 0.  0.
        2    1    3    3  502    0 -0.55456755353E+03  0.25181214813E+02  0.88926108509E+03  0.10483150969E+04  0.25500000920E-02 0. -1.
       -2    1    3    3    0  502  0.55456755353E+03 -0.25181214813E+02 -0.21455112281E+04  0.22161673436E+04  0.25500000920E-02 0.  1.
</event>
<event>
 5   0  0.1729500E-06  0.2975430E+04  0.7818609E-02  0.8250782E-01
       -3   -1    0    0    0  501  0.00000000000E+00  0.00000000000E+00  0.20709361156E+04  0.20709361180E+04  0.10100000352E+00 0. -1.
        3   -1    0    0  501    0  0.00000000000E+00  0.00000000000E+00 -0.10687419652E+04  0.10687419700E+04  0.10100000352E+00 0.  1.
    10030    2    1    2    0    0  0.00000000000E+00  0.00000000000E+00  0.10021941504E+04  0.31396780880E+04  0.29754302851E+04 0.  0.
        3    1    3    3  502    0 -0.10210831623E+04  0.10272983277E+04  0.14272661813E+03  0.14554461777E+04  0.10100000352E+00 0.  1.
       -3    1    3    3    0  502  0.10210831623E+04 -0.10272983277E+04  0.85946753222E+03  0.16842319103E+04  0.10100000352E+00 0. -1.
</event>
<event>
 5   0  0.5108810E-06  0.3191820E+04  0.7818609E-02  0.8190981E-01
        2   -1    0    0  501    0  0.00000000000E+00  0.00000000000E+00  0.16141865388E+04  0.16141865388E+04  0.25500000920E-02 0.  1.
       -2   -1    0    0    0  501  0.00000000000E+00  0.00000000000E+00 -0.15778407483E+04  0.15778407483E+04  0.25500000920E-02 0. -1.
    10030    2    1    2    0    0  0.00000000000E+00  0.00000000000E+00  0.36345790435E+02  0.31920272871E+04  0.31918203560E+04 0.  0.
        1    1    3    3  502    0  0.97483540296E+03 -0.17744727567E+03 -0.12329628469E+04  0.15817676759E+04  0.50400001928E-02 0. -1.
       -1    1    3    3    0  502 -0.97483540296E+03  0.17744727567E+03  0.12693086374E+04  0.16102596112E+04  0.50400001928E-02 0.  1.
</event>
<event>
 5   0  0.5121624E-06  0.3012587E+04  0.7818609E-02  0.8240146E-01
        2   -1    0    0  501    0  0.00000000000E+00  0.00000000000E+00  0.11820736992E+04  0.11820736992E+04  0.25500000920E-02 0. -1.
       -2   -1    0    0    0  501  0.00000000000E+00  0.00000000000E+00 -0.19194407243E+04  0.19194407244E+04  0.25500000920E-02 0.  1.
    10030    2    1    2    0    0  0.00000000000E+00  0.00000000000E+00 -0.73736702510E+03  0.31015144236E+04  0.30125871921E+04 0.  0.
        4    1    3    3  502    0  0.12994077459E+04  0.73073800938E+03 -0.14672672205E+03  0.14979882751E+04  0.12699999809E+01 0. -1.
       -4    1    3    3    0  502 -0.12994077459E+04 -0.73073800938E+03 -0.59064030306E+03  0.16035261485E+04  0.12699999809E+01 0.  1.
</event>
<event>
 5   0  0.5121624E-06  0.2983696E+04  0.7818609E-02  0.8248402E-01
        2   -1    0    0  501    0  0.00000000000E+00  0.00000000000E+00  0.78494422752E+03  0.78494422753E+03  0.25500000920E-02 0.  1.
       -2   -1    0    0    0  501  0.00000000000E+00  0.00000000000E+00 -0.28353742950E+04  0.28353742950E+04  0.25500000920E-02 0. -1.
    10030    2    1    2    0    0  0.00000000000E+00  0.00000000000E+00 -0.20504300675E+04  0.36203185225E+04  0.29836961546E+04 0.  0.
        4    1    3    3  502    0 -0.74324750489E+03  0.10976489273E+04 -0.18556041469E+04  0.22804645106E+04  0.12699999809E+01 0. -1.
       -4    1    3    3    0  502  0.74324750489E+03 -0.10976489273E+04 -0.19482592060E+03  0.13398540120E+04  0.12699999809E+01 0.  1.
</event>
<event>
 5   0  0.5347280E-06  0.2923073E+04  0.7818609E-02  0.8266046E-01
        2   -1    0    0  501    0  0.00000000000E+00  0.00000000000E+00  0.18340071249E+04  0.18340071249E+04  0.25500000920E-02 0. -1.
       -2   -1    0    0    0  501  0.00000000000E+00  0.00000000000E+00 -0.11647112715E+04  0.11647112715E+04  0.25500000920E-02 0.  1.
    10030    2    1    2    0    0  0.00000000000E+00  0.00000000000E+00  0.66929585336E+03  0.29987183964E+04  0.29230728834E+04 0.  0.
        2    1    3    3  502    0 -0.78677041671E+03  0.41167886231E+03 -0.85625619455E+03  0.12335565836E+04  0.25500000920E-02 0.  1.
       -2    1    3    3    0  502  0.78677041671E+03 -0.41167886231E+03  0.15255520479E+04  0.17651618127E+04  0.25500000920E-02 0. -1.
</event>
<event>
 5   0  0.5131083E-06  0.3190284E+04  0.7818609E-02  0.8191388E-01
        2   -1    0    0  501    0  0.00000000000E+00  0.00000000000E+00  0.14337109518E+04  0.14337109518E+04  0.25500000920E-02 0.  1.
       -2   -1    0    0    0  501  0.00000000000E+00  0.00000000000E+00 -0.17747501238E+04  0.17747501238E+04  0.25500000920E-02 0. -1.
    10030    2    1    2    0    0  0.00000000000E+00  0.00000000000E+00 -0.34103917201E+03  0.32084610755E+04  0.31902844319E+04 0.  0.
        3    1    3    3  502    0 -0.13358767684E+03 -0.48139854203E+03 -0.16940395898E+04  0.17661711032E+04  0.10100000352E+00 0. -1.
       -3    1    3    3    0  502  0.13358767684E+03  0.48139854203E+03  0.13530004178E+04  0.14422899724E+04  0.10100000352E+00 0.  1.
</event>
<event>
 5   0  0.1881144E-06  0.2531136E+04  0.7818609E-02  0.8391976E-01
       -1   -1    0    0    0  501  0.00000000000E+00  0.00000000000E+00  0.77541247297E+03  0.77541247299E+03  0.50400001928E-02 0. -1.
        1   -1    0    0  501    0  0.00000000000E+00  0.00000000000E+00 -0.20655623160E+04  0.20655623160E+04  0.50400001928E-02 0.  1.
    10030    2    1    2    0    0  0.00000000000E+00  0.00000000000E+00 -0.12901498430E+04  0.28409747890E+04  0.25311363326E+04 0.  0.
        3    1    3    3  502    0 -0.10582890624E+04  0.12846392464E+03 -0.14106085116E+04  0.17681332254E+04  0.10100000352E+00 0. -1.
       -3    1    3    3    0  502  0.10582890624E+04 -0.12846392464E+03  0.12045866859E+03  0.10728415636E+04  0.10100000352E+00 0.  1.
</event>
<event>
 5   0  0.1886248E-06  0.2942727E+04  0.7818609E-02  0.8260277E-01
        1   -1    0    0  501    0  0.00000000000E+00  0.00000000000E+00  0.20444160779E+04  0.20444160779E+04  0.50400001928E-02 0. -1.
       -1   -1    0    0    0  501  0.00000000000E+00  0.00000000000E+00 -0.10589384194E+04  0.10589384194E+04  0.50400001928E-02 0.  1.
    10030    2    1    2    0    0  0.00000000000E+00  0.00000000000E+00  0.98547765846E+03  0.31033544973E+04  0.29427271230E+04 0.  0.
        4    1    3    3  502    0 -0.54587499775E+03  0.67704876671E+03 -0.75886000899E+03  0.11542290379E+04  0.12699999809E+01 0.  1.
       -4    1    3    3    0  502  0.54587499775E+03 -0.67704876671E+03  0.17443376675E+04  0.19491254594E+04  0.12699999809E+01 0. -1.
</event>
<event>
 5   0  0.5131083E-06  0.2767375E+04  0.7818609E-02  0.8313469E-01
       -2   -1    0    0    0  501  0.00000000000E+00  0.00000000000E+00  0.18138009473E+04  0.18138009473E+04  0.25500000920E-02 0.  1.
        2   -1    0    0  501    0  0.00000000000E+00  0.00000000000E+00 -0.10555683493E+04  0.10555683493E+04  0.25500000920E-02 0. -1.
    10030    2    1    2    0    0  0.00000000000E+00  0.00000000000E+00  0.75823259798E+03  0.28693692966E+04  0.27673748368E+04 0.  0.
        3    1    3    3  502    0  0.40705294041E+03  0.24133253641E+03 -0.96905867307E+03  0.10784285843E+04  0.10100000352E+00 0. -1.
       -3    1    3    3    0  502 -0.40705294041E+03 -0.24133253641E+03  0.17272912711E+04  0.17909407122E+04  0.10100000352E+00 0.  1.
</event>
<event>
 5   0  0.5347280E-06  0.3238001E+04  0.7818609E-02  0.8178853E-01
        2   -1    0    0  501    0  0.00000000000E+00  0.00000000000E+00  0.13429992134E+04  0.13429992134E+04  0.25500000920E-02 0. -1.
       -2   -1    0    0    0  501  0.00000000000E+00  0.00000000000E+00 -0.19517234186E+04  0.19517234187E+04  0.25500000920E-02 0.  1.
    10030    2    1    2    0    0  0.00000000000E+00  0.00000000000E+00 -0.60872420521E+03  0.32947226321E+04  0.32380012453E+04 0.  0.
        2    1    3    3  502    0 -0.39549367975E+03 -0.12825917772E+04  0.61687396068E+03  0.14771561871E+04  0.25500000920E-02 0. -1.
       -2    1    3    3    0  502  0.39549367975E+03  0.12825917772E+04 -0.12255981659E+04  0.18175664450E+04  0.25500000920E-02 0.  1.
</event>
<event>
 5   0  0.1977015E-06  0.2000201E+04  0.7818609E-02  0.8606527E-01
        1   -1    0    0  501    0  0.00000000000E+00  0.00000000000E+00  0.32740255814E+04  0.32740255814E+04  0.50400001928E-02 0. -1.
       -1   -1    0    0    0  501  0.00000000000E+00  0.00000000000E+00 -0.30549584636E+03  0.30549584640E+03  0.50400001928E-02 0.  1.
    10030    2    1    2    0    0  0.00000000000E+00  0.00000000000E+00  0.29685297350E+04  0.35795214278E+04  0.20002012059E+04 0.  0.
        1    1    3    3  502    0  0.62488177634E+03  0.92338349625E+02  0.28718508527E+04  0.29404984145E+04  0.50400001928E-02 0. -1.
       -1    1    3    3    0  502 -0.62488177634E+03 -0.92338349625E+02  0.96678882279E+02  0.63902301330E+03  0.50400001928E-02 0.  1.
</event>
<event>
 5   0  0.5108810E-06  0.2120142E+04  0.7818609E-02  0.8552422E-01
        2   -1    0    0  501    0  0.00000000000E+00  0.00000000000E+00  0.10272009334E+04  0.10272009334E+04  0.25500000920E-02 0. -1.
       -2   -1    0    0    0  501  0.00000000000E+00  0.00000000000E+00 -0.10939930513E+04  0.10939930513E+04  0.25500000920E-02 0.  1.
    10030    2    1    2    0    0  0.00000000000E+00  0.00000000000E+00 -0.66792117834E+02  0.21211939847E+04  0.21201421494E+04 0.  0.
        1    1    3    3  502    0  0.94536833726E+03  0.47467315328E+03 -0.10209443739E+03  0.10627601657E+04  0.50400001928E-02 0. -1.
       -1    1    3    3    0  502 -0.94536833726E+03 -0.47467315328E+03  0.35302319553E+02  0.10584338191E+04  0.50400001928E-02 0.  1.
</event>
<event>
 5   0  0.1969465E-06  0.3174735E+04  0.7818609E-02  0.8195522E-01
        1   -1    0    0  501    0  0.00000000000E+00  0.00000000000E+00  0.17183642185E+04  0.17183642185E+04  0.50400001928E-02 0.  1.
       -1   -1    0    0    0  501  0.00000000000E+00  0.00000000000E+00 -0.14663573503E+04  0.14663573503E+04  0.50400001928E-02 0. -1.
    10030    2    1    2    0    0  0.00000000000E+00  0.00000000000E+00  0.25200686824E+03  0.31847215688E+04  0.31747352660E+04 0.  0.
        2    1    3    3  502    0 -0.86651967469E+03  0.34778956870E+03  0.14137555975E+04  0.16942605526E+04  0.25500000920E-02 0.  1.
       -2    1    3    3    0  502  0.86651967469E+03 -0.34778956870E+03 -0.11617487293E+04  0.14904610162E+04  0.25500000920E-02 0. -1.
</event>
<event>
 5   0  0.5373060E-06  0.2719016E+04  0.7818609E-02  0.8328861E-01
        2   -1    0    0  501    0  0.00000000000E+00  0.00000000000E+00  0.15161986340E+04  0.15161986340E+04  0.25500000920E-02 0. -1.
       -2   -1    0    0    0  501  0.00000000000E+00  0.00000000000E+00 -0.12190104275E+04  0.12190104275E+04  0.25500000920E-02 0.  1.
    10030    2    1    2    0    0  0.00000000000E+00  0.00000000000E+00  0.29718820646E+03  0.27352090615E+04  0.27190159580E+04 0.  0.
        5    1    3    3  502    0  0.28576757132E+03 -0.83439414927E+03 -0.89215092613E+03  0.12545246375E+04  0.46999998093E+01 0.  1.
       -5    1    3    3    0  502 -0.28576757132E+03  0.83439414927E+03  0.11893391326E+04  0.14806844240E+04  0.46999998093E+01 0. -1.
</event>
<event>
 5   0  0.1969465E-06  0.2344818E+04  0.7818609E-02  0.8460457E-01
       -1   -1    0    0    0  501  0.00000000000E+00  0.00000000000E+00  0.12235065059E+04  0.12235065059E+04  0.50400001928E-02 0. -1.
        1   -1    0    0  501    0  0.00000000000E+00  0.00000000000E+00 -0.11234458692E+04  0.11234458692E+04  0.50400001928E-02 0.  1.
    10030    2    1    2    0    0  0.00000000000E+00  0.00000000000E+00  0.10006063670E+03  0.23469523752E+04  0.23448183981E+04 0.  0.
        2    1    3    3  502    0 -0.39363759350E+03 -0.10895667068E+04  0.23029743763E+03  0.11811617473E+04  0.25500000920E-02 0. -1.
       -2    1    3    3    0  502  0.39363759350E+03  0.10895667068E+04 -0.13023680093E+03  0.11657906278E+04  0.25500000920E-02 0.  1.
</event>
<event>
 5   0  0.1881144E-06  0.3146681E+04  0.7818609E-02  0.8203042E-01
        1   -1    0    0  501    0  0.00000000000E+00  0.00000000000E+00  0.11142321763E+04  0.11142321763E+04  0.50400001928E-02 0. -1.
       -1   -1    0    0    0  501  0.00000000000E+00  0.00000000000E+00 -0.22216201862E+04  0.22216201862E+04  0.50400001928E-02 0.  1.
    10030    2    1    2    0    0  0.00000000000E+00  0.00000000000E+00 -0.11073880099E+04  0.33358523625E+04  0.31466812327E+04 0.  0.
        3    1    3    3  502    0 -0.15312329256E+04 -0.35058537892E+03 -0.64741886632E+03  0.16990396049E+04  0.10100000352E+00 0.  1.
       -3    1    3    3    0  502  0.15312329256E+04  0.35058537892E+03 -0.45996914354E+03  0.16368127576E+04  0.10100000352E+00 0. -1.
</event>
<event>
 5   0  0.1846850E-06  0.3129478E+04  0.7818609E-02  0.8207694E-01
       -1   -1    0    0    0  501  0.00000000000E+00  0.00000000000E+00  0.14525715057E+04  0.14525715057E+04  0.50400001928E-02 0. -1.
        1   -1    0    0  501    0  0.00000000000E+00  0.00000000000E+00 -0.16855677462E+04  0.16855677462E+04  0.50400001928E-02 0.  1.
    10030    2    1    2    0    0  0.00000000000E+00  0.00000000000E+00 -0.23299624044E+03  0.31381392519E+04  0.31294777066E+04 0.  0.
        5    1    3    3  502    0 -0.40636802800E+03 -0.32677782218E+02 -0.16313688029E+04  0.16815436577E+04  0.46999998093E+01 0.  1.
       -5    1    3    3    0  502  0.40636802800E+03  0.32677782218E+02  0.13983725625E+04  0.14565955942E+04  0.46999998093E+01 0. -1.
</event>
<event>
 5   0  0.5108810E-06  0.3231220E+04  0.7818609E-02  0.8180620E-01
       -2   -1    0    0    0  501  0.00000000000E+00  0.00000000000E+00  0.11253170185E+04  0.11253170185E+04  0.25500000920E-02 0.  1.
        2   -1    0    0  501    0  0.00000000000E+00  0.00000000000E+00 -0.23195197632E+04  0.23195197632E+04  0.25500000920E-02 0. -1.
    10030    2    1    2    0    0  0.00000000000E+00  0.00000000000E+00 -0.11942027447E+04  0.34448367817E+04  0.32312196238E+04 0.  0.
        1    1    3    3  502    0 -0.77863206799E+03 -0.13910614903E+04 -0.87689207810E+03  0.18194119061E+04  0.50400001928E-02 0. -1.
       -1    1    3    3    0  502  0.77863206799E+03  0.13910614903E+04 -0.31731066662E+03  0.16254248757E+04  0.50400001928E-02 0.  1.
</event>
<event>
 5   0  0.1881144E-06  0.2810872E+04  0.7818609E-02  0.8299901E-01
       -1   -1    0    0    0  501  0.00000000000E+00  0.00000000000E+00  0.20357893998E+04  0.20357893998E+04  0.50400001928E-02 0. -1.
        1   -1    0    0  501    0  0.00000000000E+00  0.00000000000E+00 -0.97026231040E+03  0.97026231041E+03  0.50400001928E-02 0.  1.
    10030    2    1    2    0    0  0.00000000000E+00  0.00000000000E+00  0.10655270894E+04  0.30060517103E+04  0.28108715564E+04 0.  0.
        3    1    3    3  502    0 -0.14114601019E+03  0.43981717683E+03  0.19522937590E+04  0.20061934794E+04  0.10100000352E+00 0. -1.
       -3    1    3    3    0  502  0.14114601019E+03 -0.43981717683E+03 -0.88676666959E+03  0.99985823081E+03  0.10100000352E+00 0.  1.
</event>
<event>
 5   0  0.5347280E-06  0.3197994E+04  0.7818609E-02  0.8189347E-01
       -2   -1    0    0    0  501  0.00000000000E+00  0.00000000000E+00  0.17533460301E+04  0.17533460301E+04  0.25500000920E-02 0. -1.
        2   -1    0    0  501    0  0.00000000000E+00  0.00000000000E+00 -0.14582351256E+04  0.14582351256E+04  0.25500000920E-02 0.  1.
    10030    2    1    2    0    0  0.00000000000E+00  0.00000000000E+00  0.29511090446E+03  0.32115811557E+04  0.31979936013E+04 0.  0.
        2    1    3    3  502    0 -0.71435936696E+03 -0.32174306448E+02  0.15838230049E+04  0.17377686273E+04  0.25500000920E-02 0. -1.
       -2    1    3    3    0  502  0.71435936696E+03  0.32174306448E+02 -0.12887121004E+04  0.14738125284E+04  0.25500000920E-02 0.  1.
</event>
<event>
 5   0  0.1886248E-06  0.2211144E+04  0.7818609E-02  0.8513804E-01
       -1   -1    0    0    0  501  0.00000000000E+00  0.00000000000E+00  0.91597801769E+03  0.91597801770E+03  0.50400001928E-02 0. -1.
        1   -1    0    0  501    0  0.00000000000E+00  0.00000000000E+00 -0.13344089119E+04  0.13344089119E+04  0.50400001928E-02 0.  1.
    10030    2    1    2    0    0  0.00000000000E+00  0.00000000000E+00 -0.41843089417E+03  0.22503869296E+04  0.22111438035E+04 0.  0.
        4    1    3    3  502    0 -0.68465454176E+03  0.99499455222E+02  0.66843242608E+03  0.96200597933E+03  0.12699999809E+01 0. -1.
       -4    1    3    3    0  502  0.68465454176E+03 -0.99499455222E+02 -0.10868633202E+04  0.12883809502E+04  0.12699999809E+01 0.  1.
</event>
<event>
 5   0  0.1846850E-06  0.3160682E+04  0.7818609E-02  0.8199279E-01
        1   -1    0    0  501    0  0.00000000000E+00  0.00000000000E+00  0.17432802735E+04  0.17432802735E+04  0.50400001928E-02 0. -1.
       -1   -1    0    0    0  501  0.00000000000E+00  0.00000000000E+00 -0.14326315626E+04  0.14326315626E+04  0.50400001928E-02 0.  1.
    10030    2    1    2    0    0  0.00000000000E+00  0.00000000000E+00  0.31064871091E+03  0.31759118361E+04  0.31606824214E+04 0.  0.
        5    1    3    3  502    0  0.92662521224E+03  0.93794566384E+03  0.10307743062E+04  0.16735871990E+04  0.46999998093E+01 0. -1.
       -5    1    3    3    0  502 -0.92662521224E+03 -0.93794566384E+03 -0.72012559529E+03  0.15023246371E+04  0.46999998093E+01 0.  1.
</event>
<event>
 5   0  0.5373060E-06  0.3219960E+04  0.7818609E-02  0.8183566E-01
       -2   -1    0    0    0  501  0.00000000000E+00  0.00000000000E+00  0.13654275968E+04  0.13654275968E+04  0.25500000920E-02 0.  1.
        2   -1    0    0  501    0  0.00000000000E+00  0.00000000000E+00 -0.18983319869E+04  0.18983319869E+04  0.25500000920E-02 0. -1.
    10030    2    1    2    0    0  0.00000000000E+00  0.00000000000E+00 -0.53290439004E+03  0.32637595837E+04  0.32199595543E+04 0.  0.
        5    1    3    3  502    0 -0.81503220195E+03 -0.13769799636E+04 -0.86095043994E+02  0.16024312019E+04  0.46999998093E+01 0. -1.
       -5    1    3    3    0  502  0.81503220195E+03  0.13769799636E+04 -0.44680934605E+03  0.16613283818E+04  0.46999998093E+01 0.  1.
</event>
<event>
 5   0  0.1846850E-06  0.3074498E+04  0.7818609E-02  0.8222772E-01
        1   -1    0    0  501    0  0.00000000000E+00  0.00000000000E+00  0.12060633129E+04  0.12060633129E+04  0.50400001928E-02 0.  1.
       -1   -1    0    0    0  501  0.00000000000E+00  0.00000000000E+00 -0.19593787716E+04  0.19593787716E+04  0.50400001928E-02 0. -1.
    10030    2    1    2    0    0  0.00000000000E+00  0.00000000000E+00 -0.75331545875E+03  0.31654420845E+04  0.30744982371E+04 0.  0.
        5    1    3    3  502    0  0.24588778995E+03  0.84501678444E+03 -0.16743365309E+04  0.18915440994E+04  0.46999998093E+01 0. -1.
       -5    1    3    3    0  502 -0.24588778995E+03 -0.84501678444E+03  0.92102107214E+03  0.12738979851E+04  0.46999998093E+01 0.  1.
</event>
<event>
 5   0  0.1969465E-06  0.2263121E+04  0.7818609E-02  0.8492605E-01
        1   -1    0    0  501    0  0.00000000000E+00  0.00000000000E+00  0.82210715397E+03  0.82210715399E+03  0.50400001928E-02 0. -1.
       -1   -1    0    0    0  501  0.00000000000E+00  0.00000000000E+00 -0.15574973082E+04  0.15574973082E+04  0.50400001928E-02 0.  1.
    10030    2    1    2    0    0  0.00000000000E+00  0.00000000000E+00 -0.73539015421E+03  0.23796044622E+04  0.22631214544E+04 0.  0.
        2    1    3    3  502    0  0.21852565578E+03 -0.64295702303E+03 -0.13194250520E+04  0.14839237392E+04  0.25500000920E-02 0.  1.
       -2    1    3    3    0  502 -0.21852565578E+03  0.64295702303E+03  0.58403489783E+03  0.89568072302E+03  0.25500000920E-02 0. -1.
</event>
<event>
 5   0  0.5108810E-06  0.3207990E+04  0.7818609E-02  0.8186710E-01
       -2   -1    0    0    0  501  0.00000000000E+00  0.00000000000E+00  0.11345663483E+04  0.11345663483E+04  0.25500000920E-02 0.  1.
        2   -1    0    0  501    0  0.00000000000E+00  0.00000000000E+00 -0.22676504775E+04  0.22676504775E+04  0.25500000920E-02 0. -1.
    10030    2    1    2    0    0  0.00000000000E+00  0.00000000000E+00 -0.11330841292E+04  0.34022168259E+04  0.32079899760E+04 0.  0.
        1    1    3    3  502    0  0.13094061611E+04  0.91298049561E+03 -0.39979002673E+03  0.16455728321E+04  0.50400001928E-02 0.  1.
       -1    1    3    3    0  502 -0.13094061611E+04 -0.91298049561E+03 -0.73329410245E+03  0.17566439938E+04  0.50400001928E-02 0. -1.
</event>
<event>
 5   0  0.1886248E-06  0.3153080E+04  0.7818609E-02  0.8201320E-01
       -1   -1    0    0    0  501  0.00000000000E+00  0.00000000000E+00  0.13168809735E+04  0.13168809735E+04  0.50400001928E-02 0.  1.
        1   -1    0    0  501    0  0.00000000000E+00  0.00000000000E+00 -0.18873984061E+04  0.18873984061E+04  0.50400001928E-02 0. -1.
    10030    2    1    2    0    0  0.00000000000E+00  0.00000000000E+00 -0.57051743259E+03  0.32042793795E+04  0.31530804305E+04 0.  0.
        4    1    3    3  502    0  0.65933548237E+03 -0.96174999698E+03  0.79300311419E+03  0.14101566888E+04  0.12699999809E+01 0.  1.
       -4    1    3    3    0  502 -0.65933548237E+03  0.96174999698E+03 -0.13635205468E+04  0.17941226907E+04  0.12699999809E+01 0. -1.
</event>
<event>
 5   0  0.5108810E-06  0.3132588E+04  0.7818609E-02  0.8206851E-01
        2   -1    0    0  501    0  0.00000000000E+00  0.00000000000E+00  0.25166121839E+04  0.25166121839E+04  0.25500000920E-02 0. -1.
       -2   -1    0    0    0  501  0.00000000000E+00  0.00000000000E+00 -0.97483301041E+03  0.97483301041E+03  0.25500000920E-02 0.  1.
    10030    2    1    2    0    0  0.00000000000E+00  0.00000000000E+00  0.15417791735E+04  0.34914451944E+04  0.31325878320E+04 0.  0.
        1    1    3    3  502    0 -0.15722003398E+03  0.85328116608E+03  0.22242938411E+04  0.23875280059E+04  0.50400001928E-02 0. -1.
       -1    1    3    3    0  502  0.15722003398E+03 -0.85328116608E+03 -0.68251466756E+03  0.11039171884E+04  0.50400001928E-02 0.  1.
</event>
<event>
 5   0  0.5108810E-06  0.3138162E+04  0.7818609E-02  0.8205342E-01
       -2   -1    0    0    0  501  0.00000000000E+00  0.00000000000E+00  0.12985464359E+04  0.12985464359E+04  0.25500000920E-02 0. -1.
        2   -1    0    0  501    0  0.00000000000E+00  0.00000000000E+00 -0.18959777944E+04  0.18959777944E+04  0.25500000920E-02 0.  1.
    10030    2    1    2    0    0  0.00000000000E+00  0.00000000000E+00 -0.59743135849E+03  0.31945242303E+04  0.31381620146E+04 0.  0.
        1    1    3    3  502    0 -0.86998052387E+03 -0.87564069510E+03  0.68739439610E+03  0.14128424522E+04  0.50400001928E-02 0. -1.
       -1    1    3    3    0  502  0.86998052387E+03  0.87564069510E+03 -0.12848257546E+04  0.17816817781E+04  0.50400001928E-02 0.  1.
</event>
<event>
 5   0  0.1886248E-06  0.2936555E+04  0.7818609E-02  0.8262084E-01
       -1   -1    0    0    0  501  0.00000000000E+00  0.00000000000E+00  0.11733963272E+04  0.11733963272E+04  0.50400001928E-02 0.  1.
        1   -1    0    0  501    0  0.00000000000E+00  0.00000000000E+00 -0.18372635280E+04  0.18372635280E+04  0.50400001928E-02 0. -1.
    10030    2    1    2    0    0  0.00000000000E+00  0.00000000000E+00 -0.66386720081E+03  0.30106598552E+04  0.29365546315E+04 0.  0.
        4    1    3    3  502    0 -0.14397619671E+04  0.27987743023E+03 -0.26246858386E+03  0.14900125061E+04  0.12699999809E+01 0.  1.
       -4    1    3    3    0  502  0.14397619671E+04 -0.27987743023E+03 -0.40139861694E+03  0.15206473492E+04  0.12699999809E+01 0. -1.
</event>
<event>
 5   0  0.1881144E-06  0.3148904E+04  0.7818609E-02  0.8202443E-01
       -1   -1    0    0    0  501  0.00000000000E+00  0.00000000000E+00  0.10967383753E+04  0.10967383753E+04  0.50400001928E-02 0.  1.
        1   -1    0    0  501    0  0.00000000000E+00  0.00000000000E+00 -0.22602472253E+04  0.22602472253E+04  0.50400001928E-02 0. -1.
    10030    2    1    2    0    0  0.00000000000E+00  0.00000000000E+00 -0.11635088500E+04  0.33569856006E+04  0.31489044887E+04 0.  0.
        3    1    3    3  502    0  0.11474241797E+04  0.10288325013E+04 -0.92525954313E+03  0.17975493863E+04  0.10100000352E+00 0.  1.
       -3    1    3    3    0  502 -0.11474241797E+04 -0.10288325013E+04 -0.23824930684E+03  0.15594362143E+04  0.10100000352E+00 0. -1.
</event>
<event>
 5   0  0.5121624E-06  0.3179934E+04  0.7818609E-02  0.8194137E-01
        2   -1    0    0  501    0  0.00000000000E+00  0.00000000000E+00  0.17292554896E+04  0.17292554896E+04  0.25500000920E-02 0.  1.
       -2   -1    0    0    0  501  0.00000000000E+00  0.00000000000E+00 -0.14618979683E+04  0.14618979683E+04  0.25500000920E-02 0. -1.
    10030    2    1    2    0    0  0.00000000000E+00  0.00000000000E+00  0.26735752129E+03  0.31911534579E+04  0.31799340162E+04 0.  0.
        4    1    3    3  502    0 -0.65883382469E+03  0.13433337429E+04  0.67352276159E+03  0.16408053135E+04  0.12699999809E+01 0. -1.
       -4    1    3    3    0  502  0.65883382469E+03 -0.13433337429E+04 -0.40616524030E+03  0.15503481444E+04  0.12699999809E+01 0.  1.
</event>
<event>
 5   0  0.1886248E-06  0.2702175E+04  0.7818609E-02  0.8334300E-01
       -1   -1    0    0    0  501  0.00000000000E+00  0.00000000000E+00  0.89713467667E+03  0.89713467668E+03  0.50400001928E-02 0.  1.
        1   -1    0    0  501    0  0.00000000000E+00  0.00000000000E+00 -0.20347413587E+04  0.20347413587E+04  0.50400001928E-02 0. -1.
    10030    2    1    2    0    0  0.00000000000E+00  0.00000000000E+00 -0.11376066820E+04  0.29318760354E+04  0.27021747027E+04 0.  0.
        4    1    3    3  502    0 -0.99140326122E+03 -0.86697487066E+03 -0.89594584273E+03  0.15928736355E+04  0.12699999809E+01 0. -1.
       -4    1    3    3    0  502  0.99140326122E+03  0.86697487066E+03 -0.24166083931E+03  0.13390023999E+04  0.12699999809E+01 0.  1.
</event>
<event>
 5   0  0.1977015E-06  0.2858843E+04  0.7818609E-02  0.8285229E-01
        1   -1    0    0  501    0  0.00000000000E+00  0.00000000000E+00  0.19888704243E+04  0.19888704244E+04  0.50400001928E-02 0. -1.
       -1   -1    0    0    0  501  0.00000000000E+00  0.00000000000E+00 -0.10273399869E+04  0.10273399869E+04  0.50400001928E-02 0.  1.
    10030    2    1    2    0    0  0.00000000000E+00  0.00000000000E+00  0.96153043743E+03  0.30162104113E+04  0.28588432037E+04 0.  0.
        1    1    3    3  502    0 -0.13194354511E+04 -0.49750627928E+03  0.72779851979E+03  0.15868563555E+04  0.50400001928E-02 0. -1.
       -1    1    3    3    0  502  0.13194354511E+04  0.49750627928E+03  0.23373191764E+03  0.14293540558E+04  0.50400001928E-02 0.  1.
</event>
<event>
 5   0  0.1846850E-06  0.3225239E+04  0.7818609E-02  0.8182183E-01
        1   -1    0    0  501    0  0.00000000000E+00  0.00000000000E+00  0.79394840559E+03  0.79394840560E+03  0.50400001928E-02 0. -1.
       -1   -1    0    0    0  501  0.00000000000E+00  0.00000000000E+00 -0.32754539346E+04  0.32754539346E+04  0.50400001928E-02 0.  1.
    10030    2    1    2    0    0  0.00000000000E+00  0.00000000000E+00 -0.24815055290E+04  0.40694023402E+04  0.32252388618E+04 0.  0.
        5    1    3    3  502    0 -0.63516644360E+03  0.27366341860E+03  0.59731283621E+03  0.91385600181E+03  0.46999998093E+01 0. -1.
       -5    1    3    3    0  502  0.63516644360E+03 -0.27366341860E+03 -0.30788183652E+04  0.31555463383E+04  0.46999998093E+01 0.  1.
</event>
<event>
 5   0  0.5121624E-06  0.3111054E+04  0.7818609E-02  0.8212711E-01
       -2   -1    0    0    0  501  0.00000000000E+00  0.00000000000E+00  0.20283896610E+04  0.20283896610E+04  0.25500000920E-02 0.  1.
        2   -1    0    0  501    0  0.00000000000E+00  0.00000000000E+00 -0.11928994301E+04  0.11928994301E+04  0.25500000920E-02 0. -1.
    10030    2    1    2    0    0  0.00000000000E+00  0.00000000000E+00  0.83549023088E+03  0.32212890912E+04  0.31110544005E+04 0.  0.
        4    1    3    3  502    0 -0.14906441358E+04  0.43051731574E+03  0.53257162134E+03  0.16404265432E+04  0.12699999809E+01 0.  1.
       -4    1    3    3    0  502  0.14906441358E+04 -0.43051731574E+03  0.30291860953E+03  0.15808625480E+04  0.12699999809E+01 0. -1.
</event>
<event>
 5   0  0.5347280E-06  0.2133155E+04  0.7818609E-02  0.8546778E-01
        2   -1    0    0  501    0  0.00000000000E+00  0.00000000000E+00  0.11707599555E+04  0.11707599556E+04  0.25500000920E-02 0.  1.
       -2   -1    0    0    0  501  0.00000000000E+00  0.00000000000E+00 -0.97166553209E+03  0.97166553209E+03  0.25500000920E-02 0. -1.
    10030    2    1    2    0    0  0.00000000000E+00  0.00000000000E+00  0.19909442346E+03  0.21424254876E+04  0.21331545609E+04 0.  0.
        2    1    3    3  502    0  0.16739812739E+03 -0.81224038819E+03 -0.57406175303E+03  0.10086146328E+04  0.25500000920E-02 0. -1.
       -2    1    3    3    0  502 -0.16739812739E+03  0.81224038819E+03  0.77315617649E+03  0.11338108548E+04  0.25500000920E-02 0.  1.
</event>
<event>
 5   0  0.1846850E-06  0.2737842E+04  0.7818609E-02  0.8322830E-01
       -1   -1    0    0    0  501  0.00000000000E+00  0.00000000000E+00  0.19495678349E+04  0.19495678349E+04  0.50400001928E-02 0. -1.
        1   -1    0    0  501    0  0.00000000000E+00  0.00000000000E+00 -0.96121006700E+03  0.96121006701E+03  0.50400001928E-02 0.  1.
    10030    2    1    2    0    0  0.00000000000E+00  0.00000000000E+00  0.98835776789E+03  0.29107779019E+04  0.27378416530E+04 0.  0.
        5    1    3    3  502    0 -0.66955832528E+03  0.10014616267E+04  0.11853903069E+04  0.16900905332E+04  0.46999998093E+01 0. -1.
       -5    1    3    3    0  502  0.66955832528E+03 -0.10014616267E+04 -0.19703253902E+03  0.12206873687E+04  0.46999998093E+01 0.  1.
</event>
<event>
 5   0  0.1977015E-06  0.3250363E+04  0.7818609E-02  0.8175642E-01
       -1   -1    0    0    0  501  0.00000000000E+00  0.00000000000E+00  0.14960048020E+04  0.14960048021E+04  0.50400001928E-02 0. -1.
        1   -1    0    0  501    0  0.00000000000E+00  0.00000000000E+00 -0.17655126208E+04  0.17655126208E+04  0.50400001928E-02 0.  1.
    10030    2    1    2    0    0  0.00000000000E+00  0.00000000000E+00 -0.26950781873E+03  0.32615174228E+04  0.32503632774E+04 0.  0.
        1    1    3    3  502    0  0.50775053296E+03 -0.30549643862E+03  0.13837391542E+04  0.15052816097E+04  0.50400001928E-02 0. -1.
       -1    1    3    3    0  502 -0.50775053296E+03  0.30549643862E+03 -0.16532469729E+04  0.17562358131E+04  0.50400001928E-02 0.  1.
</event>
<event>
 5   0  0.5131083E-06  0.3198809E+04  0.7818609E-02  0.8189132E-01
       -2   -1    0    0    0  501  0.00000000000E+00  0.00000000000E+00  0.11442701254E+04  0.11442701254E+04  0.25500000920E-02 0. -1.
        2   -1    0    0  501    0  0.00000000000E+00  0.00000000000E+00 -0.22355686065E+04  0.22355686065E+04  0.25500000920E-02 0.  1.
    10030    2    1    2    0    0  0.00000000000E+00  0.00000000000E+00 -0.10912984811E+04  0.33798387318E+04  0.31988087593E+04 0.  0.
        3    1    3    3  502    0  0.11340530043E+04 -0.11266212959E+04 -0.60098282706E+03  0.17077857388E+04  0.10100000352E+00 0.  1.
       -3    1    3    3    0  502 -0.11340530043E+04  0.11266212959E+04 -0.49031565405E+03  0.16720529931E+04  0.10100000352E+00 0. -1.
</event>
<event>
 5   0  0.5121624E-06  0.3298236E+04  0.7818609E-02  0.8163344E-01
       -2   -1    0    0    0  501  0.00000000000E+00  0.00000000000E+00  0.16717956925E+04  0.16717956925E+04  0.25500000920E-02 0. -1.
        2   -1    0    0  501    0  0.00000000000E+00  0.00000000000E+00 -0.16267481767E+04  0.16267481767E+04  0.25500000920E-02 0.  1.
    10030    2    1    2    0    0  0.00000000000E+00  0.00000000000E+00  0.45047515776E+02  0.32985438692E+04  0.32982362527E+04 0.  0.
        4    1    3    3  502    0 -0.50371406468E+03 -0.14658234666E+04 -0.54075402720E+03  0.16415793691E+04  0.12699999809E+01 0.  1.
       -4    1    3    3    0  502  0.50371406468E+03  0.14658234666E+04  0.58580154298E+03  0.16569645002E+04  0.12699999809E+01 0. -1.
</event>
<event>
 5   0  0.5121624E-06  0.2508422E+04  0.7818609E-02  0.8399991E-01
       -2   -1    0    0    0  501  0.00000000000E+00  0.00000000000E+00  0.76801559881E+03  0.76801559881E+03  0.25500000920E-02 0. -1.
        2   -1    0    0  501    0  0.00000000000E+00  0.00000000000E+00 -0.20481937007E+04  0.20481937007E+04  0.25500000920E-02 0.  1.
    10030    2    1    2    0    0  0.00000000000E+00  0.00000000000E+00 -0.12801781019E+04  0.28162092995E+04  0.25084215846E+04 0.  0.
        4    1    3    3  502    0 -0.78681269258E+02 -0.53014409795E+03 -0.19131554067E+04  0.19868086797E+04  0.12699999809E+01 0.  1.
       -4    1    3    3    0  502  0.78681269258E+02  0.53014409795E+03  0.63297730484E+03  0.82940061976E+03  0.12699999809E+01 0. -1.
</event>
<event>
 5   0  0.1881144E-06  0.3129802E+04  0.7818609E-02  0.8207606E-01
        1   -1    0    0  501    0  0.00000000000E+00  0.00000000000E+00  0.10694941441E+04  0.10694941441E+04  0.50400001928E-02 0.  1.
       -1   -1    0    0    0  501  0.00000000000E+00  0.00000000000E+00 -0.22897887491E+04  0.22897887492E+04  0.50400001928E-02 0. -1.
    10030    2    1    2    0    0  0.00000000000E+00  0.00000000000E+00 -0.12202946051E+04  0.33592828932E+04  0.31298023314E+04 0.  0.
        3    1    3    3  502    0  0.86495064866E+02 -0.65343471457E+03 -0.21335288983E+04  0.22330257259E+04  0.10100000352E+00 0. -1.
       -3    1    3    3    0  502 -0.86495064866E+02  0.65343471457E+03  0.91323429323E+03  0.11262571673E+04  0.10100000352E+00 0.  1.
</event>
<event>
 5   0  0.1881144E-06  0.3224899E+04  0.7818609E-02  0.8182272E-01
       -1   -1    0    0    0  501  0.00000000000E+00  0.00000000000E+00  0.21116551213E+04  0.21116551213E+04  0.50400001928E-02 0. -1.
        1   -1    0    0  501    0  0.00000000000E+00  0.00000000000E+00 -0.12312588297E+04  0.12312588297E+04  0.50400001928E-02 0.  1.
    10030    2    1    2    0    0  0.00000000000E+00  0.00000000000E+00  0.88039629156E+03  0.33429139510E+04  0.32248993866E+04 0.  0.
        3    1    3    3  502    0  0.10709351860E+04  0.10418200893E+04  0.10687736558E+04  0.18369998390E+04  0.10100000352E+00 0. -1.
       -3    1    3    3    0  502 -0.10709351860E+04 -0.10418200893E+04 -0.18837736427E+03  0.15059141120E+04  0.10100000352E+00 0.  1.
</event>
<event>
 5   0  0.1881144E-06  0.3186971E+04  0.7818609E-02  0.8192267E-01
        1   -1    0    0  501    0  0.00000000000E+00  0.00000000000E+00  0.99717258985E+03  0.99717258986E+03  0.50400001928E-02 0.  1.
       -1   -1    0    0    0  501  0.00000000000E+00  0.00000000000E+00 -0.25463962745E+04  0.25463962745E+04  0.50400001928E-02 0. -1.
    10030    2    1    2    0    0  0.00000000000E+00  0.00000000000E+00 -0.15492236847E+04  0.35435688644E+04  0.31869713321E+04 0.  0.
        3    1    3    3  502    0 -0.43160776993E+03 -0.13177133288E+04  0.98448701028E+02  0.13900884292E+04  0.10100000352E+00 0.  1.
       -3    1    3    3    0  502  0.43160776993E+03  0.13177133288E+04 -0.16476723857E+04  0.21534804352E+04  0.10100000352E+00 0. -1.
</event>
<event>
 5   0  0.1969465E-06  0.2821871E+04  0.7818609E-02  0.8296510E-01
       -1   -1    0    0    0  501  0.00000000000E+00  0.00000000000E+00  0.13323092176E+04  0.13323092176E+04  0.50400001928E-02 0. -1.
        1   -1    0    0  501    0  0.00000000000E+00  0.00000000000E+00 -0.14942021677E+04  0.14942021678E+04  0.50400001928E-02 0.  1.
    10030    2    1    2    0    0  0.00000000000E+00  0.00000000000E+00 -0.16189295012E+03  0.28265113854E+04  0.28218712381E+04 0.  0.
        2    1    3    3  502    0 -0.93512088571E+02 -0.83651251511E+03 -0.12151695574E+04  0.14782201297E+04  0.25500000920E-02 0.  1.
       -2    1    3    3    0  502  0.93512088571E+02  0.83651251511E+03  0.10532766073E+04  0.13482912557E+04  0.25500000920E-02 0. -1.
</event>
<event>
 5   0  0.5131083E-06  0.3203700E+04  0.7818609E-02  0.8187841E-01
       -2   -1    0    0    0  501  0.00000000000E+00  0.00000000000E+00  0.21576830033E+04  0.21576830033E+04  0.25500000920E-02 0. -1.
        2   -1    0    0  501    0  0.00000000000E+00  0.00000000000E+00 -0.11892029944E+04  0.11892029944E+04  0.25500000920E-02 0.  1.
    10030    2    1    2    0    0  0.00000000000E+00  0.00000000000E+00  0.96848000894E+03  0.33468859977E+04  0.32036997915E+04 0.  0.
        3    1    3    3  502    0 -0.94819589434E+03  0.11732053235E+04  0.10472485644E+04  0.18363593741E+04  0.10100000352E+00 0. -1.
       -3    1    3    3    0  502  0.94819589434E+03 -0.11732053235E+04 -0.78768555495E+02  0.15105266236E+04  0.10100000352E+00 0.  1.
</event>
<event>
 5   0  0.5131083E-06  0.3327185E+04  0.7818609E-02  0.8156012E-01
        2   -1    0    0  501    0  0.00000000000E+00  0.00000000000E+00  0.21936587732E+04  0.21936587732E+04  0.25500000920E-02 0. -1.
       -2   -1    0    0    0  501  0.00000000000E+00  0.00000000000E+00 -0.12616090942E+04  0.12616090942E+04  0.25500000920E-02 0.  1.
    10030    2    1    2    0    0  0.00000000000E+00  0.00000000000E+00  0.93204967906E+03  0.34552678674E+04  0.33271849109E+04 0.  0.
        3    1    3    3  502    0 -0.11048405179E+04 -0.11382147309E+04  0.98665681884E+03  0.18680730799E+04  0.10100000352E+00 0. -1.
       -3    1    3    3    0  502  0.11048405179E+04  0.11382147309E+04 -0.54607139774E+02  0.15871947875E+04  0.10100000352E+00 0.  1.
</event>
<event>
 5   0  0.1881144E-06  0.3145646E+04  0.7818609E-02  0.8203321E-01
       -1   -1    0    0    0  501  0.00000000000E+00  0.00000000000E+00  0.20694526789E+04  0.20694526789E+04  0.50400001928E-02 0.  1.
        1   -1    0    0  501    0  0.00000000000E+00  0.00000000000E+00 -0.11953748252E+04  0.11953748252E+04  0.50400001928E-02 0. -1.
    10030    2    1    2    0    0  0.00000000000E+00  0.00000000000E+00  0.87407785371E+03  0.32648275040E+04  0.31456456470E+04 0.  0.
        3    1    3    3  502    0  0.53781234060E+03 -0.14538220044E+04  0.16061937496E+03  0.15584091658E+04  0.10100000352E+00 0.  1.
       -3    1    3    3    0  502 -0.53781234060E+03  0.14538220044E+04  0.71345847875E+03  0.17064183383E+04  0.10100000352E+00 0. -1.
</event>
<event>
 5   0  0.5347280E-06  0.3312723E+04  0.7818609E-02  0.8159665E-01
        2   -1    0    0  501    0  0.00000000000E+00  0.00000000000E+00  0.19730571383E+04  0.19730571383E+04  0.25500000920E-02 0. -1.
       -2   -1    0    0    0  501  0.00000000000E+00  0.00000000000E+00 -0.13904988843E+04  0.13904988843E+04  0.25500000920E-02 0.  1.
    10030    2    1    2    0    0  0.00000000000E+00  0.00000000000E+00  0.58255825395E+03  0.33635560226E+04  0.33127231998E+04 0.  0.
        2    1    3    3  502    0 -0.45802533350E+03 -0.33920087231E+03 -0.12877987866E+04  0.14082862467E+04  0.25500000920E-02 0.  1.
       -2    1    3    3    0  502  0.45802533350E+03  0.33920087231E+03  0.18703570405E+04  0.19552697760E+04  0.25500000920E-02 0. -1.
</event>
<event>
 5   0  0.5108810E-06  0.3190047E+04  0.7818609E-02  0.8191451E-01
       -2   -1    0    0    0  501  0.00000000000E+00  0.00000000000E+00  0.15648129034E+04  0.15648129034E+04  0.25500000920E-02 0. -1.
        2   -1    0    0  501    0  0.00000000000E+00  0.00000000000E+00 -0.16258168817E+04  0.16258168817E+04  0.25500000920E-02 0.  1.
    10030    2    1    2    0    0  0.00000000000E+00  0.00000000000E+00 -0.61003978247E+02  0.31906297851E+04  0.31900465421E+04 0.  0.
        1    1    3    3  502    0  0.62983620143E+01 -0.15941078228E+04  0.23171730460E+02  0.15942886656E+04  0.50400001928E-02 0.  1.
       -1    1    3    3    0  502 -0.62983620143E+01  0.15941078228E+04 -0.84175708707E+02  0.15963411196E+04  0.50400001928E-02 0. -1.
</event>
<event>
 5   0  0.5121624E-06  0.3203036E+04  0.7818609E-02  0.8188016E-01
        2   -1    0    0  501    0  0.00000000000E+00  0.00000000000E+00  0.15232314794E+04  0.15232314794E+04  0.25500000920E-02 0.  1.
       -2   -1    0    0    0  501  0.00000000000E+00  0.00000000000E+00 -0.16838278169E+04  0.16838278169E+04  0.25500000920E-02 0. -1.
    10030    2    1    2    0    0  0.00000000000E+00  0.00000000000E+00 -0.16059633751E+03  0.32070592963E+04  0.32030357704E+04 0.  0.
        4    1    3    3  502    0  0.45088762115E+03  0.76056412948E+03 -0.14173034099E+04  0.16704813710E+04  0.12699999809E+01 0. -1.
       -4    1    3    3    0  502 -0.45088762115E+03 -0.76056412948E+03  0.12567070724E+04  0.15365779254E+04  0.12699999809E+01 0.  1.
</event>
<event>
 5   0  0.1846850E-06  0.3143406E+04  0.7818609E-02  0.8203925E-01
        1   -1    0    0  501    0  0.00000000000E+00  0.00000000000E+00  0.15874207632E+04  0.15874207632E+04  0.50400001928E-02 0. -1.
       -1   -1    0    0    0  501  0.00000000000E+00  0.00000000000E+00 -0.15561411098E+04  0.15561411098E+04  0.50400001928E-02 0.  1.
    10030    2    1    2    0    0  0.00000000000E+00  0.00000000000E+00  0.31279653446E+02  0.31435618730E+04  0.31434062468E+04 0.  0.
        5    1    3    3  502    0  0.62518334171E+03 -0.13639982116E+02  0.14576503119E+04  0.15861294972E+04  0.46999998093E+01 0. -1.
       -5    1    3    3    0  502 -0.62518334171E+03  0.13639982116E+02 -0.14263706585E+04  0.15574323758E+04  0.46999998093E+01 0.  1.
</event>
<event>
 5   0  0.5108810E-06  0.2613124E+04  0.7818609E-02  0.8363757E-01
        2   -1    0    0  501    0  0.00000000000E+00  0.00000000000E+00  0.20637344835E+04  0.20637344835E+04  0.25500000920E-02 0.  1.
       -2   -1    0    0    0  501  0.00000000000E+00  0.00000000000E+00 -0.82719175640E+03  0.82719175640E+03  0.25500000920E-02 0. -1.
    10030    2    1    2    0    0  0.00000000000E+00  0.00000000000E+00  0.12365427271E+04  0.28909262399E+04  0.26131239176E+04 0.  0.
        1    1    3    3  502    0  0.57882517616E+02 -0.69647784636E+03  0.18395661117E+04  0.19678504149E+04  0.50400001928E-02 0.  1.
       -1    1    3    3    0  502 -0.57882517616E+02  0.69647784636E+03 -0.60302338456E+03  0.92307582498E+03  0.50400001928E-02 0. -1.
</event>
<event>
 5   0  0.5131083E-06  0.3175520E+04  0.7818609E-02  0.8195312E-01
        2   -1    0    0  501    0  0.00000000000E+00  0.00000000000E+00  0.22322245464E+04  0.22322245464E+04  0.25500000920E-02 0. -1.
       -2   -1    0    0    0  501  0.00000000000E+00  0.00000000000E+00 -0.11293587936E+04  0.11293587936E+04  0.25500000920E-02 0.  1.
    10030    2    1    2    0    0  0.00000000000E+00  0.00000000000E+00  0.11028657528E+04  0.33615833401E+04  0.31755203800E+04 0.  0.
        3    1    3    3  502    0 -0.99852305135E+03 -0.28714662628E+03  0.18223974074E+04  0.20977687646E+04  0.10100000352E+00 0. -1.
       -3    1    3    3    0  502  0.99852305135E+03  0.28714662628E+03 -0.71953165459E+03  0.12638145755E+04  0.10100000352E+00 0.  1.
</event>
<event>
 5   0  0.1886248E-06  0.3137575E+04  0.7818609E-02  0.8205501E-01
        1   -1    0    0  501    0  0.00000000000E+00  0.00000000000E+00  0.17236272552E+04  0.17236272552E+04  0.50400001928E-02 0. -1.
       -1   -1    0    0    0  501  0.00000000000E+00  0.00000000000E+00 -0.14278576453E+04  0.14278576453E+04  0.50400001928E-02 0.  1.
    10030    2    1    2    0    0  0.00000000000E+00  0.00000000000E+00  0.29576960985E+03  0.31514849005E+04  0.31375750853E+04 0.  0.
        4    1    3    3  502    0 -0.39031600868E+03  0.10895979167E+04  0.12115993677E+04  0.16755729908E+04  0.12699999809E+01 0. -1.
       -4    1    3    3    0  502  0.39031600868E+03 -0.10895979167E+04 -0.91582975788E+03  0.14759119097E+04  0.12699999809E+01 0.  1.
</event>
<event>
 5   0  0.5373060E-06  0.2777318E+04  0.7818609E-02  0.8310345E-01
       -2   -1    0    0    0  501  0.00000000000E+00  0.00000000000E+00  0.12990364204E+04  0.12990364204E+04  0.25500000920E-02 0. -1.
        2   -1    0    0  501    0  0.00000000000E+00  0.00000000000E+00 -0.14844646181E+04  0.14844646181E+04  0.25500000920E-02 0.  1.
    10030    2    1    2    0    0  0.00000000000E+00  0.00000000000E+00 -0.18542819771E+03  0.27835010385E+04  0.27773178455E+04 0.  0.
        5    1    3    3  502    0 -0.11777540775E+04 -0.47234505700E+03 -0.65800616399E+03  0.14294085217E+04  0.46999998093E+01 0.  1.
       -5    1    3    3    0  502  0.11777540775E+04  0.47234505700E+03  0.47257796628E+03  0.13540925168E+04  0.46999998093E+01 0. -1.
</event>
<event>
 5   0  0.5347280E-06  0.3221295E+04  0.7818609E-02  0.8183216E-01
       -2   -1    0    0    0  501  0.00000000000E+00  0.00000000000E+00  0.22016017113E+04  0.22016017113E+04  0.25500000920E-02 0. -1.
        2   -1    0    0  501    0  0.00000000000E+00  0.00000000000E+00 -0.11783175018E+04  0.11783175018E+04  0.25500000920E-02 0.  1.
    10030    2    1    2    0    0  0.00000000000E+00  0.00000000000E+00  0.10232842095E+04  0.33799192131E+04  0.32212952851E+04 0.  0.
        2    1    3    3  502    0  0.10829864882E+04 -0.43096873381E+03 -0.65466611070E+03  0.13368550780E+04  0.25500000920E-02 0.  1.
       -2    1    3    3    0  502 -0.10829864882E+04  0.43096873381E+03  0.16779503202E+04  0.20430641351E+04  0.25500000920E-02 0. -1.
</event>
<event>
 5   0  0.5347280E-06  0.3193153E+04  0.7818609E-02  0.8190628E-01
       -2   -1    0    0    0  501  0.00000000000E+00  0.00000000000E+00  0.22511463441E+04  0.22511463441E+04  0.25500000920E-02 0. -1.
        2   -1    0    0  501    0  0.00000000000E+00  0.00000000000E+00 -0.11323374460E+04  0.11323374460E+04  0.25500000920E-02 0.  1.
    10030    2    1    2    0    0  0.00000000000E+00  0.00000000000E+00  0.11188088981E+04  0.33834837901E+04  0.31931534895E+04 0.  0.
        2    1    3    3  502    0 -0.50871728406E+02 -0.36293058569E+03 -0.10871665462E+04  0.11472740048E+04  0.25500000920E-02 0.  1.
       -2    1    3    3    0  502  0.50871728406E+02  0.36293058569E+03  0.22059754443E+04  0.22362097853E+04  0.25500000920E-02 0. -1.
</event>
<event>
 5   0  0.1881144E-06  0.3218870E+04  0.7818609E-02  0.8183851E-01
        1   -1    0    0  501    0  0.00000000000E+00  0.00000000000E+00  0.16419562004E+04  0.16419562004E+04  0.50400001928E-02 0. -1.
       -1   -1    0    0    0  501  0.00000000000E+00  0.00000000000E+00 -0.15775576407E+04  0.15775576407E+04  0.50400001928E-02 0.  1.
    10030    2    1    2    0    0  0.00000000000E+00  0.00000000000E+00  0.64398559740E+02  0.32195138411E+04  0.32188697082E+04 0.  0.
        3    1    3    3  502    0  0.13424126200E+03  0.16041762424E+03 -0.15639038775E+04  0.15778307511E+04  0.10100000352E+00 0.  1.
       -3    1    3    3    0  502 -0.13424126200E+03 -0.16041762424E+03  0.16283024373E+04  0.16416830900E+04  0.10100000352E+00 0. -1.
</event>
<event>
 5   0  0.1969465E-06  0.3161977E+04  0.7818609E-02  0.8198932E-01
        1   -1    0    0  501    0  0.00000000000E+00  0.00000000000E+00  0.12310595416E+04  0.12310595416E+04  0.50400001928E-02 0.  1.
       -1   -1    0    0    0  501  0.00000000000E+00  0.00000000000E+00 -0.20303844500E+04  0.20303844500E+04  0.50400001928E-02 0. -1.
    10030    2    1    2    0    0  0.00000000000E+00  0.00000000000E+00 -0.79932490840E+03  0.32614439916E+04  0.31619766921E+04 0.  0.
        2    1    3    3  502    0 -0.10729121209E+04  0.28723695334E+03  0.76084330624E+03  0.13463016093E+04  0.25500000920E-02 0.  1.
       -2    1    3    3    0  502  0.10729121209E+04 -0.28723695334E+03 -0.15601682146E+04  0.19151423823E+04  0.25500000920E-02 0. -1.
</event>
<event>
 5   0  0.5108810E-06  0.3160399E+04  0.7818609E-02  0.8199355E-01
       -2   -1    0    0    0  501  0.00000000000E+00  0.00000000000E+00  0.10985802253E+04  0.10985802253E+04  0.25500000920E-02 0.  1.
        2   -1    0    0  501    0  0.00000000000E+00  0.00000000000E+00 -0.22729615687E+04  0.22729615687E+04  0.25500000920E-02 0. -1.
    10030    2    1    2    0    0  0.00000000000E+00  0.00000000000E+00 -0.11743813434E+04  0.33715417940E+04  0.31603991091E+04 0.  0.
        1    1    3    3  502    0 -0.11689417291E+04 -0.94994546033E+03 -0.10968188885E+04  0.18632854902E+04  0.50400001928E-02 0. -1.
       -1    1    3    3    0  502  0.11689417291E+04  0.94994546033E+03 -0.77562454917E+02  0.15082563038E+04  0.50400001928E-02 0.  1.
</event>
<event>
 5   0  0.1969465E-06  0.3260950E+04  0.7818609E-02  0.8172903E-01
        1   -1    0    0  501    0  0.00000000000E+00  0.00000000000E+00  0.27364821704E+04  0.27364821704E+04  0.50400001928E-02 0.  1.
       -1   -1    0    0    0  501  0.00000000000E+00  0.00000000000E+00 -0.97148429131E+03  0.97148429133E+03  0.50400001928E-02 0. -1.
    10030    2    1    2    0    0  0.00000000000E+00  0.00000000000E+00  0.17649978791E+04  0.37079664618E+04  0.32609504394E+04 0.  0.
        2    1    3    3  502    0 -0.13116841630E+04  0.78416120390E+03  0.23623507759E+03  0.15463606141E+04  0.25500000920E-02 0. -1.
       -2    1    3    3    0  502  0.13116841630E+04 -0.78416120390E+03  0.15287628015E+04  0.21616058476E+04  0.25500000920E-02 0.  1.
</event>
<event>
 5   0  0.1846850E-06  0.3273545E+04  0.7818609E-02  0.8169660E-01
       -1   -1    0    0    0  501  0.00000000000E+00  0.00000000000E+00  0.17254093522E+04  0.17254093522E+04  0.50400001928E-02 0.  1.
        1   -1    0    0  501    0  0.00000000000E+00  0.00000000000E+00 -0.15526892256E+04  0.15526892256E+04  0.50400001928E-02 0. -1.
    10030    2    1    2    0    0  0.00000000000E+00  0.00000000000E+00  0.17272012661E+03  0.32780985778E+04  0.32735451797E+04 0.  0.
        5    1    3    3  502    0  0.32044181214E+03  0.37278025891E+03  0.16497344991E+04  0.17214221109E+04  0.46999998093E+01 0.  1.
       -5    1    3    3    0  502 -0.32044181214E+03 -0.37278025891E+03 -0.14770143724E+04  0.15566764670E+04  0.46999998093E+01 0. -1.
</event>
<event>
 5   0  0.5373060E-06  0.3185611E+04  0.7818609E-02  0.8192628E-01
        2   -1    0    0  501    0  0.00000000000E+00  0.00000000000E+00  0.15623345606E+04  0.15623345606E+04  0.25500000920E-02 0.  1.
       -2   -1    0    0    0  501  0.00000000000E+00  0.00000000000E+00 -0.16238703930E+04  0.16238703930E+04  0.25500000920E-02 0. -1.
    10030    2    1    2    0    0  0.00000000000E+00  0.00000000000E+00 -0.61535832349E+02  0.31862049536E+04  0.31856106711E+04 0.  0.
        5    1    3    3  502    0  0.96662661680E+03  0.97108148937E+03 -0.84310196645E+03  0.16087912516E+04  0.46999998093E+01 0. -1.
       -5    1    3    3    0  502 -0.96662661680E+03 -0.97108148937E+03  0.78156613410E+03  0.15774137020E+04  0.46999998093E+01 0.  1.
</event>
<event>
 5   0  0.1969465E-06  0.3207108E+04  0.7818609E-02  0.8186942E-01
        1   -1    0    0  501    0  0.00000000000E+00  0.00000000000E+00  0.16549046074E+04  0.16549046074E+04  0.50400001928E-02 0. -1.
       -1   -1    0    0    0  501  0.00000000000E+00  0.00000000000E+00 -0.15537968541E+04  0.15537968541E+04  0.50400001928E-02 0.  1.
    10030    2    1    2    0    0  0.00000000000E+00  0.00000000000E+00  0.10110775330E+03  0.32087014615E+04  0.32071080884E+04 0.  0.
        2    1    3    3  502    0  0.46112901204E+03 -0.50719014639E+03  0.15009305320E+04  0.16500528089E+04  0.25500000920E-02 0. -1.
       -2    1    3    3    0  502 -0.46112901204E+03  0.50719014639E+03 -0.13998227787E+04  0.15586486525E+04  0.25500000920E-02 0.  1.
</event>
<event>
 5   0  0.1881144E-06  0.3216542E+04  0.7818609E-02  0.8184462E-01
        1   -1    0    0  501    0  0.00000000000E+00  0.00000000000E+00  0.26788643612E+04  0.26788643612E+04  0.50400001928E-02 0. -1.
       -1   -1    0    0    0  501  0.00000000000E+00  0.00000000000E+00 -0.96553417384E+03  0.96553417385E+03  0.50400001928E-02 0.  1.
    10030    2    1    2    0    0  0.00000000000E+00  0.00000000000E+00  0.17133301873E+04  0.36443985350E+04  0.32165416757E+04 0.  0.
        3    1    3    3  502    0  0.81274015281E+03 -0.10076416837E+04 -0.22454888944E+03  0.13138913702E+04  0.10100000352E+00 0.  1.
       -3    1    3    3    0  502 -0.81274015281E+03  0.10076416837E+04  0.19378790768E+04  0.23305071648E+04  0.10100000352E+00 0. -1.
</event>
<event>
 5   0  0.1846850E-06  0.3111122E+04  0.7818609E-02  0.8212692E-01
       -1   -1    0    0    0  501  0.00000000000E+00  0.00000000000E+00  0.16554508560E+04  0.16554508560E+04  0.50400001928E-02 0. -1.
        1   -1    0    0  501    0  0.00000000000E+00  0.00000000000E+00 -0.14616985571E+04  0.14616985571E+04  0.50400001928E-02 0.  1.
    10030    2    1    2    0    0  0.00000000000E+00  0.00000000000E+00  0.19375229884E+03  0.31171494131E+04  0.31111220661E+04 0.  0.
        5    1    3    3  502    0  0.10379683362E+04 -0.27894204683E+03 -0.10298295167E+04  0.14885421916E+04  0.46999998093E+01 0.  1.
       -5    1    3    3    0  502 -0.10379683362E+04  0.27894204683E+03  0.12235818156E+04  0.16286072215E+04  0.46999998093E+01 0. -1.
</event>
<event>
 5   0  0.5347280E-06  0.3202793E+04  0.7818609E-02  0.8188080E-01
        2   -1    0    0  501    0  0.00000000000E+00  0.00000000000E+00  0.27871220660E+04  0.27871220660E+04  0.25500000920E-02 0.  1.
       -2   -1    0    0    0  501  0.00000000000E+00  0.00000000000E+00 -0.92011438801E+03  0.92011438801E+03  0.25500000920E-02 0. -1.
    10030    2    1    2    0    0  0.00000000000E+00  0.00000000000E+00  0.18670076779E+04  0.37072364540E+04  0.32027932272E+04 0.  0.
        2    1    3    3  502    0  0.63745479842E+03 -0.93380167893E+03  0.22462023357E+04  0.25147085574E+04  0.25500000920E-02 0.  1.
       -2    1    3    3    0  502 -0.63745479842E+03  0.93380167893E+03 -0.37919465778E+03  0.11925278966E+04  0.25500000920E-02 0. -1.
</event>
<event>
 5   0  0.5108810E-06  0.2831308E+04  0.7818609E-02  0.8293614E-01
       -2   -1    0    0    0  501  0.00000000000E+00  0.00000000000E+00  0.18267345816E+04  0.18267345816E+04  0.25500000920E-02 0. -1.
        2   -1    0    0  501    0  0.00000000000E+00  0.00000000000E+00 -0.10970813951E+04  0.10970813951E+04  0.25500000920E-02 0.  1.
    10030    2    1    2    0    0  0.00000000000E+00  0.00000000000E+00  0.72965318658E+03  0.29238159767E+04  0.28313081946E+04 0.  0.
        1    1    3    3  502    0  0.11436887373E+03  0.11660639404E+04  0.11853250087E+04  0.16666675519E+04  0.50400001928E-02 0. -1.
       -1    1    3    3    0  502 -0.11436887373E+03 -0.11660639404E+04 -0.45567182210E+03  0.12571484248E+04  0.50400001928E-02 0.  1.
</event>
<event>
 5   0  0.1881144E-06  0.3379028E+04  0.7818609E-02  0.8143073E-01
       -1   -1    0    0    0  501  0.00000000000E+00  0.00000000000E+00  0.11625518226E+04  0.11625518226E+04  0.50400001928E-02 0.  1.
        1   -1    0    0  501    0  0.00000000000E+00  0.00000000000E+00 -0.24553385097E+04  0.24553385097E+04  0.50400001928E-02 0. -1.
    10030    2    1    2    0    0  0.00000000000E+00  0.00000000000E+00 -0.12927866871E+04  0.36178903323E+04  0.33790284163E+04 0.  0.
        3    1    3    3  502    0 -0.25249440399E+03  0.13527572326E+04  0.40307504071E+03  0.14339369069E+04  0.10100000352E+00 0. -1.
       -3    1    3    3    0  502  0.25249440399E+03 -0.13527572326E+04 -0.16958617278E+04  0.21839534254E+04  0.10100000352E+00 0.  1.
</event>
<event>
 5   0  0.5108810E-06  0.3233940E+04  0.7818609E-02  0.8179911E-01
        2   -1    0    0  501    0  0.00000000000E+00  0.00000000000E+00  0.20943838313E+04  0.20943838313E+04  0.25500000920E-02 0.  1.
       -2   -1    0    0    0  501  0.00000000000E+00  0.00000000000E+00 -0.12483821954E+04  0.12483821954E+04  0.25500000920E-02 0. -1.
    10030    2    1    2    0    0  0.00000000000E+00  0.00000000000E+00  0.84600163587E+03  0.33427660267E+04  0.32339396935E+04 0.  0.
        1    1    3    3  502    0  0.60786342269E+03  0.25156469698E+02 -0.11255664136E+04  0.12794649429E+04  0.50400001928E-02 0. -1.
       -1    1    3    3    0  502 -0.60786342269E+03 -0.25156469698E+02  0.19715680495E+04  0.20633010838E+04  0.50400001928E-02 0.  1.
</event>
<event>
 5   0  0.5108810E-06  0.3237436E+04  0.7818609E-02  0.8179000E-01
       -2   -1    0    0    0  501  0.00000000000E+00  0.00000000000E+00  0.14897179053E+04  0.14897179053E+04  0.25500000920E-02 0. -1.
        2   -1    0    0  501    0  0.00000000000E+00  0.00000000000E+00 -0.17588890028E+04  0.17588890028E+04  0.25500000920E-02 0.  1.
    10030    2    1    2    0    0  0.00000000000E+00  0.00000000000E+00 -0.26917109744E+03  0.32486069081E+04  0.32374362950E+04 0.  0.
        1    1    3    3  502    0  0.12561264280E+04 -0.10166740881E+04 -0.40621448081E+02  0.16165178337E+04  0.50400001928E-02 0. -1.
       -1    1    3    3    0  502 -0.12561264280E+04  0.10166740881E+04 -0.22854964936E+03  0.16320890744E+04  0.50400001928E-02 0.  1.
</event>
<event>
 5   0  0.5373060E-06  0.3221794E+04  0.7818609E-02  0.8183085E-01
       -2   -1    0    0    0  501  0.00000000000E+00  0.00000000000E+00  0.16089863545E+04  0.16089863545E+04  0.25500000920E-02 0. -1.
        2   -1    0    0  501    0  0.00000000000E+00  0.00000000000E+00 -0.16128097658E+04  0.16128097658E+04  0.25500000920E-02 0.  1.
    10030    2    1    2    0    0  0.00000000000E+00  0.00000000000E+00 -0.38234113093E+01  0.32217961203E+04  0.32217938516E+04 0.  0.
        5    1    3    3  502    0 -0.11487865681E+04 -0.57787032352E+03 -0.97212995505E+03  0.16120494500E+04  0.46999998093E+01 0.  1.
       -5    1    3    3    0  502  0.11487865681E+04  0.57787032352E+03  0.96830654374E+03  0.16097466703E+04  0.46999998093E+01 0. -1.
</event>
<event>
 5   0  0.5108810E-06  0.3191055E+04  0.7818609E-02  0.8191184E-01
        2   -1    0    0  501    0  0.00000000000E+00  0.00000000000E+00  0.21382080906E+04  0.21382080906E+04  0.25500000920E-02 0. -1.
       -2   -1    0    0    0  501  0.00000000000E+00  0.00000000000E+00 -0.11905798882E+04  0.11905798882E+04  0.25500000920E-02 0.  1.
    10030    2    1    2    0    0  0.00000000000E+00  0.00000000000E+00  0.94762820236E+03  0.33287879788E+04  0.31910547156E+04 0.  0.
        1    1    3    3  502    0  0.11366825786E+03  0.13910183825E+04  0.12803984548E+04  0.18940097192E+04  0.50400001928E-02 0.  1.
       -1    1    3    3    0  502 -0.11366825786E+03 -0.13910183825E+04 -0.33277025246E+03  0.14347782596E+04  0.50400001928E-02 0. -1.
</event>
<event>
 5   0  0.1977015E-06  0.2442652E+04  0.7818609E-02  0.8423706E-01
        1   -1    0    0  501    0  0.00000000000E+00  0.00000000000E+00  0.16130352410E+04  0.16130352410E+04  0.50400001928E-02 0.  1.
       -1   -1    0    0    0  501  0.00000000000E+00  0.00000000000E+00 -0.92473947232E+03  0.92473947234E+03  0.50400001928E-02 0. -1.
    10030    2    1    2    0    0  0.00000000000E+00  0.00000000000E+00  0.68829576871E+03  0.25377747134E+04  0.24426521305E+04 0.  0.
        1    1    3    3  502    0  0.25410228821E+03 -0.55645354492E+03  0.14423983136E+04  0.15667550592E+04  0.50400001928E-02 0.  1.
       -1    1    3    3    0  502 -0.25410228821E+03  0.55645354492E+03 -0.75410254488E+03  0.97101965415E+03  0.50400001928E-02 0. -1.
</event>
<event>
 5   0  0.1977015E-06  0.3182797E+04  0.7818609E-02  0.8193375E-01
       -1   -1    0    0    0  501  0.00000000000E+00  0.00000000000E+00  0.93397153247E+03  0.93397153248E+03  0.50400001928E-02 0. -1.
        1   -1    0    0  501    0  0.00000000000E+00  0.00000000000E+00 -0.27115912020E+04  0.27115912020E+04  0.50400001928E-02 0.  1.
    10030    2    1    2    0    0  0.00000000000E+00  0.00000000000E+00 -0.17776196696E+04  0.36455627345E+04  0.31827968772E+04 0.  0.
        1    1    3    3  502    0 -0.27158615311E+03  0.76498576276E+03  0.67899700328E+03  0.10583001400E+04  0.50400001928E-02 0. -1.
       -1    1    3    3    0  502  0.27158615311E+03 -0.76498576276E+03 -0.24566166728E+04  0.25872625945E+04  0.50400001928E-02 0.  1.
</event>
<event>
 5   0  0.1977015E-06  0.3234937E+04  0.7818609E-02  0.8179651E-01
        1   -1    0    0  501    0  0.00000000000E+00  0.00000000000E+00  0.17953302994E+04  0.17953302994E+04  0.50400001928E-02 0.  1.
       -1   -1    0    0    0  501  0.00000000000E+00  0.00000000000E+00 -0.14572271543E+04  0.14572271543E+04  0.50400001928E-02 0. -1.
    10030    2    1    2    0    0  0.00000000000E+00  0.00000000000E+00  0.33810314507E+03  0.32525574537E+04  0.32349368236E+04 0.  0.
        1    1    3    3  502    0 -0.87351097648E+03  0.10853856657E+04 -0.65708120045E+03  0.15404022765E+04  0.50400001928E-02 0. -1.
       -1    1    3    3    0  502  0.87351097648E+03 -0.10853856657E+04  0.99518434551E+03  0.17121551772E+04  0.50400001928E-02 0.  1.
</event>
<event>
 5   0  0.5373060E-06  0.3172911E+04  0.7818609E-02  0.8196008E-01
        2   -1    0    0  501    0  0.00000000000E+00  0.00000000000E+00  0.22549306643E+04  0.22549306643E+04  0.25500000920E-02 0. -1.
       -2   -1    0    0    0  501  0.00000000000E+00  0.00000000000E+00 -0.11161500068E+04  0.11161500068E+04  0.25500000920E-02 0.  1.
    10030    2    1    2    0    0  0.00000000000E+00  0.00000000000E+00  0.11387806575E+04  0.33710806711E+04  0.31729108883E+04 0.  0.
        5    1    3    3  502    0 -0.15090853706E+04  0.58652795773E+02  0.53206903557E+02  0.15111690411E+04  0.46999998093E+01 0.  1.
       -5    1    3    3    0  502  0.15090853706E+04 -0.58652795773E+02  0.10855737540E+04  0.18599116300E+04  0.46999998093E+01 0. -1.
</event>
<event>
 5   0  0.5108810E-06  0.2898304E+04  0.7818609E-02  0.8273382E-01
       -2   -1    0    0    0  501  0.00000000000E+00  0.00000000000E+00  0.12406450668E+04  0.12406450668E+04  0.25500000920E-02 0.  1.
        2   -1    0    0  501    0  0.00000000000E+00  0.00000000000E+00 -0.16927017553E+04  0.16927017553E+04  0.25500000920E-02 0. -1.
    10030    2    1    2    0    0  0.00000000000E+00  0.00000000000E+00 -0.45205668845E+03  0.29333468221E+04  0.28983043887E+04 0.  0.
        1    1    3    3  502    0  0.10454929788E+04 -0.69215177192E+03  0.50933227328E+03  0.13533473348E+04  0.50400001928E-02 0. -1.
       -1    1    3    3    0  502 -0.10454929788E+04  0.69215177192E+03 -0.96138896173E+03  0.15799994873E+04  0.50400001928E-02 0.  1.
</event>
<event>
 5   0  0.1846850E-06  0.2761553E+04  0.7818609E-02  0.8315305E-01
        1   -1    0    0  501    0  0.00000000000E+00  0.00000000000E+00  0.98743666406E+03  0.98743666408E+03  0.50400001928E-02 0. -1.
       -1   -1    0    0    0  501  0.00000000000E+00  0.00000000000E+00 -0.19308004608E+04  0.19308004608E+04  0.50400001928E-02 0.  1.
    10030    2    1    2    0    0  0.00000000000E+00  0.00000000000E+00 -0.94336379676E+03  0.29182371249E+04  0.27615525822E+04 0.  0.
        5    1    3    3  502    0  0.16824311451E+03  0.67367745607E+03 -0.17328683085E+04  0.18668159322E+04  0.46999998093E+01 0.  1.
       -5    1    3    3    0  502 -0.16824311451E+03 -0.67367745607E+03  0.78950451170E+03  0.10514211927E+04  0.46999998093E+01 0. -1.
</event>
<event>
 5   0  0.1846850E-06  0.3197717E+04  0.7818609E-02  0.8189420E-01
        1   -1    0    0  501    0  0.00000000000E+00  0.00000000000E+00  0.21468988328E+04  0.21468988328E+04  0.50400001928E-02 0.  1.
       -1   -1    0    0    0  501  0.00000000000E+00  0.00000000000E+00 -0.11907168597E+04  0.11907168597E+04  0.50400001928E-02 0. -1.
    10030    2    1    2    0    0  0.00000000000E+00  0.00000000000E+00  0.95618197316E+03  0.33376156925E+04  0.31977170834E+04 0.  0.
        5    1    3    3  502    0  0.15235767491E+04 -0.48475767459E+03  0.48550328210E+03  0.16709313692E+04  0.46999998093E+01 0.  1.
       -5    1    3    3    0  502 -0.15235767491E+04  0.48475767459E+03  0.47067869106E+03  0.16666843234E+04  0.46999998093E+01 0. -1.
</event>
<event>
 5   0  0.5108810E-06  0.3205634E+04  0.7818609E-02  0.8187331E-01
        2   -1    0    0  501    0  0.00000000000E+00  0.00000000000E+00  0.15233092000E+04  0.15233092000E+04  0.25500000920E-02 0.  1.
       -2   -1    0    0    0  501  0.00000000000E+00  0.00000000000E+00 -0.16864749227E+04  0.16864749227E+04  0.25500000920E-02 0. -1.
    10030    2    1    2    0    0  0.00000000000E+00  0.00000000000E+00 -0.16316572271E+03  0.32097841226E+04  0.32056342681E+04 0.  0.
        1    1    3    3  502    0  0.21992885152E+03  0.14780361029E+04 -0.66204303127E+03  0.16343990934E+04  0.50400001928E-02 0. -1.
       -1    1    3    3    0  502 -0.21992885152E+03 -0.14780361029E+04  0.49887730856E+03  0.15753850292E+04  0.50400001928E-02 0.  1.
</event>
<event>
 5   0  0.1881144E-06  0.3266670E+04  0.7818609E-02  0.8171428E-01
        1   -1    0    0  501    0  0.00000000000E+00  0.00000000000E+00  0.13149791763E+04  0.13149791763E+04  0.50400001928E-02 0. -1.
       -1   -1    0    0    0  501  0.00000000000E+00  0.00000000000E+00 -0.20287643705E+04  0.20287643705E+04  0.50400001928E-02 0.  1.
    10030    2    1    2    0    0  0.00000000000E+00  0.00000000000E+00 -0.71378519419E+03  0.33437435469E+04  0.32666698033E+04 0.  0.
        3    1    3    3  502    0 -0.30771915959E+03 -0.38550766018E+03  0.12369177314E+04  0.13316428657E+04  0.10100000352E+00 0. -1.
       -3    1    3    3    0  502  0.30771915959E+03  0.38550766018E+03 -0.19507029256E+04  0.20121006812E+04  0.10100000352E+00 0.  1.
</event>
<event>
 5   0  0.1969465E-06  0.3256026E+04  0.7818609E-02  0.8174176E-01
       -1   -1    0    0    0  501  0.00000000000E+00  0.00000000000E+00  0.16950079702E+04  0.16950079702E+04  0.50400001928E-02 0.  1.
        1   -1    0    0  501    0  0.00000000000E+00  0.00000000000E+00 -0.15636658540E+04  0.15636658540E+04  0.50400001928E-02 0. -1.
    10030    2    1    2    0    0  0.00000000000E+00  0.00000000000E+00  0.13134211622E+03  0.32586738242E+04  0.32560258508E+04 0.  0.
        2    1    3    3  502    0  0.11262980936E+04  0.89243483621E+03  0.83143300528E+03  0.16602012453E+04  0.25500000920E-02 0.  1.
       -2    1    3    3    0  502 -0.11262980936E+04 -0.89243483621E+03 -0.70009088907E+03  0.15984725789E+04  0.25500000920E-02 0. -1.
</event>
<event>
 5   0  0.1886248E-06  0.3105571E+04  0.7818609E-02  0.8214211E-01
        1   -1    0    0  501    0  0.00000000000E+00  0.00000000000E+00  0.11996829192E+04  0.11996829192E+04  0.50400001928E-02 0.  1.
       -1   -1    0    0    0  501  0.00000000000E+00  0.00000000000E+00 -0.20098165602E+04  0.20098165602E+04  0.50400001928E-02 0. -1.
    10030    2    1    2    0    0  0.00000000000E+00  0.00000000000E+00 -0.81013364097E+03  0.32094994794E+04  0.31055708641E+04 0.  0.
        4    1    3    3  502    0 -0.43442266508E+03 -0.13353769982E+04  0.27982221188E+03  0.14318718037E+04  0.12699999809E+01 0.  1.
       -4    1    3    3    0  502  0.43442266508E+03  0.13353769982E+04 -0.10899558529E+04  0.17776276757E+04  0.12699999809E+01 0. -1.
</event>
<event>
 5   0  0.1886248E-06  0.3249880E+04  0.7818609E-02  0.8175767E-01
       -1   -1    0    0    0  501  0.00000000000E+00  0.00000000000E+00  0.15214497089E+04  0.15214497089E+04  0.50400001928E-02 0. -1.
        1   -1    0    0  501    0  0.00000000000E+00  0.00000000000E+00 -0.17354693400E+04  0.17354693400E+04  0.50400001928E-02 0.  1.
    10030    2    1    2    0    0  0.00000000000E+00  0.00000000000E+00 -0.21401963102E+03  0.32569190489E+04  0.32498795806E+04 0.  0.
        4    1    3    3  502    0  0.73763506057E+03 -0.84264961577E+03  0.10729375758E+04  0.15509224713E+04  0.12699999809E+01 0. -1.
       -4    1    3    3    0  502 -0.73763506057E+03  0.84264961577E+03 -0.12869572069E+04  0.17059965776E+04  0.12699999809E+01 0.  1.
</event>
<event>
 5   0  0.1977015E-06  0.2894048E+04  0.7818609E-02  0.8274651E-01
       -1   -1    0    0    0  501  0.00000000000E+00  0.00000000000E+00  0.18544854193E+04  0.18544854193E+04  0.50400001928E-02 0.  1.
        1   -1    0    0  501    0  0.00000000000E+00  0.00000000000E+00 -0.11290886742E+04  0.11290886742E+04  0.50400001928E-02 0. -1.
    10030    2    1    2    0    0  0.00000000000E+00  0.00000000000E+00  0.72539674504E+03  0.29835740935E+04  0.28940480186E+04 0.  0.
        1    1    3    3  502    0 -0.16678565349E+03  0.73116918267E+03  0.16384992085E+04  0.18019726647E+04  0.50400001928E-02 0.  1.
       -1    1    3    3    0  502  0.16678565349E+03 -0.73116918267E+03 -0.91310246345E+03  0.11816014289E+04  0.50400001928E-02 0. -1.
</event>
<event>
 5   0  0.1881144E-06  0.1982024E+04  0.7818609E-02  0.8615072E-01
        1   -1    0    0  501    0  0.00000000000E+00  0.00000000000E+00  0.14556758710E+04  0.14556758710E+04  0.50400001928E-02 0. -1.
       -1   -1    0    0    0  501  0.00000000000E+00  0.00000000000E+00 -0.67467244984E+03  0.67467244986E+03  0.50400001928E-02 0.  1.
    10030    2    1    2    0    0  0.00000000000E+00  0.00000000000E+00  0.78100342119E+03  0.21303483209E+04  0.19820236185E+04 0.  0.
        3    1    3    3  502    0 -0.41874300819E+03 -0.86379081072E+03  0.12585619937E+03  0.96815291391E+03  0.10100000352E+00 0.  1.
       -3    1    3    3    0  502  0.41874300819E+03  0.86379081072E+03  0.65514722181E+03  0.11621954070E+04  0.10100000352E+00 0. -1.
</event>
<event>
 5   0  0.1886248E-06  0.2002309E+04  0.7818609E-02  0.8605542E-01
        1   -1    0    0  501    0  0.00000000000E+00  0.00000000000E+00  0.11956994495E+04  0.11956994495E+04  0.50400001928E-02 0. -1.
       -1   -1    0    0    0  501  0.00000000000E+00  0.00000000000E+00 -0.83826248148E+03  0.83826248150E+03  0.50400001928E-02 0.  1.
    10030    2    1    2    0    0  0.00000000000E+00  0.00000000000E+00  0.35743696797E+03  0.20339619310E+04  0.20023086552E+04 0.  0.
        4    1    3    3  502    0  0.87791574179E+03  0.25967384517E+03  0.59026735693E+03  0.10893042372E+04  0.12699999809E+01 0. -1.
       -4    1    3    3    0  502 -0.87791574179E+03 -0.25967384517E+03 -0.23283038896E+03  0.94465769380E+03  0.12699999809E+01 0.  1.
</event>
<event>
 5   0  0.5131083E-06  0.3229165E+04  0.7818609E-02  0.8181157E-01
       -2   -1    0    0    0  501  0.00000000000E+00  0.00000000000E+00  0.21084606535E+04  0.21084606535E+04  0.25500000920E-02 0.  1.
        2   -1    0    0  501    0  0.00000000000E+00  0.00000000000E+00 -0.12363884836E+04  0.12363884836E+04  0.25500000920E-02 0. -1.
    10030    2    1    2    0    0  0.00000000000E+00  0.00000000000E+00  0.87207216992E+03  0.33448491371E+04  0.32291648890E+04 0.  0.
        3    1    3    3  502    0 -0.13854163848E+04 -0.65749768553E+03 -0.87229452728E+02  0.15359982921E+04  0.10100000352E+00 0. -1.
       -3    1    3    3    0  502  0.13854163848E+04  0.65749768553E+03  0.95930162265E+03  0.18088508449E+04  0.10100000352E+00 0.  1.
</event>
<event>
 5   0  0.1969465E-06  0.3268385E+04  0.7818609E-02  0.8170987E-01
        1   -1    0    0  501    0  0.00000000000E+00  0.00000000000E+00  0.23594934117E+04  0.23594934117E+04  0.50400001928E-02 0.  1.
       -1   -1    0    0    0  501  0.00000000000E+00  0.00000000000E+00 -0.11318470938E+04  0.11318470938E+04  0.50400001928E-02 0. -1.
    10030    2    1    2    0    0  0.00000000000E+00  0.00000000000E+00  0.12276463179E+04  0.34913405055E+04  0.32683853879E+04 0.  0.
        2    1    3    3  502    0 -0.92350035722E+03 -0.47149638336E+03  0.19630873944E+04  0.22201067244E+04  0.25500000920E-02 0.  1.
       -2    1    3    3    0  502  0.92350035722E+03  0.47149638336E+03 -0.73544107654E+03  0.12712337812E+04  0.25500000920E-02 0. -1.
</event>
<event>
 5   0  0.1881144E-06  0.3028719E+04  0.7818609E-02  0.8235577E-01
        1   -1    0    0  501    0  0.00000000000E+00  0.00000000000E+00  0.16356582924E+04  0.16356582925E+04  0.50400001928E-02 0.  1.
       -1   -1    0    0    0  501  0.00000000000E+00  0.00000000000E+00 -0.14020558747E+04  0.14020558747E+04  0.50400001928E-02 0. -1.
    10030    2    1    2    0    0  0.00000000000E+00  0.00000000000E+00  0.23360241772E+03  0.30377141672E+04  0.30287187509E+04 0.  0.
        3    1    3    3  502    0 -0.34651721393E+03  0.11864163544E+04  0.99440077477E+03  0.15863451253E+04  0.10100000352E+00 0.  1.
       -3    1    3    3    0  502  0.34651721393E+03 -0.11864163544E+04 -0.76079835705E+03  0.14513690419E+04  0.10100000352E+00 0. -1.
</event>
<event>
 5   0  0.1969465E-06  0.3118175E+04  0.7818609E-02  0.8210768E-01
        1   -1    0    0  501    0  0.00000000000E+00  0.00000000000E+00  0.13944161918E+04  0.13944161918E+04  0.50400001928E-02 0. -1.
       -1   -1    0    0    0  501  0.00000000000E+00  0.00000000000E+00 -0.17432052740E+04  0.17432052740E+04  0.50400001928E-02 0.  1.
    10030    2    1    2    0    0  0.00000000000E+00  0.00000000000E+00 -0.34878908225E+03  0.31376214658E+04  0.31181748891E+04 0.  0.
        2    1    3    3  502    0  0.26501710479E+03  0.90680864121E+03  0.10735893438E+04  0.14300804372E+04  0.25500000920E-02 0. -1.
       -2    1    3    3    0  502 -0.26501710479E+03 -0.90680864121E+03 -0.14223784261E+04  0.17075410287E+04  0.25500000920E-02 0.  1.
</event>
<event>
 5   0  0.5108810E-06  0.3093606E+04  0.7818609E-02  0.8217495E-01
       -2   -1    0    0    0  501  0.00000000000E+00  0.00000000000E+00  0.24392914096E+04  0.24392914096E+04  0.25500000920E-02 0.  1.
        2   -1    0    0  501    0  0.00000000000E+00  0.00000000000E+00 -0.98085872586E+03  0.98085872586E+03  0.25500000920E-02 0. -1.
    10030    2    1    2    0    0  0.00000000000E+00  0.00000000000E+00  0.14584326837E+04  0.34201501354E+04  0.30936064805E+04 0.  0.
        1    1    3    3  502    0 -0.80586843209E+03 -0.40157790595E+02  0.21881978325E+04  0.23322191862E+04  0.50400001928E-02 0.  1.
       -1    1    3    3    0  502  0.80586843209E+03  0.40157790595E+02 -0.72976514880E+03  0.10879309493E+04  0.50400001928E-02 0. -1.
</event>
<event>
 5   0  0.1977015E-06  0.3320816E+04  0.7818609E-02  0.8157619E-01
        1   -1    0    0  501    0  0.00000000000E+00  0.00000000000E+00  0.24016548957E+04  0.24016548957E+04  0.50400001928E-02 0. -1.
       -1   -1    0    0    0  501  0.00000000000E+00  0.00000000000E+00 -0.11479398477E+04  0.11479398477E+04  0.50400001928E-02 0.  1.
    10030    2    1    2    0    0  0.00000000000E+00  0.00000000000E+00  0.12537150480E+04  0.35495947434E+04  0.33208163786E+04 0.  0.
        1    1    3    3  502    0 -0.52527105367E+03  0.36383305531E+03  0.22649749105E+04  0.23533795948E+04  0.50400001928E-02 0. -1.
       -1    1    3    3    0  502  0.52527105367E+03 -0.36383305531E+03 -0.10112598625E+04  0.11962151485E+04  0.50400001928E-02 0.  1.
</event>
<event>
 5   0  0.5347280E-06  0.2868504E+04  0.7818609E-02  0.8282310E-01
       -2   -1    0    0    0  501  0.00000000000E+00  0.00000000000E+00  0.15612916620E+04  0.15612916620E+04  0.25500000920E-02 0.  1.
        2   -1    0    0  501    0  0.00000000000E+00  0.00000000000E+00 -0.13175496025E+04  0.13175496025E+04  0.25500000920E-02 0. -1.
    10030    2    1    2    0    0  0.00000000000E+00  0.00000000000E+00  0.24374205951E+03  0.28788412645E+04  0.28685042852E+04 0.  0.
        2    1    3    3  502    0 -0.10967759814E+04 -0.62700486025E+03 -0.55956515215E+03  0.13817256629E+04  0.25500000920E-02 0. -1.
       -2    1    3    3    0  502  0.10967759814E+04  0.62700486025E+03  0.80330721166E+03  0.14971156015E+04  0.25500000920E-02 0.  1.
</event>
<event>
 5   0  0.1729500E-06  0.3277460E+04  0.7818609E-02  0.8168654E-01
       -3   -1    0    0    0  501  0.00000000000E+00  0.00000000000E+00  0.21477316002E+04  0.21477316026E+04  0.10100000352E+00 0. -1.
        3   -1    0    0  501    0  0.00000000000E+00  0.00000000000E+00 -0.12503595810E+04  0.12503595850E+04  0.10100000352E+00 0.  1.
    10030    2    1    2    0    0  0.00000000000E+00  0.00000000000E+00  0.89737201927E+03  0.33980911876E+04  0.32774604770E+04 0.  0.
        4    1    3    3  502    0  0.40481590735E+03 -0.14450750403E+04  0.11311828189E+04  0.18792801744E+04  0.12699999809E+01 0. -1.
       -4    1    3    3    0  502 -0.40481590735E+03  0.14450750403E+04 -0.23381079967E+03  0.15188110133E+04  0.12699999809E+01 0.  1.
</event>
<event>
 5   0  0.1977015E-06  0.3197144E+04  0.7818609E-02  0.8189572E-01
        1   -1    0    0  501    0  0.00000000000E+00  0.00000000000E+00  0.22105180494E+04  0.22105180494E+04  0.50400001928E-02 0.  1.
       -1   -1    0    0    0  501  0.00000000000E+00  0.00000000000E+00 -0.11560331483E+04  0.11560331483E+04  0.50400001928E-02 0. -1.
    10030    2    1    2    0    0  0.00000000000E+00  0.00000000000E+00  0.10544849011E+04  0.33665511977E+04  0.31971438128E+04 0.  0.
        1    1    3    3  502    0 -0.45498063847E+03  0.55636769383E+03 -0.97631095109E+03  0.12123264681E+04  0.50400001928E-02 0. -1.
       -1    1    3    3    0  502  0.45498063847E+03 -0.55636769383E+03  0.20307958522E+04  0.21542247295E+04  0.50400001928E-02 0.  1.
</event>
<event>
 5   0  0.1881144E-06  0.3177871E+04  0.7818609E-02  0.8194686E-01
       -1   -1    0    0    0  501  0.00000000000E+00  0.00000000000E+00  0.80486684961E+03  0.80486684963E+03  0.50400001928E-02 0.  1.
        1   -1    0    0  501    0  0.00000000000E+00  0.00000000000E+00 -0.31368128977E+04  0.31368128977E+04  0.50400001928E-02 0. -1.
    10030    2    1    2    0    0  0.00000000000E+00  0.00000000000E+00 -0.23319460480E+04  0.39416797473E+04  0.31778714353E+04 0.  0.
        3    1    3    3  502    0  0.14846162841E+04  0.55336511130E+03 -0.13149095596E+04  0.20589525534E+04  0.10100000352E+00 0.  1.
       -3    1    3    3    0  502 -0.14846162841E+04 -0.55336511130E+03 -0.10170364885E+04  0.18827271938E+04  0.10100000352E+00 0. -1.
</event>
<event>
 5   0  0.5131083E-06  0.2729117E+04  0.7818609E-02  0.8325619E-01
       -2   -1    0    0    0  501  0.00000000000E+00  0.00000000000E+00  0.11463325247E+04  0.11463325247E+04  0.25500000920E-02 0. -1.
        2   -1    0    0  501    0  0.00000000000E+00  0.00000000000E+00 -0.16243284139E+04  0.16243284139E+04  0.25500000920E-02 0.  1.
    10030    2    1    2    0    0  0.00000000000E+00  0.00000000000E+00 -0.47799588918E+03  0.27706609386E+04  0.27291174336E+04 0.  0.
        3    1    3    3  502    0  0.65872852534E+03 -0.82351337087E+03 -0.11181610967E+04  0.15370041609E+04  0.10100000352E+00 0.  1.
       -3    1    3    3    0  502 -0.65872852534E+03  0.82351337087E+03  0.64016520754E+03  0.12336567777E+04  0.10100000352E+00 0. -1.
</event>
<event>
 5   0  0.5121624E-06  0.3137563E+04  0.7818609E-02  0.8205504E-01
       -2   -1    0    0    0  501  0.00000000000E+00  0.00000000000E+00  0.15023175442E+04  0.15023175442E+04  0.25500000920E-02 0. -1.
        2   -1    0    0  501    0  0.00000000000E+00  0.00000000000E+00 -0.16381861327E+04  0.16381861327E+04  0.25500000920E-02 0.  1.
    10030    2    1    2    0    0  0.00000000000E+00  0.00000000000E+00 -0.13586858851E+03  0.31405036769E+04  0.31375632379E+04 0.  0.
        4    1    3    3  502    0 -0.14363002132E+04  0.43214066980E+03 -0.52811541141E+03  0.15901607974E+04  0.12699999809E+01 0.  1.
       -4    1    3    3    0  502  0.14363002132E+04 -0.43214066980E+03  0.39224682290E+03  0.15503428795E+04  0.12699999809E+01 0. -1.
</event>
<event>
 5   0  0.1977015E-06  0.3264420E+04  0.7818609E-02  0.8172008E-01
        1   -1    0    0  501    0  0.00000000000E+00  0.00000000000E+00  0.12713390448E+04  0.12713390449E+04  0.50400001928E-02 0.  1.
       -1   -1    0    0    0  501  0.00000000000E+00  0.00000000000E+00 -0.20955143550E+04  0.20955143550E+04  0.50400001928E-02 0. -1.
    10030    2    1    2    0    0  0.00000000000E+00  0.00000000000E+00 -0.82417531018E+03  0.33668533999E+04  0.32644198373E+04 0.  0.
        1    1    3    3  502    0  0.35888319619E+03  0.11318050342E+03 -0.20501633970E+04  0.20844128500E+04  0.50400001928E-02 0. -1.
       -1    1    3    3    0  502 -0.35888319619E+03 -0.11318050342E+03  0.12259880868E+04  0.12824405499E+04  0.50400001928E-02 0.  1.
</event>
<event>
 5   0  0.1846850E-06  0.3103033E+04  0.7818609E-02  0.8214906E-01
        1   -1    0    0  501    0  0.00000000000E+00  0.00000000000E+00  0.14216193426E+04  0.14216193426E+04  0.50400001928E-02 0.  1.
       -1   -1    0    0    0  501  0.00000000000E+00  0.00000000000E+00 -0.16932822351E+04  0.16932822351E+04  0.50400001928E-02 0. -1.
    10030    2    1    2    0    0  0.00000000000E+00  0.00000000000E+00 -0.27166289258E+03  0.31149015777E+04  0.31030325670E+04 0.  0.
        5    1    3    3  502    0 -0.58019558111E+03  0.12834236537E+04 -0.78899490854E+03  0.16144157590E+04  0.46999998093E+01 0. -1.
       -5    1    3    3    0  502  0.58019558111E+03 -0.12834236537E+04  0.51733201597E+03  0.15004858187E+04  0.46999998093E+01 0.  1.
</event>
<event>
 5   0  0.5131083E-06  0.3189826E+04  0.7818609E-02  0.8191509E-01
        2   -1    0    0  501    0  0.00000000000E+00  0.00000000000E+00  0.18685314258E+04  0.18685314258E+04  0.25500000920E-02 0.  1.
       -2   -1    0    0    0  501  0.00000000000E+00  0.00000000000E+00 -0.13613622643E+04  0.13613622643E+04  0.25500000920E-02 0. -1.
    10030    2    1    2    0    0  0.00000000000E+00  0.00000000000E+00  0.50716916156E+03  0.32298936901E+04  0.31898264359E+04 0.  0.
        3    1    3    3  502    0  0.59916698246E+01 -0.94000756210E+03  0.15582166335E+04  0.18198047159E+04  0.10100000352E+00 0.  1.
       -3    1    3    3    0  502 -0.59916698246E+01  0.94000756210E+03 -0.10510474719E+04  0.14100889742E+04  0.10100000352E+00 0. -1.
</event>
<event>
 5   0  0.1886248E-06  0.2724306E+04  0.7818609E-02  0.8327161E-01
        1   -1    0    0  501    0  0.00000000000E+00  0.00000000000E+00  0.23470957510E+04  0.23470957510E+04  0.50400001928E-02 0. -1.
       -1   -1    0    0    0  501  0.00000000000E+00  0.00000000000E+00 -0.79053486085E+03  0.79053486087E+03  0.50400001928E-02 0.  1.
    10030    2    1    2    0    0  0.00000000000E+00  0.00000000000E+00  0.15565608901E+04  0.31376306118E+04  0.27243061597E+04 0.  0.
        4    1    3    3  502    0  0.16727971110E+03  0.92134153757E+03 -0.36105074520E+03  0.10035995138E+04  0.12699999809E+01 0.  1.
       -4    1    3    3    0  502 -0.16727971110E+03 -0.92134153757E+03  0.19176116353E+04  0.21340310980E+04  0.12699999809E+01 0. -1.
</event>
<event>
 5   0  0.5131083E-06  0.2583389E+04  0.7818609E-02  0.8373865E-01
        2   -1    0    0  501    0  0.00000000000E+00  0.00000000000E+00  0.23967830885E+04  0.23967830885E+04  0.25500000920E-02 0. -1.
       -2   -1    0    0    0  501  0.00000000000E+00  0.00000000000E+00 -0.69613093998E+03  0.69613093999E+03  0.25500000920E-02 0.  1.
    10030    2    1    2    0    0  0.00000000000E+00  0.00000000000E+00  0.17006521485E+04  0.30929140285E+04  0.25833891417E+04 0.  0.
        3    1    3    3  502    0 -0.17434953215E+03  0.84828277698E+03 -0.29707709323E+03  0.91555242264E+03  0.10100000352E+00 0.  1.
       -3    1    3    3    0  502  0.17434953215E+03 -0.84828277698E+03  0.19977292417E+04  0.21773616058E+04  0.10100000352E+00 0. -1.
</event>
<event>
 5   0  0.1729500E-06  0.3154918E+04  0.7818609E-02  0.8200826E-01
        3   -1    0    0  501    0  0.00000000000E+00  0.00000000000E+00  0.24464345217E+04  0.24464345238E+04  0.10100000352E+00 0.  1.
       -3   -1    0    0    0  501  0.00000000000E+00  0.00000000000E+00 -0.10171440557E+04  0.10171440607E+04  0.10100000352E+00 0. -1.
    10030    2    1    2    0    0  0.00000000000E+00  0.00000000000E+00  0.14292904660E+04  0.34635785845E+04  0.31549176495E+04 0.  0.
        2    1    3    3  502    0  0.14446123396E+04  0.53080262397E+03  0.33478785580E+03  0.15750362363E+04  0.25500000920E-02 0. -1.
       -2    1    3    3    0  502 -0.14446123396E+04 -0.53080262397E+03  0.10945026102E+04  0.18885423482E+04  0.25500000920E-02 0.  1.
</event>
<event>
 5   0  0.1969465E-06  0.3170214E+04  0.7818609E-02  0.8196728E-01
        1   -1    0    0  501    0  0.00000000000E+00  0.00000000000E+00  0.21586701727E+04  0.21586701727E+04  0.50400001928E-02 0. -1.
       -1   -1    0    0    0  501  0.00000000000E+00  0.00000000000E+00 -0.11639403975E+04  0.11639403975E+04  0.50400001928E-02 0.  1.
    10030    2    1    2    0    0  0.00000000000E+00  0.00000000000E+00  0.99472977516E+03  0.33226105702E+04  0.31702135063E+04 0.  0.
        2    1    3    3  502    0 -0.88644796913E+03 -0.93837414960E+03  0.14614923753E+04  0.19499476941E+04  0.25500000920E-02 0. -1.
       -2    1    3    3    0  502  0.88644796913E+03  0.93837414960E+03 -0.46676260012E+03  0.13726628761E+04  0.25500000920E-02 0.  1.
</event>
<event>
 5   0  0.5373060E-06  0.3025712E+04  0.7818609E-02  0.8236427E-01
       -2   -1    0    0    0  501  0.00000000000E+00  0.00000000000E+00  0.11398178573E+04  0.11398178573E+04  0.25500000920E-02 0.  1.
        2   -1    0    0  501    0  0.00000000000E+00  0.00000000000E+00 -0.20079818501E+04  0.20079818501E+04  0.25500000920E-02 0. -1.
    10030    2    1    2    0    0  0.00000000000E+00  0.00000000000E+00 -0.86816399276E+03  0.31477997074E+04  0.30257121938E+04 0.  0.
        5    1    3    3  502    0  0.67024872317E+03 -0.82114934037E+02 -0.18424927865E+04  0.19623399225E+04  0.46999998093E+01 0. -1.
       -5    1    3    3    0  502 -0.67024872317E+03  0.82114934037E+02  0.97432879374E+03  0.11854597849E+04  0.46999998093E+01 0.  1.
</event>
<event>
 5   0  0.1977015E-06  0.2974371E+04  0.7818609E-02  0.8251087E-01
       -1   -1    0    0    0  501  0.00000000000E+00  0.00000000000E+00  0.18734820966E+04  0.18734820966E+04  0.50400001928E-02 0. -1.
        1   -1    0    0  501    0  0.00000000000E+00  0.00000000000E+00 -0.11805400507E+04  0.11805400507E+04  0.50400001928E-02 0.  1.
    10030    2    1    2    0    0  0.00000000000E+00  0.00000000000E+00  0.69294204593E+03  0.30540221473E+04  0.29743709582E+04 0.  0.
        1    1    3    3  502    0  0.66954794694E+03 -0.10424255213E+04 -0.49822272013E+03  0.13353543723E+04  0.50400001928E-02 0.  1.
       -1    1    3    3    0  502 -0.66954794694E+03  0.10424255213E+04  0.11911647661E+04  0.17186677750E+04  0.50400001928E-02 0. -1.
</event>
<event>
 5   0  0.1977015E-06  0.3239526E+04  0.7818609E-02  0.8178456E-01
       -1   -1    0    0    0  501  0.00000000000E+00  0.00000000000E+00  0.10799707476E+04  0.10799707477E+04  0.50400001928E-02 0. -1.
        1   -1    0    0  501    0  0.00000000000E+00  0.00000000000E+00 -0.24293543994E+04  0.24293543994E+04  0.50400001928E-02 0.  1.
    10030    2    1    2    0    0  0.00000000000E+00  0.00000000000E+00 -0.13493836518E+04  0.35093251471E+04  0.32395256980E+04 0.  0.
        1    1    3    3  502    0  0.25371958241E+03 -0.18189311729E+03  0.10470725573E+04  0.10926205531E+04  0.50400001928E-02 0. -1.
       -1    1    3    3    0  502 -0.25371958241E+03  0.18189311729E+03 -0.23964562091E+04  0.24167045940E+04  0.50400001928E-02 0.  1.
</event>
<event>
 5   0  0.5131083E-06  0.2054122E+04  0.7818609E-02  0.8581727E-01
        2   -1    0    0  501    0  0.00000000000E+00  0.00000000000E+00  0.11164793868E+04  0.11164793868E+04  0.25500000920E-02 0. -1.
       -2   -1    0    0    0  501  0.00000000000E+00  0.00000000000E+00 -0.94480431540E+03  0.94480431540E+03  0.25500000920E-02 0.  1.
    10030    2    1    2    0    0  0.00000000000E+00  0.00000000000E+00  0.17167507139E+03  0.20612837022E+04  0.20541222385E+04 0.  0.
        3    1    3    3  502    0  0.45531946326E+03 -0.82897493037E+03  0.48765744806E+03  0.10641076288E+04  0.10100000352E+00 0. -1.
       -3    1    3    3    0  502 -0.45531946326E+03  0.82897493037E+03 -0.31598237666E+03  0.99717607340E+03  0.10100000352E+00 0.  1.
</event>
<event>
 5   0  0.1886248E-06  0.3280645E+04  0.7818609E-02  0.8167838E-01
       -1   -1    0    0    0  501  0.00000000000E+00  0.00000000000E+00  0.16624443159E+04  0.16624443159E+04  0.50400001928E-02 0.  1.
        1   -1    0    0  501    0  0.00000000000E+00  0.00000000000E+00 -0.16184955119E+04  0.16184955119E+04  0.50400001928E-02 0. -1.
    10030    2    1    2    0    0  0.00000000000E+00  0.00000000000E+00  0.43948803928E+02  0.32809398278E+04  0.32806454634E+04 0.  0.
        4    1    3    3  502    0  0.89888575276E+03 -0.92224498823E+03 -0.99405259816E+03  0.16268600418E+04  0.12699999809E+01 0. -1.
       -4    1    3    3    0  502 -0.89888575276E+03  0.92224498823E+03  0.10380014021E+04  0.16540797860E+04  0.12699999809E+01 0.  1.
</event>
<event>
 5   0  0.1977015E-06  0.3322505E+04  0.7818609E-02  0.8157192E-01
        1   -1    0    0  501    0  0.00000000000E+00  0.00000000000E+00  0.12286312697E+04  0.12286312697E+04  0.50400001928E-02 0. -1.
       -1   -1    0    0    0  501  0.00000000000E+00  0.00000000000E+00 -0.22462072017E+04  0.22462072017E+04  0.50400001928E-02 0.  1.
    10030    2    1    2    0    0  0.00000000000E+00  0.00000000000E+00 -0.10175759320E+04  0.34748384714E+04  0.33225053235E+04 0.  0.
        1    1    3    3  502    0 -0.15177692569E+04  0.12445855169E+03 -0.12030354647E+04  0.19407235191E+04  0.50400001928E-02 0.  1.
       -1    1    3    3    0  502  0.15177692569E+04 -0.12445855169E+03  0.18545953272E+03  0.15341149522E+04  0.50400001928E-02 0. -1.
</event>
<event>
 5   0  0.5373060E-06  0.3301703E+04  0.7818609E-02  0.8162462E-01
        2   -1    0    0  501    0  0.00000000000E+00  0.00000000000E+00  0.26547453954E+04  0.26547453954E+04  0.25500000920E-02 0. -1.
       -2   -1    0    0    0  501  0.00000000000E+00  0.00000000000E+00 -0.10265807939E+04  0.10265807939E+04  0.25500000920E-02 0.  1.
    10030    2    1    2    0    0  0.00000000000E+00  0.00000000000E+00  0.16281646015E+04  0.36813261894E+04  0.33017029762E+04 0.  0.
        5    1    3    3  502    0  0.58604969338E+02 -0.50156708304E+03 -0.93834408184E+03  0.10656058310E+04  0.46999998093E+01 0.  1.
       -5    1    3    3    0  502 -0.58604969338E+02  0.50156708304E+03  0.25665086834E+04  0.26157203583E+04  0.46999998093E+01 0. -1.
</event>
<event>
 5   0  0.1846850E-06  0.3030141E+04  0.7818609E-02  0.8235176E-01
        1   -1    0    0  501    0  0.00000000000E+00  0.00000000000E+00  0.99017886051E+03  0.99017886052E+03  0.50400001928E-02 0.  1.
       -1   -1    0    0    0  501  0.00000000000E+00  0.00000000000E+00 -0.23182053139E+04  0.23182053139E+04  0.50400001928E-02 0. -1.
    10030    2    1    2    0    0  0.00000000000E+00  0.00000000000E+00 -0.13280264534E+04  0.33083841744E+04  0.30301405222E+04 0.  0.
        5    1    3    3  502    0  0.11165375510E+04  0.10232111417E+04 -0.71031824231E+03  0.16727794950E+04  0.46999998093E+01 0.  1.
       -5    1    3    3    0  502 -0.11165375510E+04 -0.10232111417E+04 -0.61770821105E+03  0.16356046794E+04  0.46999998093E+01 0. -1.
</event>
<event>
 5   0  0.5131083E-06  0.3428978E+04  0.7818609E-02  0.8130831E-01
        2   -1    0    0  501    0  0.00000000000E+00  0.00000000000E+00  0.25999578999E+04  0.25999578999E+04  0.25500000920E-02 0.  1.
       -2   -1    0    0    0  501  0.00000000000E+00  0.00000000000E+00 -0.11305847605E+04  0.11305847606E+04  0.25500000920E-02 0. -1.
    10030    2    1    2    0    0  0.00000000000E+00  0.00000000000E+00  0.14693731394E+04  0.37305426605E+04  0.34289781450E+04 0.  0.
        3    1    3    3  502    0 -0.16793343126E+04  0.34352564730E+03  0.77390042759E+03  0.18807167479E+04  0.10100000352E+00 0. -1.
       -3    1    3    3    0  502  0.16793343126E+04 -0.34352564730E+03  0.69547271177E+03  0.18498259126E+04  0.10100000352E+00 0.  1.
</event>
<event>
 5   0  0.1969465E-06  0.3083766E+04  0.7818609E-02  0.8220207E-01
       -1   -1    0    0    0  501  0.00000000000E+00  0.00000000000E+00  0.12807432428E+04  0.12807432428E+04  0.50400001928E-02 0.  1.
        1   -1    0    0  501    0  0.00000000000E+00  0.00000000000E+00 -0.18562689292E+04  0.18562689292E+04  0.50400001928E-02 0. -1.
    10030    2    1    2    0    0  0.00000000000E+00  0.00000000000E+00 -0.57552568634E+03  0.31370121720E+04  0.30837664554E+04 0.  0.
        2    1    3    3  502    0  0.11059187962E+04  0.54331251187E+02  0.80379564273E+03  0.13682454838E+04  0.25500000920E-02 0.  1.
       -2    1    3    3    0  502 -0.11059187962E+04 -0.54331251187E+02 -0.13793213291E+04  0.17687666882E+04  0.25500000920E-02 0. -1.
</event>
<event>
 5   0  0.1886248E-06  0.3153671E+04  0.7818609E-02  0.8201161E-01
       -1   -1    0    0    0  501  0.00000000000E+00  0.00000000000E+00  0.13996549040E+04  0.13996549040E+04  0.50400001928E-02 0.  1.
        1   -1    0    0  501    0  0.00000000000E+00  0.00000000000E+00 -0.17764446239E+04  0.17764446239E+04  0.50400001928E-02 0. -1.
    10030    2    1    2    0    0  0.00000000000E+00  0.00000000000E+00 -0.37678971991E+03  0.31760995280E+04  0.31536705152E+04 0.  0.
        4    1    3    3  502    0  0.31403723654E+03  0.89688310928E+03 -0.14556720372E+04  0.17383904597E+04  0.12699999809E+01 0. -1.
       -4    1    3    3    0  502 -0.31403723654E+03 -0.89688310928E+03  0.10788823173E+04  0.14377090683E+04  0.12699999809E+01 0.  1.
</event>
<event>
 5   0  0.1977015E-06  0.3031747E+04  0.7818609E-02  0.8234723E-01
        1   -1    0    0  501    0  0.00000000000E+00  0.00000000000E+00  0.19962961487E+04  0.19962961487E+04  0.50400001928E-02 0. -1.
       -1   -1    0    0    0  501  0.00000000000E+00  0.00000000000E+00 -0.11510677140E+04  0.11510677141E+04  0.50400001928E-02 0.  1.
    10030    2    1    2    0    0  0.00000000000E+00  0.00000000000E+00  0.84522843466E+03  0.31473638628E+04  0.30317467206E+04 0.  0.
        1    1    3    3  502    0 -0.11414986968E+03  0.74665563276E+03  0.17870209695E+04  0.19400950421E+04  0.50400001928E-02 0. -1.
       -1    1    3    3    0  502  0.11414986968E+03 -0.74665563276E+03 -0.94179253487E+03  0.12072688207E+04  0.50400001928E-02 0.  1.
</event>
<event>
 5   0  0.1886248E-06  0.2891428E+04  0.7818609E-02  0.8275433E-01
       -1   -1    0    0    0  501  0.00000000000E+00  0.00000000000E+00  0.12678790842E+04  0.12678790842E+04  0.50400001928E-02 0. -1.
        1   -1    0    0  501    0  0.00000000000E+00  0.00000000000E+00 -0.16484918266E+04  0.16484918266E+04  0.50400001928E-02 0.  1.
    10030    2    1    2    0    0  0.00000000000E+00  0.00000000000E+00 -0.38061274239E+03  0.29163709107E+04  0.28914275418E+04 0.  0.
        4    1    3    3  502    0  0.10188296609E+04  0.64908965438E+03 -0.99135880755E+03  0.15627300328E+04  0.12699999809E+01 0.  1.
       -4    1    3    3    0  502 -0.10188296609E+04 -0.64908965438E+03  0.61074606516E+03  0.13536408779E+04  0.12699999809E+01 0. -1.
</event>
<event>
 5   0  0.5347280E-06  0.3225845E+04  0.7818609E-02  0.8182025E-01
       -2   -1    0    0    0  501  0.00000000000E+00  0.00000000000E+00  0.10937770188E+04  0.10937770188E+04  0.25500000920E-02 0.  1.
        2   -1    0    0  501    0  0.00000000000E+00  0.00000000000E+00 -0.23784724015E+04  0.23784724015E+04  0.25500000920E-02 0. -1.
    10030    2    1    2    0    0  0.00000000000E+00  0.00000000000E+00 -0.12846953827E+04  0.34722494203E+04  0.32258446662E+04 0.  0.
        2    1    3    3  502    0 -0.46275943396E+03  0.13115296256E+04  0.23690908615E+03  0.14108090472E+04  0.25500000920E-02 0.  1.
       -2    1    3    3    0  502  0.46275943396E+03 -0.13115296256E+04 -0.15216044689E+04  0.20614403732E+04  0.25500000920E-02 0. -1.
</event>
<event>
 5   0  0.5108810E-06  0.3198857E+04  0.7818609E-02  0.8189119E-01
        2   -1    0    0  501    0  0.00000000000E+00  0.00000000000E+00  0.96803089348E+03  0.96803089349E+03  0.25500000920E-02 0. -1.
       -2   -1    0    0    0  501  0.00000000000E+00  0.00000000000E+00 -0.26426545654E+04  0.26426545654E+04  0.25500000920E-02 0.  1.
    10030    2    1    2    0    0  0.00000000000E+00  0.00000000000E+00 -0.16746236719E+04  0.36106854589E+04  0.31988568334E+04 0.  0.
        1    1    3    3  502    0 -0.58640688305E+03 -0.14868010138E+04 -0.76845879641E+03  0.17734089232E+04  0.50400001928E-02 0.  1.
       -1    1    3    3    0  502  0.58640688305E+03  0.14868010138E+04 -0.90616487548E+03  0.18372765357E+04  0.50400001928E-02 0. -1.
</event>
<event>
 5   0  0.5131083E-06  0.3287648E+04  0.7818609E-02  0.8166045E-01
        2   -1    0    0  501    0  0.00000000000E+00  0.00000000000E+00  0.16783540148E+04  0.16783540148E+04  0.25500000920E-02 0. -1.
       -2   -1    0    0    0  501  0.00000000000E+00  0.00000000000E+00 -0.16100044424E+04  0.16100044424E+04  0.25500000920E-02 0.  1.
    10030    2    1    2    0    0  0.00000000000E+00  0.00000000000E+00  0.68349572418E+02  0.32883584572E+04  0.32876480467E+04 0.  0.
        3    1    3    3  502    0  0.84319677667E+03  0.30829231351E+03  0.14114735896E+04  0.16728068206E+04  0.10100000352E+00 0. -1.
       -3    1    3    3    0  502 -0.84319677667E+03 -0.30829231351E+03 -0.13431240172E+04  0.16155516366E+04  0.10100000352E+00 0.  1.
</event>
<event>
 5   0  0.5108810E-06  0.3169687E+04  0.7818609E-02  0.8196869E-01
        2   -1    0    0  501    0  0.00000000000E+00  0.00000000000E+00  0.75627630191E+03  0.75627630191E+03  0.25500000920E-02 0.  1.
       -2   -1    0    0    0  501  0.00000000000E+00  0.00000000000E+00 -0.33211798714E+04  0.33211798714E+04  0.25500000920E-02 0. -1.
    10030    2    1    2    0    0  0.00000000000E+00  0.00000000000E+00 -0.25649035695E+04  0.40774561733E+04  0.31696874490E+04 0.  0.
        1    1    3    3  502    0 -0.44560066357E+03 -0.75617498872E+03  0.41508140478E+03  0.97090325860E+03  0.50400001928E-02 0.  1.
       -1    1    3    3    0  502  0.44560066357E+03  0.75617498872E+03 -0.29799849743E+04  0.31065529147E+04  0.50400001928E-02 0. -1.
</event>
<event>
 5   0  0.5121624E-06  0.3314119E+04  0.7818609E-02  0.8159312E-01
        2   -1    0    0  501    0  0.00000000000E+00  0.00000000000E+00  0.20028974576E+04  0.20028974576E+04  0.25500000920E-02 0.  1.
       -2   -1    0    0    0  501  0.00000000000E+00  0.00000000000E+00 -0.13709369586E+04  0.13709369586E+04  0.25500000920E-02 0. -1.
    10030    2    1    2    0    0  0.00000000000E+00  0.00000000000E+00  0.63196049900E+03  0.33738344163E+04  0.33141189774E+04 0.  0.
        4    1    3    3  502    0  0.38172268584E+03  0.92141298771E+03 -0.10311665276E+04  0.14345801209E+04  0.12699999809E+01 0. -1.
       -4    1    3    3    0  502 -0.38172268584E+03 -0.92141298771E+03  0.16631270266E+04  0.19392542954E+04  0.12699999809E+01 0.  1.
</event>
<event>
 5   0  0.1881144E-06  0.3118978E+04  0.7818609E-02  0.8210549E-01
       -1   -1    0    0    0  501  0.00000000000E+00  0.00000000000E+00  0.96677513467E+03  0.96677513469E+03  0.50400001928E-02 0.  1.
        1   -1    0    0  501    0  0.00000000000E+00  0.00000000000E+00 -0.25155855729E+04  0.25155855729E+04  0.50400001928E-02 0. -1.
    10030    2    1    2    0    0  0.00000000000E+00  0.00000000000E+00 -0.15488104382E+04  0.34823607076E+04  0.31189777691E+04 0.  0.
        3    1    3    3  502    0 -0.29665026774E+03  0.14633394946E+04 -0.27180126748E+03  0.15176428423E+04  0.10100000352E+00 0.  1.
       -3    1    3    3    0  502  0.29665026774E+03 -0.14633394946E+04 -0.12770091707E+04  0.19647178653E+04  0.10100000352E+00 0. -1.
</event>
<event>
 5   0  0.1977015E-06  0.3088055E+04  0.7818609E-02  0.8219024E-01
        1   -1    0    0  501    0  0.00000000000E+00  0.00000000000E+00  0.21435174357E+04  0.21435174357E+04  0.50400001928E-02 0.  1.
       -1   -1    0    0    0  501  0.00000000000E+00  0.00000000000E+00 -0.11122000381E+04  0.11122000381E+04  0.50400001928E-02 0. -1.
    10030    2    1    2    0    0  0.00000000000E+00  0.00000000000E+00  0.10313173976E+04  0.32557174738E+04  0.30880545161E+04 0.  0.
        1    1    3    3  502    0  0.38487578282E+03  0.12647795477E+04 -0.32528438924E+03  0.13614722202E+04  0.50400001928E-02 0. -1.
       -1    1    3    3    0  502 -0.38487578282E+03 -0.12647795477E+04  0.13566017869E+04  0.18942452536E+04  0.50400001928E-02 0.  1.
</event>
<event>
 5   0  0.1729500E-06  0.3091474E+04  0.7818609E-02  0.8218082E-01
       -3   -1    0    0    0  501  0.00000000000E+00  0.00000000000E+00  0.79092091696E+03  0.79092092341E+03  0.10100000352E+00 0. -1.
        3   -1    0    0  501    0  0.00000000000E+00  0.00000000000E+00 -0.30209123985E+04  0.30209124002E+04  0.10100000352E+00 0.  1.
    10030    2    1    2    0    0  0.00000000000E+00  0.00000000000E+00 -0.22299914815E+04  0.38118333236E+04  0.30914739655E+04 0.  0.
        4    1    3    3  502    0 -0.51564274514E+03  0.12619071002E+04 -0.20134941283E+04  0.24315544797E+04  0.12699999809E+01 0.  1.
       -4    1    3    3    0  502  0.51564274514E+03 -0.12619071002E+04 -0.21649735324E+03  0.13802788439E+04  0.12699999809E+01 0. -1.
</event>
<event>
 5   0  0.1977015E-06  0.3275826E+04  0.7818609E-02  0.8169074E-01
        1   -1    0    0  501    0  0.00000000000E+00  0.00000000000E+00  0.15015853002E+04  0.15015853002E+04  0.50400001928E-02 0. -1.
       -1   -1    0    0    0  501  0.00000000000E+00  0.00000000000E+00 -0.17866175601E+04  0.17866175601E+04  0.50400001928E-02 0.  1.
    10030    2    1    2    0    0  0.00000000000E+00  0.00000000000E+00 -0.28503225985E+03  0.32882028603E+04  0.32758257984E+04 0.  0.
        1    1    3    3  502    0 -0.11588163698E+04  0.11422110226E+04  0.45962502422E+02  0.16277634812E+04  0.50400001928E-02 0. -1.
       -1    1    3    3    0  502  0.11588163698E+04 -0.11422110226E+04 -0.33099476228E+03  0.16604393791E+04  0.50400001928E-02 0.  1.
</event>
<event>
 5   0  0.1886248E-06  0.3182091E+04  0.7818609E-02  0.8193563E-01
        1   -1    0    0  501    0  0.00000000000E+00  0.00000000000E+00  0.14077570710E+04  0.14077570710E+04  0.50400001928E-02 0.  1.
       -1   -1    0    0    0  501  0.00000000000E+00  0.00000000000E+00 -0.17981976553E+04  0.17981976553E+04  0.50400001928E-02 0. -1.
    10030    2    1    2    0    0  0.00000000000E+00  0.00000000000E+00 -0.39044058433E+03  0.32059547263E+04  0.31820907996E+04 0.  0.
        4    1    3    3  502    0  0.14041793257E+04  0.17033644144E+03 -0.92916809519E+03  0.16923619720E+04  0.12699999809E+01 0. -1.
       -4    1    3    3    0  502 -0.14041793257E+04 -0.17033644144E+03  0.53872751087E+03  0.15135927543E+04  0.12699999809E+01 0.  1.
</event>
<event>
 5   0  0.1881144E-06  0.3213845E+04  0.7818609E-02  0.8185170E-01
        1   -1    0    0  501    0  0.00000000000E+00  0.00000000000E+00  0.21531097105E+04  0.21531097105E+04  0.50400001928E-02 0.  1.
       -1   -1    0    0    0  501  0.00000000000E+00  0.00000000000E+00 -0.11992884297E+04  0.11992884297E+04  0.50400001928E-02 0. -1.
    10030    2    1    2    0    0  0.00000000000E+00  0.00000000000E+00  0.95382128083E+03  0.33523981403E+04  0.32138447777E+04 0.  0.
        3    1    3    3  502    0  0.60854535194E+03 -0.43701401685E+02 -0.10737727167E+04  0.12350000466E+04  0.10100000352E+00 0. -1.
       -3    1    3    3    0  502 -0.60854535194E+03  0.43701401685E+02  0.20275939975E+04  0.21173980936E+04  0.10100000352E+00 0.  1.
</event>
<event>
 5   0  0.5121624E-06  0.3249230E+04  0.7818609E-02  0.8175935E-01
        2   -1    0    0  501    0  0.00000000000E+00  0.00000000000E+00  0.22216863954E+04  0.22216863954E+04  0.25500000920E-02 0. -1.
       -2   -1    0    0    0  501  0.00000000000E+00  0.00000000000E+00 -0.11880046518E+04  0.11880046518E+04  0.25500000920E-02 0.  1.
    10030    2    1    2    0    0  0.00000000000E+00  0.00000000000E+00  0.10336817436E+04  0.34096910472E+04  0.32492299226E+04 0.  0.
        4    1    3    3  502    0 -0.12279496655E+04 -0.49740070453E+03  0.15035436272E+04  0.20039742747E+04  0.12699999809E+01 0. -1.
       -4    1    3    3    0  502  0.12279496655E+04  0.49740070453E+03 -0.46986188358E+03  0.14057167725E+04  0.12699999809E+01 0.  1.
</event>
<event>
 5   0  0.1969465E-06  0.3131578E+04  0.7818609E-02  0.8207125E-01
       -1   -1    0    0    0  501  0.00000000000E+00  0.00000000000E+00  0.13589175331E+04  0.13589175331E+04  0.50400001928E-02 0. -1.
        1   -1    0    0  501    0  0.00000000000E+00  0.00000000000E+00 -0.18041531313E+04  0.18041531313E+04  0.50400001928E-02 0.  1.
    10030    2    1    2    0    0  0.00000000000E+00  0.00000000000E+00 -0.44523559822E+03  0.31630706644E+04  0.31315780830E+04 0.  0.
        2    1    3    3  502    0 -0.37529239344E+03 -0.15013299256E+04  0.18232267897E+02  0.15476331419E+04  0.25500000920E-02 0.  1.
       -2    1    3    3    0  502  0.37529239344E+03  0.15013299256E+04 -0.46346786612E+03  0.16154375225E+04  0.25500000920E-02 0. -1.
</event>
<event>
 5   0  0.1881144E-06  0.3123163E+04  0.7818609E-02  0.8209410E-01
       -1   -1    0    0    0  501  0.00000000000E+00  0.00000000000E+00  0.11966916115E+04  0.11966916116E+04  0.50400001928E-02 0. -1.
        1   -1    0    0  501    0  0.00000000000E+00  0.00000000000E+00 -0.20377316169E+04  0.20377316169E+04  0.50400001928E-02 0.  1.
    10030    2    1    2    0    0  0.00000000000E+00  0.00000000000E+00 -0.84104000539E+03  0.32344232285E+04  0.31231627128E+04 0.  0.
        3    1    3    3  502    0  0.10161504805E+04 -0.78573987975E+03 -0.13401796762E+04  0.18563487098E+04  0.10100000352E+00 0.  1.
       -3    1    3    3    0  502 -0.10161504805E+04  0.78573987975E+03  0.49913967086E+03  0.13780745187E+04  0.10100000352E+00 0. -1.
</event>
<event>
 5   0  0.5373060E-06  0.3261415E+04  0.7818609E-02  0.8172783E-01
        2   -1    0    0  501    0  0.00000000000E+00  0.00000000000E+00  0.20202114734E+04  0.20202114734E+04  0.25500000920E-02 0.  1.
       -2   -1    0    0    0  501  0.00000000000E+00  0.00000000000E+00 -0.13163010610E+04  0.13163010610E+04  0.25500000920E-02 0. -1.
    10030    2    1    2    0    0  0.00000000000E+00  0.00000000000E+00  0.70391041236E+03  0.33365125344E+04  0.32614147273E+04 0.  0.
        5    1    3    3  502    0  0.48077436332E+03 -0.99520628375E+03 -0.87465479657E+03  0.14094760157E+04  0.46999998093E+01 0. -1.
       -5    1    3    3    0  502 -0.48077436332E+03  0.99520628375E+03  0.15785652089E+04  0.19270365187E+04  0.46999998093E+01 0.  1.
</event>
<event>
 5   0  0.1969465E-06  0.3157628E+04  0.7818609E-02  0.8200098E-01
        1   -1    0    0  501    0  0.00000000000E+00  0.00000000000E+00  0.20709495292E+04  0.20709495292E+04  0.50400001928E-02 0.  1.
       -1   -1    0    0    0  501  0.00000000000E+00  0.00000000000E+00 -0.12036283687E+04  0.12036283687E+04  0.50400001928E-02 0. -1.
    10030    2    1    2    0    0  0.00000000000E+00  0.00000000000E+00  0.86732116055E+03  0.32745778979E+04  0.31576279727E+04 0.  0.
        2    1    3    3  502    0  0.83523259403E+03  0.95511917806E+03  0.14080273101E+04  0.18953646183E+04  0.25500000920E-02 0.  1.
       -2    1    3    3    0  502 -0.83523259403E+03 -0.95511917806E+03 -0.54070614951E+03  0.13792132796E+04  0.25500000920E-02 0. -1.
</event>
<event>
 5   0  0.1846850E-06  0.3187504E+04  0.7818609E-02  0.8192125E-01
       -1   -1    0    0    0  501  0.00000000000E+00  0.00000000000E+00  0.13947292896E+04  0.13947292896E+04  0.50400001928E-02 0.  1.
        1   -1    0    0  501    0  0.00000000000E+00  0.00000000000E+00 -0.18211746868E+04  0.18211746868E+04  0.50400001928E-02 0. -1.
    10030    2    1    2    0    0  0.00000000000E+00  0.00000000000E+00 -0.42644539715E+03  0.32159039764E+04  0.31875041504E+04 0.  0.
        5    1    3    3  502    0  0.35232650845E+03  0.14275781933E+04 -0.83344385309E+03  0.16901965013E+04  0.46999998093E+01 0. -1.
       -5    1    3    3    0  502 -0.35232650845E+03 -0.14275781933E+04  0.40699845594E+03  0.15257074752E+04  0.46999998093E+01 0.  1.
</event>
<event>
 5   0  0.1846850E-06  0.3247465E+04  0.7818609E-02  0.8176393E-01
       -1   -1    0    0    0  501  0.00000000000E+00  0.00000000000E+00  0.94994652404E+03  0.94994652405E+03  0.50400001928E-02 0.  1.
        1   -1    0    0  501    0  0.00000000000E+00  0.00000000000E+00 -0.27754263589E+04  0.27754263589E+04  0.50400001928E-02 0. -1.
    10030    2    1    2    0    0  0.00000000000E+00  0.00000000000E+00 -0.18254798349E+04  0.37253728830E+04  0.32474646248E+04 0.  0.
        5    1    3    3  502    0 -0.52114037204E+03 -0.21343738101E+03  0.83431956206E+03  0.10066051980E+04  0.46999998093E+01 0.  1.
       -5    1    3    3    0  502  0.52114037204E+03  0.21343738101E+03 -0.26597993969E+04  0.27187676850E+04  0.46999998093E+01 0. -1.
</event>
<event>
 5   0  0.5347280E-06  0.2898961E+04  0.7818609E-02  0.8273187E-01
        2   -1    0    0  501    0  0.00000000000E+00  0.00000000000E+00  0.15167158403E+04  0.15167158403E+04  0.25500000920E-02 0.  1.
       -2   -1    0    0    0  501  0.00000000000E+00  0.00000000000E+00 -0.13852252917E+04  0.13852252917E+04  0.25500000920E-02 0. -1.
    10030    2    1    2    0    0  0.00000000000E+00  0.00000000000E+00  0.13149054863E+03  0.29019411320E+04  0.28989606015E+04 0.  0.
        2    1    3    3  502    0  0.91842185216E+03 -0.11198962823E+04  0.12348265321E+03  0.14535867182E+04  0.25500000920E-02 0.  1.
       -2    1    3    3    0  502 -0.91842185216E+03  0.11198962823E+04  0.80078954215E+01  0.14483544138E+04  0.25500000920E-02 0. -1.
</event>
<event>
 5   0  0.5347280E-06  0.3188608E+04  0.7818609E-02  0.8191832E-01
       -2   -1    0    0    0  501  0.00000000000E+00  0.00000000000E+00  0.22344253498E+04  0.22344253498E+04  0.25500000920E-02 0. -1.
        2   -1    0    0  501    0  0.00000000000E+00  0.00000000000E+00 -0.11375652754E+04  0.11375652754E+04  0.25500000920E-02 0.  1.
    10030    2    1    2    0    0  0.00000000000E+00  0.00000000000E+00  0.10968600744E+04  0.33719906252E+04  0.31886076512E+04 0.  0.
        2    1    3    3  502    0 -0.10612855095E+03 -0.14599622224E+04  0.12164660461E+04  0.19032978226E+04  0.25500000920E-02 0. -1.
       -2    1    3    3    0  502  0.10612855095E+03  0.14599622224E+04 -0.11960597164E+03  0.14686928026E+04  0.25500000920E-02 0.  1.
</event>
<event>
 5   0  0.5131083E-06  0.3271236E+04  0.7818609E-02  0.8170253E-01
       -2   -1    0    0    0  501  0.00000000000E+00  0.00000000000E+00  0.10582095146E+04  0.10582095146E+04  0.25500000920E-02 0.  1.
        2   -1    0    0  501    0  0.00000000000E+00  0.00000000000E+00 -0.25280872295E+04  0.25280872295E+04  0.25500000920E-02 0. -1.
    10030    2    1    2    0    0  0.00000000000E+00  0.00000000000E+00 -0.14698777149E+04  0.35862967441E+04  0.32712358276E+04 0.  0.
        3    1    3    3  502    0  0.79127903380E+03  0.39771761661E+03  0.77261805854E+03  0.11752618800E+04  0.10100000352E+00 0.  1.
       -3    1    3    3    0  502 -0.79127903380E+03 -0.39771761661E+03 -0.22424957734E+04  0.24110348641E+04  0.10100000352E+00 0. -1.
</event>
<event>
 5   0  0.5121624E-06  0.3190246E+04  0.7818609E-02  0.8191398E-01
        2   -1    0    0  501    0  0.00000000000E+00  0.00000000000E+00  0.20441683587E+04  0.20441683587E+04  0.25500000920E-02 0. -1.
       -2   -1    0    0    0  501  0.00000000000E+00  0.00000000000E+00 -0.12447202002E+04  0.12447202002E+04  0.25500000920E-02 0.  1.
    10030    2    1    2    0    0  0.00000000000E+00  0.00000000000E+00  0.79944815852E+03  0.32888885589E+04  0.31902461652E+04 0.  0.
        4    1    3    3  502    0 -0.86124169310E+03 -0.10998698312E+04  0.11935760779E+04  0.18374102334E+04  0.12699999809E+01 0. -1.
       -4    1    3    3    0  502  0.86124169310E+03  0.10998698312E+04 -0.39412791933E+03  0.14514783254E+04  0.12699999809E+01 0.  1.
</event>
<event>
 5   0  0.1977015E-06  0.3194007E+04  0.7818609E-02  0.8190402E-01
       -1   -1    0    0    0  501  0.00000000000E+00  0.00000000000E+00  0.11862447236E+04  0.11862447236E+04  0.50400001928E-02 0.  1.
        1   -1    0    0  501    0  0.00000000000E+00  0.00000000000E+00 -0.21499944544E+04  0.21499944544E+04  0.50400001928E-02 0. -1.
    10030    2    1    2    0    0  0.00000000000E+00  0.00000000000E+00 -0.96374973088E+03  0.33362391780E+04  0.31940066232E+04 0.  0.
        1    1    3    3  502    0 -0.84000755251E+03  0.11316755105E+04 -0.12663986672E+04  0.18947474063E+04  0.50400001928E-02 0. -1.
       -1    1    3    3    0  502  0.84000755251E+03 -0.11316755105E+04  0.30264893628E+03  0.14414917717E+04  0.50400001928E-02 0.  1.
</event>
<event>
 5   0  0.5121624E-06  0.2815713E+04  0.7818609E-02  0.8298407E-01
       -2   -1    0    0    0  501  0.00000000000E+00  0.00000000000E+00  0.66988269600E+03  0.66988269601E+03  0.25500000920E-02 0. -1.
        2   -1    0    0  501    0  0.00000000000E+00  0.00000000000E+00 -0.29588160620E+04  0.29588160620E+04  0.25500000920E-02 0.  1.
    10030    2    1    2    0    0  0.00000000000E+00  0.00000000000E+00 -0.22889333660E+04  0.36286987580E+04  0.28157128267E+04 0.  0.
        4    1    3    3  502    0  0.13975441513E+04  0.12657196987E+03 -0.99804979201E+03  0.17219916140E+04  0.12699999809E+01 0. -1.
       -4    1    3    3    0  502 -0.13975441513E+04 -0.12657196987E+03 -0.12908835740E+04  0.19067071440E+04  0.12699999809E+01 0.  1.
</event>
<event>
 5   0  0.1886248E-06  0.3061224E+04  0.7818609E-02  0.8226461E-01
        1   -1    0    0  501    0  0.00000000000E+00  0.00000000000E+00  0.20252039376E+04  0.20252039376E+04  0.50400001928E-02 0. -1.
       -1   -1    0    0    0  501  0.00000000000E+00  0.00000000000E+00 -0.11568083551E+04  0.11568083552E+04  0.50400001928E-02 0.  1.
    10030    2    1    2    0    0  0.00000000000E+00  0.00000000000E+00  0.86839558246E+03  0.31820122928E+04  0.30612238310E+04 0.  0.
        4    1    3    3  502    0 -0.13762091575E+04  0.52299518834E+03 -0.10056177047E+01  0.14722357951E+04  0.12699999809E+01 0. -1.
       -4    1    3    3    0  502  0.13762091575E+04 -0.52299518834E+03  0.86940120017E+03  0.17097764977E+04  0.12699999809E+01 0.  1.
</event>
<event>
 5   0  0.5108810E-06  0.2459515E+04  0.7818609E-02  0.8417552E-01
        2   -1    0    0  501    0  0.00000000000E+00  0.00000000000E+00  0.12485109038E+04  0.12485109038E+04  0.25500000920E-02 0.  1.
       -2   -1    0    0    0  501  0.00000000000E+00  0.00000000000E+00 -0.12112857945E+04  0.12112857945E+04  0.25500000920E-02 0. -1.
    10030    2    1    2    0    0  0.00000000000E+00  0.00000000000E+00  0.37225109331E+02  0.24597966983E+04  0.24595150107E+04 0.  0.
        1    1    3    3  502    0 -0.95552577324E+03  0.88241345158E+02  0.78778287207E+03  0.12415385181E+04  0.50400001928E-02 0.  1.
       -1    1    3    3    0  502  0.95552577324E+03 -0.88241345158E+02 -0.75055776274E+03  0.12182581802E+04  0.50400001928E-02 0. -1.
</event>
<event>
 5   0  0.1881144E-06  0.3223143E+04  0.7818609E-02  0.8182732E-01
       -1   -1    0    0    0  501  0.00000000000E+00  0.00000000000E+00  0.14702587772E+04  0.14702587772E+04  0.50400001928E-02 0. -1.
        1   -1    0    0  501    0  0.00000000000E+00  0.00000000000E+00 -0.17664668185E+04  0.17664668185E+04  0.50400001928E-02 0.  1.
    10030    2    1    2    0    0  0.00000000000E+00  0.00000000000E+00 -0.29620804135E+03  0.32367255957E+04  0.32231434002E+04 0.  0.
        3    1    3    3  502    0 -0.99951082226E+03 -0.11872389742E+04  0.28801289717E+03  0.15784516796E+04  0.10100000352E+00 0. -1.
       -3    1    3    3    0  502  0.99951082226E+03  0.11872389742E+04 -0.58422093852E+03  0.16582739161E+04  0.10100000352E+00 0.  1.
</event>
<event>
 5   0  0.5131083E-06  0.3213685E+04  0.7818609E-02  0.8185212E-01
       -2   -1    0    0    0  501  0.00000000000E+00  0.00000000000E+00  0.16310230831E+04  0.16310230831E+04  0.25500000920E-02 0. -1.
        2   -1    0    0  501    0  0.00000000000E+00  0.00000000000E+00 -0.15830204451E+04  0.15830204451E+04  0.25500000920E-02 0.  1.
    10030    2    1    2    0    0  0.00000000000E+00  0.00000000000E+00  0.48002638034E+02  0.32140435282E+04  0.32136850418E+04 0.  0.
        3    1    3    3  502    0 -0.15738304887E+04 -0.99589358264E+02  0.33239010518E+03  0.16116276368E+04  0.10100000352E+00 0.  1.
       -3    1    3    3    0  502  0.15738304887E+04  0.99589358264E+02 -0.28438746715E+03  0.16024158914E+04  0.10100000352E+00 0. -1.
</event>
<event>
 5   0  0.1846850E-06  0.3008918E+04  0.7818609E-02  0.8241189E-01
       -1   -1    0    0    0  501  0.00000000000E+00  0.00000000000E+00  0.22888305616E+04  0.22888305616E+04  0.50400001928E-02 0.  1.
        1   -1    0    0  501    0  0.00000000000E+00  0.00000000000E+00 -0.98888814230E+03  0.98888814232E+03  0.50400001928E-02 0. -1.
    10030    2    1    2    0    0  0.00000000000E+00  0.00000000000E+00  0.12999424193E+04  0.32777187039E+04  0.30089183453E+04 0.  0.
        5    1    3    3  502    0  0.38353885148E+02 -0.11040089249E+04 -0.46257410742E+03  0.11976241571E+04  0.46999998093E+01 0. -1.
       -5    1    3    3    0  502 -0.38353885148E+02  0.11040089249E+04  0.17625165267E+04  0.20800945468E+04  0.46999998093E+01 0.  1.
</event>
<event>
 5   0  0.5108810E-06  0.3216916E+04  0.7818609E-02  0.8184364E-01
       -2   -1    0    0    0  501  0.00000000000E+00  0.00000000000E+00  0.15719768671E+04  0.15719768671E+04  0.25500000920E-02 0. -1.
        2   -1    0    0  501    0  0.00000000000E+00  0.00000000000E+00 -0.16457859851E+04  0.16457859851E+04  0.25500000920E-02 0.  1.
    10030    2    1    2    0    0  0.00000000000E+00  0.00000000000E+00 -0.73809118046E+02  0.32177628522E+04  0.32169162232E+04 0.  0.
        1    1    3    3  502    0  0.68481345125E+03 -0.70223760470E+03 -0.13120068470E+04  0.16381297516E+04  0.50400001928E-02 0.  1.
       -1    1    3    3    0  502 -0.68481345125E+03  0.70223760470E+03  0.12381977290E+04  0.15796331006E+04  0.50400001928E-02 0. -1.
</event>
<event>
 5   0  0.5131083E-06  0.3014024E+04  0.7818609E-02  0.8239737E-01
       -2   -1    0    0    0  501  0.00000000000E+00  0.00000000000E+00  0.10398590963E+04  0.10398590963E+04  0.25500000920E-02 0. -1.
        2   -1    0    0  501    0  0.00000000000E+00  0.00000000000E+00 -0.21840319478E+04  0.21840319478E+04  0.25500000920E-02 0.  1.
    10030    2    1    2    0    0  0.00000000000E+00  0.00000000000E+00 -0.11441728516E+04  0.32238910441E+04  0.30140242119E+04 0.  0.
        3    1    3    3  502    0 -0.91271183992E+02 -0.10942016183E+04  0.53200702898E+03  0.12200979877E+04  0.10100000352E+00 0. -1.
       -3    1    3    3    0  502  0.91271183992E+02  0.10942016183E+04 -0.16761798806E+04  0.20037930564E+04  0.10100000352E+00 0.  1.
</event>
<event>
 5   0  0.1729500E-06  0.3118870E+04  0.7818609E-02  0.8210578E-01
        3   -1    0    0  501    0  0.00000000000E+00  0.00000000000E+00  0.17206528036E+04  0.17206528066E+04  0.10100000352E+00 0.  1.
       -3   -1    0    0    0  501  0.00000000000E+00  0.00000000000E+00 -0.14133221859E+04  0.14133221895E+04  0.10100000352E+00 0. -1.
    10030    2    1    2    0    0  0.00000000000E+00  0.00000000000E+00  0.30733061770E+03  0.31339749961E+04  0.31188695336E+04 0.  0.
        4    1    3    3  502    0 -0.77082490274E+03 -0.63535560564E+03 -0.10496265745E+04  0.14489876932E+04  0.12699999809E+01 0. -1.
       -4    1    3    3    0  502  0.77082490274E+03  0.63535560564E+03  0.13569571922E+04  0.16849873028E+04  0.12699999809E+01 0.  1.
</event>
<event>
 5   0  0.1886248E-06  0.3167541E+04  0.7818609E-02  0.8197442E-01
        1   -1    0    0  501    0  0.00000000000E+00  0.00000000000E+00  0.14101877801E+04  0.14101877801E+04  0.50400001928E-02 0. -1.
       -1   -1    0    0    0  501  0.00000000000E+00  0.00000000000E+00 -0.17787201000E+04  0.17787201000E+04  0.50400001928E-02 0.  1.
    10030    2    1    2    0    0  0.00000000000E+00  0.00000000000E+00 -0.36853231987E+03  0.31889078802E+04  0.31675412227E+04 0.  0.
        4    1    3    3  502    0  0.71742666650E+03 -0.23396322601E+02 -0.16055538363E+04  0.17587078051E+04  0.12699999809E+01 0.  1.
       -4    1    3    3    0  502 -0.71742666650E+03  0.23396322601E+02  0.12370215164E+04  0.14302000750E+04  0.12699999809E+01 0. -1.
</event>
<event>
 5   0  0.1969465E-06  0.3080746E+04  0.7818609E-02  0.8221042E-01
        1   -1    0    0  501    0  0.00000000000E+00  0.00000000000E+00  0.13530057754E+04  0.13530057754E+04  0.50400001928E-02 0. -1.
       -1   -1    0    0    0  501  0.00000000000E+00  0.00000000000E+00 -0.17536878023E+04  0.17536878023E+04  0.50400001928E-02 0.  1.
    10030    2    1    2    0    0  0.00000000000E+00  0.00000000000E+00 -0.40068202691E+03  0.31066935777E+04  0.30807464840E+04 0.  0.
        2    1    3    3  502    0 -0.15292578681E+04  0.97574018865E+02 -0.35850397579E+03  0.15737456646E+04  0.25500000920E-02 0.  1.
       -2    1    3    3    0  502  0.15292578681E+04 -0.97574018865E+02 -0.42178051121E+02  0.15329479131E+04  0.25500000920E-02 0. -1.
</event>
<event>
 5   0  0.5121624E-06  0.3186813E+04  0.7818609E-02  0.8192308E-01
       -2   -1    0    0    0  501  0.00000000000E+00  0.00000000000E+00  0.94796575580E+03  0.94796575580E+03  0.25500000920E-02 0. -1.
        2   -1    0    0  501    0  0.00000000000E+00  0.00000000000E+00 -0.26783085765E+04  0.26783085765E+04  0.25500000920E-02 0.  1.
    10030    2    1    2    0    0  0.00000000000E+00  0.00000000000E+00 -0.17303428207E+04  0.36262743323E+04  0.31868133387E+04 0.  0.
        4    1    3    3  502    0 -0.92977275057E+03 -0.12086588922E+04 -0.13910849204E+04  0.20640863727E+04  0.12699999809E+01 0. -1.
       -4    1    3    3    0  502  0.92977275057E+03  0.12086588922E+04 -0.33925790031E+03  0.15621879596E+04  0.12699999809E+01 0.  1.
</event>
<event>
 5   0  0.5108810E-06  0.3001203E+04  0.7818609E-02  0.8243387E-01
       -2   -1    0    0    0  501  0.00000000000E+00  0.00000000000E+00  0.13381501603E+04  0.13381501603E+04  0.25500000920E-02 0.  1.
        2   -1    0    0  501    0  0.00000000000E+00  0.00000000000E+00 -0.16827749192E+04  0.16827749192E+04  0.25500000920E-02 0. -1.
    10030    2    1    2    0    0  0.00000000000E+00  0.00000000000E+00 -0.34462475893E+03  0.30209250794E+04  0.30012034438E+04 0.  0.
        1    1    3    3  502    0 -0.11128055461E+04  0.87408124648E+03  0.33042065180E+03  0.14531111506E+04  0.50400001928E-02 0.  1.
       -1    1    3    3    0  502  0.11128055461E+04 -0.87408124648E+03 -0.67504541073E+03  0.15678139288E+04  0.50400001928E-02 0. -1.
</event>
<event>
 5   0  0.1977015E-06  0.3183645E+04  0.7818609E-02  0.8193150E-01
        1   -1    0    0  501    0  0.00000000000E+00  0.00000000000E+00  0.15079454329E+04  0.15079454329E+04  0.50400001928E-02 0. -1.
       -1   -1    0    0    0  501  0.00000000000E+00  0.00000000000E+00 -0.16803646953E+04  0.16803646953E+04  0.50400001928E-02 0.  1.
    10030    2    1    2    0    0  0.00000000000E+00  0.00000000000E+00 -0.17241926236E+03  0.31883101282E+04  0.31836446208E+04 0.  0.
        1    1    3    3  502    0  0.15308059978E+04 -0.41118673003E+03  0.60486217940E+02  0.15862219619E+04  0.50400001928E-02 0.  1.
       -1    1    3    3    0  502 -0.15308059978E+04  0.41118673003E+03 -0.23290548030E+03  0.16020881663E+04  0.50400001928E-02 0. -1.
</event>
<event>
 5   0  0.5373060E-06  0.3220931E+04  0.7818609E-02  0.8183311E-01
        2   -1    0    0  501    0  0.00000000000E+00  0.00000000000E+00  0.14890632780E+04  0.14890632780E+04  0.25500000920E-02 0.  1.
       -2   -1    0    0    0  501  0.00000000000E+00  0.00000000000E+00 -0.17417659550E+04  0.17417659550E+04  0.25500000920E-02 0. -1.
    10030    2    1    2    0    0  0.00000000000E+00  0.00000000000E+00 -0.25270267702E+03  0.32308292330E+04  0.32209313699E+04 0.  0.
        5    1    3    3  502    0 -0.34541989137E+02  0.27162597308E+03  0.14655364856E+04  0.14909034506E+04  0.46999998093E+01 0.  1.
       -5    1    3    3    0  502  0.34541989137E+02 -0.27162597308E+03 -0.17182391626E+04  0.17399257824E+04  0.46999998093E+01 0. -1.
</event>
<event>
 5   0  0.1886248E-06  0.3197435E+04  0.7818609E-02  0.8189495E-01
       -1   -1    0    0    0  501  0.00000000000E+00  0.00000000000E+00  0.16334148858E+04  0.16334148858E+04  0.50400001928E-02 0.  1.
        1   -1    0    0  501    0  0.00000000000E+00  0.00000000000E+00 -0.15647568828E+04  0.15647568828E+04  0.50400001928E-02 0. -1.
    10030    2    1    2    0    0  0.00000000000E+00  0.00000000000E+00  0.68658003022E+02  0.31981717686E+04  0.31974347124E+04 0.  0.
        4    1    3    3  502    0 -0.45243287201E+03 -0.32840298604E+03  0.15324564721E+04  0.16312475216E+04  0.12699999809E+01 0.  1.
       -4    1    3    3    0  502  0.45243287201E+03  0.32840298604E+03 -0.14637984691E+04  0.15669242470E+04  0.12699999809E+01 0. -1.
</event>
<event>
 5   0  0.1881144E-06  0.3012022E+04  0.7818609E-02  0.8240306E-01
        1   -1    0    0  501    0  0.00000000000E+00  0.00000000000E+00  0.13886749363E+04  0.13886749363E+04  0.50400001928E-02 0. -1.
       -1   -1    0    0    0  501  0.00000000000E+00  0.00000000000E+00 -0.16332610477E+04  0.16332610477E+04  0.50400001928E-02 0.  1.
    10030    2    1    2    0    0  0.00000000000E+00  0.00000000000E+00 -0.24458611133E+03  0.30219359840E+04  0.30120217007E+04 0.  0.
        3    1    3    3  502    0 -0.47870385033E+03 -0.61262861369E+03 -0.14163437499E+04  0.16157044354E+04  0.10100000352E+00 0.  1.
       -3    1    3    3    0  502  0.47870385033E+03  0.61262861369E+03  0.11717576385E+04  0.14062315486E+04  0.10100000352E+00 0. -1.
</event>
<event>
 5   0  0.1969465E-06  0.2903365E+04  0.7818609E-02  0.8271877E-01
        1   -1    0    0  501    0  0.00000000000E+00  0.00000000000E+00  0.11458913334E+04  0.11458913334E+04  0.50400001928E-02 0. -1.
       -1   -1    0    0    0  501  0.00000000000E+00  0.00000000000E+00 -0.18390770379E+04  0.18390770379E+04  0.50400001928E-02 0.  1.
    10030    2    1    2    0    0  0.00000000000E+00  0.00000000000E+00 -0.69318570442E+03  0.29849683713E+04  0.29033652469E+04 0.  0.
        2    1    3    3  502    0 -0.92684664470E+03  0.10412131583E+04  0.70028658176E+02  0.13957340566E+04  0.25500000920E-02 0. -1.
       -2    1    3    3    0  502  0.92684664470E+03 -0.10412131583E+04 -0.76321436260E+03  0.15892343147E+04  0.25500000920E-02 0.  1.
</event>
<event>
 5   0  0.5121624E-06  0.3146669E+04  0.7818609E-02  0.8203045E-01
        2   -1    0    0  501    0  0.00000000000E+00  0.00000000000E+00  0.23489488059E+04  0.23489488059E+04  0.25500000920E-02 0. -1.
       -2   -1    0    0    0  501  0.00000000000E+00  0.00000000000E+00 -0.10538253227E+04  0.10538253227E+04  0.25500000920E-02 0.  1.
    10030    2    1    2    0    0  0.00000000000E+00  0.00000000000E+00  0.12951234832E+04  0.34027741285E+04  0.31466691807E+04 0.  0.
        4    1    3    3  502    0 -0.91984570144E+03  0.74207496568E+03 -0.47551641102E+03  0.12739343936E+04  0.12699999809E+01 0.  1.
       -4    1    3    3    0  502  0.91984570144E+03 -0.74207496568E+03  0.17706398942E+04  0.21288397349E+04  0.12699999809E+01 0. -1.
</event>
<event>
 5   0  0.1977015E-06  0.3207138E+04  0.7818609E-02  0.8186935E-01
        1   -1    0    0  501    0  0.00000000000E+00  0.00000000000E+00  0.19406901072E+04  0.19406901072E+04  0.50400001928E-02 0.  1.
       -1   -1    0    0    0  501  0.00000000000E+00  0.00000000000E+00 -0.13250101459E+04  0.13250101459E+04  0.50400001928E-02 0. -1.
    10030    2    1    2    0    0  0.00000000000E+00  0.00000000000E+00  0.61567996133E+03  0.32657002531E+04  0.32071383394E+04 0.  0.
        1    1    3    3  502    0  0.94346015830E+02 -0.15554333777E+04  0.69311366667E+03  0.17054854788E+04  0.50400001928E-02 0.  1.
       -1    1    3    3    0  502 -0.94346015830E+02  0.15554333777E+04 -0.77433705339E+02  0.15602147743E+04  0.50400001928E-02 0. -1.
</event>
<event>
 5   0  0.1881144E-06  0.3153927E+04  0.7818609E-02  0.8201092E-01
        1   -1    0    0  501    0  0.00000000000E+00  0.00000000000E+00  0.16335612441E+04  0.16335612441E+04  0.50400001928E-02 0.  1.
       -1   -1    0    0    0  501  0.00000000000E+00  0.00000000000E+00 -0.15223262383E+04  0.15223262383E+04  0.50400001928E-02 0. -1.
    10030    2    1    2    0    0  0.00000000000E+00  0.00000000000E+00  0.11123500573E+03  0.31558874824E+04  0.31539265329E+04 0.  0.
        3    1    3    3  502    0  0.15141973844E+04 -0.43846781648E+03  0.13574850795E+02  0.15764618713E+04  0.10100000352E+00 0.  1.
       -3    1    3    3    0  502 -0.15141973844E+04  0.43846781648E+03  0.97660154938E+02  0.15794256111E+04  0.10100000352E+00 0. -1.
</event>
<event>
 5   0  0.5347280E-06  0.2618013E+04  0.7818609E-02  0.8362108E-01
       -2   -1    0    0    0  501  0.00000000000E+00  0.00000000000E+00  0.98238793981E+03  0.98238793982E+03  0.25500000920E-02 0.  1.
        2   -1    0    0  501    0  0.00000000000E+00  0.00000000000E+00 -0.17442170306E+04  0.17442170306E+04  0.25500000920E-02 0. -1.
    10030    2    1    2    0    0  0.00000000000E+00  0.00000000000E+00 -0.76182909083E+03  0.27266049705E+04  0.26180128153E+04 0.  0.
        2    1    3    3  502    0 -0.27628902650E+03  0.12783562782E+04 -0.43764766725E+03  0.13791540454E+04  0.25500000920E-02 0.  1.
       -2    1    3    3    0  502  0.27628902650E+03 -0.12783562782E+04 -0.32418142358E+03  0.13474509251E+04  0.25500000920E-02 0. -1.
</event>
<event>
 5   0  0.5121624E-06  0.3211812E+04  0.7818609E-02  0.8185705E-01
        2   -1    0    0  501    0  0.00000000000E+00  0.00000000000E+00  0.23444224055E+04  0.23444224055E+04  0.25500000920E-02 0. -1.
       -2   -1    0    0    0  501  0.00000000000E+00  0.00000000000E+00 -0.11000296197E+04  0.11000296197E+04  0.25500000920E-02 0.  1.
    10030    2    1    2    0    0  0.00000000000E+00  0.00000000000E+00  0.12443927859E+04  0.34444520252E+04  0.32118120039E+04 0.  0.
        4    1    3    3  502    0 -0.52338417775E+03 -0.14240867499E+04  0.11866041559E+04  0.19261321618E+04  0.12699999809E+01 0. -1.
       -4    1    3    3    0  502  0.52338417775E+03  0.14240867499E+04  0.57788629907E+02  0.15183198634E+04  0.12699999809E+01 0.  1.
</event>
<event>
 5   0  0.1846850E-06  0.3200085E+04  0.7818609E-02  0.8188795E-01
       -1   -1    0    0    0  501  0.00000000000E+00  0.00000000000E+00  0.14787633025E+04  0.14787633025E+04  0.50400001928E-02 0.  1.
        1   -1    0    0  501    0  0.00000000000E+00  0.00000000000E+00 -0.17312682157E+04  0.17312682157E+04  0.50400001928E-02 0. -1.
    10030    2    1    2    0    0  0.00000000000E+00  0.00000000000E+00 -0.25250491319E+03  0.32100315183E+04  0.32000849390E+04 0.  0.
        5    1    3    3  502    0 -0.83387349119E+03  0.99469188411E+03 -0.10647656089E+04  0.16788403246E+04  0.46999998093E+01 0. -1.
       -5    1    3    3    0  502  0.83387349119E+03 -0.99469188411E+03  0.81226069574E+03  0.15311911936E+04  0.46999998093E+01 0.  1.
</event>
<event>
 5   0  0.5121624E-06  0.3178222E+04  0.7818609E-02  0.8194592E-01
        2   -1    0    0  501    0  0.00000000000E+00  0.00000000000E+00  0.15871712396E+04  0.15871712397E+04  0.25500000920E-02 0. -1.
       -2   -1    0    0    0  501  0.00000000000E+00  0.00000000000E+00 -0.15910530194E+04  0.15910530194E+04  0.25500000920E-02 0.  1.
    10030    2    1    2    0    0  0.00000000000E+00  0.00000000000E+00 -0.38817797525E+01  0.31782242591E+04  0.31782218885E+04 0.  0.
        4    1    3    3  502    0 -0.24290658490E+03  0.37877070389E+03 -0.15260158848E+04  0.15909735852E+04  0.12699999809E+01 0.  1.
       -4    1    3    3    0  502  0.24290658490E+03 -0.37877070389E+03  0.15221341051E+04  0.15872506739E+04  0.12699999809E+01 0. -1.
</event>
<event>
 5   0  0.1969465E-06  0.3061095E+04  0.7818609E-02  0.8226497E-01
       -1   -1    0    0    0  501  0.00000000000E+00  0.00000000000E+00  0.74262099013E+03  0.74262099015E+03  0.50400001928E-02 0. -1.
        1   -1    0    0  501    0  0.00000000000E+00  0.00000000000E+00 -0.31544694275E+04  0.31544694275E+04  0.50400001928E-02 0.  1.
    10030    2    1    2    0    0  0.00000000000E+00  0.00000000000E+00 -0.24118484373E+04  0.38970904176E+04  0.30610947124E+04 0.  0.
        2    1    3    3  502    0 -0.51371540811E+03 -0.14238901751E+04 -0.91782998497E+03  0.17702481839E+04  0.25500000920E-02 0. -1.
       -2    1    3    3    0  502  0.51371540811E+03  0.14238901751E+04 -0.14940184524E+04  0.21268422337E+04  0.25500000920E-02 0.  1.
</event>
<event>
 5   0  0.5373060E-06  0.3178601E+04  0.7818609E-02  0.8194492E-01
        2   -1    0    0  501    0  0.00000000000E+00  0.00000000000E+00  0.23713468483E+04  0.23713468483E+04  0.25500000920E-02 0. -1.
       -2   -1    0    0    0  501  0.00000000000E+00  0.00000000000E+00 -0.10651652031E+04  0.10651652031E+04  0.25500000920E-02 0.  1.
    10030    2    1    2    0    0  0.00000000000E+00  0.00000000000E+00  0.13061816452E+04  0.34365120515E+04  0.31786010429E+04 0.  0.
        5    1    3    3  502    0  0.75985359244E+03  0.24776564995E+03 -0.83208548828E+03  0.11537563213E+04  0.46999998093E+01 0.  1.
       -5    1    3    3    0  502 -0.75985359244E+03 -0.24776564995E+03  0.21382671335E+04  0.22827557301E+04  0.46999998093E+01 0. -1.
</event>
<event>
 5   0  0.1886248E-06  0.3092370E+04  0.7818609E-02  0.8217835E-01
       -1   -1    0    0    0  501  0.00000000000E+00  0.00000000000E+00  0.10551305541E+04  0.10551305541E+04  0.50400001928E-02 0.  1.
        1   -1    0    0  501    0  0.00000000000E+00  0.00000000000E+00 -0.22657742970E+04  0.22657742970E+04  0.50400001928E-02 0. -1.
    10030    2    1    2    0    0  0.00000000000E+00  0.00000000000E+00 -0.12106437430E+04  0.33209048511E+04  0.30923697640E+04 0.  0.
        4    1    3    3  502    0  0.80157869000E+03 -0.52899907840E+02  0.81343322315E+03  0.11432418895E+04  0.12699999809E+01 0.  1.
       -4    1    3    3    0  502 -0.80157869000E+03  0.52899907840E+02 -0.20240769661E+04  0.21776629616E+04  0.12699999809E+01 0. -1.
</event>
<event>
 5   0  0.5131083E-06  0.3197686E+04  0.7818609E-02  0.8189429E-01
       -2   -1    0    0    0  501  0.00000000000E+00  0.00000000000E+00  0.10057495387E+04  0.10057495387E+04  0.25500000920E-02 0.  1.
        2   -1    0    0  501    0  0.00000000000E+00  0.00000000000E+00 -0.25416849049E+04  0.25416849049E+04  0.25500000920E-02 0. -1.
    10030    2    1    2    0    0  0.00000000000E+00  0.00000000000E+00 -0.15359353662E+04  0.35474344435E+04  0.31976856759E+04 0.  0.
        3    1    3    3  502    0  0.19038701509E+03 -0.15729642538E+04 -0.10054742220E+04  0.18765506070E+04  0.10100000352E+00 0. -1.
       -3    1    3    3    0  502 -0.19038701509E+03  0.15729642538E+04 -0.53046114422E+03  0.16708838365E+04  0.10100000352E+00 0.  1.
</event>
<event>
 5   0  0.5373060E-06  0.3144900E+04  0.7818609E-02  0.8203523E-01
        2   -1    0    0  501    0  0.00000000000E+00  0.00000000000E+00  0.16493872625E+04  0.16493872625E+04  0.25500000920E-02 0. -1.
       -2   -1    0    0    0  501  0.00000000000E+00  0.00000000000E+00 -0.14991012116E+04  0.14991012116E+04  0.25500000920E-02 0.  1.
    10030    2    1    2    0    0  0.00000000000E+00  0.00000000000E+00  0.15028605086E+03  0.31484884741E+04  0.31448996446E+04 0.  0.
        5    1    3    3  502    0  0.34407611401E+02 -0.15412483214E+04 -0.23496209531E+03  0.15594420631E+04  0.46999998093E+01 0. -1.
       -5    1    3    3    0  502 -0.34407611401E+02  0.15412483214E+04  0.38524814617E+03  0.15890464110E+04  0.46999998093E+01 0.  1.
</event>
<event>
 5   0  0.5347280E-06  0.3115457E+04  0.7818609E-02  0.8211509E-01
       -2   -1    0    0    0  501  0.00000000000E+00  0.00000000000E+00  0.12295127171E+04  0.12295127171E+04  0.25500000920E-02 0. -1.
        2   -1    0    0  501    0  0.00000000000E+00  0.00000000000E+00 -0.19735611425E+04  0.19735611425E+04  0.25500000920E-02 0.  1.
    10030    2    1    2    0    0  0.00000000000E+00  0.00000000000E+00 -0.74404842540E+03  0.32030738596E+04  0.31154572844E+04 0.  0.
        2    1    3    3  502    0  0.10796362610E+04  0.10025976724E+04 -0.89191508464E+03  0.17223034190E+04  0.25500000920E-02 0.  1.
       -2    1    3    3    0  502 -0.10796362610E+04 -0.10025976724E+04  0.14786665924E+03  0.14807704406E+04  0.25500000920E-02 0. -1.
</event>
<event>
 5   0  0.1729500E-06  0.3216211E+04  0.7818609E-02  0.8184549E-01
        3   -1    0    0  501    0  0.00000000000E+00  0.00000000000E+00  0.24291618515E+04  0.24291618536E+04  0.10100000352E+00 0.  1.
       -3   -1    0    0    0  501  0.00000000000E+00  0.00000000000E+00 -0.10645660997E+04  0.10645661045E+04  0.10100000352E+00 0. -1.
    10030    2    1    2    0    0  0.00000000000E+00  0.00000000000E+00  0.13645957518E+04  0.34937279581E+04  0.32162110439E+04 0.  0.
        3    1    3    3  502    0 -0.94435762142E+03  0.40103461607E+03 -0.66284084899E+03  0.12214737335E+04  0.10100000352E+00 0. -1.
       -3    1    3    3    0  502  0.94435762142E+03 -0.40103461607E+03  0.20274366008E+04  0.22722542245E+04  0.10100000352E+00 0.  1.
</event>
<event>
 5   0  0.5121624E-06  0.3194327E+04  0.7818609E-02  0.8190317E-01
       -2   -1    0    0    0  501  0.00000000000E+00  0.00000000000E+00  0.19031256175E+04  0.19031256175E+04  0.25500000920E-02 0.  1.
        2   -1    0    0  501    0  0.00000000000E+00  0.00000000000E+00 -0.13403902520E+04  0.13403902520E+04  0.25500000920E-02 0. -1.
    10030    2    1    2    0    0  0.00000000000E+00  0.00000000000E+00  0.56273536548E+03  0.32435158695E+04  0.31943268624E+04 0.  0.
        4    1    3    3  502    0 -0.15387634381E+04  0.38864189115E+03  0.46327427128E+03  0.16533179069E+04  0.12699999809E+01 0.  1.
       -4    1    3    3    0  502  0.15387634381E+04 -0.38864189115E+03  0.99461094195E+02  0.15901979626E+04  0.12699999809E+01 0. -1.
</event>
<event>
 5   0  0.5373060E-06  0.3210490E+04  0.7818609E-02  0.8186052E-01
       -2   -1    0    0    0  501  0.00000000000E+00  0.00000000000E+00  0.15816587816E+04  0.15816587816E+04  0.25500000920E-02 0. -1.
        2   -1    0    0  501    0  0.00000000000E+00  0.00000000000E+00 -0.16291832294E+04  0.16291832294E+04  0.25500000920E-02 0.  1.
    10030    2    1    2    0    0  0.00000000000E+00  0.00000000000E+00 -0.47524447755E+02  0.32108420110E+04  0.32104902813E+04 0.  0.
        5    1    3    3  502    0 -0.70423827618E+03  0.10333125891E+04  0.98287843260E+03  0.15905214741E+04  0.46999998093E+01 0. -1.
       -5    1    3    3    0  502  0.70423827618E+03 -0.10333125891E+04 -0.10304028804E+04  0.16203205369E+04  0.46999998093E+01 0.  1.
</event>
<event>
 5   0  0.1886248E-06  0.3209172E+04  0.7818609E-02  0.8186399E-01
       -1   -1    0    0    0  501  0.00000000000E+00  0.00000000000E+00  0.12637318831E+04  0.12637318831E+04  0.50400001928E-02 0.  1.
        1   -1    0    0  501    0  0.00000000000E+00  0.00000000000E+00 -0.20373758892E+04  0.20373758892E+04  0.50400001928E-02 0. -1.
    10030    2    1    2    0    0  0.00000000000E+00  0.00000000000E+00 -0.77364400603E+03  0.33011077723E+04  0.32091723974E+04 0.  0.
        4    1    3    3  502    0 -0.15579361355E+04 -0.37430964145E+03 -0.29819968447E+03  0.16297844565E+04  0.12699999809E+01 0. -1.
       -4    1    3    3    0  502  0.15579361355E+04  0.37430964145E+03 -0.47544432156E+03  0.16713233158E+04  0.12699999809E+01 0.  1.
</event>
<event>
 5   0  0.1969465E-06  0.3193171E+04  0.7818609E-02  0.8190623E-01
        1   -1    0    0  501    0  0.00000000000E+00  0.00000000000E+00  0.19219678113E+04  0.19219678113E+04  0.50400001928E-02 0. -1.
       -1   -1    0    0    0  501  0.00000000000E+00  0.00000000000E+00 -0.13262891864E+04  0.13262891864E+04  0.50400001928E-02 0.  1.
    10030    2    1    2    0    0  0.00000000000E+00  0.00000000000E+00  0.59567862499E+03  0.32482569977E+04  0.31931709160E+04 0.  0.
        2    1    3    3  502    0  0.71032157932E+03 -0.14377637485E+03  0.17450044798E+04  0.18895155534E+04  0.25500000920E-02 0. -1.
       -2    1    3    3    0  502 -0.71032157932E+03  0.14377637485E+03 -0.11493258548E+04  0.13587414443E+04  0.25500000920E-02 0.  1.
</event>
<event>
 5   0  0.5373060E-06  0.3213034E+04  0.7818609E-02  0.8185383E-01
       -2   -1    0    0    0  501  0.00000000000E+00  0.00000000000E+00  0.21586413905E+04  0.21586413905E+04  0.25500000920E-02 0. -1.
        2   -1    0    0  501    0  0.00000000000E+00  0.00000000000E+00 -0.11956119495E+04  0.11956119495E+04  0.25500000920E-02 0.  1.
    10030    2    1    2    0    0  0.00000000000E+00  0.00000000000E+00  0.96302944097E+03  0.33542533401E+04  0.32130343548E+04 0.  0.
        5    1    3    3  502    0 -0.12591597791E+03 -0.14339388568E+04 -0.26316762736E+03  0.14633231935E+04  0.46999998093E+01 0.  1.
       -5    1    3    3    0  502  0.12591597791E+03  0.14339388568E+04  0.12261970683E+04  0.18909301465E+04  0.46999998093E+01 0. -1.
</event>
<event>
 5   0  0.1881144E-06  0.3256155E+04  0.7818609E-02  0.8174142E-01
       -1   -1    0    0    0  501  0.00000000000E+00  0.00000000000E+00  0.15433702969E+04  0.15433702969E+04  0.50400001928E-02 0.  1.
        1   -1    0    0  501    0  0.00000000000E+00  0.00000000000E+00 -0.17174342912E+04  0.17174342912E+04  0.50400001928E-02 0. -1.
    10030    2    1    2    0    0  0.00000000000E+00  0.00000000000E+00 -0.17406399434E+03  0.32608045881E+04  0.32561554459E+04 0.  0.
        3    1    3    3  502    0 -0.58627766950E+03  0.16720081141E+02  0.14338978276E+04  0.15492140127E+04  0.10100000352E+00 0.  1.
       -3    1    3    3    0  502  0.58627766950E+03 -0.16720081141E+02 -0.16079618219E+04  0.17115905754E+04  0.10100000352E+00 0. -1.
</event>
<event>
 5   0  0.5108810E-06  0.3193961E+04  0.7818609E-02  0.8190414E-01
       -2   -1    0    0    0  501  0.00000000000E+00  0.00000000000E+00  0.15533882428E+04  0.15533882428E+04  0.25500000920E-02 0.  1.
        2   -1    0    0  501    0  0.00000000000E+00  0.00000000000E+00 -0.16417956258E+04  0.16417956258E+04  0.25500000920E-02 0. -1.
    10030    2    1    2    0    0  0.00000000000E+00  0.00000000000E+00 -0.88407382997E+02  0.31951838686E+04  0.31939605647E+04 0.  0.
        1    1    3    3  502    0  0.14104032648E+03  0.15894973062E+04  0.18685020318E+02  0.15958518697E+04  0.50400001928E-02 0. -1.
       -1    1    3    3    0  502 -0.14104032648E+03 -0.15894973062E+04 -0.10709240332E+03  0.15993319989E+04  0.50400001928E-02 0.  1.
</event>
<event>
 5   0  0.1977015E-06  0.3148641E+04  0.7818609E-02  0.8202514E-01
       -1   -1    0    0    0  501  0.00000000000E+00  0.00000000000E+00  0.13067725570E+04  0.13067725571E+04  0.50400001928E-02 0. -1.
        1   -1    0    0  501    0  0.00000000000E+00  0.00000000000E+00 -0.18966459865E+04  0.18966459865E+04  0.50400001928E-02 0.  1.
    10030    2    1    2    0    0  0.00000000000E+00  0.00000000000E+00 -0.58987342945E+03  0.32034185435E+04  0.31486409294E+04 0.  0.
        1    1    3    3  502    0  0.11182334776E+04  0.43889166577E+03  0.74031829022E+03  0.14110787276E+04  0.50400001928E-02 0. -1.
       -1    1    3    3    0  502 -0.11182334776E+04 -0.43889166577E+03 -0.13301917197E+04  0.17923398159E+04  0.50400001928E-02 0.  1.
</event>
<event>
 5   0  0.5108810E-06  0.3144851E+04  0.7818609E-02  0.8203536E-01
       -2   -1    0    0    0  501  0.00000000000E+00  0.00000000000E+00  0.13919387467E+04  0.13919387467E+04  0.25500000920E-02 0. -1.
        2   -1    0    0  501    0  0.00000000000E+00  0.00000000000E+00 -0.17763149720E+04  0.17763149720E+04  0.25500000920E-02 0.  1.
    10030    2    1    2    0    0  0.00000000000E+00  0.00000000000E+00 -0.38437622530E+03  0.31682537186E+04  0.31448507982E+04 0.  0.
        1    1    3    3  502    0  0.46090250772E+03  0.37955497856E+03 -0.16576707150E+04  0.17619209127E+04  0.50400001928E-02 0.  1.
       -1    1    3    3    0  502 -0.46090250772E+03 -0.37955497856E+03  0.12732944897E+04  0.14063328059E+04  0.50400001928E-02 0. -1.
</event>
<event>
 5   0  0.5108810E-06  0.3354666E+04  0.7818609E-02  0.8149123E-01
        2   -1    0    0  501    0  0.00000000000E+00  0.00000000000E+00  0.14621091755E+04  0.14621091755E+04  0.25500000920E-02 0. -1.
       -2   -1    0    0    0  501  0.00000000000E+00  0.00000000000E+00 -0.19242382161E+04  0.19242382161E+04  0.25500000920E-02 0.  1.
    10030    2    1    2    0    0  0.00000000000E+00  0.00000000000E+00 -0.46212904067E+03  0.33863473916E+04  0.33546662139E+04 0.  0.
        1    1    3    3  502    0  0.11510018972E+04  0.12196655226E+04 -0.26388304868E+03  0.16976523843E+04  0.50400001928E-02 0. -1.
       -1    1    3    3    0  502 -0.11510018972E+04 -0.12196655226E+04 -0.19824599199E+03  0.16886950073E+04  0.50400001928E-02 0.  1.
</event>
<event>
 5   0  0.5373060E-06  0.3444813E+04  0.7818609E-02  0.8126995E-01
       -2   -1    0    0    0  501  0.00000000000E+00  0.00000000000E+00  0.13923720113E+04  0.13923720113E+04  0.25500000920E-02 0.  1.
        2   -1    0    0  501    0  0.00000000000E+00  0.00000000000E+00 -0.21306685940E+04  0.21306685940E+04  0.25500000920E-02 0. -1.
    10030    2    1    2    0    0  0.00000000000E+00  0.00000000000E+00 -0.73829658268E+03  0.35230406053E+04  0.34448125149E+04 0.  0.
        5    1    3    3  502    0  0.16147629793E+04 -0.59469510293E+03 -0.29303042658E+03  0.17455688659E+04  0.46999998093E+01 0. -1.
       -5    1    3    3    0  502 -0.16147629793E+04  0.59469510293E+03 -0.44526615610E+03  0.17774717394E+04  0.46999998093E+01 0.  1.
</event>
<event>
 5   0  0.5131083E-06  0.3133370E+04  0.7818609E-02  0.8206639E-01
       -2   -1    0    0    0  501  0.00000000000E+00  0.00000000000E+00  0.11393838059E+04  0.11393838059E+04  0.25500000920E-02 0. -1.
        2   -1    0    0  501    0  0.00000000000E+00  0.00000000000E+00 -0.21542361116E+04  0.21542361116E+04  0.25500000920E-02 0.  1.
    10030    2    1    2    0    0  0.00000000000E+00  0.00000000000E+00 -0.10148523057E+04  0.32936199175E+04  0.31333699045E+04 0.  0.
        3    1    3    3  502    0 -0.83087697246E+03  0.41284201555E+03  0.81955882291E+03  0.12379304292E+04  0.10100000352E+00 0. -1.
       -3    1    3    3    0  502  0.83087697246E+03 -0.41284201555E+03 -0.18344111287E+04  0.20556894883E+04  0.10100000352E+00 0.  1.
</event>
<event>
 5   0  0.1969465E-06  0.2376400E+04  0.7818609E-02  0.8448392E-01
        1   -1    0    0  501    0  0.00000000000E+00  0.00000000000E+00  0.13563033340E+04  0.13563033340E+04  0.50400001928E-02 0. -1.
       -1   -1    0    0    0  501  0.00000000000E+00  0.00000000000E+00 -0.10409317665E+04  0.10409317666E+04  0.50400001928E-02 0.  1.
    10030    2    1    2    0    0  0.00000000000E+00  0.00000000000E+00  0.31537156747E+03  0.23972351006E+04  0.23763999878E+04 0.  0.
        2    1    3    3  502    0 -0.19445091953E+02  0.10470459319E+04 -0.40860572255E+03  0.11241182907E+04  0.25500000920E-02 0. -1.
       -2    1    3    3    0  502  0.19445091953E+02 -0.10470459319E+04  0.72397729002E+03  0.12731168099E+04  0.25500000920E-02 0.  1.
</event>
<event>
 5   0  0.1881144E-06  0.3101161E+04  0.7818609E-02  0.8215419E-01
        1   -1    0    0  501    0  0.00000000000E+00  0.00000000000E+00  0.21656935389E+04  0.21656935389E+04  0.50400001928E-02 0. -1.
       -1   -1    0    0    0  501  0.00000000000E+00  0.00000000000E+00 -0.11101758455E+04  0.11101758456E+04  0.50400001928E-02 0.  1.
    10030    2    1    2    0    0  0.00000000000E+00  0.00000000000E+00  0.10555176934E+04  0.32758693845E+04  0.31011614958E+04 0.  0.
        3    1    3    3  502    0  0.11276530348E+04  0.24069943260E+03 -0.56735320926E+03  0.12850786972E+04  0.10100000352E+00 0.  1.
       -3    1    3    3    0  502 -0.11276530348E+04 -0.24069943260E+03  0.16228709026E+04  0.19907906873E+04  0.10100000352E+00 0. -1.
</event>
<event>
 5   0  0.1969465E-06  0.3225964E+04  0.7818609E-02  0.8181994E-01
        1   -1    0    0  501    0  0.00000000000E+00  0.00000000000E+00  0.19100174869E+04  0.19100174869E+04  0.50400001928E-02 0. -1.
       -1   -1    0    0    0  501  0.00000000000E+00  0.00000000000E+00 -0.13621394381E+04  0.13621394381E+04  0.50400001928E-02 0.  1.
    10030    2    1    2    0    0  0.00000000000E+00  0.00000000000E+00  0.54787804877E+03  0.32721569250E+04  0.32259635128E+04 0.  0.
        2    1    3    3  502    0 -0.14436518990E+04  0.66103218923E+03  0.56193387196E+03  0.16842992718E+04  0.25500000920E-02 0. -1.
       -2    1    3    3    0  502  0.14436518990E+04 -0.66103218923E+03 -0.14055823196E+02  0.15878576532E+04  0.25500000920E-02 0.  1.
</event>
<event>
 5   0  0.1977015E-06  0.2757353E+04  0.7818609E-02  0.8316632E-01
       -1   -1    0    0    0  501  0.00000000000E+00  0.00000000000E+00  0.10761998841E+04  0.10761998841E+04  0.50400001928E-02 0.  1.
        1   -1    0    0  501    0  0.00000000000E+00  0.00000000000E+00 -0.17661673455E+04  0.17661673455E+04  0.50400001928E-02 0. -1.
    10030    2    1    2    0    0  0.00000000000E+00  0.00000000000E+00 -0.68996746141E+03  0.28423672297E+04  0.27573531458E+04 0.  0.
        1    1    3    3  502    0  0.85561080933E+02  0.20393601787E+03 -0.17477630341E+04  0.17616998102E+04  0.50400001928E-02 0. -1.
       -1    1    3    3    0  502 -0.85561080933E+02 -0.20393601787E+03  0.10577955727E+04  0.10806674195E+04  0.50400001928E-02 0.  1.
</event>
<event>
 5   0  0.5121624E-06  0.3175844E+04  0.7818609E-02  0.8195226E-01
       -2   -1    0    0    0  501  0.00000000000E+00  0.00000000000E+00  0.13359105967E+04  0.13359105967E+04  0.25500000920E-02 0. -1.
        2   -1    0    0  501    0  0.00000000000E+00  0.00000000000E+00 -0.18874743267E+04  0.18874743267E+04  0.25500000920E-02 0.  1.
    10030    2    1    2    0    0  0.00000000000E+00  0.00000000000E+00 -0.55156372994E+03  0.32233849234E+04  0.31758444257E+04 0.  0.
        4    1    3    3  502    0 -0.41914863950E+03 -0.19946506960E+03 -0.18170734591E+04  0.18754278085E+04  0.12699999809E+01 0.  1.
       -4    1    3    3    0  502  0.41914863950E+03  0.19946506960E+03  0.12655097292E+04  0.13479571149E+04  0.12699999809E+01 0. -1.
</event>
<event>
 5   0  0.1881144E-06  0.3188835E+04  0.7818609E-02  0.8191772E-01
       -1   -1    0    0    0  501  0.00000000000E+00  0.00000000000E+00  0.12232907068E+04  0.12232907068E+04  0.50400001928E-02 0. -1.
        1   -1    0    0  501    0  0.00000000000E+00  0.00000000000E+00 -0.20781377917E+04  0.20781377917E+04  0.50400001928E-02 0.  1.
    10030    2    1    2    0    0  0.00000000000E+00  0.00000000000E+00 -0.85484708487E+03  0.33014284985E+04  0.31888346763E+04 0.  0.
        3    1    3    3  502    0  0.59977194593E+03 -0.97964307842E+03  0.71739563685E+03  0.13542833744E+04  0.10100000352E+00 0. -1.
       -3    1    3    3    0  502 -0.59977194593E+03  0.97964307842E+03 -0.15722427217E+04  0.19471451241E+04  0.10100000352E+00 0.  1.
</event>
<event>
 5   0  0.5347280E-06  0.2004128E+04  0.7818609E-02  0.8604693E-01
        2   -1    0    0  501    0  0.00000000000E+00  0.00000000000E+00  0.23636169824E+04  0.23636169824E+04  0.25500000920E-02 0. -1.
       -2   -1    0    0    0  501  0.00000000000E+00  0.00000000000E+00 -0.42482852780E+03  0.42482852781E+03  0.25500000920E-02 0.  1.
    10030    2    1    2    0    0  0.00000000000E+00  0.00000000000E+00  0.19387884546E+04  0.27884455102E+04  0.20041276635E+04 0.  0.
        2    1    3    3  502    0  0.21975240028E+03  0.17031448533E+03 -0.37009031698E+03  0.46288765816E+03  0.25500000920E-02 0.  1.
       -2    1    3    3    0  502 -0.21975240028E+03 -0.17031448533E+03  0.23088787716E+04  0.23255578521E+04  0.25500000920E-02 0. -1.
</event>
<event>
 5   0  0.1846850E-06  0.3195335E+04  0.7818609E-02  0.8190050E-01
       -1   -1    0    0    0  501  0.00000000000E+00  0.00000000000E+00  0.16511312486E+04  0.16511312486E+04  0.50400001928E-02 0. -1.
        1   -1    0    0  501    0  0.00000000000E+00  0.00000000000E+00 -0.15459353204E+04  0.15459353204E+04  0.50400001928E-02 0.  1.
    10030    2    1    2    0    0  0.00000000000E+00  0.00000000000E+00  0.10519592824E+03  0.31970665690E+04  0.31953354227E+04 0.  0.
        5    1    3    3  502    0 -0.38801870373E+02 -0.14386767257E+04 -0.64148076979E+03  0.15756953939E+04  0.46999998093E+01 0. -1.
       -5    1    3    3    0  502  0.38801870373E+02  0.14386767257E+04  0.74667669804E+03  0.16213711752E+04  0.46999998093E+01 0.  1.
</event>
<event>
 5   0  0.5121624E-06  0.2921394E+04  0.7818609E-02  0.8266541E-01
       -2   -1    0    0    0  501  0.00000000000E+00  0.00000000000E+00  0.11515810194E+04  0.11515810194E+04  0.25500000920E-02 0. -1.
        2   -1    0    0  501    0  0.00000000000E+00  0.00000000000E+00 -0.18527877925E+04  0.18527877925E+04  0.25500000920E-02 0.  1.
    10030    2    1    2    0    0  0.00000000000E+00  0.00000000000E+00 -0.70120677311E+03  0.30043688119E+04  0.29213936775E+04 0.  0.
        4    1    3    3  502    0  0.10279428007E+04  0.10120550071E+04 -0.58671508637E+03  0.15572918623E+04  0.12699999809E+01 0. -1.
       -4    1    3    3    0  502 -0.10279428007E+04 -0.10120550071E+04 -0.11449168674E+03  0.14470769496E+04  0.12699999809E+01 0.  1.
</event>
<event>
 5   0  0.5108810E-06  0.3157371E+04  0.7818609E-02  0.8200167E-01
        2   -1    0    0  501    0  0.00000000000E+00  0.00000000000E+00  0.14895178973E+04  0.14895178973E+04  0.25500000920E-02 0. -1.
       -2   -1    0    0    0  501  0.00000000000E+00  0.00000000000E+00 -0.16731905175E+04  0.16731905175E+04  0.25500000920E-02 0.  1.
    10030    2    1    2    0    0  0.00000000000E+00  0.00000000000E+00 -0.18367262022E+03  0.31627084148E+04  0.31573705652E+04 0.  0.
        1    1    3    3  502    0  0.80224046750E+03  0.91687384120E+03  0.91385297707E+03  0.15229493334E+04  0.50400001928E-02 0. -1.
       -1    1    3    3    0  502 -0.80224046750E+03 -0.91687384120E+03 -0.10975255973E+04  0.16397590814E+04  0.50400001928E-02 0.  1.
</event>
<event>
 5   0  0.5108810E-06  0.2554489E+04  0.7818609E-02  0.8383827E-01
       -2   -1    0    0    0  501  0.00000000000E+00  0.00000000000E+00  0.15655229701E+04  0.15655229701E+04  0.25500000920E-02 0. -1.
        2   -1    0    0  501    0  0.00000000000E+00  0.00000000000E+00 -0.10420504838E+04  0.10420504838E+04  0.25500000920E-02 0.  1.
    10030    2    1    2    0    0  0.00000000000E+00  0.00000000000E+00  0.52347248625E+03  0.26075734539E+04  0.25544893568E+04 0.  0.
        1    1    3    3  502    0  0.48590101017E+02 -0.12402431427E+04  0.56931140722E+03  0.13655326907E+04  0.50400001928E-02 0. -1.
       -1    1    3    3    0  502 -0.48590101017E+02  0.12402431427E+04 -0.45838920973E+02  0.12420407633E+04  0.50400001928E-02 0.  1.
</event>
<event>
 5   0  0.1886248E-06  0.3178767E+04  0.7818609E-02  0.8194447E-01
       -1   -1    0    0    0  501  0.00000000000E+00  0.00000000000E+00  0.21613706387E+04  0.21613706387E+04  0.50400001928E-02 0. -1.
        1   -1    0    0  501    0  0.00000000000E+00  0.00000000000E+00 -0.11687674237E+04  0.11687674238E+04  0.50400001928E-02 0.  1.
    10030    2    1    2    0    0  0.00000000000E+00  0.00000000000E+00  0.99260321497E+03  0.33301380625E+04  0.31787668006E+04 0.  0.
        4    1    3    3  502    0 -0.13057680993E+04  0.89920880316E+03  0.61357501522E+03  0.17000243272E+04  0.12699999809E+01 0. -1.
       -4    1    3    3    0  502  0.13057680993E+04 -0.89920880316E+03  0.37902819975E+03  0.16301137353E+04  0.12699999809E+01 0.  1.
</event>
<event>
 5   0  0.5121624E-06  0.3193555E+04  0.7818609E-02  0.8190521E-01
       -2   -1    0    0    0  501  0.00000000000E+00  0.00000000000E+00  0.17274617519E+04  0.17274617519E+04  0.25500000920E-02 0.  1.
        2   -1    0    0  501    0  0.00000000000E+00  0.00000000000E+00 -0.14759794317E+04  0.14759794317E+04  0.25500000920E-02 0. -1.
    10030    2    1    2    0    0  0.00000000000E+00  0.00000000000E+00  0.25148232021E+03  0.32034411837E+04  0.31935547686E+04 0.  0.
        4    1    3    3  502    0  0.83012301599E+03  0.53055510751E+03  0.13862551740E+04  0.17006757375E+04  0.12699999809E+01 0.  1.
       -4    1    3    3    0  502 -0.83012301599E+03 -0.53055510751E+03 -0.11347728537E+04  0.15027654462E+04  0.12699999809E+01 0. -1.
</event>
<event>
 5   0  0.5121624E-06  0.1975149E+04  0.7818609E-02  0.8618328E-01
        2   -1    0    0  501    0  0.00000000000E+00  0.00000000000E+00  0.93120925189E+03  0.93120925189E+03  0.25500000920E-02 0. -1.
       -2   -1    0    0    0  501  0.00000000000E+00  0.00000000000E+00 -0.10473515532E+04  0.10473515532E+04  0.25500000920E-02 0.  1.
    10030    2    1    2    0    0  0.00000000000E+00  0.00000000000E+00 -0.11614230131E+03  0.19785608051E+04  0.19751490641E+04 0.  0.
        4    1    3    3  502    0 -0.61488997746E+03  0.49780795264E+03  0.53405003826E+03  0.95452265471E+03  0.12699999809E+01 0. -1.
       -4    1    3    3    0  502  0.61488997746E+03 -0.49780795264E+03 -0.65019233957E+03  0.10240381504E+04  0.12699999809E+01 0.  1.
</event>
<event>
 5   0  0.1969465E-06  0.3177143E+04  0.7818609E-02  0.8194880E-01
        1   -1    0    0  501    0  0.00000000000E+00  0.00000000000E+00  0.16369023053E+04  0.16369023053E+04  0.50400001928E-02 0.  1.
       -1   -1    0    0    0  501  0.00000000000E+00  0.00000000000E+00 -0.15416680310E+04  0.15416680310E+04  0.50400001928E-02 0. -1.
    10030    2    1    2    0    0  0.00000000000E+00  0.00000000000E+00  0.95234274280E+02  0.31785703364E+04  0.31771433421E+04 0.  0.
        2    1    3    3  502    0  0.15694198146E+04  0.16052579794E+03 -0.13878044020E+03  0.15837004442E+04  0.25500000920E-02 0.  1.
       -2    1    3    3    0  502 -0.15694198146E+04 -0.16052579794E+03  0.23401471448E+03  0.15948698922E+04  0.25500000920E-02 0. -1.
</event>
<event>
 5   0  0.5121624E-06  0.3211348E+04  0.7818609E-02  0.8185827E-01
       -2   -1    0    0    0  501  0.00000000000E+00  0.00000000000E+00  0.16773589623E+04  0.16773589623E+04  0.25500000920E-02 0. -1.
        2   -1    0    0  501    0  0.00000000000E+00  0.00000000000E+00 -0.15370528408E+04  0.15370528408E+04  0.25500000920E-02 0.  1.
    10030    2    1    2    0    0  0.00000000000E+00  0.00000000000E+00  0.14030612153E+03  0.32144118031E+04  0.32113482265E+04 0.  0.
        4    1    3    3  502    0 -0.96242698285E+03 -0.80531470446E+03  0.10728023640E+04  0.16509706223E+04  0.12699999809E+01 0. -1.
       -4    1    3    3    0  502  0.96242698285E+03  0.80531470446E+03 -0.93249624251E+03  0.15634411808E+04  0.12699999809E+01 0.  1.
</event>
<event>
 5   0  0.1846850E-06  0.2973107E+04  0.7818609E-02  0.8251452E-01
        1   -1    0    0  501    0  0.00000000000E+00  0.00000000000E+00  0.18916742105E+04  0.18916742105E+04  0.50400001928E-02 0.  1.
       -1   -1    0    0    0  501  0.00000000000E+00  0.00000000000E+00 -0.11681932221E+04  0.11681932221E+04  0.50400001928E-02 0. -1.
    10030    2    1    2    0    0  0.00000000000E+00  0.00000000000E+00  0.72348098836E+03  0.30598674326E+04  0.29731067867E+04 0.  0.
        5    1    3    3  502    0 -0.13231450656E+04  0.14526990672E+02  0.10589266705E+04  0.16947777676E+04  0.46999998093E+01 0.  1.
       -5    1    3    3    0  502  0.13231450656E+04 -0.14526990672E+02 -0.33544568216E+03  0.13650896651E+04  0.46999998093E+01 0. -1.
</event>
<event>
 5   0  0.1846850E-06  0.3143666E+04  0.7818609E-02  0.8203855E-01
       -1   -1    0    0    0  501  0.00000000000E+00  0.00000000000E+00  0.19331421510E+04  0.19331421510E+04  0.50400001928E-02 0.  1.
        1   -1    0    0  501    0  0.00000000000E+00  0.00000000000E+00 -0.12780531019E+04  0.12780531020E+04  0.50400001928E-02 0. -1.
    10030    2    1    2    0    0  0.00000000000E+00  0.00000000000E+00  0.65508904904E+03  0.32111952529E+04  0.31436655818E+04 0.  0.
        5    1    3    3  502    0 -0.12444147622E+04 -0.69567337385E+01  0.13083897481E+04  0.18056916457E+04  0.46999998093E+01 0.  1.
       -5    1    3    3    0  502  0.12444147622E+04  0.69567337385E+01 -0.65330069910E+03  0.14055036072E+04  0.46999998093E+01 0. -1.
</event>
<event>
 5   0  0.1846850E-06  0.3207155E+04  0.7818609E-02  0.8186930E-01
       -1   -1    0    0    0  501  0.00000000000E+00  0.00000000000E+00  0.11481020148E+04  0.11481020148E+04  0.50400001928E-02 0.  1.
        1   -1    0    0  501    0  0.00000000000E+00  0.00000000000E+00 -0.22397499242E+04  0.22397499242E+04  0.50400001928E-02 0. -1.
    10030    2    1    2    0    0  0.00000000000E+00  0.00000000000E+00 -0.10916479094E+04  0.33878519390E+04  0.32071553755E+04 0.  0.
        5    1    3    3  502    0 -0.19928131871E+03  0.74020629253E+03 -0.20336619777E+04  0.21733433988E+04  0.46999998093E+01 0. -1.
       -5    1    3    3    0  502  0.19928131871E+03 -0.74020629253E+03  0.94201406827E+03  0.12145085402E+04  0.46999998093E+01 0.  1.
</event>
<event>
 5   0  0.1969465E-06  0.3224908E+04  0.7818609E-02  0.8182270E-01
        1   -1    0    0  501    0  0.00000000000E+00  0.00000000000E+00  0.24974965485E+04  0.24974965485E+04  0.50400001928E-02 0.  1.
       -1   -1    0    0    0  501  0.00000000000E+00  0.00000000000E+00 -0.10410453740E+04  0.10410453741E+04  0.50400001928E-02 0. -1.
    10030    2    1    2    0    0  0.00000000000E+00  0.00000000000E+00  0.14564511744E+04  0.35385419226E+04  0.32249075823E+04 0.  0.
        2    1    3    3  502    0 -0.10395202525E+04 -0.79700467825E+03 -0.30353630248E+03  0.13446014649E+04  0.25500000920E-02 0. -1.
       -2    1    3    3    0  502  0.10395202525E+04  0.79700467825E+03  0.17599874769E+04  0.21939404576E+04  0.25500000920E-02 0.  1.
</event>
<event>
 5   0  0.5131083E-06  0.3196092E+04  0.7818609E-02  0.8189850E-01
       -2   -1    0    0    0  501  0.00000000000E+00  0.00000000000E+00  0.18445058309E+04  0.18445058309E+04  0.25500000920E-02 0.  1.
        2   -1    0    0  501    0  0.00000000000E+00  0.00000000000E+00 -0.13845176924E+04  0.13845176924E+04  0.25500000920E-02 0. -1.
    10030    2    1    2    0    0  0.00000000000E+00  0.00000000000E+00  0.45998813851E+03  0.32290235233E+04  0.31960919616E+04 0.  0.
        3    1    3    3  502    0  0.10398367785E+04 -0.43562336469E+03  0.13742372503E+04  0.17775140709E+04  0.10100000352E+00 0.  1.
       -3    1    3    3    0  502 -0.10398367785E+04  0.43562336469E+03 -0.91424911181E+03  0.14515094524E+04  0.10100000352E+00 0. -1.
</event>
<event>
 5   0  0.5373060E-06  0.2898735E+04  0.7818609E-02  0.8273254E-01
       -2   -1    0    0    0  501  0.00000000000E+00  0.00000000000E+00  0.12470844254E+04  0.12470844254E+04  0.25500000920E-02 0.  1.
        2   -1    0    0  501    0  0.00000000000E+00  0.00000000000E+00 -0.16844620241E+04  0.16844620241E+04  0.25500000920E-02 0. -1.
    10030    2    1    2    0    0  0.00000000000E+00  0.00000000000E+00 -0.43737759868E+03  0.29315464495E+04  0.28987351417E+04 0.  0.
        5    1    3    3  502    0 -0.68326835015E+03  0.43924350921E+03 -0.14326315260E+04  0.16468896982E+04  0.46999998093E+01 0. -1.
       -5    1    3    3    0  502  0.68326835015E+03 -0.43924350921E+03  0.99525392734E+03  0.12846567513E+04  0.46999998093E+01 0.  1.
</event>
<event>
 5   0  0.5347280E-06  0.3229605E+04  0.7818609E-02  0.8181042E-01
        2   -1    0    0  501    0  0.00000000000E+00  0.00000000000E+00  0.17800412561E+04  0.17800412561E+04  0.25500000920E-02 0. -1.
       -2   -1    0    0    0  501  0.00000000000E+00  0.00000000000E+00 -0.14649029034E+04  0.14649029034E+04  0.25500000920E-02 0.  1.
    10030    2    1    2    0    0  0.00000000000E+00  0.00000000000E+00  0.31513835268E+03  0.32449441595E+04  0.32296053036E+04 0.  0.
        2    1    3    3  502    0 -0.10186765088E+03 -0.14009705902E+04  0.95790240855E+03  0.17001978229E+04  0.25500000920E-02 0. -1.
       -2    1    3    3    0  502  0.10186765088E+03  0.14009705902E+04 -0.64276405586E+03  0.15447463366E+04  0.25500000920E-02 0.  1.
</event>
<event>
 5   0  0.1886248E-06  0.3194141E+04  0.7818609E-02  0.8190366E-01
       -1   -1    0    0    0  501  0.00000000000E+00  0.00000000000E+00  0.24822694970E+04  0.24822694970E+04  0.50400001928E-02 0.  1.
        1   -1    0    0  501    0  0.00000000000E+00  0.00000000000E+00 -0.10275410068E+04  0.10275410069E+04  0.50400001928E-02 0. -1.
    10030    2    1    2    0    0  0.00000000000E+00  0.00000000000E+00  0.14547284902E+04  0.35098105039E+04  0.31941406971E+04 0.  0.
        4    1    3    3  502    0  0.11235409837E+04  0.11400305563E+03 -0.51352860570E+03  0.12405862648E+04  0.12699999809E+01 0. -1.
       -4    1    3    3    0  502 -0.11235409837E+04 -0.11400305563E+03  0.19682570959E+04  0.22692242391E+04  0.12699999809E+01 0.  1.
</event>
<event>
 5   0  0.5108810E-06  0.2916669E+04  0.7818609E-02  0.8267935E-01
       -2   -1    0    0    0  501  0.00000000000E+00  0.00000000000E+00  0.97086848637E+03  0.97086848638E+03  0.25500000920E-02 0. -1.
        2   -1    0    0  501    0  0.00000000000E+00  0.00000000000E+00 -0.21905542330E+04  0.21905542330E+04  0.25500000920E-02 0.  1.
    10030    2    1    2    0    0  0.00000000000E+00  0.00000000000E+00 -0.12196857466E+04  0.31614227193E+04  0.29166693830E+04 0.  0.
        1    1    3    3  502    0 -0.58653488964E+03 -0.11743352817E+03  0.83177524556E+03  0.10245310486E+04  0.50400001928E-02 0. -1.
       -1    1    3    3    0  502  0.58653488964E+03  0.11743352817E+03 -0.20514609922E+04  0.21368916708E+04  0.50400001928E-02 0.  1.
</event>
<event>
 5   0  0.1729500E-06  0.2313141E+04  0.7818609E-02  0.8472758E-01
        4   -1    0    0  501    0  0.00000000000E+00  0.00000000000E+00  0.14571127637E+04  0.14571133172E+04  0.12699999809E+01 0. -1.
       -4   -1    0    0    0  501  0.00000000000E+00  0.00000000000E+00 -0.91801627026E+03  0.91801714873E+03  0.12699999809E+01 0.  1.
    10030    2    1    2    0    0  0.00000000000E+00  0.00000000000E+00  0.53909649344E+03  0.23751304659E+04  0.23131406574E+04 0.  0.
        5    1    3    3  502    0 -0.45797064654E+03  0.42077486004E+03  0.12707926883E+04  0.14148232195E+04  0.46999998093E+01 0. -1.
       -5    1    3    3    0  502  0.45797064654E+03 -0.42077486004E+03 -0.73169619482E+03  0.96030724638E+03  0.46999998093E+01 0.  1.
</event>
<event>
 5   0  0.1977015E-06  0.3189217E+04  0.7818609E-02  0.8191671E-01
        1   -1    0    0  501    0  0.00000000000E+00  0.00000000000E+00  0.27747817117E+04  0.27747817117E+04  0.50400001928E-02 0.  1.
       -1   -1    0    0    0  501  0.00000000000E+00  0.00000000000E+00 -0.91638812485E+03  0.91638812486E+03  0.50400001928E-02 0. -1.
    10030    2    1    2    0    0  0.00000000000E+00  0.00000000000E+00  0.18583935869E+04  0.36911698366E+04  0.31892174650E+04 0.  0.
        1    1    3    3  502    0 -0.91959407774E+03 -0.53132138783E+03 -0.44747588362E+03  0.11524714102E+04  0.50400001928E-02 0. -1.
       -1    1    3    3    0  502  0.91959407774E+03  0.53132138783E+03  0.23058694705E+04  0.25386984264E+04  0.50400001928E-02 0.  1.
</event>
<event>
 5   0  0.1881144E-06  0.3285596E+04  0.7818609E-02  0.8166570E-01
        1   -1    0    0  501    0  0.00000000000E+00  0.00000000000E+00  0.21731083071E+04  0.21731083071E+04  0.50400001928E-02 0. -1.
       -1   -1    0    0    0  501  0.00000000000E+00  0.00000000000E+00 -0.12419012583E+04  0.12419012583E+04  0.50400001928E-02 0.  1.
    10030    2    1    2    0    0  0.00000000000E+00  0.00000000000E+00  0.93120704879E+03  0.34150095654E+04  0.32855964092E+04 0.  0.
        3    1    3    3  502    0  0.21266021386E+03 -0.51474412757E+03 -0.11407806892E+04  0.12694748814E+04  0.10100000352E+00 0.  1.
       -3    1    3    3    0  502 -0.21266021386E+03  0.51474412757E+03  0.20719877380E+04  0.21455346840E+04  0.10100000352E+00 0. -1.
</event>
<event>
 5   0  0.1969465E-06  0.3212656E+04  0.7818609E-02  0.8185483E-01
        1   -1    0    0  501    0  0.00000000000E+00  0.00000000000E+00  0.14930536034E+04  0.14930536034E+04  0.50400001928E-02 0.  1.
       -1   -1    0    0    0  501  0.00000000000E+00  0.00000000000E+00 -0.17281960149E+04  0.17281960149E+04  0.50400001928E-02 0. -1.
    10030    2    1    2    0    0  0.00000000000E+00  0.00000000000E+00 -0.23514241153E+03  0.32212496184E+04  0.32126557783E+04 0.  0.
        2    1    3    3  502    0 -0.89092253259E+03  0.97784913516E+03 -0.10312482514E+04  0.16773207345E+04  0.25500000920E-02 0.  1.
       -2    1    3    3    0  502  0.89092253259E+03 -0.97784913516E+03  0.79610583988E+03  0.15439288839E+04  0.25500000920E-02 0. -1.
</event>
<event>
 5   0  0.1881144E-06  0.1961393E+04  0.7818609E-02  0.8624887E-01
       -1   -1    0    0    0  501  0.00000000000E+00  0.00000000000E+00  0.68661598799E+03  0.68661598801E+03  0.50400001928E-02 0. -1.
        1   -1    0    0  501    0  0.00000000000E+00  0.00000000000E+00 -0.14007327045E+04  0.14007327045E+04  0.50400001928E-02 0.  1.
    10030    2    1    2    0    0  0.00000000000E+00  0.00000000000E+00 -0.71411671650E+03  0.20873486925E+04  0.19613928417E+04 0.  0.
        3    1    3    3  502    0 -0.48372936394E+03  0.51626098245E+03 -0.10798226797E+04  0.12909440458E+04  0.10100000352E+00 0.  1.
       -3    1    3    3    0  502  0.48372936394E+03 -0.51626098245E+03  0.36570596324E+03  0.79640464670E+03  0.10100000352E+00 0. -1.
</event>
<event>
 5   0  0.1977015E-06  0.2016924E+04  0.7818609E-02  0.8598749E-01
        1   -1    0    0  501    0  0.00000000000E+00  0.00000000000E+00  0.15213722807E+04  0.15213722807E+04  0.50400001928E-02 0.  1.
       -1   -1    0    0    0  501  0.00000000000E+00  0.00000000000E+00 -0.66847263368E+03  0.66847263370E+03  0.50400001928E-02 0. -1.
    10030    2    1    2    0    0  0.00000000000E+00  0.00000000000E+00  0.85289964705E+03  0.21898449144E+04  0.20169241288E+04 0.  0.
        1    1    3    3  502    0 -0.85870394829E+03 -0.15902900743E+03 -0.12110194760E+03  0.88166228101E+03  0.50400001928E-02 0. -1.
       -1    1    3    3    0  502  0.85870394829E+03  0.15902900743E+03  0.97400159465E+03  0.13081826334E+04  0.50400001928E-02 0.  1.
</event>
<event>
 5   0  0.1969465E-06  0.3176764E+04  0.7818609E-02  0.8194981E-01
       -1   -1    0    0    0  501  0.00000000000E+00  0.00000000000E+00  0.11711472389E+04  0.11711472389E+04  0.50400001928E-02 0. -1.
        1   -1    0    0  501    0  0.00000000000E+00  0.00000000000E+00 -0.21542619945E+04  0.21542619945E+04  0.50400001928E-02 0.  1.
    10030    2    1    2    0    0  0.00000000000E+00  0.00000000000E+00 -0.98311475563E+03  0.33254092334E+04  0.31767643833E+04 0.  0.
        2    1    3    3  502    0  0.92322456896E+03 -0.31163031726E+03 -0.18046446599E+04  0.20509020961E+04  0.25500000920E-02 0.  1.
       -2    1    3    3    0  502 -0.92322456896E+03  0.31163031726E+03  0.82152990428E+03  0.12745071373E+04  0.25500000920E-02 0. -1.
</event>
<event>
 5   0  0.5347280E-06  0.2341543E+04  0.7818609E-02  0.8461719E-01
       -2   -1    0    0    0  501  0.00000000000E+00  0.00000000000E+00  0.65222838974E+03  0.65222838975E+03  0.25500000920E-02 0. -1.
        2   -1    0    0  501    0  0.00000000000E+00  0.00000000000E+00 -0.21015726145E+04  0.21015726145E+04  0.25500000920E-02 0.  1.
    10030    2    1    2    0    0  0.00000000000E+00  0.00000000000E+00 -0.14493442247E+04  0.27538010042E+04  0.23415425021E+04 0.  0.
        2    1    3    3  502    0 -0.50712328434E+03  0.54041583269E+03  0.34125998806E+03  0.81589317757E+03  0.25500000920E-02 0. -1.
       -2    1    3    3    0  502  0.50712328434E+03 -0.54041583269E+03 -0.17906042128E+04  0.19379078267E+04  0.25500000920E-02 0.  1.
</event>
<event>
 5   0  0.1969465E-06  0.3229100E+04  0.7818609E-02  0.8181174E-01
        1   -1    0    0  501    0  0.00000000000E+00  0.00000000000E+00  0.14314409809E+04  0.14314409809E+04  0.50400001928E-02 0.  1.
       -1   -1    0    0    0  501  0.00000000000E+00  0.00000000000E+00 -0.18210819860E+04  0.18210819860E+04  0.50400001928E-02 0. -1.
    10030    2    1    2    0    0  0.00000000000E+00  0.00000000000E+00 -0.38964100514E+03  0.32525229669E+04  0.32290998029E+04 0.  0.
        2    1    3    3  502    0  0.49412790890E+03 -0.84402400543E+02  0.13510713075E+04  0.14410689898E+04  0.25500000920E-02 0.  1.
       -2    1    3    3    0  502 -0.49412790890E+03  0.84402400543E+02 -0.17407123126E+04  0.18114539770E+04  0.25500000920E-02 0. -1.
</event>
<event>
 5   0  0.1846850E-06  0.3028490E+04  0.7818609E-02  0.8235642E-01
        1   -1    0    0  501    0  0.00000000000E+00  0.00000000000E+00  0.21203122301E+04  0.21203122301E+04  0.50400001928E-02 0.  1.
       -1   -1    0    0    0  501  0.00000000000E+00  0.00000000000E+00 -0.10814149826E+04  0.10814149827E+04  0.50400001928E-02 0. -1.
    10030    2    1    2    0    0  0.00000000000E+00  0.00000000000E+00  0.10388972475E+04  0.32017272128E+04  0.30284896655E+04 0.  0.
        5    1    3    3  502    0 -0.80426757999E+03  0.10804350112E+04  0.12509298370E+04  0.18382148136E+04  0.46999998093E+01 0.  1.
       -5    1    3    3    0  502  0.80426757999E+03 -0.10804350112E+04 -0.21203258957E+03  0.13635123992E+04  0.46999998093E+01 0. -1.
</event>
<event>
 5   0  0.1729500E-06  0.3222144E+04  0.7818609E-02  0.8182993E-01
        3   -1    0    0  501    0  0.00000000000E+00  0.00000000000E+00  0.14865321713E+04  0.14865321748E+04  0.10100000352E+00 0. -1.
       -3   -1    0    0    0  501  0.00000000000E+00  0.00000000000E+00 -0.17460452912E+04  0.17460452941E+04  0.10100000352E+00 0.  1.
    10030    2    1    2    0    0  0.00000000000E+00  0.00000000000E+00 -0.25951311986E+03  0.32325774689E+04  0.32221437015E+04 0.  0.
        5    1    3    3  502    0  0.11585748843E+04 -0.11194774347E+04 -0.13198384665E+03  0.16164675423E+04  0.46999998093E+01 0.  1.
       -5    1    3    3    0  502 -0.11585748843E+04  0.11194774347E+04 -0.12752927321E+03  0.16161099266E+04  0.46999998093E+01 0. -1.
</event>
<event>
 5   0  0.5131083E-06  0.3784116E+04  0.7818609E-02  0.8049572E-01
       -2   -1    0    0    0  501  0.00000000000E+00  0.00000000000E+00  0.19069924015E+04  0.19069924015E+04  0.25500000920E-02 0. -1.
        2   -1    0    0  501    0  0.00000000000E+00  0.00000000000E+00 -0.18772404015E+04  0.18772404015E+04  0.25500000920E-02 0.  1.
    10030    2    1    2    0    0  0.00000000000E+00  0.00000000000E+00  0.29751999984E+02  0.37842328030E+04  0.37841158446E+04 0.  0.
        3    1    3    3  502    0 -0.56749139268E+03  0.66320966988E+03 -0.16638627593E+04  0.18789179969E+04  0.10100000352E+00 0.  1.
       -3    1    3    3    0  502  0.56749139268E+03 -0.66320966988E+03  0.16936147593E+04  0.19053148061E+04  0.10100000352E+00 0. -1.
</event>
<event>
 5   0  0.5131083E-06  0.3216929E+04  0.7818609E-02  0.8184361E-01
       -2   -1    0    0    0  501  0.00000000000E+00  0.00000000000E+00  0.16570831614E+04  0.16570831614E+04  0.25500000920E-02 0. -1.
        2   -1    0    0  501    0  0.00000000000E+00  0.00000000000E+00 -0.15612721784E+04  0.15612721784E+04  0.25500000920E-02 0.  1.
    10030    2    1    2    0    0  0.00000000000E+00  0.00000000000E+00  0.95810983027E+02  0.32183553399E+04  0.32169288692E+04 0.  0.
        3    1    3    3  502    0 -0.12865902113E+04 -0.89127011370E+03 -0.32304328153E+03  0.15981344622E+04  0.10100000352E+00 0. -1.
       -3    1    3    3    0  502  0.12865902113E+04  0.89127011370E+03  0.41885426455E+03  0.16202208777E+04  0.10100000352E+00 0.  1.
</event>
<event>
 5   0  0.5121624E-06  0.3179203E+04  0.7818609E-02  0.8194331E-01
        2   -1    0    0  501    0  0.00000000000E+00  0.00000000000E+00  0.29325373191E+04  0.29325373191E+04  0.25500000920E-02 0.  1.
       -2   -1    0    0    0  501  0.00000000000E+00  0.00000000000E+00 -0.86165407665E+03  0.86165407666E+03  0.25500000920E-02 0. -1.
    10030    2    1    2    0    0  0.00000000000E+00  0.00000000000E+00  0.20708832425E+04  0.37941913958E+04  0.31792028787E+04 0.  0.
        4    1    3    3  502    0 -0.15194474611E+04  0.21774811550E+03  0.15285166836E+04  0.21662178316E+04  0.12699999809E+01 0. -1.
       -4    1    3    3    0  502  0.15194474611E+04 -0.21774811550E+03  0.54236655885E+03  0.16279735642E+04  0.12699999809E+01 0.  1.
</event>
<event>
 5   0  0.5131083E-06  0.3191239E+04  0.7818609E-02  0.8191135E-01
        2   -1    0    0  501    0  0.00000000000E+00  0.00000000000E+00  0.17180276680E+04  0.17180276680E+04  0.25500000920E-02 0.  1.
       -2   -1    0    0    0  501  0.00000000000E+00  0.00000000000E+00 -0.14819324282E+04  0.14819324282E+04  0.25500000920E-02 0. -1.
    10030    2    1    2    0    0  0.00000000000E+00  0.00000000000E+00  0.23609523974E+03  0.31999600962E+04  0.31912385770E+04 0.  0.
        3    1    3    3  502    0 -0.18853158295E+02 -0.86521814093E+03  0.14622495902E+04  0.16991561868E+04  0.10100000352E+00 0.  1.
       -3    1    3    3    0  502  0.18853158295E+02  0.86521814093E+03 -0.12261543505E+04  0.15008039094E+04  0.10100000352E+00 0. -1.
</event>
<event>
 5   0  0.5108810E-06  0.3238642E+04  0.7818609E-02  0.8178686E-01
       -2   -1    0    0    0  501  0.00000000000E+00  0.00000000000E+00  0.13365023499E+04  0.13365023499E+04  0.25500000920E-02 0. -1.
        2   -1    0    0  501    0  0.00000000000E+00  0.00000000000E+00 -0.19619876994E+04  0.19619876994E+04  0.25500000920E-02 0.  1.
    10030    2    1    2    0    0  0.00000000000E+00  0.00000000000E+00 -0.62548534947E+03  0.32984900493E+04  0.32386424136E+04 0.  0.
        1    1    3    3  502    0 -0.11957468692E+04  0.32780837713E+03  0.74810612975E+03  0.14480786196E+04  0.50400001928E-02 0. -1.
       -1    1    3    3    0  502  0.11957468692E+04 -0.32780837713E+03 -0.13735914792E+04  0.18504114297E+04  0.50400001928E-02 0.  1.
</event>
<event>
 5   0  0.5131083E-06  0.3049887E+04  0.7818609E-02  0.8229627E-01
       -2   -1    0    0    0  501  0.00000000000E+00  0.00000000000E+00  0.13319378816E+04  0.13319378816E+04  0.25500000920E-02 0. -1.
        2   -1    0    0  501    0  0.00000000000E+00  0.00000000000E+00 -0.17459164602E+04  0.17459164602E+04  0.25500000920E-02 0.  1.
    10030    2    1    2    0    0  0.00000000000E+00  0.00000000000E+00 -0.41397857855E+03  0.30778543418E+04  0.30498867333E+04 0.  0.
        3    1    3    3  502    0 -0.77808586908E+03 -0.20569799634E+03  0.11001578549E+04  0.13631128351E+04  0.10100000352E+00 0. -1.
       -3    1    3    3    0  502  0.77808586908E+03  0.20569799634E+03 -0.15141364335E+04  0.17147415067E+04  0.10100000352E+00 0.  1.
</event>
<event>
 5   0  0.5373060E-06  0.3142713E+04  0.7818609E-02  0.8204113E-01
       -2   -1    0    0    0  501  0.00000000000E+00  0.00000000000E+00  0.13099779855E+04  0.13099779855E+04  0.25500000920E-02 0. -1.
        2   -1    0    0  501    0  0.00000000000E+00  0.00000000000E+00 -0.18848871438E+04  0.18848871438E+04  0.25500000920E-02 0.  1.
    10030    2    1    2    0    0  0.00000000000E+00  0.00000000000E+00 -0.57490915832E+03  0.31948651294E+04  0.31427126268E+04 0.  0.
        5    1    3    3  502    0 -0.31595473661E+03 -0.13007658140E+04 -0.11241061684E+04  0.17479862317E+04  0.46999998093E+01 0.  1.
       -5    1    3    3    0  502  0.31595473661E+03  0.13007658140E+04  0.54919701005E+03  0.14468788976E+04  0.46999998093E+01 0. -1.
</event>
<event>
 5   0  0.1881144E-06  0.3106973E+04  0.7818609E-02  0.8213827E-01
        1   -1    0    0  501    0  0.00000000000E+00  0.00000000000E+00  0.11322405182E+04  0.11322405182E+04  0.50400001928E-02 0. -1.
       -1   -1    0    0    0  501  0.00000000000E+00  0.00000000000E+00 -0.21314553808E+04  0.21314553808E+04  0.50400001928E-02 0.  1.
    10030    2    1    2    0    0  0.00000000000E+00  0.00000000000E+00 -0.99921486256E+03  0.32636958990E+04  0.31069728965E+04 0.  0.
        3    1    3    3  502    0  0.10486148235E+04 -0.38809450781E+03 -0.16324839293E+04  0.19786900173E+04  0.10100000352E+00 0.  1.
       -3    1    3    3    0  502 -0.10486148235E+04  0.38809450781E+03  0.63326906671E+03  0.12850058817E+04  0.10100000352E+00 0. -1.
</event>
<event>
 5   0  0.1977015E-06  0.3192600E+04  0.7818609E-02  0.8190774E-01
        1   -1    0    0  501    0  0.00000000000E+00  0.00000000000E+00  0.25141105720E+04  0.25141105720E+04  0.50400001928E-02 0.  1.
       -1   -1    0    0    0  501  0.00000000000E+00  0.00000000000E+00 -0.10135489760E+04  0.10135489760E+04  0.50400001928E-02 0. -1.
    10030    2    1    2    0    0  0.00000000000E+00  0.00000000000E+00  0.15005615960E+04  0.35276595480E+04  0.31926003169E+04 0.  0.
        1    1    3    3  502    0 -0.15588680734E+04  0.33395543739E+03  0.66066209230E+03  0.17257086384E+04  0.50400001928E-02 0.  1.
       -1    1    3    3    0  502  0.15588680734E+04 -0.33395543739E+03  0.83989950366E+03  0.18019509096E+04  0.50400001928E-02 0. -1.
</event>
<event>
 5   0  0.1881144E-06  0.2386182E+04  0.7818609E-02  0.8444695E-01
       -1   -1    0    0    0  501  0.00000000000E+00  0.00000000000E+00  0.15061129735E+04  0.15061129735E+04  0.50400001928E-02 0.  1.
        1   -1    0    0  501    0  0.00000000000E+00  0.00000000000E+00 -0.94512595059E+03  0.94512595061E+03  0.50400001928E-02 0. -1.
    10030    2    1    2    0    0  0.00000000000E+00  0.00000000000E+00  0.56098702294E+03  0.24512389241E+04  0.23861822695E+04 0.  0.
        3    1    3    3  502    0  0.92608344994E+03  0.55823826353E+03  0.79842804537E+03  0.13441532163E+04  0.10100000352E+00 0.  1.
       -3    1    3    3    0  502 -0.92608344994E+03 -0.55823826353E+03 -0.23744102244E+03  0.11070857078E+04  0.10100000352E+00 0. -1.
</event>
<event>
 5   0  0.1977015E-06  0.3312459E+04  0.7818609E-02  0.8159732E-01
       -1   -1    0    0    0  501  0.00000000000E+00  0.00000000000E+00  0.17184761336E+04  0.17184761336E+04  0.50400001928E-02 0.  1.
        1   -1    0    0  501    0  0.00000000000E+00  0.00000000000E+00 -0.15962375516E+04  0.15962375516E+04  0.50400001928E-02 0. -1.
    10030    2    1    2    0    0  0.00000000000E+00  0.00000000000E+00  0.12223858192E+03  0.33147136852E+04  0.33124589875E+04 0.  0.
        1    1    3    3  502    0  0.21171113817E+03  0.14985040636E+04  0.73445180406E+03  0.16821877087E+04  0.50400001928E-02 0.  1.
       -1    1    3    3    0  502 -0.21171113817E+03 -0.14985040636E+04 -0.61221322213E+03  0.16325259765E+04  0.50400001928E-02 0. -1.
</event>
<event>
 5   0  0.1886248E-06  0.1998498E+04  0.7818609E-02  0.8607323E-01
        1   -1    0    0  501    0  0.00000000000E+00  0.00000000000E+00  0.81515149139E+03  0.81515149141E+03  0.50400001928E-02 0.  1.
       -1   -1    0    0    0  501  0.00000000000E+00  0.00000000000E+00 -0.12249234461E+04  0.12249234461E+04  0.50400001928E-02 0. -1.
    10030    2    1    2    0    0  0.00000000000E+00  0.00000000000E+00 -0.40977195470E+03  0.20400749375E+04  0.19984976097E+04 0.  0.
        4    1    3    3  502    0 -0.36631494304E+03  0.32681393378E+02 -0.11533235073E+04  0.12105417946E+04  0.12699999809E+01 0. -1.
       -4    1    3    3    0  502  0.36631494304E+03 -0.32681393378E+02  0.74355155261E+03  0.82953314295E+03  0.12699999809E+01 0.  1.
</event>
<event>
 5   0  0.5121624E-06  0.3177237E+04  0.7818609E-02  0.8194855E-01
        2   -1    0    0  501    0  0.00000000000E+00  0.00000000000E+00  0.23463940189E+04  0.23463940189E+04  0.25500000920E-02 0.  1.
       -2   -1    0    0    0  501  0.00000000000E+00  0.00000000000E+00 -0.10755687260E+04  0.10755687260E+04  0.25500000920E-02 0. -1.
    10030    2    1    2    0    0  0.00000000000E+00  0.00000000000E+00  0.12708252929E+04  0.34219627449E+04  0.31772365512E+04 0.  0.
        4    1    3    3  502    0  0.96287027942E+03 -0.70824706250E+03 -0.49159665103E+03  0.12924403107E+04  0.12699999809E+01 0. -1.
       -4    1    3    3    0  502 -0.96287027942E+03  0.70824706250E+03  0.17624219439E+04  0.21295224342E+04  0.12699999809E+01 0.  1.
</event>
<event>
 5   0  0.5131083E-06  0.3169242E+04  0.7818609E-02  0.8196988E-01
        2   -1    0    0  501    0  0.00000000000E+00  0.00000000000E+00  0.26042809147E+04  0.26042809147E+04  0.25500000920E-02 0.  1.
       -2   -1    0    0    0  501  0.00000000000E+00  0.00000000000E+00 -0.96419096498E+03  0.96419096498E+03  0.25500000920E-02 0. -1.
    10030    2    1    2    0    0  0.00000000000E+00  0.00000000000E+00  0.16400899497E+04  0.35684718797E+04  0.31692422616E+04 0.  0.
        3    1    3    3  502    0  0.10978900796E+04 -0.22164247001E+03 -0.44211477508E+03  0.12041401480E+04  0.10100000352E+00 0. -1.
       -3    1    3    3    0  502 -0.10978900796E+04  0.22164247001E+03  0.20822047248E+04  0.23643317317E+04  0.10100000352E+00 0.  1.
</event>
<event>
 5   0  0.1977015E-06  0.3683284E+04  0.7818609E-02  0.8071676E-01
        1   -1    0    0  501    0  0.00000000000E+00  0.00000000000E+00  0.17583947051E+04  0.17583947051E+04  0.50400001928E-02 0. -1.
       -1   -1    0    0    0  501  0.00000000000E+00  0.00000000000E+00 -0.19288302569E+04  0.19288302569E+04  0.50400001928E-02 0.  1.
    10030    2    1    2    0    0  0.00000000000E+00  0.00000000000E+00 -0.17043555174E+03  0.36872249620E+04  0.36832838124E+04 0.  0.
        1    1    3    3  502    0  0.73804992812E+03  0.15349450347E+04  0.61615373060E+03  0.18111928047E+04  0.50400001928E-02 0.  1.
       -1    1    3    3    0  502 -0.73804992812E+03 -0.15349450347E+04 -0.78658928233E+03  0.18760321573E+04  0.50400001928E-02 0. -1.
</event>
<event>
 5   0  0.5131083E-06  0.2075814E+04  0.7818609E-02  0.8571973E-01
        2   -1    0    0  501    0  0.00000000000E+00  0.00000000000E+00  0.27051762458E+04  0.27051762458E+04  0.25500000920E-02 0. -1.
       -2   -1    0    0    0  501  0.00000000000E+00  0.00000000000E+00 -0.39821855769E+03  0.39821855770E+03  0.25500000920E-02 0.  1.
    10030    2    1    2    0    0  0.00000000000E+00  0.00000000000E+00  0.23069576881E+04  0.31033948035E+04  0.20758144261E+04 0.  0.
        3    1    3    3  502    0 -0.56636331283E+03 -0.68125821322E+03  0.34509837729E+03  0.95077497622E+03  0.10100000352E+00 0.  1.
       -3    1    3    3    0  502  0.56636331283E+03  0.68125821322E+03  0.19618593109E+04  0.21526198273E+04  0.10100000352E+00 0. -1.
</event>
<event>
 5   0  0.5108810E-06  0.3029811E+04  0.7818609E-02  0.8235269E-01
       -2   -1    0    0    0  501  0.00000000000E+00  0.00000000000E+00  0.13500285679E+04  0.13500285679E+04  0.25500000920E-02 0.  1.
        2   -1    0    0  501    0  0.00000000000E+00  0.00000000000E+00 -0.16999188177E+04  0.16999188177E+04  0.25500000920E-02 0. -1.
    10030    2    1    2    0    0  0.00000000000E+00  0.00000000000E+00 -0.34989024982E+03  0.30499473855E+04  0.30298111934E+04 0.  0.
        1    1    3    3  502    0 -0.13832990729E+04 -0.60670416627E+03 -0.58710431054E+02  0.15116392378E+04  0.50400001928E-02 0.  1.
       -1    1    3    3    0  502  0.13832990729E+04  0.60670416627E+03 -0.29117981877E+03  0.15383081477E+04  0.50400001928E-02 0. -1.
</event>
<event>
 5   0  0.5347280E-06  0.3210536E+04  0.7818609E-02  0.8186040E-01
        2   -1    0    0  501    0  0.00000000000E+00  0.00000000000E+00  0.23872416332E+04  0.23872416332E+04  0.25500000920E-02 0. -1.
       -2   -1    0    0    0  501  0.00000000000E+00  0.00000000000E+00 -0.10794402957E+04  0.10794402957E+04  0.25500000920E-02 0.  1.
    10030    2    1    2    0    0  0.00000000000E+00  0.00000000000E+00  0.13078013376E+04  0.34666819289E+04  0.32105356652E+04 0.  0.
        2    1    3    3  502    0 -0.83295652888E+03 -0.11825379000E+04 -0.97827146546E+02  0.14497526046E+04  0.25500000920E-02 0.  1.
       -2    1    3    3    0  502  0.83295652888E+03  0.11825379000E+04  0.14056284841E+04  0.20169293243E+04  0.25500000920E-02 0. -1.
</event>
<event>
 5   0  0.1969465E-06  0.3389353E+04  0.7818609E-02  0.8140524E-01
        1   -1    0    0  501    0  0.00000000000E+00  0.00000000000E+00  0.18394369409E+04  0.18394369409E+04  0.50400001928E-02 0.  1.
       -1   -1    0    0    0  501  0.00000000000E+00  0.00000000000E+00 -0.15613081772E+04  0.15613081772E+04  0.50400001928E-02 0. -1.
    10030    2    1    2    0    0  0.00000000000E+00  0.00000000000E+00  0.27812876369E+03  0.34007451182E+04  0.33893527036E+04 0.  0.
        2    1    3    3  502    0  0.87283417545E+03  0.61761347933E+03  0.14582619818E+04  0.18082626787E+04  0.25500000920E-02 0.  1.
       -2    1    3    3    0  502 -0.87283417545E+03 -0.61761347933E+03 -0.11801332181E+04  0.15924824395E+04  0.25500000920E-02 0. -1.
</event>
<event>
 5   0  0.1886248E-06  0.3217395E+04  0.7818609E-02  0.8184238E-01
       -1   -1    0    0    0  501  0.00000000000E+00  0.00000000000E+00  0.24423938552E+04  0.24423938552E+04  0.50400001928E-02 0. -1.
        1   -1    0    0  501    0  0.00000000000E+00  0.00000000000E+00 -0.10595780321E+04  0.10595780321E+04  0.50400001928E-02 0.  1.
    10030    2    1    2    0    0  0.00000000000E+00  0.00000000000E+00  0.13828158231E+04  0.35019718872E+04  0.32173945202E+04 0.  0.
        4    1    3    3  502    0 -0.11614169276E+04  0.34286584121E+03  0.18440647662E+04  0.22061329832E+04  0.12699999809E+01 0. -1.
       -4    1    3    3    0  502  0.11614169276E+04 -0.34286584121E+03 -0.46124894308E+03  0.12958389040E+04  0.12699999809E+01 0.  1.
</event>
<event>
 5   0  0.5373060E-06  0.3233315E+04  0.7818609E-02  0.8180074E-01
        2   -1    0    0  501    0  0.00000000000E+00  0.00000000000E+00  0.19729706758E+04  0.19729706758E+04  0.25500000920E-02 0. -1.
       -2   -1    0    0    0  501  0.00000000000E+00  0.00000000000E+00 -0.13246938320E+04  0.13246938320E+04  0.25500000920E-02 0.  1.
    10030    2    1    2    0    0  0.00000000000E+00  0.00000000000E+00  0.64827684377E+03  0.32976645078E+04  0.32333153789E+04 0.  0.
        5    1    3    3  502    0  0.14884822301E+04 -0.42933821004E+03 -0.14728286284E+03  0.15561571192E+04  0.46999998093E+01 0.  1.
       -5    1    3    3    0  502 -0.14884822301E+04  0.42933821004E+03  0.79555970661E+03  0.17415073886E+04  0.46999998093E+01 0. -1.
</event>
<event>
 5   0  0.5373060E-06  0.3011218E+04  0.7818609E-02  0.8240535E-01
        2   -1    0    0  501    0  0.00000000000E+00  0.00000000000E+00  0.16827110211E+04  0.16827110211E+04  0.25500000920E-02 0. -1.
       -2   -1    0    0    0  501  0.00000000000E+00  0.00000000000E+00 -0.13471467565E+04  0.13471467565E+04  0.25500000920E-02 0.  1.
    10030    2    1    2    0    0  0.00000000000E+00  0.00000000000E+00  0.33556426465E+03  0.30298577776E+04  0.30112181549E+04 0.  0.
        5    1    3    3  502    0 -0.13651352489E+03  0.18510128341E+03 -0.13293590869E+04  0.13491167850E+04  0.46999998093E+01 0.  1.
       -5    1    3    3    0  502  0.13651352489E+03 -0.18510128341E+03  0.16649233516E+04  0.16807409926E+04  0.46999998093E+01 0. -1.
</event>
<event>
 5   0  0.1846850E-06  0.2650969E+04  0.7818609E-02  0.8351092E-01
        1   -1    0    0  501    0  0.00000000000E+00  0.00000000000E+00  0.22358302048E+04  0.22358302048E+04  0.50400001928E-02 0. -1.
       -1   -1    0    0    0  501  0.00000000000E+00  0.00000000000E+00 -0.78579694180E+03  0.78579694182E+03  0.50400001928E-02 0.  1.
    10030    2    1    2    0    0  0.00000000000E+00  0.00000000000E+00  0.14500332630E+04  0.30216271466E+04  0.26509685304E+04 0.  0.
        5    1    3    3  502    0 -0.11120573872E+03 -0.50989899185E+03  0.21137847242E+04  0.21772624206E+04  0.46999998093E+01 0. -1.
       -5    1    3    3    0  502  0.11120573872E+03  0.50989899185E+03 -0.66375146120E+03  0.84436472596E+03  0.46999998093E+01 0.  1.
</event>
<event>
 5   0  0.1886248E-06  0.2754816E+04  0.7818609E-02  0.8317435E-01
        1   -1    0    0  501    0  0.00000000000E+00  0.00000000000E+00  0.16775175625E+04  0.16775175625E+04  0.50400001928E-02 0.  1.
       -1   -1    0    0    0  501  0.00000000000E+00  0.00000000000E+00 -0.11309884064E+04  0.11309884064E+04  0.50400001928E-02 0. -1.
    10030    2    1    2    0    0  0.00000000000E+00  0.00000000000E+00  0.54652915615E+03  0.28085059689E+04  0.27548160844E+04 0.  0.
        4    1    3    3  502    0 -0.17330767607E+03  0.50276782503E+03  0.15686342700E+04  0.16563291105E+04  0.12699999809E+01 0.  1.
       -4    1    3    3    0  502  0.17330767607E+03 -0.50276782503E+03 -0.10221051138E+04  0.11521768584E+04  0.12699999809E+01 0. -1.
</event>
<event>
 5   0  0.1881144E-06  0.2982851E+04  0.7818609E-02  0.8248645E-01
       -1   -1    0    0    0  501  0.00000000000E+00  0.00000000000E+00  0.11707864120E+04  0.11707864120E+04  0.50400001928E-02 0.  1.
        1   -1    0    0  501    0  0.00000000000E+00  0.00000000000E+00 -0.18998768312E+04  0.18998768312E+04  0.50400001928E-02 0. -1.
    10030    2    1    2    0    0  0.00000000000E+00  0.00000000000E+00 -0.72909041918E+03  0.30706632432E+04  0.29828509708E+04 0.  0.
        3    1    3    3  502    0 -0.12025584707E+03  0.87649808123E+03  0.87148472378E+03  0.12418518386E+04  0.10100000352E+00 0.  1.
       -3    1    3    3    0  502  0.12025584707E+03 -0.87649808123E+03 -0.16005751430E+04  0.18288114046E+04  0.10100000352E+00 0. -1.
</event>
<event>
 5   0  0.1846850E-06  0.2332361E+04  0.7818609E-02  0.8465270E-01
       -1   -1    0    0    0  501  0.00000000000E+00  0.00000000000E+00  0.63200134933E+03  0.63200134935E+03  0.50400001928E-02 0.  1.
        1   -1    0    0  501    0  0.00000000000E+00  0.00000000000E+00 -0.21518573585E+04  0.21518573585E+04  0.50400001928E-02 0. -1.
    10030    2    1    2    0    0  0.00000000000E+00  0.00000000000E+00 -0.15198560092E+04  0.27838587079E+04  0.23323608247E+04 0.  0.
        5    1    3    3  502    0 -0.44278096076E+03 -0.81967395638E+02 -0.20438898078E+04  0.20929121505E+04  0.46999998093E+01 0. -1.
       -5    1    3    3    0  502  0.44278096076E+03  0.81967395638E+02  0.52403379859E+03  0.69094655742E+03  0.46999998093E+01 0.  1.
</event>
<event>
 5   0  0.1977015E-06  0.3194684E+04  0.7818609E-02  0.8190222E-01
       -1   -1    0    0    0  501  0.00000000000E+00  0.00000000000E+00  0.10557789860E+04  0.10557789860E+04  0.50400001928E-02 0. -1.
        1   -1    0    0  501    0  0.00000000000E+00  0.00000000000E+00 -0.24167009667E+04  0.24167009667E+04  0.50400001928E-02 0.  1.
    10030    2    1    2    0    0  0.00000000000E+00  0.00000000000E+00 -0.13609219807E+04  0.34724799527E+04  0.31946843951E+04 0.  0.
        1    1    3    3  502    0 -0.39161003400E+03 -0.57115448932E+03 -0.22450451560E+04  0.23494262325E+04  0.50400001928E-02 0.  1.
       -1    1    3    3    0  502  0.39161003400E+03  0.57115448932E+03  0.88412317530E+03  0.11230537202E+04  0.50400001928E-02 0. -1.
</event>
<event>
 5   0  0.5108810E-06  0.3173457E+04  0.7818609E-02  0.8195862E-01
        2   -1    0    0  501    0  0.00000000000E+00  0.00000000000E+00  0.19078512287E+04  0.19078512287E+04  0.25500000920E-02 0.  1.
       -2   -1    0    0    0  501  0.00000000000E+00  0.00000000000E+00 -0.13196564093E+04  0.13196564093E+04  0.25500000920E-02 0. -1.
    10030    2    1    2    0    0  0.00000000000E+00  0.00000000000E+00  0.58819481944E+03  0.32275076380E+04  0.31734574847E+04 0.  0.
        1    1    3    3  502    0 -0.34866500353E+03  0.35131872814E+03  0.18273269427E+04  0.18931761378E+04  0.50400001928E-02 0.  1.
       -1    1    3    3    0  502  0.34866500353E+03 -0.35131872814E+03 -0.12391321232E+04  0.13343315001E+04  0.50400001928E-02 0. -1.
</event>
<event>
 5   0  0.1977015E-06  0.2975098E+04  0.7818609E-02  0.8250878E-01
       -1   -1    0    0    0  501  0.00000000000E+00  0.00000000000E+00  0.93618220918E+03  0.93618220919E+03  0.50400001928E-02 0. -1.
        1   -1    0    0  501    0  0.00000000000E+00  0.00000000000E+00 -0.23636445287E+04  0.23636445287E+04  0.50400001928E-02 0.  1.
    10030    2    1    2    0    0  0.00000000000E+00  0.00000000000E+00 -0.14274623195E+04  0.32998267379E+04  0.29750979524E+04 0.  0.
        1    1    3    3  502    0 -0.14854084278E+04 -0.20955524355E+02 -0.79910411366E+03  0.16868446034E+04  0.50400001928E-02 0. -1.
       -1    1    3    3    0  502  0.14854084278E+04  0.20955524355E+02 -0.62835820586E+03  0.16129821345E+04  0.50400001928E-02 0.  1.
</event>
<event>
 5   0  0.5121624E-06  0.2157720E+04  0.7818609E-02  0.8536235E-01
        2   -1    0    0  501    0  0.00000000000E+00  0.00000000000E+00  0.94100700062E+03  0.94100700062E+03  0.25500000920E-02 0. -1.
       -2   -1    0    0    0  501  0.00000000000E+00  0.00000000000E+00 -0.12369078005E+04  0.12369078005E+04  0.25500000920E-02 0.  1.
    10030    2    1    2    0    0  0.00000000000E+00  0.00000000000E+00 -0.29590079993E+03  0.21779148012E+04  0.21577199998E+04 0.  0.
        4    1    3    3  502    0  0.39291528479E+03 -0.28230014600E+03  0.82536799436E+03  0.95671820954E+03  0.12699999809E+01 0. -1.
       -4    1    3    3    0  502 -0.39291528479E+03  0.28230014600E+03 -0.11212687943E+04  0.12211965916E+04  0.12699999809E+01 0.  1.
</event>
<event>
 5   0  0.5373060E-06  0.3243862E+04  0.7818609E-02  0.8177328E-01
        2   -1    0    0  501    0  0.00000000000E+00  0.00000000000E+00  0.14295405370E+04  0.14295405370E+04  0.25500000920E-02 0.  1.
       -2   -1    0    0    0  501  0.00000000000E+00  0.00000000000E+00 -0.18402141461E+04  0.18402141461E+04  0.25500000920E-02 0. -1.
    10030    2    1    2    0    0  0.00000000000E+00  0.00000000000E+00 -0.41067360915E+03  0.32697546831E+04  0.32438623390E+04 0.  0.
        5    1    3    3  502    0 -0.69723592161E+02 -0.15706810471E+04  0.19626311220E+03  0.15844373229E+04  0.46999998093E+01 0.  1.
       -5    1    3    3    0  502  0.69723592161E+02  0.15706810471E+04 -0.60693672136E+03  0.16853173602E+04  0.46999998093E+01 0. -1.
</event>
<event>
 5   0  0.1969465E-06  0.3212808E+04  0.7818609E-02  0.8185443E-01
       -1   -1    0    0    0  501  0.00000000000E+00  0.00000000000E+00  0.10149045837E+04  0.10149045837E+04  0.50400001928E-02 0. -1.
        1   -1    0    0  501    0  0.00000000000E+00  0.00000000000E+00 -0.25426361773E+04  0.25426361773E+04  0.50400001928E-02 0.  1.
    10030    2    1    2    0    0  0.00000000000E+00  0.00000000000E+00 -0.15277315935E+04  0.35575407610E+04  0.32128075641E+04 0.  0.
        2    1    3    3  502    0 -0.14205690967E+04  0.20174309973E+03  0.36012624902E+02  0.14352747980E+04  0.25500000920E-02 0. -1.
       -2    1    3    3    0  502  0.14205690967E+04 -0.20174309973E+03 -0.15637442184E+04  0.21222659629E+04  0.25500000920E-02 0.  1.
</event>
<event>
 5   0  0.1977015E-06  0.3137593E+04  0.7818609E-02  0.8205496E-01
        1   -1    0    0  501    0  0.00000000000E+00  0.00000000000E+00  0.12600005529E+04  0.12600005529E+04  0.50400001928E-02 0.  1.
       -1   -1    0    0    0  501  0.00000000000E+00  0.00000000000E+00 -0.19532714526E+04  0.19532714526E+04  0.50400001928E-02 0. -1.
    10030    2    1    2    0    0  0.00000000000E+00  0.00000000000E+00 -0.69327089969E+03  0.32132720055E+04  0.31375934155E+04 0.  0.
        1    1    3    3  502    0 -0.83894314445E+03  0.11315900190E+04  0.36052774628E+03  0.14540639005E+04  0.50400001928E-02 0.  1.
       -1    1    3    3    0  502  0.83894314445E+03 -0.11315900190E+04 -0.10537986460E+04  0.17592081051E+04  0.50400001928E-02 0. -1.
</event>
<event>
 5   0  0.5347280E-06  0.3139849E+04  0.7818609E-02  0.8204886E-01
        2   -1    0    0  501    0  0.00000000000E+00  0.00000000000E+00  0.18841762452E+04  0.18841762452E+04  0.25500000920E-02 0. -1.
       -2   -1    0    0    0  501  0.00000000000E+00  0.00000000000E+00 -0.13080847300E+04  0.13080847300E+04  0.25500000920E-02 0.  1.
    10030    2    1    2    0    0  0.00000000000E+00  0.00000000000E+00  0.57609151517E+03  0.31922609752E+04  0.31398485155E+04 0.  0.
        2    1    3    3  502    0 -0.34935134035E+03  0.64647498921E+03  0.16985345055E+04  0.18506744006E+04  0.25500000920E-02 0. -1.
       -2    1    3    3    0  502  0.34935134035E+03 -0.64647498921E+03 -0.11224429903E+04  0.13415865746E+04  0.25500000920E-02 0.  1.
</event>
<event>
 5   0  0.1881144E-06  0.3179544E+04  0.7818609E-02  0.8194241E-01
       -1   -1    0    0    0  501  0.00000000000E+00  0.00000000000E+00  0.10522501928E+04  0.10522501928E+04  0.50400001928E-02 0.  1.
        1   -1    0    0  501    0  0.00000000000E+00  0.00000000000E+00 -0.24018759885E+04  0.24018759885E+04  0.50400001928E-02 0. -1.
    10030    2    1    2    0    0  0.00000000000E+00  0.00000000000E+00 -0.13496257957E+04  0.34541261813E+04  0.31795436603E+04 0.  0.
        3    1    3    3  502    0  0.50683693341E+03  0.74082369929E+03  0.75062562544E+03  0.11701035297E+04  0.10100000352E+00 0.  1.
       -3    1    3    3    0  502 -0.50683693341E+03 -0.74082369929E+03 -0.21002514212E+04  0.22840226516E+04  0.10100000352E+00 0. -1.
</event>
<event>
 5   0  0.1881144E-06  0.3411180E+04  0.7818609E-02  0.8135168E-01
        1   -1    0    0  501    0  0.00000000000E+00  0.00000000000E+00  0.20522554556E+04  0.20522554556E+04  0.50400001928E-02 0. -1.
       -1   -1    0    0    0  501  0.00000000000E+00  0.00000000000E+00 -0.14174828784E+04  0.14174828784E+04  0.50400001928E-02 0.  1.
    10030    2    1    2    0    0  0.00000000000E+00  0.00000000000E+00  0.63477257726E+03  0.34697383340E+04  0.34111798372E+04 0.  0.
        3    1    3    3  502    0 -0.11153885916E+03  0.68259592204E+03 -0.12684345214E+04  0.14447505858E+04  0.10100000352E+00 0.  1.
       -3    1    3    3    0  502  0.11153885916E+03 -0.68259592204E+03  0.19032070987E+04  0.20249877482E+04  0.10100000352E+00 0. -1.
</event>
<event>
 5   0  0.5347280E-06  0.3095712E+04  0.7818609E-02  0.8216916E-01
        2   -1    0    0  501    0  0.00000000000E+00  0.00000000000E+00  0.19834879726E+04  0.19834879726E+04  0.25500000920E-02 0. -1.
       -2   -1    0    0    0  501  0.00000000000E+00  0.00000000000E+00 -0.12079013633E+04  0.12079013633E+04  0.25500000920E-02 0.  1.
    10030    2    1    2    0    0  0.00000000000E+00  0.00000000000E+00  0.77558660932E+03  0.31913893359E+04  0.30957117606E+04 0.  0.
        2    1    3    3  502    0  0.97355337445E+03 -0.11372078006E+04  0.79341285392E+03  0.16942702592E+04  0.25500000920E-02 0. -1.
       -2    1    3    3    0  502 -0.97355337445E+03  0.11372078006E+04 -0.17826244596E+02  0.14971190766E+04  0.25500000920E-02 0.  1.
</event>
<event>
 5   0  0.1846850E-06  0.3134614E+04  0.7818609E-02  0.8206302E-01
       -1   -1    0    0    0  501  0.00000000000E+00  0.00000000000E+00  0.13993672235E+04  0.13993672235E+04  0.50400001928E-02 0.  1.
        1   -1    0    0  501    0  0.00000000000E+00  0.00000000000E+00 -0.17554012249E+04  0.17554012249E+04  0.50400001928E-02 0. -1.
    10030    2    1    2    0    0  0.00000000000E+00  0.00000000000E+00 -0.35603400132E+03  0.31547684484E+04  0.31346138124E+04 0.  0.
        5    1    3    3  502    0  0.28389128556E+03  0.14975471530E+04  0.18927760058E+03  0.15359328883E+04  0.46999998093E+01 0.  1.
       -5    1    3    3    0  502 -0.28389128556E+03 -0.14975471530E+04 -0.54531160191E+03  0.16188355601E+04  0.46999998093E+01 0. -1.
</event>
<event>
 5   0  0.5131083E-06  0.3095222E+04  0.7818609E-02  0.8217050E-01
        2   -1    0    0  501    0  0.00000000000E+00  0.00000000000E+00  0.18576361615E+04  0.18576361615E+04  0.25500000920E-02 0.  1.
       -2   -1    0    0    0  501  0.00000000000E+00  0.00000000000E+00 -0.12893265812E+04  0.12893265812E+04  0.25500000920E-02 0. -1.
    10030    2    1    2    0    0  0.00000000000E+00  0.00000000000E+00  0.56830958033E+03  0.31469627427E+04  0.30952219185E+04 0.  0.
        3    1    3    3  502    0  0.83775379642E+03 -0.46314580608E+03  0.15205271133E+04  0.17967576836E+04  0.10100000352E+00 0.  1.
       -3    1    3    3    0  502 -0.83775379642E+03  0.46314580608E+03 -0.95221753299E+03  0.13502050590E+04  0.10100000352E+00 0. -1.
</event>
<event>
 5   0  0.5131083E-06  0.2896833E+04  0.7818609E-02  0.8273820E-01
        2   -1    0    0  501    0  0.00000000000E+00  0.00000000000E+00  0.20836583280E+04  0.20836583280E+04  0.25500000920E-02 0. -1.
       -2   -1    0    0    0  501  0.00000000000E+00  0.00000000000E+00 -0.10068396802E+04  0.10068396802E+04  0.25500000920E-02 0.  1.
    10030    2    1    2    0    0  0.00000000000E+00  0.00000000000E+00  0.10768186478E+04  0.30904980082E+04  0.28968326736E+04 0.  0.
        3    1    3    3  502    0  0.59506614411E+02  0.61988416172E+03  0.19335480495E+04  0.20313555772E+04  0.10100000352E+00 0. -1.
       -3    1    3    3    0  502 -0.59506614411E+02 -0.61988416172E+03 -0.85672940175E+03  0.10591424310E+04  0.10100000352E+00 0.  1.
</event>
<event>
 5   0  0.5347280E-06  0.3127039E+04  0.7818609E-02  0.8208356E-01
       -2   -1    0    0    0  501  0.00000000000E+00  0.00000000000E+00  0.81893041547E+03  0.81893041547E+03  0.25500000920E-02 0.  1.
        2   -1    0    0  501    0  0.00000000000E+00  0.00000000000E+00 -0.29851057224E+04  0.29851057224E+04  0.25500000920E-02 0. -1.
    10030    2    1    2    0    0  0.00000000000E+00  0.00000000000E+00 -0.21661753069E+04  0.38040361378E+04  0.31270394110E+04 0.  0.
        2    1    3    3  502    0  0.11514170005E+04  0.55030711697E+03  0.15804278400E+02  0.12762636120E+04  0.25500000920E-02 0.  1.
       -2    1    3    3    0  502 -0.11514170005E+04 -0.55030711697E+03 -0.21819795853E+04  0.25277725259E+04  0.25500000920E-02 0. -1.
</event>
<event>
 5   0  0.1886248E-06  0.3324442E+04  0.7818609E-02  0.8156704E-01
        1   -1    0    0  501    0  0.00000000000E+00  0.00000000000E+00  0.25180051989E+04  0.25180051989E+04  0.50400001928E-02 0. -1.
       -1   -1    0    0    0  501  0.00000000000E+00  0.00000000000E+00 -0.10972888597E+04  0.10972888597E+04  0.50400001928E-02 0.  1.
    10030    2    1    2    0    0  0.00000000000E+00  0.00000000000E+00  0.14207163392E+04  0.36152940586E+04  0.33244422410E+04 0.  0.
        4    1    3    3  502    0  0.12460872198E+04  0.48373131223E+03 -0.36413815947E+03  0.13853979767E+04  0.12699999809E+01 0.  1.
       -4    1    3    3    0  502 -0.12460872198E+04 -0.48373131223E+03  0.17848544986E+04  0.22298960819E+04  0.12699999809E+01 0. -1.
</event>
<event>
 5   0  0.5108810E-06  0.3144449E+04  0.7818609E-02  0.8203644E-01
       -2   -1    0    0    0  501  0.00000000000E+00  0.00000000000E+00  0.12027569845E+04  0.12027569845E+04  0.25500000920E-02 0. -1.
        2   -1    0    0  501    0  0.00000000000E+00  0.00000000000E+00 -0.20551868080E+04  0.20551868080E+04  0.25500000920E-02 0.  1.
    10030    2    1    2    0    0  0.00000000000E+00  0.00000000000E+00 -0.85242982345E+03  0.32579437925E+04  0.31444492604E+04 0.  0.
        1    1    3    3  502    0  0.95178207526E+03  0.73811620107E+03 -0.14732261572E+04  0.19029187990E+04  0.50400001928E-02 0.  1.
       -1    1    3    3    0  502 -0.95178207526E+03 -0.73811620107E+03  0.62079633379E+03  0.13550249935E+04  0.50400001928E-02 0. -1.
</event>
<event>
 5   0  0.5347280E-06  0.3223005E+04  0.7818609E-02  0.8182768E-01
       -2   -1    0    0    0  501  0.00000000000E+00  0.00000000000E+00  0.16584427043E+04  0.16584427043E+04  0.25500000920E-02 0.  1.
        2   -1    0    0  501    0  0.00000000000E+00  0.00000000000E+00 -0.15658911157E+04  0.15658911157E+04  0.25500000920E-02 0. -1.
    10030    2    1    2    0    0  0.00000000000E+00  0.00000000000E+00  0.92551588608E+02  0.32243338201E+04  0.32230052415E+04 0.  0.
        2    1    3    3  502    0  0.66309895734E+03  0.17452180133E+03  0.15052262270E+04  0.16540447638E+04  0.25500000920E-02 0.  1.
       -2    1    3    3    0  502 -0.66309895734E+03 -0.17452180133E+03 -0.14126746383E+04  0.15702890563E+04  0.25500000920E-02 0. -1.
</event>
<event>
 5   0  0.5108810E-06  0.3140063E+04  0.7818609E-02  0.8204828E-01
        2   -1    0    0  501    0  0.00000000000E+00  0.00000000000E+00  0.87073508274E+03  0.87073508274E+03  0.25500000920E-02 0. -1.
       -2   -1    0    0    0  501  0.00000000000E+00  0.00000000000E+00 -0.28309404171E+04  0.28309404171E+04  0.25500000920E-02 0.  1.
    10030    2    1    2    0    0  0.00000000000E+00  0.00000000000E+00 -0.19602053343E+04  0.37016754998E+04  0.31400631448E+04 0.  0.
        1    1    3    3  502    0 -0.59610002415E+03 -0.53881213854E+03 -0.25701774091E+04  0.26928545586E+04  0.50400001928E-02 0.  1.
       -1    1    3    3    0  502  0.59610002415E+03  0.53881213854E+03  0.60997207477E+03  0.10088209412E+04  0.50400001928E-02 0. -1.
</event>
<event>
 5   0  0.5131083E-06  0.2755464E+04  0.7818609E-02  0.8317230E-01
        2   -1    0    0  501    0  0.00000000000E+00  0.00000000000E+00  0.11692817099E+04  0.11692817099E+04  0.25500000920E-02 0.  1.
       -2   -1    0    0    0  501  0.00000000000E+00  0.00000000000E+00 -0.16233426906E+04  0.16233426906E+04  0.25500000920E-02 0. -1.
    10030    2    1    2    0    0  0.00000000000E+00  0.00000000000E+00 -0.45406098077E+03  0.27926244005E+04  0.27554636031E+04 0.  0.
        3    1    3    3  502    0 -0.11707988753E+04  0.71757458240E+03 -0.11389337873E+03  0.13779169059E+04  0.10100000352E+00 0.  1.
       -3    1    3    3    0  502  0.11707988753E+04 -0.71757458240E+03 -0.34016760204E+03  0.14147074946E+04  0.10100000352E+00 0. -1.
</event>
<event>
 5   0  0.1969465E-06  0.3137711E+04  0.7818609E-02  0.8205464E-01
        1   -1    0    0  501    0  0.00000000000E+00  0.00000000000E+00  0.19747332417E+04  0.19747332417E+04  0.50400001928E-02 0. -1.
       -1   -1    0    0    0  501  0.00000000000E+00  0.00000000000E+00 -0.12464000387E+04  0.12464000387E+04  0.50400001928E-02 0.  1.
    10030    2    1    2    0    0  0.00000000000E+00  0.00000000000E+00  0.72833320293E+03  0.32211332804E+04  0.31377110058E+04 0.  0.
        2    1    3    3  502    0 -0.11179639184E+04 -0.11000004228E+04  0.32489598015E+03  0.16016871264E+04  0.25500000920E-02 0.  1.
       -2    1    3    3    0  502  0.11179639184E+04  0.11000004228E+04  0.40343722279E+03  0.16194461540E+04  0.25500000920E-02 0. -1.
</event>
<event>
 5   0  0.5108810E-06  0.3272498E+04  0.7818609E-02  0.8169929E-01
        2   -1    0    0  501    0  0.00000000000E+00  0.00000000000E+00  0.17619535775E+04  0.17619535775E+04  0.25500000920E-02 0.  1.
       -2   -1    0    0    0  501  0.00000000000E+00  0.00000000000E+00 -0.15195122486E+04  0.15195122486E+04  0.25500000920E-02 0. -1.
    10030    2    1    2    0    0  0.00000000000E+00  0.00000000000E+00  0.24244132882E+03  0.32814658261E+04  0.32724975432E+04 0.  0.
        1    1    3    3  502    0 -0.73563729581E+03  0.12418253448E+04 -0.65161689785E+03  0.15836341116E+04  0.50400001928E-02 0. -1.
       -1    1    3    3    0  502  0.73563729581E+03 -0.12418253448E+04  0.89405822667E+03  0.16978317145E+04  0.50400001928E-02 0.  1.
</event>
<event>
 5   0  0.5121624E-06  0.3225518E+04  0.7818609E-02  0.8182110E-01
        2   -1    0    0  501    0  0.00000000000E+00  0.00000000000E+00  0.99312844811E+03  0.99312844812E+03  0.25500000920E-02 0.  1.
       -2   -1    0    0    0  501  0.00000000000E+00  0.00000000000E+00 -0.26189873763E+04  0.26189873763E+04  0.25500000920E-02 0. -1.
    10030    2    1    2    0    0  0.00000000000E+00  0.00000000000E+00 -0.16258589282E+04  0.36121158244E+04  0.32255175514E+04 0.  0.
        4    1    3    3  502    0  0.82665930963E+03 -0.90157395489E+03  0.36413904650E+03  0.12762445175E+04  0.12699999809E+01 0.  1.
       -4    1    3    3    0  502 -0.82665930963E+03  0.90157395489E+03 -0.19899979747E+04  0.23358713069E+04  0.12699999809E+01 0. -1.
</event>
<event>
 5   0  0.1977015E-06  0.3181646E+04  0.7818609E-02  0.8193681E-01
        1   -1    0    0  501    0  0.00000000000E+00  0.00000000000E+00  0.19518928526E+04  0.19518928526E+04  0.50400001928E-02 0. -1.
       -1   -1    0    0    0  501  0.00000000000E+00  0.00000000000E+00 -0.12965456570E+04  0.12965456571E+04  0.50400001928E-02 0.  1.
    10030    2    1    2    0    0  0.00000000000E+00  0.00000000000E+00  0.65534719559E+03  0.32484385097E+04  0.31816462412E+04 0.  0.
        1    1    3    3  502    0  0.73556399580E+03 -0.18642794711E+03 -0.10998587892E+04  0.13362257024E+04  0.50400001928E-02 0.  1.
       -1    1    3    3    0  502 -0.73556399580E+03  0.18642794711E+03  0.17552059848E+04  0.19122128073E+04  0.50400001928E-02 0. -1.
</event>
<event>
 5   0  0.1969465E-06  0.3196930E+04  0.7818609E-02  0.8189628E-01
        1   -1    0    0  501    0  0.00000000000E+00  0.00000000000E+00  0.15967987967E+04  0.15967987968E+04  0.50400001928E-02 0.  1.
       -1   -1    0    0    0  501  0.00000000000E+00  0.00000000000E+00 -0.16001331886E+04  0.16001331886E+04  0.50400001928E-02 0. -1.
    10030    2    1    2    0    0  0.00000000000E+00  0.00000000000E+00 -0.33343918390E+01  0.31969319854E+04  0.31969302465E+04 0.  0.
        2    1    3    3  502    0  0.87969226360E+03  0.12556114258E+04  0.45074018858E+03  0.15979941329E+04  0.25500000920E-02 0. -1.
       -2    1    3    3    0  502 -0.87969226360E+03 -0.12556114258E+04 -0.45407458042E+03  0.15989378524E+04  0.25500000920E-02 0.  1.
</event>
<event>
 5   0  0.1846850E-06  0.3191898E+04  0.7818609E-02  0.8190960E-01
       -1   -1    0    0    0  501  0.00000000000E+00  0.00000000000E+00  0.18078871603E+04  0.18078871603E+04  0.50400001928E-02 0. -1.
        1   -1    0    0  501    0  0.00000000000E+00  0.00000000000E+00 -0.14088566814E+04  0.14088566814E+04  0.50400001928E-02 0.  1.
    10030    2    1    2    0    0  0.00000000000E+00  0.00000000000E+00  0.39903047895E+03  0.32167438418E+04  0.31918984352E+04 0.  0.
        5    1    3    3  502    0 -0.14249518223E+04 -0.37755101628E+03  0.81583038131E+03  0.16848245507E+04  0.46999998093E+01 0. -1.
       -5    1    3    3    0  502  0.14249518223E+04  0.37755101628E+03 -0.41679990237E+03  0.15319192910E+04  0.46999998093E+01 0.  1.
</event>
<event>
 5   0  0.1729500E-06  0.3241961E+04  0.7818609E-02  0.8177822E-01
        3   -1    0    0  501    0  0.00000000000E+00  0.00000000000E+00  0.15492310250E+04  0.15492310283E+04  0.10100000352E+00 0. -1.
       -3   -1    0    0    0  501  0.00000000000E+00  0.00000000000E+00 -0.16960528027E+04  0.16960528057E+04  0.10100000352E+00 0.  1.
    10030    2    1    2    0    0  0.00000000000E+00  0.00000000000E+00 -0.14682177772E+03  0.32452838340E+04  0.32419609079E+04 0.  0.
        5    1    3    3  502    0 -0.13383814165E+04  0.24242337985E+03 -0.95608655231E+03  0.16625755612E+04  0.46999998093E+01 0.  1.
       -5    1    3    3    0  502  0.13383814165E+04 -0.24242337985E+03  0.80926477459E+03  0.15827082727E+04  0.46999998093E+01 0. -1.
</event>
<event>
 5   0  0.1881144E-06  0.3251656E+04  0.7818609E-02  0.8175307E-01
        1   -1    0    0  501    0  0.00000000000E+00  0.00000000000E+00  0.11732721909E+04  0.11732721909E+04  0.50400001928E-02 0.  1.
       -1   -1    0    0    0  501  0.00000000000E+00  0.00000000000E+00 -0.22529434533E+04  0.22529434533E+04  0.50400001928E-02 0. -1.
    10030    2    1    2    0    0  0.00000000000E+00  0.00000000000E+00 -0.10796712623E+04  0.34262156442E+04  0.32516555177E+04 0.  0.
        3    1    3    3  502    0 -0.33539448271E+03 -0.81267234427E+03 -0.19808763762E+04  0.21672095022E+04  0.10100000352E+00 0. -1.
       -3    1    3    3    0  502  0.33539448271E+03  0.81267234427E+03  0.90120511390E+03  0.12590061420E+04  0.10100000352E+00 0.  1.
</event>
<event>
 5   0  0.5121624E-06  0.3177086E+04  0.7818609E-02  0.8194895E-01
       -2   -1    0    0    0  501  0.00000000000E+00  0.00000000000E+00  0.10300052790E+04  0.10300052790E+04  0.25500000920E-02 0.  1.
        2   -1    0    0  501    0  0.00000000000E+00  0.00000000000E+00 -0.24499571061E+04  0.24499571061E+04  0.25500000920E-02 0. -1.
    10030    2    1    2    0    0  0.00000000000E+00  0.00000000000E+00 -0.14199518271E+04  0.34799623850E+04  0.31770859305E+04 0.  0.
        4    1    3    3  502    0 -0.14615684032E+04 -0.74419200598E+02 -0.33218147188E+02  0.14638392920E+04  0.12699999809E+01 0.  1.
       -4    1    3    3    0  502  0.14615684032E+04  0.74419200598E+02 -0.13867336799E+04  0.20161230931E+04  0.12699999809E+01 0. -1.
</event>
<event>
 5   0  0.1977015E-06  0.3198793E+04  0.7818609E-02  0.8189136E-01
       -1   -1    0    0    0  501  0.00000000000E+00  0.00000000000E+00  0.17209279239E+04  0.17209279239E+04  0.50400001928E-02 0. -1.
        1   -1    0    0  501    0  0.00000000000E+00  0.00000000000E+00 -0.14864476807E+04  0.14864476807E+04  0.50400001928E-02 0.  1.
    10030    2    1    2    0    0  0.00000000000E+00  0.00000000000E+00  0.23448024325E+03  0.32073756046E+04  0.31987930981E+04 0.  0.
        1    1    3    3  502    0  0.11967947162E+04  0.77567844280E+03 -0.60863224085E+03  0.15506217605E+04  0.50400001928E-02 0.  1.
       -1    1    3    3    0  502 -0.11967947162E+04 -0.77567844280E+03  0.84311248410E+03  0.16567538442E+04  0.50400001928E-02 0. -1.
</event>
<event>
 5   0  0.5373060E-06  0.3193843E+04  0.7818609E-02  0.8190445E-01
        2   -1    0    0  501    0  0.00000000000E+00  0.00000000000E+00  0.15080465315E+04  0.15080465315E+04  0.25500000920E-02 0.  1.
       -2   -1    0    0    0  501  0.00000000000E+00  0.00000000000E+00 -0.16910346409E+04  0.16910346409E+04  0.25500000920E-02 0. -1.
    10030    2    1    2    0    0  0.00000000000E+00  0.00000000000E+00 -0.18298810945E+03  0.31990811724E+04  0.31938434056E+04 0.  0.
        5    1    3    3  502    0  0.10076866909E+04 -0.12026705721E+04 -0.38911407550E+03  0.16165645134E+04  0.46999998093E+01 0. -1.
       -5    1    3    3    0  502 -0.10076866909E+04  0.12026705721E+04  0.20612596605E+03  0.15825166590E+04  0.46999998093E+01 0.  1.
</event>
<event>
 5   0  0.5373060E-06  0.3231116E+04  0.7818609E-02  0.8180648E-01
       -2   -1    0    0    0  501  0.00000000000E+00  0.00000000000E+00  0.18344587209E+04  0.18344587209E+04  0.25500000920E-02 0.  1.
        2   -1    0    0  501    0  0.00000000000E+00  0.00000000000E+00 -0.14227776986E+04  0.14227776986E+04  0.25500000920E-02 0. -1.
    10030    2    1    2    0    0  0.00000000000E+00  0.00000000000E+00  0.41168102225E+03  0.32572364195E+04  0.32311155702E+04 0.  0.
        5    1    3    3  502    0  0.13282744790E+03  0.70795394638E+03 -0.12519352586E+04  0.14443704175E+04  0.46999998093E+01 0. -1.
       -5    1    3    3    0  502 -0.13282744790E+03 -0.70795394638E+03  0.16636162809E+04  0.18128660020E+04  0.46999998093E+01 0.  1.
</event>
<event>
 5   0  0.5373060E-06  0.2910758E+04  0.7818609E-02  0.8269684E-01
        2   -1    0    0  501    0  0.00000000000E+00  0.00000000000E+00  0.18465378465E+04  0.18465378465E+04  0.25500000920E-02 0.  1.
       -2   -1    0    0    0  501  0.00000000000E+00  0.00000000000E+00 -0.11470805974E+04  0.11470805974E+04  0.25500000920E-02 0. -1.
    10030    2    1    2    0    0  0.00000000000E+00  0.00000000000E+00  0.69945724913E+03  0.29936184439E+04  0.29107577955E+04 0.  0.
        5    1    3    3  502    0  0.48681822908E+02  0.41512556355E+03 -0.10840173161E+04  0.11618152972E+04  0.46999998093E+01 0. -1.
       -5    1    3    3    0  502 -0.48681822908E+02 -0.41512556355E+03  0.17834745652E+04  0.18318031466E+04  0.46999998093E+01 0.  1.
</event>
<event>
 5   0  0.5347280E-06  0.3030682E+04  0.7818609E-02  0.8235023E-01
       -2   -1    0    0    0  501  0.00000000000E+00  0.00000000000E+00  0.12514650751E+04  0.12514650751E+04  0.25500000920E-02 0.  1.
        2   -1    0    0  501    0  0.00000000000E+00  0.00000000000E+00 -0.18348564630E+04  0.18348564630E+04  0.25500000920E-02 0. -1.
    10030    2    1    2    0    0  0.00000000000E+00  0.00000000000E+00 -0.58339138792E+03  0.30863215380E+04  0.30306822870E+04 0.  0.
        2    1    3    3  502    0 -0.46708399709E+03  0.15732673619E+03  0.11675591792E+04  0.12673253723E+04  0.25500000920E-02 0.  1.
       -2    1    3    3    0  502  0.46708399709E+03 -0.15732673619E+03 -0.17509505672E+04  0.18189961657E+04  0.25500000920E-02 0. -1.
</event>
<event>
 5   0  0.1886248E-06  0.2969029E+04  0.7818609E-02  0.8252631E-01
       -1   -1    0    0    0  501  0.00000000000E+00  0.00000000000E+00  0.13750364769E+04  0.13750364769E+04  0.50400001928E-02 0.  1.
        1   -1    0    0  501    0  0.00000000000E+00  0.00000000000E+00 -0.16027086870E+04  0.16027086871E+04  0.50400001928E-02 0. -1.
    10030    2    1    2    0    0  0.00000000000E+00  0.00000000000E+00 -0.22767221011E+03  0.29777451640E+04  0.29690287345E+04 0.  0.
        4    1    3    3  502    0 -0.12533640269E+03  0.13172647369E+04 -0.78877961817E+03  0.15404773611E+04  0.12699999809E+01 0. -1.
       -4    1    3    3    0  502  0.12533640269E+03 -0.13172647369E+04  0.56110740806E+03  0.14372678029E+04  0.12699999809E+01 0.  1.
</event>
<event>
 5   0  0.5108810E-06  0.3187379E+04  0.7818609E-02  0.8192158E-01
       -2   -1    0    0    0  501  0.00000000000E+00  0.00000000000E+00  0.15669884740E+04  0.15669884740E+04  0.25500000920E-02 0. -1.
        2   -1    0    0  501    0  0.00000000000E+00  0.00000000000E+00 -0.16208452757E+04  0.16208452757E+04  0.25500000920E-02 0.  1.
    10030    2    1    2    0    0  0.00000000000E+00  0.00000000000E+00 -0.53856801710E+02  0.31878337496E+04  0.31873787758E+04 0.  0.
        1    1    3    3  502    0 -0.81237682600E+03  0.50781187338E+03 -0.13006944519E+04  0.16154364932E+04  0.50400001928E-02 0.  1.
       -1    1    3    3    0  502  0.81237682600E+03 -0.50781187338E+03  0.12468376502E+04  0.15723972565E+04  0.50400001928E-02 0. -1.
</event>
<event>
 5   0  0.5373060E-06  0.2879603E+04  0.7818609E-02  0.8278972E-01
        2   -1    0    0  501    0  0.00000000000E+00  0.00000000000E+00  0.12176600332E+04  0.12176600332E+04  0.25500000920E-02 0.  1.
       -2   -1    0    0    0  501  0.00000000000E+00  0.00000000000E+00 -0.17024690957E+04  0.17024690957E+04  0.25500000920E-02 0. -1.
    10030    2    1    2    0    0  0.00000000000E+00  0.00000000000E+00 -0.48480906251E+03  0.29201291288E+04  0.28796031501E+04 0.  0.
        5    1    3    3  502    0 -0.20852142737E+03 -0.11128118188E+04 -0.11444028688E+04  0.16098171778E+04  0.46999998093E+01 0. -1.
       -5    1    3    3    0  502  0.20852142737E+03  0.11128118188E+04  0.65959380631E+03  0.13103119511E+04  0.46999998093E+01 0.  1.
</event>
<event>
 5   0  0.5121624E-06  0.3188323E+04  0.7818609E-02  0.8191908E-01
        2   -1    0    0  501    0  0.00000000000E+00  0.00000000000E+00  0.14325030012E+04  0.14325030012E+04  0.25500000920E-02 0. -1.
       -2   -1    0    0    0  501  0.00000000000E+00  0.00000000000E+00 -0.17740631364E+04  0.17740631364E+04  0.25500000920E-02 0.  1.
    10030    2    1    2    0    0  0.00000000000E+00  0.00000000000E+00 -0.34156013521E+03  0.32065661375E+04  0.31883229241E+04 0.  0.
        4    1    3    3  502    0  0.64543940698E+03  0.12032885313E+04  0.65663866248E+03  0.15151472745E+04  0.12699999809E+01 0. -1.
       -4    1    3    3    0  502 -0.64543940698E+03 -0.12032885313E+04 -0.99819879768E+03  0.16914188630E+04  0.12699999809E+01 0.  1.
</event>
<event>
 5   0  0.5131083E-06  0.2764995E+04  0.7818609E-02  0.8314219E-01
        2   -1    0    0  501    0  0.00000000000E+00  0.00000000000E+00  0.17157764065E+04  0.17157764065E+04  0.25500000920E-02 0. -1.
       -2   -1    0    0    0  501  0.00000000000E+00  0.00000000000E+00 -0.11139559500E+04  0.11139559500E+04  0.25500000920E-02 0.  1.
    10030    2    1    2    0    0  0.00000000000E+00  0.00000000000E+00  0.60182045657E+03  0.28297323565E+04  0.27649949996E+04 0.  0.
        3    1    3    3  502    0  0.12049102588E+04 -0.26087125692E+03  0.94120775890E+03  0.15510430684E+04  0.10100000352E+00 0. -1.
       -3    1    3    3    0  502 -0.12049102588E+04  0.26087125692E+03 -0.33938730232E+03  0.12786892881E+04  0.10100000352E+00 0.  1.
</event>
<event>
 5   0  0.5373060E-06  0.3193841E+04  0.7818609E-02  0.8190446E-01
       -2   -1    0    0    0  501  0.00000000000E+00  0.00000000000E+00  0.76730538785E+03  0.76730538786E+03  0.25500000920E-02 0. -1.
        2   -1    0    0  501    0  0.00000000000E+00  0.00000000000E+00 -0.33235211564E+04  0.33235211564E+04  0.25500000920E-02 0.  1.
    10030    2    1    2    0    0  0.00000000000E+00  0.00000000000E+00 -0.25562157686E+04  0.40908265443E+04  0.31938413799E+04 0.  0.
        5    1    3    3  502    0  0.11281251393E+04  0.40621436072E+03  0.72842410210E+02  0.12012512408E+04  0.46999998093E+01 0. -1.
       -5    1    3    3    0  502 -0.11281251393E+04 -0.40621436072E+03 -0.26290581788E+04  0.28895753035E+04  0.46999998093E+01 0.  1.
</event>
<event>
 5   0  0.1886248E-06  0.3030155E+04  0.7818609E-02  0.8235172E-01
        1   -1    0    0  501    0  0.00000000000E+00  0.00000000000E+00  0.27239015649E+04  0.27239015649E+04  0.50400001928E-02 0. -1.
       -1   -1    0    0    0  501  0.00000000000E+00  0.00000000000E+00 -0.84271012336E+03  0.84271012337E+03  0.50400001928E-02 0.  1.
    10030    2    1    2    0    0  0.00000000000E+00  0.00000000000E+00  0.18811914415E+04  0.35666116882E+04  0.30301547312E+04 0.  0.
        4    1    3    3  502    0 -0.58901503499E+03  0.23432077115E+03  0.25603033269E+04  0.26376124950E+04  0.12699999809E+01 0. -1.
       -4    1    3    3    0  502  0.58901503499E+03 -0.23432077115E+03 -0.67911188539E+03  0.92899919323E+03  0.12699999809E+01 0.  1.
</event>
<event>
 5   0  0.1881144E-06  0.3093750E+04  0.7818609E-02  0.8217455E-01
       -1   -1    0    0    0  501  0.00000000000E+00  0.00000000000E+00  0.99198825921E+03  0.99198825922E+03  0.50400001928E-02 0.  1.
        1   -1    0    0  501    0  0.00000000000E+00  0.00000000000E+00 -0.24121480314E+04  0.24121480314E+04  0.50400001928E-02 0. -1.
    10030    2    1    2    0    0  0.00000000000E+00  0.00000000000E+00 -0.14201597722E+04  0.34041362906E+04  0.30937501687E+04 0.  0.
        3    1    3    3  502    0  0.65771981221E+03  0.58668074142E+03 -0.21088514504E+04  0.22856167863E+04  0.10100000352E+00 0. -1.
       -3    1    3    3    0  502 -0.65771981221E+03 -0.58668074142E+03  0.68869167821E+03  0.11185195043E+04  0.10100000352E+00 0.  1.
</event>
<event>
 5   0  0.1846850E-06  0.3161549E+04  0.7818609E-02  0.8199047E-01
       -1   -1    0    0    0  501  0.00000000000E+00  0.00000000000E+00  0.14234903608E+04  0.14234903608E+04  0.50400001928E-02 0.  1.
        1   -1    0    0  501    0  0.00000000000E+00  0.00000000000E+00 -0.17554369351E+04  0.17554369351E+04  0.50400001928E-02 0. -1.
    10030    2    1    2    0    0  0.00000000000E+00  0.00000000000E+00 -0.33194657424E+03  0.31789272959E+04  0.31615487066E+04 0.  0.
        5    1    3    3  502    0 -0.35978936506E+03  0.62773432790E+03 -0.15791620801E+04  0.17370301491E+04  0.46999998093E+01 0. -1.
       -5    1    3    3    0  502  0.35978936506E+03 -0.62773432790E+03  0.12472155059E+04  0.14418971468E+04  0.46999998093E+01 0.  1.
</event>
<event>
 5   0  0.5108810E-06  0.3173043E+04  0.7818609E-02  0.8195973E-01
        2   -1    0    0  501    0  0.00000000000E+00  0.00000000000E+00  0.21131179622E+04  0.21131179623E+04  0.25500000920E-02 0.  1.
       -2   -1    0    0    0  501  0.00000000000E+00  0.00000000000E+00 -0.11911546434E+04  0.11911546434E+04  0.25500000920E-02 0. -1.
    10030    2    1    2    0    0  0.00000000000E+00  0.00000000000E+00  0.92196331886E+03  0.33042726056E+04  0.31730428757E+04 0.  0.
        1    1    3    3  502    0 -0.48690800635E+03 -0.14096624148E+04 -0.10252925367E+03  0.14949046051E+04  0.50400001928E-02 0. -1.
       -1    1    3    3    0  502  0.48690800635E+03  0.14096624148E+04  0.10244925725E+04  0.18093680006E+04  0.50400001928E-02 0.  1.
</event>
<event>
 5   0  0.5373060E-06  0.3159936E+04  0.7818609E-02  0.8199479E-01
        2   -1    0    0  501    0  0.00000000000E+00  0.00000000000E+00  0.19594256189E+04  0.19594256189E+04  0.25500000920E-02 0. -1.
       -2   -1    0    0    0  501  0.00000000000E+00  0.00000000000E+00 -0.12739954136E+04  0.12739954136E+04  0.25500000920E-02 0.  1.
    10030    2    1    2    0    0  0.00000000000E+00  0.00000000000E+00  0.68543020536E+03  0.32334210325E+04  0.31599362346E+04 0.  0.
        5    1    3    3  502    0 -0.11814748700E+04  0.10151504851E+04  0.72250772046E+02  0.15593766832E+04  0.46999998093E+01 0. -1.
       -5    1    3    3    0  502  0.11814748700E+04 -0.10151504851E+04  0.61317943331E+03  0.16740443493E+04  0.46999998093E+01 0.  1.
</event>
<event>
 5   0  0.1846850E-06  0.3132406E+04  0.7818609E-02  0.8206900E-01
       -1   -1    0    0    0  501  0.00000000000E+00  0.00000000000E+00  0.13817668326E+04  0.13817668326E+04  0.50400001928E-02 0.  1.
        1   -1    0    0  501    0  0.00000000000E+00  0.00000000000E+00 -0.17752576451E+04  0.17752576451E+04  0.50400001928E-02 0. -1.
    10030    2    1    2    0    0  0.00000000000E+00  0.00000000000E+00 -0.39349081248E+03  0.31570244778E+04  0.31324061891E+04 0.  0.
        5    1    3    3  502    0 -0.25386664278E+03 -0.10649433294E+04  0.93206479022E+03  0.14378175929E+04  0.46999998093E+01 0.  1.
       -5    1    3    3    0  502  0.25386664278E+03  0.10649433294E+04 -0.13255556027E+04  0.17192068849E+04  0.46999998093E+01 0. -1.
</event>
<event>
 5   0  0.1977015E-06  0.3194314E+04  0.7818609E-02  0.8190320E-01
        1   -1    0    0  501    0  0.00000000000E+00  0.00000000000E+00  0.31284085103E+04  0.31284085103E+04  0.50400001928E-02 0.  1.
       -1   -1    0    0    0  501  0.00000000000E+00  0.00000000000E+00 -0.81540216801E+03  0.81540216802E+03  0.50400001928E-02 0. -1.
    10030    2    1    2    0    0  0.00000000000E+00  0.00000000000E+00  0.23130063423E+04  0.39438106784E+04  0.31943143751E+04 0.  0.
        1    1    3    3  502    0 -0.13483866207E+04 -0.28265398597E+03  0.21540934317E+04  0.25569822579E+04  0.50400001928E-02 0.  1.
       -1    1    3    3    0  502  0.13483866207E+04  0.28265398597E+03  0.15891291062E+03  0.13868284205E+04  0.50400001928E-02 0. -1.
</event>
<event>
 5   0  0.5121624E-06  0.2227246E+04  0.7818609E-02  0.8507173E-01
        2   -1    0    0  501    0  0.00000000000E+00  0.00000000000E+00  0.14732677936E+04  0.14732677936E+04  0.25500000920E-02 0. -1.
       -2   -1    0    0    0  501  0.00000000000E+00  0.00000000000E+00 -0.84177226351E+03  0.84177226352E+03  0.25500000920E-02 0.  1.
    10030    2    1    2    0    0  0.00000000000E+00  0.00000000000E+00  0.63149553004E+03  0.23150400571E+04  0.22272458017E+04 0.  0.
        4    1    3    3  502    0 -0.28746679172E+03 -0.64511617801E+03  0.12106997907E+04  0.14016446181E+04  0.12699999809E+01 0. -1.
       -4    1    3    3    0  502  0.28746679172E+03  0.64511617801E+03 -0.57920426063E+03  0.91339543895E+03  0.12699999809E+01 0.  1.
</event>
<event>
 5   0  0.1977015E-06  0.3196157E+04  0.7818609E-02  0.8189833E-01
        1   -1    0    0  501    0  0.00000000000E+00  0.00000000000E+00  0.17807125675E+04  0.17807125675E+04  0.50400001928E-02 0.  1.
       -1   -1    0    0    0  501  0.00000000000E+00  0.00000000000E+00 -0.14341753684E+04  0.14341753684E+04  0.50400001928E-02 0. -1.
    10030    2    1    2    0    0  0.00000000000E+00  0.00000000000E+00  0.34653719906E+03  0.32148879360E+04  0.31961565059E+04 0.  0.
        1    1    3    3  502    0 -0.95545420612E+03  0.76743048452E+03 -0.85841876168E+03  0.14962369662E+04  0.50400001928E-02 0. -1.
       -1    1    3    3    0  502  0.95545420612E+03 -0.76743048452E+03  0.12049559607E+04  0.17186509698E+04  0.50400001928E-02 0.  1.
</event>
<event>
 5   0  0.5121624E-06  0.3165978E+04  0.7818609E-02  0.8197861E-01
       -2   -1    0    0    0  501  0.00000000000E+00  0.00000000000E+00  0.10770908126E+04  0.10770908126E+04  0.25500000920E-02 0. -1.
        2   -1    0    0  501    0  0.00000000000E+00  0.00000000000E+00 -0.23265019491E+04  0.23265019491E+04  0.25500000920E-02 0.  1.
    10030    2    1    2    0    0  0.00000000000E+00  0.00000000000E+00 -0.12494111365E+04  0.34035927617E+04  0.31659778110E+04 0.  0.
        4    1    3    3  502    0  0.11170645462E+04  0.46532418708E+03  0.47242367298E+03  0.12990556336E+04  0.12699999809E+01 0. -1.
       -4    1    3    3    0  502 -0.11170645462E+04 -0.46532418708E+03 -0.17218348095E+04  0.21045371281E+04  0.12699999809E+01 0.  1.
</event>
<event>
 5   0  0.5108810E-06  0.3188608E+04  0.7818609E-02  0.8191832E-01
       -2   -1    0    0    0  501  0.00000000000E+00  0.00000000000E+00  0.88268834305E+03  0.88268834305E+03  0.25500000920E-02 0.  1.
        2   -1    0    0  501    0  0.00000000000E+00  0.00000000000E+00 -0.28796181454E+04  0.28796181454E+04  0.25500000920E-02 0. -1.
    10030    2    1    2    0    0  0.00000000000E+00  0.00000000000E+00 -0.19969298023E+04  0.37623064884E+04  0.31886080784E+04 0.  0.
        1    1    3    3  502    0  0.78660475864E+03  0.11226510732E+03 -0.26293427004E+04  0.27467787565E+04  0.50400001928E-02 0. -1.
       -1    1    3    3    0  502 -0.78660475864E+03 -0.11226510732E+03  0.63241289811E+03  0.10155277320E+04  0.50400001928E-02 0.  1.
</event>
<event>
 5   0  0.5373060E-06  0.3196652E+04  0.7818609E-02  0.8189702E-01
        2   -1    0    0  501    0  0.00000000000E+00  0.00000000000E+00  0.16537560586E+04  0.16537560586E+04  0.25500000920E-02 0.  1.
       -2   -1    0    0    0  501  0.00000000000E+00  0.00000000000E+00 -0.15447537207E+04  0.15447537207E+04  0.25500000920E-02 0. -1.
    10030    2    1    2    0    0  0.00000000000E+00  0.00000000000E+00  0.10900233795E+03  0.31985097793E+04  0.31966518888E+04 0.  0.
        5    1    3    3  502    0  0.15300825377E+04  0.21773496979E+03 -0.35324352113E+03  0.15853593171E+04  0.46999998093E+01 0. -1.
       -5    1    3    3    0  502 -0.15300825377E+04 -0.21773496979E+03  0.46224585908E+03  0.16131504621E+04  0.46999998093E+01 0.  1.
</event>
<event>
 5   0  0.1977015E-06  0.3153640E+04  0.7818609E-02  0.8201169E-01
       -1   -1    0    0    0  501  0.00000000000E+00  0.00000000000E+00  0.10277534618E+04  0.10277534618E+04  0.50400001928E-02 0.  1.
        1   -1    0    0  501    0  0.00000000000E+00  0.00000000000E+00 -0.24192200941E+04  0.24192200941E+04  0.50400001928E-02 0. -1.
    10030    2    1    2    0    0  0.00000000000E+00  0.00000000000E+00 -0.13914666323E+04  0.34469735559E+04  0.31536403261E+04 0.  0.
        1    1    3    3  502    0 -0.10223881267E+04 -0.11217083881E+04 -0.22834400036E+03  0.15348120967E+04  0.50400001928E-02 0. -1.
       -1    1    3    3    0  502  0.10223881267E+04  0.11217083881E+04 -0.11631226319E+04  0.19121614593E+04  0.50400001928E-02 0.  1.
</event>
<event>
 5   0  0.1729500E-06  0.3177295E+04  0.7818609E-02  0.8194839E-01
        3   -1    0    0  501    0  0.00000000000E+00  0.00000000000E+00  0.21053684048E+04  0.21053684072E+04  0.10100000352E+00 0. -1.
       -3   -1    0    0    0  501  0.00000000000E+00  0.00000000000E+00 -0.11987451298E+04  0.11987451340E+04  0.10100000352E+00 0.  1.
    10030    2    1    2    0    0  0.00000000000E+00  0.00000000000E+00  0.90662327504E+03  0.33041135413E+04  0.31772945301E+04 0.  0.
        1    1    3    3  502    0 -0.69834313318E+03  0.10376786980E+04 -0.56524162979E+03  0.13725736090E+04  0.50400001928E-02 0. -1.
       -1    1    3    3    0  502  0.69834313318E+03 -0.10376786980E+04  0.14718649048E+04  0.19315399323E+04  0.50400001928E-02 0.  1.
</event>
<event>
 5   0  0.5121624E-06  0.3158603E+04  0.7818609E-02  0.8199836E-01
        2   -1    0    0  501    0  0.00000000000E+00  0.00000000000E+00  0.20418889432E+04  0.20418889432E+04  0.25500000920E-02 0.  1.
       -2   -1    0    0    0  501  0.00000000000E+00  0.00000000000E+00 -0.12215125690E+04  0.12215125690E+04  0.25500000920E-02 0. -1.
    10030    2    1    2    0    0  0.00000000000E+00  0.00000000000E+00  0.82037637417E+03  0.32634015122E+04  0.31586028611E+04 0.  0.
        4    1    3    3  502    0  0.34406511981E+03  0.12710124421E+04 -0.49071645131E+03  0.14052251361E+04  0.12699999809E+01 0. -1.
       -4    1    3    3    0  502 -0.34406511981E+03 -0.12710124421E+04  0.13110928255E+04  0.18581763761E+04  0.12699999809E+01 0.  1.
</event>
<event>
 5   0  0.1886248E-06  0.3186583E+04  0.7818609E-02  0.8192370E-01
       -1   -1    0    0    0  501  0.00000000000E+00  0.00000000000E+00  0.17426768427E+04  0.17426768427E+04  0.50400001928E-02 0.  1.
        1   -1    0    0  501    0  0.00000000000E+00  0.00000000000E+00 -0.14567114587E+04  0.14567114587E+04  0.50400001928E-02 0. -1.
    10030    2    1    2    0    0  0.00000000000E+00  0.00000000000E+00  0.28596538404E+03  0.31993883014E+04  0.31865826997E+04 0.  0.
        4    1    3    3  502    0  0.19553976263E+03 -0.93630669205E+03  0.14223363068E+04  0.17140443993E+04  0.12699999809E+01 0.  1.
       -4    1    3    3    0  502 -0.19553976263E+03  0.93630669205E+03 -0.11363709228E+04  0.14853439020E+04  0.12699999809E+01 0. -1.
</event>
<event>
 5   0  0.5121624E-06  0.3395859E+04  0.7818609E-02  0.8138923E-01
       -2   -1    0    0    0  501  0.00000000000E+00  0.00000000000E+00  0.18507205559E+04  0.18507205559E+04  0.25500000920E-02 0.  1.
        2   -1    0    0  501    0  0.00000000000E+00  0.00000000000E+00 -0.15577527464E+04  0.15577527464E+04  0.25500000920E-02 0. -1.
    10030    2    1    2    0    0  0.00000000000E+00  0.00000000000E+00  0.29296780959E+03  0.34084733023E+04  0.33958592602E+04 0.  0.
        4    1    3    3  502    0  0.14748357940E+04  0.67786849936E+03  0.64664916362E+03  0.17472272535E+04  0.12699999809E+01 0.  1.
       -4    1    3    3    0  502 -0.14748357940E+04 -0.67786849936E+03 -0.35368135403E+03  0.16612460488E+04  0.12699999809E+01 0. -1.
</event>
<event>
 5   0  0.1969465E-06  0.3194412E+04  0.7818609E-02  0.8190294E-01
        1   -1    0    0  501    0  0.00000000000E+00  0.00000000000E+00  0.22373218527E+04  0.22373218527E+04  0.50400001928E-02 0. -1.
       -1   -1    0    0    0  501  0.00000000000E+00  0.00000000000E+00 -0.11402326656E+04  0.11402326656E+04  0.50400001928E-02 0.  1.
    10030    2    1    2    0    0  0.00000000000E+00  0.00000000000E+00  0.10970891870E+04  0.33775545183E+04  0.31944122839E+04 0.  0.
        2    1    3    3  502    0 -0.38999673717E+03 -0.32990715291E+03 -0.10515350110E+04  0.11690432258E+04  0.25500000920E-02 0.  1.
       -2    1    3    3    0  502  0.38999673717E+03  0.32990715291E+03  0.21486241980E+04  0.22085112925E+04  0.25500000920E-02 0. -1.
</event>
<event>
 5   0  0.5108810E-06  0.3210508E+04  0.7818609E-02  0.8186047E-01
       -2   -1    0    0    0  501  0.00000000000E+00  0.00000000000E+00  0.16354782296E+04  0.16354782296E+04  0.25500000920E-02 0. -1.
        2   -1    0    0  501    0  0.00000000000E+00  0.00000000000E+00 -0.15755885379E+04  0.15755885379E+04  0.25500000920E-02 0.  1.
    10030    2    1    2    0    0  0.00000000000E+00  0.00000000000E+00  0.59889691673E+02  0.32110667675E+04  0.32105082168E+04 0.  0.
        1    1    3    3  502    0 -0.13469903807E+04  0.40427195904E+03 -0.74415482383E+03  0.15910956302E+04  0.50400001928E-02 0.  1.
       -1    1    3    3    0  502  0.13469903807E+04 -0.40427195904E+03  0.80404451551E+03  0.16199711373E+04  0.50400001928E-02 0. -1.
</event>
<event>
 5   0  0.1881144E-06  0.3445851E+04  0.7818609E-02  0.8126744E-01
       -1   -1    0    0    0  501  0.00000000000E+00  0.00000000000E+00  0.18337422487E+04  0.18337422487E+04  0.50400001928E-02 0.  1.
        1   -1    0    0  501    0  0.00000000000E+00  0.00000000000E+00 -0.16188059615E+04  0.16188059615E+04  0.50400001928E-02 0. -1.
    10030    2    1    2    0    0  0.00000000000E+00  0.00000000000E+00  0.21493628723E+03  0.34525482103E+04  0.34458513515E+04 0.  0.
        3    1    3    3  502    0 -0.15882983547E+04  0.54265302671E+03 -0.28227228118E+03  0.17020110522E+04  0.10100000352E+00 0.  1.
       -3    1    3    3    0  502  0.15882983547E+04 -0.54265302671E+03  0.49720856841E+03  0.17505371580E+04  0.10100000352E+00 0. -1.
</event>
<event>
 5   0  0.1977015E-06  0.3250974E+04  0.7818609E-02  0.8175483E-01
       -1   -1    0    0    0  501  0.00000000000E+00  0.00000000000E+00  0.19314519904E+04  0.19314519904E+04  0.50400001928E-02 0.  1.
        1   -1    0    0  501    0  0.00000000000E+00  0.00000000000E+00 -0.13679907211E+04  0.13679907211E+04  0.50400001928E-02 0. -1.
    10030    2    1    2    0    0  0.00000000000E+00  0.00000000000E+00  0.56346126923E+03  0.32994427115E+04  0.32509742547E+04 0.  0.
        1    1    3    3  502    0  0.13564657389E+04 -0.46161758164E+03  0.10607142478E+04  0.17827520321E+04  0.50400001928E-02 0.  1.
       -1    1    3    3    0  502 -0.13564657389E+04  0.46161758164E+03 -0.49725297856E+03  0.15166906794E+04  0.50400001928E-02 0. -1.
</event>
<event>
 5   0  0.1881144E-06  0.3134757E+04  0.7818609E-02  0.8206263E-01
        1   -1    0    0  501    0  0.00000000000E+00  0.00000000000E+00  0.16464322683E+04  0.16464322684E+04  0.50400001928E-02 0.  1.
       -1   -1    0    0    0  501  0.00000000000E+00  0.00000000000E+00 -0.14921202019E+04  0.14921202019E+04  0.50400001928E-02 0. -1.
    10030    2    1    2    0    0  0.00000000000E+00  0.00000000000E+00  0.15431206645E+03  0.31385524703E+04  0.31347566723E+04 0.  0.
        3    1    3    3  502    0  0.60113212347E+03 -0.80060692776E+03 -0.11302659080E+04  0.15099113602E+04  0.10100000352E+00 0. -1.
       -3    1    3    3    0  502 -0.60113212347E+03  0.80060692776E+03  0.12845779745E+04  0.16286411100E+04  0.10100000352E+00 0.  1.
</event>
<event>
 5   0  0.5131083E-06  0.3108563E+04  0.7818609E-02  0.8213392E-01
        2   -1    0    0  501    0  0.00000000000E+00  0.00000000000E+00  0.24480523828E+04  0.24480523829E+04  0.25500000920E-02 0. -1.
       -2   -1    0    0    0  501  0.00000000000E+00  0.00000000000E+00 -0.98682143453E+03  0.98682143454E+03  0.25500000920E-02 0.  1.
    10030    2    1    2    0    0  0.00000000000E+00  0.00000000000E+00  0.14612309483E+04  0.34348738174E+04  0.31085627317E+04 0.  0.
        3    1    3    3  502    0  0.98489047372E+03  0.98162448579E+03  0.14979104559E+04  0.20438521523E+04  0.10100000352E+00 0. -1.
       -3    1    3    3    0  502 -0.98489047372E+03 -0.98162448579E+03 -0.36679507581E+02  0.13910216651E+04  0.10100000352E+00 0.  1.
</event>
<event>
 5   0  0.5347280E-06  0.3211141E+04  0.7818609E-02  0.8185881E-01
       -2   -1    0    0    0  501  0.00000000000E+00  0.00000000000E+00  0.10677585911E+04  0.10677585911E+04  0.25500000920E-02 0. -1.
        2   -1    0    0  501    0  0.00000000000E+00  0.00000000000E+00 -0.24142692247E+04  0.24142692247E+04  0.25500000920E-02 0.  1.
    10030    2    1    2    0    0  0.00000000000E+00  0.00000000000E+00 -0.13465106337E+04  0.34820278158E+04  0.32111410470E+04 0.  0.
        2    1    3    3  502    0 -0.46653328942E+03 -0.13002816829E+04 -0.15604904266E+04  0.20841103945E+04  0.25500000920E-02 0.  1.
       -2    1    3    3    0  502  0.46653328942E+03  0.13002816829E+04  0.21397979287E+03  0.13979174213E+04  0.25500000920E-02 0. -1.
</event>
<event>
 5   0  0.1886248E-06  0.3268989E+04  0.7818609E-02  0.8170831E-01
       -1   -1    0    0    0  501  0.00000000000E+00  0.00000000000E+00  0.10742817201E+04  0.10742817202E+04  0.50400001928E-02 0. -1.
        1   -1    0    0  501    0  0.00000000000E+00  0.00000000000E+00 -0.24868458195E+04  0.24868458195E+04  0.50400001928E-02 0.  1.
    10030    2    1    2    0    0  0.00000000000E+00  0.00000000000E+00 -0.14125640994E+04  0.35611275397E+04  0.32689894492E+04 0.  0.
        4    1    3    3  502    0  0.69407049578E+03 -0.12882359832E+04 -0.14995664646E+04  0.20952295808E+04  0.12699999809E+01 0.  1.
       -4    1    3    3    0  502 -0.69407049578E+03  0.12882359832E+04  0.87002365183E+02  0.14658979589E+04  0.12699999809E+01 0. -1.
</event>
<event>
 5   0  0.5121624E-06  0.3275215E+04  0.7818609E-02  0.8169231E-01
        2   -1    0    0  501    0  0.00000000000E+00  0.00000000000E+00  0.23853356445E+04  0.23853356445E+04  0.25500000920E-02 0.  1.
       -2   -1    0    0    0  501  0.00000000000E+00  0.00000000000E+00 -0.11242684829E+04  0.11242684829E+04  0.25500000920E-02 0. -1.
    10030    2    1    2    0    0  0.00000000000E+00  0.00000000000E+00  0.12610671616E+04  0.35096041274E+04  0.32752146105E+04 0.  0.
        4    1    3    3  502    0  0.57932310281E+03  0.10585488940E+04  0.18168359915E+04  0.21810629637E+04  0.12699999809E+01 0.  1.
       -4    1    3    3    0  502 -0.57932310281E+03 -0.10585488940E+04 -0.55576882992E+03  0.13285411637E+04  0.12699999809E+01 0. -1.
</event>
<event>
 5   0  0.5373060E-06  0.3181196E+04  0.7818609E-02  0.8193801E-01
        2   -1    0    0  501    0  0.00000000000E+00  0.00000000000E+00  0.16196399421E+04  0.16196399422E+04  0.25500000920E-02 0. -1.
       -2   -1    0    0    0  501  0.00000000000E+00  0.00000000000E+00 -0.15620769181E+04  0.15620769181E+04  0.25500000920E-02 0.  1.
    10030    2    1    2    0    0  0.00000000000E+00  0.00000000000E+00  0.57563024013E+02  0.31817168603E+04  0.31811961080E+04 0.  0.
        5    1    3    3  502    0  0.11983828491E+04 -0.81246064340E+03 -0.62993569085E+03  0.15789410422E+04  0.46999998093E+01 0.  1.
       -5    1    3    3    0  502 -0.11983828491E+04  0.81246064340E+03  0.68749871486E+03  0.16027758181E+04  0.46999998093E+01 0. -1.
</event>
<event>
 5   0  0.1886248E-06  0.3139808E+04  0.7818609E-02  0.8204897E-01
       -1   -1    0    0    0  501  0.00000000000E+00  0.00000000000E+00  0.99554790808E+03  0.99554790809E+03  0.50400001928E-02 0.  1.
        1   -1    0    0  501    0  0.00000000000E+00  0.00000000000E+00 -0.24756207046E+04  0.24756207046E+04  0.50400001928E-02 0. -1.
    10030    2    1    2    0    0  0.00000000000E+00  0.00000000000E+00 -0.14800727965E+04  0.34711686127E+04  0.31398082831E+04 0.  0.
        4    1    3    3  502    0  0.88314184288E+03  0.75028114675E+03  0.43085853067E+03  0.12363260089E+04  0.12699999809E+01 0.  1.
       -4    1    3    3    0  502 -0.88314184288E+03 -0.75028114675E+03 -0.19109313272E+04  0.22348426039E+04  0.12699999809E+01 0. -1.
</event>
<event>
 5   0  0.5108810E-06  0.3117005E+04  0.7818609E-02  0.8211086E-01
        2   -1    0    0  501    0  0.00000000000E+00  0.00000000000E+00  0.17264257564E+04  0.17264257564E+04  0.25500000920E-02 0.  1.
       -2   -1    0    0    0  501  0.00000000000E+00  0.00000000000E+00 -0.14069129355E+04  0.14069129355E+04  0.25500000920E-02 0. -1.
    10030    2    1    2    0    0  0.00000000000E+00  0.00000000000E+00  0.31951282086E+03  0.31333386919E+04  0.31170054404E+04 0.  0.
        1    1    3    3  502    0 -0.30506420211E+03 -0.12037951413E+04 -0.78684874706E+03  0.14701421225E+04  0.50400001928E-02 0. -1.
       -1    1    3    3    0  502  0.30506420211E+03  0.12037951413E+04  0.11063615679E+04  0.16631965694E+04  0.50400001928E-02 0.  1.
</event>
<event>
 5   0  0.1977015E-06  0.3153669E+04  0.7818609E-02  0.8201161E-01
       -1   -1    0    0    0  501  0.00000000000E+00  0.00000000000E+00  0.17372070175E+04  0.17372070175E+04  0.50400001928E-02 0.  1.
        1   -1    0    0  501    0  0.00000000000E+00  0.00000000000E+00 -0.14312672142E+04  0.14312672142E+04  0.50400001928E-02 0. -1.
    10030    2    1    2    0    0  0.00000000000E+00  0.00000000000E+00  0.30593980332E+03  0.31684742318E+04  0.31536692588E+04 0.  0.
        1    1    3    3  502    0  0.14874878917E+04 -0.50769864996E+03  0.28017113730E+03  0.15965193433E+04  0.50400001928E-02 0.  1.
       -1    1    3    3    0  502 -0.14874878917E+04  0.50769864996E+03  0.25768666018E+02  0.15719548885E+04  0.50400001928E-02 0. -1.
</event>
<event>
 5   0  0.5108810E-06  0.3340784E+04  0.7818609E-02  0.8152595E-01
       -2   -1    0    0    0  501  0.00000000000E+00  0.00000000000E+00  0.11403706087E+04  0.11403706087E+04  0.25500000920E-02 0.  1.
        2   -1    0    0  501    0  0.00000000000E+00  0.00000000000E+00 -0.24467572881E+04  0.24467572881E+04  0.25500000920E-02 0. -1.
    10030    2    1    2    0    0  0.00000000000E+00  0.00000000000E+00 -0.13063866794E+04  0.35871278967E+04  0.33407843976E+04 0.  0.
        1    1    3    3  502    0  0.26894638989E+03  0.16461925201E+04 -0.55758767466E+03  0.17587455725E+04  0.50400001928E-02 0. -1.
       -1    1    3    3    0  502 -0.26894638989E+03 -0.16461925201E+04 -0.74879900474E+03  0.18283823242E+04  0.50400001928E-02 0.  1.
</event>
<event>
 5   0  0.1886248E-06  0.2941865E+04  0.7818609E-02  0.8260529E-01
       -1   -1    0    0    0  501  0.00000000000E+00  0.00000000000E+00  0.86011392362E+03  0.86011392364E+03  0.50400001928E-02 0. -1.
        1   -1    0    0  501    0  0.00000000000E+00  0.00000000000E+00 -0.25155303915E+04  0.25155303915E+04  0.50400001928E-02 0.  1.
    10030    2    1    2    0    0  0.00000000000E+00  0.00000000000E+00 -0.16554164679E+04  0.33756443151E+04  0.29418652009E+04 0.  0.
        4    1    3    3  502    0 -0.10037444786E+04  0.49809737932E+03 -0.19211249598E+04  0.22240338805E+04  0.12699999809E+01 0.  1.
       -4    1    3    3    0  502  0.10037444786E+04 -0.49809737932E+03  0.26570849190E+03  0.11516104346E+04  0.12699999809E+01 0. -1.
</event>
<event>
 5   0  0.5347280E-06  0.3225814E+04  0.7818609E-02  0.8182033E-01
        2   -1    0    0  501    0  0.00000000000E+00  0.00000000000E+00  0.20477748558E+04  0.20477748558E+04  0.25500000920E-02 0.  1.
       -2   -1    0    0    0  501  0.00000000000E+00  0.00000000000E+00 -0.12703883201E+04  0.12703883201E+04  0.25500000920E-02 0. -1.
    10030    2    1    2    0    0  0.00000000000E+00  0.00000000000E+00  0.77738653573E+03  0.33181631760E+04  0.32258141664E+04 0.  0.
        2    1    3    3  502    0  0.18736999380E+03 -0.15531569469E+04  0.79244159032E+03  0.17536726292E+04  0.25500000920E-02 0.  1.
       -2    1    3    3    0  502 -0.18736999380E+03  0.15531569469E+04 -0.15055054586E+02  0.15644905468E+04  0.25500000920E-02 0. -1.
</event>
<event>
 5   0  0.5347280E-06  0.2780615E+04  0.7818609E-02  0.8309312E-01
       -2   -1    0    0    0  501  0.00000000000E+00  0.00000000000E+00  0.26959890921E+04  0.26959890921E+04  0.25500000920E-02 0.  1.
        2   -1    0    0  501    0  0.00000000000E+00  0.00000000000E+00 -0.71697429109E+03  0.71697429109E+03  0.25500000920E-02 0. -1.
    10030    2    1    2    0    0  0.00000000000E+00  0.00000000000E+00  0.19790148010E+04  0.34129633831E+04  0.27806149450E+04 0.  0.
        2    1    3    3  502    0  0.13544676766E+04  0.13374975876E+03  0.64129570900E+03  0.15045703278E+04  0.25500000920E-02 0. -1.
       -2    1    3    3    0  502 -0.13544676766E+04 -0.13374975876E+03  0.13377190920E+04  0.19083930554E+04  0.25500000920E-02 0.  1.
</event>
<event>
 5   0  0.1886248E-06  0.3145090E+04  0.7818609E-02  0.8203471E-01
        1   -1    0    0  501    0  0.00000000000E+00  0.00000000000E+00  0.15612572700E+04  0.15612572700E+04  0.50400001928E-02 0.  1.
       -1   -1    0    0    0  501  0.00000000000E+00  0.00000000000E+00 -0.15839147020E+04  0.15839147020E+04  0.50400001928E-02 0. -1.
    10030    2    1    2    0    0  0.00000000000E+00  0.00000000000E+00 -0.22657432071E+02  0.31451719720E+04  0.31450903603E+04 0.  0.
        4    1    3    3  502    0  0.34843309963E+03 -0.13349469231E+04 -0.76593945650E+03  0.15780221090E+04  0.12699999809E+01 0. -1.
       -4    1    3    3    0  502 -0.34843309963E+03  0.13349469231E+04  0.74328202443E+03  0.15671498630E+04  0.12699999809E+01 0.  1.
</event>
<event>
 5   0  0.1846850E-06  0.3223986E+04  0.7818609E-02  0.8182511E-01
       -1   -1    0    0    0  501  0.00000000000E+00  0.00000000000E+00  0.11964160034E+04  0.11964160034E+04  0.50400001928E-02 0. -1.
        1   -1    0    0  501    0  0.00000000000E+00  0.00000000000E+00 -0.21719212926E+04  0.21719212926E+04  0.50400001928E-02 0.  1.
    10030    2    1    2    0    0  0.00000000000E+00  0.00000000000E+00 -0.97550528913E+03  0.33683372960E+04  0.32239859755E+04 0.  0.
        5    1    3    3  502    0 -0.14391719252E+04 -0.58848011945E+03 -0.93221119789E+03  0.18128884380E+04  0.46999998093E+01 0.  1.
       -5    1    3    3    0  502  0.14391719252E+04  0.58848011945E+03 -0.43294091247E+02  0.15554488579E+04  0.46999998093E+01 0. -1.
</event>
<event>
 5   0  0.1969465E-06  0.2430207E+04  0.7818609E-02  0.8428280E-01
       -1   -1    0    0    0  501  0.00000000000E+00  0.00000000000E+00  0.68961682415E+03  0.68961682417E+03  0.50400001928E-02 0. -1.
        1   -1    0    0  501    0  0.00000000000E+00  0.00000000000E+00 -0.21410103024E+04  0.21410103024E+04  0.50400001928E-02 0.  1.
    10030    2    1    2    0    0  0.00000000000E+00  0.00000000000E+00 -0.14513934782E+04  0.28306271265E+04  0.24302071724E+04 0.  0.
        2    1    3    3  502    0 -0.11254656876E+04 -0.36026430894E+03 -0.10551702949E+04  0.15842498974E+04  0.25500000920E-02 0.  1.
       -2    1    3    3    0  502  0.11254656876E+04  0.36026430894E+03 -0.39622318333E+03  0.12463772291E+04  0.25500000920E-02 0. -1.
</event>
<event>
 5   0  0.5131083E-06  0.3204542E+04  0.7818609E-02  0.8187619E-01
       -2   -1    0    0    0  501  0.00000000000E+00  0.00000000000E+00  0.10359089599E+04  0.10359089599E+04  0.25500000920E-02 0.  1.
        2   -1    0    0  501    0  0.00000000000E+00  0.00000000000E+00 -0.24782792836E+04  0.24782792836E+04  0.25500000920E-02 0. -1.
    10030    2    1    2    0    0  0.00000000000E+00  0.00000000000E+00 -0.14423703236E+04  0.35141882435E+04  0.32045415991E+04 0.  0.
        3    1    3    3  502    0  0.51439420488E+03 -0.14960991407E+04 -0.99938652745E+03  0.18712796366E+04  0.10100000352E+00 0. -1.
       -3    1    3    3    0  502 -0.51439420488E+03  0.14960991407E+04 -0.44298379620E+03  0.16429086069E+04  0.10100000352E+00 0.  1.
</event>
<event>
 5   0  0.1969465E-06  0.3302847E+04  0.7818609E-02  0.8162171E-01
        1   -1    0    0  501    0  0.00000000000E+00  0.00000000000E+00  0.13514192573E+04  0.13514192573E+04  0.50400001928E-02 0. -1.
       -1   -1    0    0    0  501  0.00000000000E+00  0.00000000000E+00 -0.20180264656E+04  0.20180264656E+04  0.50400001928E-02 0.  1.
    10030    2    1    2    0    0  0.00000000000E+00  0.00000000000E+00 -0.66660720833E+03  0.33694457229E+04  0.33028471520E+04 0.  0.
        2    1    3    3  502    0 -0.70172357973E+03 -0.13379449054E+04  0.34699149127E+03  0.15501340739E+04  0.25500000920E-02 0. -1.
       -2    1    3    3    0  502  0.70172357973E+03  0.13379449054E+04 -0.10135986996E+04  0.18193116490E+04  0.25500000920E-02 0.  1.
</event>
<event>
 5   0  0.1977015E-06  0.2429665E+04  0.7818609E-02  0.8428480E-01
        1   -1    0    0  501    0  0.00000000000E+00  0.00000000000E+00  0.19046700037E+04  0.19046700037E+04  0.50400001928E-02 0. -1.
       -1   -1    0    0    0  501  0.00000000000E+00  0.00000000000E+00 -0.77484177625E+03  0.77484177627E+03  0.50400001928E-02 0.  1.
    10030    2    1    2    0    0  0.00000000000E+00  0.00000000000E+00  0.11298282274E+04  0.26795117800E+04  0.24296649060E+04 0.  0.
        1    1    3    3  502    0 -0.10307000234E+04  0.52430493978E+03  0.97545750754E+03  0.15128633637E+04  0.50400001928E-02 0.  1.
       -1    1    3    3    0  502  0.10307000234E+04 -0.52430493978E+03  0.15437071991E+03  0.11666484163E+04  0.50400001928E-02 0. -1.
</event>
<event>
 5   0  0.5108810E-06  0.3222255E+04  0.7818609E-02  0.8182964E-01
        2   -1    0    0  501    0  0.00000000000E+00  0.00000000000E+00  0.20291452088E+04  0.20291452088E+04  0.25500000920E-02 0. -1.
       -2   -1    0    0    0  501  0.00000000000E+00  0.00000000000E+00 -0.12792239116E+04  0.12792239116E+04  0.25500000920E-02 0.  1.
    10030    2    1    2    0    0  0.00000000000E+00  0.00000000000E+00  0.74992129713E+03  0.33083691204E+04  0.32222545345E+04 0.  0.
        1    1    3    3  502    0  0.90270242363E+03  0.77415793870E+03  0.14909964478E+04  0.19071608708E+04  0.50400001928E-02 0. -1.
       -1    1    3    3    0  502 -0.90270242363E+03 -0.77415793870E+03 -0.74107515070E+03  0.14012082496E+04  0.50400001928E-02 0.  1.
</event>
<event>
 5   0  0.1846850E-06  0.3137106E+04  0.7818609E-02  0.8205628E-01
       -1   -1    0    0    0  501  0.00000000000E+00  0.00000000000E+00  0.16281975404E+04  0.16281975404E+04  0.50400001928E-02 0.  1.
        1   -1    0    0  501    0  0.00000000000E+00  0.00000000000E+00 -0.15110932087E+04  0.15110932088E+04  0.50400001928E-02 0. -1.
    10030    2    1    2    0    0  0.00000000000E+00  0.00000000000E+00  0.11710433161E+03  0.31392907491E+04  0.31371058291E+04 0.  0.
        5    1    3    3  502    0 -0.51007818029E+03 -0.36666702245E+03 -0.13797072479E+04  0.15159942728E+04  0.46999998093E+01 0. -1.
       -5    1    3    3    0  502  0.51007818029E+03  0.36666702245E+03  0.14968115795E+04  0.16232964763E+04  0.46999998093E+01 0.  1.
</event>
<event>
 5   0  0.1846850E-06  0.2590273E+04  0.7818609E-02  0.8371513E-01
       -1   -1    0    0    0  501  0.00000000000E+00  0.00000000000E+00  0.15015484716E+04  0.15015484716E+04  0.50400001928E-02 0.  1.
        1   -1    0    0  501    0  0.00000000000E+00  0.00000000000E+00 -0.11170995431E+04  0.11170995431E+04  0.50400001928E-02 0. -1.
    10030    2    1    2    0    0  0.00000000000E+00  0.00000000000E+00  0.38444892845E+03  0.26186480147E+04  0.25902734308E+04 0.  0.
        5    1    3    3  502    0 -0.88634922768E+03  0.67184835267E+03 -0.47864243492E+03  0.12108327023E+04  0.46999998093E+01 0. -1.
       -5    1    3    3    0  502  0.88634922768E+03 -0.67184835267E+03  0.86309136336E+03  0.14078153124E+04  0.46999998093E+01 0.  1.
</event>
<event>
 5   0  0.5347280E-06  0.3178471E+04  0.7818609E-02  0.8194526E-01
        2   -1    0    0  501    0  0.00000000000E+00  0.00000000000E+00  0.21950072615E+04  0.21950072615E+04  0.25500000920E-02 0. -1.
       -2   -1    0    0    0  501  0.00000000000E+00  0.00000000000E+00 -0.11506429996E+04  0.11506429996E+04  0.25500000920E-02 0.  1.
    10030    2    1    2    0    0  0.00000000000E+00  0.00000000000E+00  0.10443642619E+04  0.33456502610E+04  0.31784711667E+04 0.  0.
        2    1    3    3  502    0 -0.30574115552E+03  0.60115567228E+03  0.20369000228E+04  0.21456531638E+04  0.25500000920E-02 0. -1.
       -2    1    3    3    0  502  0.30574115552E+03 -0.60115567228E+03 -0.99253576096E+03  0.11999970972E+04  0.25500000920E-02 0.  1.
</event>
<event>
 5   0  0.5347280E-06  0.3180706E+04  0.7818609E-02  0.8193931E-01
        2   -1    0    0  501    0  0.00000000000E+00  0.00000000000E+00  0.19230965018E+04  0.19230965018E+04  0.25500000920E-02 0. -1.
       -2   -1    0    0    0  501  0.00000000000E+00  0.00000000000E+00 -0.13151822058E+04  0.13151822058E+04  0.25500000920E-02 0.  1.
    10030    2    1    2    0    0  0.00000000000E+00  0.00000000000E+00  0.60791429592E+03  0.32382787076E+04  0.31807057702E+04 0.  0.
        2    1    3    3  502    0  0.10479948338E+04  0.10337643487E+04 -0.30881802047E+03  0.15041045409E+04  0.25500000920E-02 0.  1.
       -2    1    3    3    0  502 -0.10479948338E+04 -0.10337643487E+04  0.91673231639E+03  0.17341741666E+04  0.25500000920E-02 0. -1.
</event>
<event>
 5   0  0.1881144E-06  0.3265214E+04  0.7818609E-02  0.8171804E-01
       -1   -1    0    0    0  501  0.00000000000E+00  0.00000000000E+00  0.17833506403E+04  0.17833506403E+04  0.50400001928E-02 0. -1.
        1   -1    0    0  501    0  0.00000000000E+00  0.00000000000E+00 -0.14946051770E+04  0.14946051770E+04  0.50400001928E-02 0.  1.
    10030    2    1    2    0    0  0.00000000000E+00  0.00000000000E+00  0.28874546326E+03  0.32779558173E+04  0.32652136833E+04 0.  0.
        3    1    3    3  502    0  0.14860806125E+04 -0.21247510044E+03 -0.49986658671E+03  0.15822287666E+04  0.10100000352E+00 0.  1.
       -3    1    3    3    0  502 -0.14860806125E+04  0.21247510044E+03  0.78861204998E+03  0.16957270507E+04  0.10100000352E+00 0. -1.
</event>
<event>
 5   0  0.5373060E-06  0.3209966E+04  0.7818609E-02  0.8186190E-01
        2   -1    0    0  501    0  0.00000000000E+00  0.00000000000E+00  0.27919844949E+04  0.27919844949E+04  0.25500000920E-02 0. -1.
       -2   -1    0    0    0  501  0.00000000000E+00  0.00000000000E+00 -0.92263073170E+03  0.92263073170E+03  0.25500000920E-02 0.  1.
    10030    2    1    2    0    0  0.00000000000E+00  0.00000000000E+00  0.18693537632E+04  0.37146152266E+04  0.32099661664E+04 0.  0.
        5    1    3    3  502    0 -0.17450935491E+03  0.16002421496E+03  0.27716548273E+04  0.27817537338E+04  0.46999998093E+01 0. -1.
       -5    1    3    3    0  502  0.17450935491E+03 -0.16002421496E+03 -0.90230106410E+03  0.93286149272E+03  0.46999998093E+01 0.  1.
</event>
<event>
 5   0  0.1886248E-06  0.3135079E+04  0.7818609E-02  0.8206176E-01
        1   -1    0    0  501    0  0.00000000000E+00  0.00000000000E+00  0.21026157865E+04  0.21026157865E+04  0.50400001928E-02 0.  1.
       -1   -1    0    0    0  501  0.00000000000E+00  0.00000000000E+00 -0.11686300019E+04  0.11686300019E+04  0.50400001928E-02 0. -1.
    10030    2    1    2    0    0  0.00000000000E+00  0.00000000000E+00  0.93398578454E+03  0.32712457884E+04  0.31350788766E+04 0.  0.
        4    1    3    3  502    0  0.13459154102E+04 -0.80027466958E+03  0.39138579958E+03  0.16140360266E+04  0.12699999809E+01 0. -1.
       -4    1    3    3    0  502 -0.13459154102E+04  0.80027466958E+03  0.54259998496E+03  0.16572097618E+04  0.12699999809E+01 0.  1.
</event>
<event>
 5   0  0.5347280E-06  0.3090869E+04  0.7818609E-02  0.8218248E-01
        2   -1    0    0  501    0  0.00000000000E+00  0.00000000000E+00  0.24849848724E+04  0.24849848724E+04  0.25500000920E-02 0.  1.
       -2   -1    0    0    0  501  0.00000000000E+00  0.00000000000E+00 -0.96111943886E+03  0.96111943887E+03  0.25500000920E-02 0. -1.
    10030    2    1    2    0    0  0.00000000000E+00  0.00000000000E+00  0.15238654335E+04  0.34461043112E+04  0.30908686586E+04 0.  0.
        2    1    3    3  502    0 -0.70946176917E+03  0.42512140746E+03 -0.69359767926E+03  0.10794174140E+04  0.25500000920E-02 0. -1.
       -2    1    3    3    0  502  0.70946176917E+03 -0.42512140746E+03  0.22174631128E+04  0.23666868972E+04  0.25500000920E-02 0.  1.
</event>
<event>
 5   0  0.1846850E-06  0.3227560E+04  0.7818609E-02  0.8181576E-01
       -1   -1    0    0    0  501  0.00000000000E+00  0.00000000000E+00  0.15392462350E+04  0.15392462350E+04  0.50400001928E-02 0.  1.
        1   -1    0    0  501    0  0.00000000000E+00  0.00000000000E+00 -0.16919232785E+04  0.16919232785E+04  0.50400001928E-02 0. -1.
    10030    2    1    2    0    0  0.00000000000E+00  0.00000000000E+00 -0.15267704357E+03  0.32311695135E+04  0.32275604015E+04 0.  0.
        5    1    3    3  502    0 -0.64293027789E+03  0.13826994009E+04 -0.60517865927E+03  0.16405731544E+04  0.46999998093E+01 0. -1.
       -5    1    3    3    0  502  0.64293027789E+03 -0.13826994009E+04  0.45250161570E+03  0.15905963591E+04  0.46999998093E+01 0.  1.
</event>
<event>
 5   0  0.1729500E-06  0.3285289E+04  0.7818609E-02  0.8166649E-01
       -3   -1    0    0    0  501  0.00000000000E+00  0.00000000000E+00  0.17690077633E+04  0.17690077662E+04  0.10100000352E+00 0. -1.
        3   -1    0    0  501    0  0.00000000000E+00  0.00000000000E+00 -0.15253078882E+04  0.15253078916E+04  0.10100000352E+00 0.  1.
    10030    2    1    2    0    0  0.00000000000E+00  0.00000000000E+00  0.24369987505E+03  0.32943156578E+04  0.32852893364E+04 0.  0.
        2    1    3    3  502    0 -0.27460771434E+03 -0.15236335569E+04 -0.42866929984E+03  0.16064326880E+04  0.25500000920E-02 0.  1.
       -2    1    3    3    0  502  0.27460771434E+03  0.15236335569E+04  0.67236917489E+03  0.16878829698E+04  0.25500000920E-02 0. -1.
</event>
<event>
 5   0  0.1969465E-06  0.2132676E+04  0.7818609E-02  0.8546984E-01
        1   -1    0    0  501    0  0.00000000000E+00  0.00000000000E+00  0.11450006139E+04  0.11450006139E+04  0.50400001928E-02 0.  1.
       -1   -1    0    0    0  501  0.00000000000E+00  0.00000000000E+00 -0.99307991639E+03  0.99307991640E+03  0.50400001928E-02 0. -1.
    10030    2    1    2    0    0  0.00000000000E+00  0.00000000000E+00  0.15192069746E+03  0.21380805303E+04  0.21326763598E+04 0.  0.
        2    1    3    3  502    0 -0.64017806663E+03 -0.84088299932E+03  0.21832348696E+03  0.10791558370E+04  0.25500000920E-02 0. -1.
       -2    1    3    3    0  502  0.64017806663E+03  0.84088299932E+03 -0.66402789496E+02  0.10589246933E+04  0.25500000920E-02 0.  1.
</event>
<event>
 5   0  0.1846850E-06  0.3224922E+04  0.7818609E-02  0.8182266E-01
        1   -1    0    0  501    0  0.00000000000E+00  0.00000000000E+00  0.21711079141E+04  0.21711079141E+04  0.50400001928E-02 0.  1.
       -1   -1    0    0    0  501  0.00000000000E+00  0.00000000000E+00 -0.11975596148E+04  0.11975596148E+04  0.50400001928E-02 0. -1.
    10030    2    1    2    0    0  0.00000000000E+00  0.00000000000E+00  0.97354829931E+03  0.33686675290E+04  0.32249224223E+04 0.  0.
        5    1    3    3  502    0  0.94835167969E+03 -0.35619532090E+02  0.18484783479E+04  0.20778676454E+04  0.46999998093E+01 0.  1.
       -5    1    3    3    0  502 -0.94835167969E+03  0.35619532090E+02 -0.87493004856E+03  0.12907998835E+04  0.46999998093E+01 0. -1.
</event>
<event>
 5   0  0.5347280E-06  0.3214485E+04  0.7818609E-02  0.8185002E-01
       -2   -1    0    0    0  501  0.00000000000E+00  0.00000000000E+00  0.13373984034E+04  0.13373984034E+04  0.25500000920E-02 0. -1.
        2   -1    0    0  501    0  0.00000000000E+00  0.00000000000E+00 -0.19315326119E+04  0.19315326120E+04  0.25500000920E-02 0.  1.
    10030    2    1    2    0    0  0.00000000000E+00  0.00000000000E+00 -0.59413420853E+03  0.32689310154E+04  0.32144851105E+04 0.  0.
        2    1    3    3  502    0 -0.54578684918E+03 -0.14998990353E+04 -0.10506175588E+03  0.15995681834E+04  0.25500000920E-02 0.  1.
       -2    1    3    3    0  502  0.54578684918E+03  0.14998990353E+04 -0.48907245264E+03  0.16693628320E+04  0.25500000920E-02 0. -1.
</event>
<event>
 5   0  0.5347280E-06  0.3235330E+04  0.7818609E-02  0.8179549E-01
        2   -1    0    0  501    0  0.00000000000E+00  0.00000000000E+00  0.82993123323E+03  0.82993123323E+03  0.25500000920E-02 0.  1.
       -2   -1    0    0    0  501  0.00000000000E+00  0.00000000000E+00 -0.31530797268E+04  0.31530797268E+04  0.25500000920E-02 0. -1.
    10030    2    1    2    0    0  0.00000000000E+00  0.00000000000E+00 -0.23231484935E+04  0.39830109600E+04  0.32353295635E+04 0.  0.
        2    1    3    3  502    0 -0.49075197526E+02  0.46889884964E+03  0.74347530247E+03  0.88035789972E+03  0.25500000920E-02 0.  1.
       -2    1    3    3    0  502  0.49075197526E+02 -0.46889884964E+03 -0.30666237960E+04  0.31026530603E+04  0.25500000920E-02 0. -1.
</event>
<event>
 5   0  0.1886248E-06  0.3215385E+04  0.7818609E-02  0.8184766E-01
        1   -1    0    0  501    0  0.00000000000E+00  0.00000000000E+00  0.22542285351E+04  0.22542285351E+04  0.50400001928E-02 0. -1.
       -1   -1    0    0    0  501  0.00000000000E+00  0.00000000000E+00 -0.11465900228E+04  0.11465900228E+04  0.50400001928E-02 0.  1.
    10030    2    1    2    0    0  0.00000000000E+00  0.00000000000E+00  0.11076385123E+04  0.34008185579E+04  0.32153854808E+04 0.  0.
        4    1    3    3  502    0  0.10181535616E+04 -0.11966264597E+04  0.19339905966E+03  0.15830212786E+04  0.12699999809E+01 0.  1.
       -4    1    3    3    0  502 -0.10181535616E+04  0.11966264597E+04  0.91423945263E+03  0.18177972794E+04  0.12699999809E+01 0. -1.
</event>
<event>
 5   0  0.5121624E-06  0.3104118E+04  0.7818609E-02  0.8214609E-01
        2   -1    0    0  501    0  0.00000000000E+00  0.00000000000E+00  0.20206500850E+04  0.20206500850E+04  0.25500000920E-02 0. -1.
       -2   -1    0    0    0  501  0.00000000000E+00  0.00000000000E+00 -0.11921346195E+04  0.11921346195E+04  0.25500000920E-02 0.  1.
    10030    2    1    2    0    0  0.00000000000E+00  0.00000000000E+00  0.82851546559E+03  0.32127847045E+04  0.31041178587E+04 0.  0.
        4    1    3    3  502    0  0.13425238572E+04 -0.77027641715E+02  0.12163595198E+04  0.18132389967E+04  0.12699999809E+01 0. -1.
       -4    1    3    3    0  502 -0.13425238572E+04  0.77027641715E+02 -0.38784405425E+03  0.13995457078E+04  0.12699999809E+01 0.  1.
</event>
<event>
 5   0  0.1729500E-06  0.3044876E+04  0.7818609E-02  0.8231031E-01
       -3   -1    0    0    0  501  0.00000000000E+00  0.00000000000E+00  0.15464496868E+04  0.15464496901E+04  0.10100000352E+00 0. -1.
        3   -1    0    0  501    0  0.00000000000E+00  0.00000000000E+00 -0.14987987639E+04  0.14987987673E+04  0.10100000352E+00 0.  1.
    10030    2    1    2    0    0  0.00000000000E+00  0.00000000000E+00  0.47650922934E+02  0.30452484574E+04  0.30448756225E+04 0.  0.
        3    1    3    3  502    0 -0.93716261890E+03 -0.11926495120E+04 -0.10707313140E+03  0.15205759759E+04  0.10100000352E+00 0. -1.
       -3    1    3    3    0  502  0.93716261890E+03  0.11926495120E+04  0.15472405434E+03  0.15246724815E+04  0.10100000352E+00 0.  1.
</event>
<event>
 5   0  0.1729500E-06  0.3225743E+04  0.7818609E-02  0.8182051E-01
        3   -1    0    0  501    0  0.00000000000E+00  0.00000000000E+00  0.12986924898E+04  0.12986924938E+04  0.10100000352E+00 0. -1.
       -3   -1    0    0    0  501  0.00000000000E+00  0.00000000000E+00 -0.20030562668E+04  0.20030562693E+04  0.10100000352E+00 0.  1.
    10030    2    1    2    0    0  0.00000000000E+00  0.00000000000E+00 -0.70436377692E+03  0.33017487631E+04  0.32257427926E+04 0.  0.
        2    1    3    3  502    0 -0.15774227176E+04  0.30678848859E+03 -0.49316820450E+03  0.16809510655E+04  0.25500000920E-02 0.  1.
       -2    1    3    3    0  502  0.15774227176E+04 -0.30678848859E+03 -0.21119557242E+03  0.16207976976E+04  0.25500000920E-02 0. -1.
</event>
<event>
 5   0  0.1881144E-06  0.2397244E+04  0.7818609E-02  0.8440536E-01
        1   -1    0    0  501    0  0.00000000000E+00  0.00000000000E+00  0.13743360359E+04  0.13743360359E+04  0.50400001928E-02 0.  1.
       -1   -1    0    0    0  501  0.00000000000E+00  0.00000000000E+00 -0.10453735170E+04  0.10453735170E+04  0.50400001928E-02 0. -1.
    10030    2    1    2    0    0  0.00000000000E+00  0.00000000000E+00  0.32896251888E+03  0.24197095529E+04  0.23972438302E+04 0.  0.
        3    1    3    3  502    0  0.29046058202E+03  0.72150638156E+03 -0.75607199210E+03  0.10847044186E+04  0.10100000352E+00 0. -1.
       -3    1    3    3    0  502 -0.29046058202E+03 -0.72150638156E+03  0.10850345110E+04  0.13350051343E+04  0.10100000352E+00 0.  1.
</event>
<event>
 5   0  0.5347280E-06  0.3180175E+04  0.7818609E-02  0.8194073E-01
       -2   -1    0    0    0  501  0.00000000000E+00  0.00000000000E+00  0.17290098132E+04  0.17290098133E+04  0.25500000920E-02 0. -1.
        2   -1    0    0  501    0  0.00000000000E+00  0.00000000000E+00 -0.14623274512E+04  0.14623274512E+04  0.25500000920E-02 0.  1.
    10030    2    1    2    0    0  0.00000000000E+00  0.00000000000E+00  0.26668236208E+03  0.31913372644E+04  0.31801751607E+04 0.  0.
        2    1    3    3  502    0  0.20667779323E+03 -0.75427244612E+03 -0.12559804534E+04  0.14795707258E+04  0.25500000920E-02 0.  1.
       -2    1    3    3    0  502 -0.20667779323E+03  0.75427244612E+03  0.15226628155E+04  0.17117665387E+04  0.25500000920E-02 0. -1.
</event>
<event>
 5   0  0.1977015E-06  0.2449085E+04  0.7818609E-02  0.8421352E-01
       -1   -1    0    0    0  501  0.00000000000E+00  0.00000000000E+00  0.10089888445E+04  0.10089888445E+04  0.50400001928E-02 0.  1.
        1   -1    0    0  501    0  0.00000000000E+00  0.00000000000E+00 -0.14861451637E+04  0.14861451637E+04  0.50400001928E-02 0. -1.
    10030    2    1    2    0    0  0.00000000000E+00  0.00000000000E+00 -0.47715631915E+03  0.24951340082E+04  0.24490846384E+04 0.  0.
        1    1    3    3  502    0  0.70230315084E+03 -0.43951428461E+03  0.68009796063E+03  0.10718842093E+04  0.50400001928E-02 0.  1.
       -1    1    3    3    0  502 -0.70230315084E+03  0.43951428461E+03 -0.11572542798E+04  0.14232497989E+04  0.50400001928E-02 0. -1.
</event>
<event>
 5   0  0.5347280E-06  0.3168711E+04  0.7818609E-02  0.8197130E-01
       -2   -1    0    0    0  501  0.00000000000E+00  0.00000000000E+00  0.16200501645E+04  0.16200501645E+04  0.25500000920E-02 0.  1.
        2   -1    0    0  501    0  0.00000000000E+00  0.00000000000E+00 -0.15494475192E+04  0.15494475192E+04  0.25500000920E-02 0. -1.
    10030    2    1    2    0    0  0.00000000000E+00  0.00000000000E+00  0.70602645327E+02  0.31694976837E+04  0.31687112259E+04 0.  0.
        2    1    3    3  502    0 -0.80098742689E+02 -0.14613466756E+04 -0.57167116691E+03  0.15712281304E+04  0.25500000920E-02 0. -1.
       -2    1    3    3    0  502  0.80098742689E+02  0.14613466756E+04  0.64227381224E+03  0.15982695532E+04  0.25500000920E-02 0.  1.
</event>
<event>
 5   0  0.5347280E-06  0.3163794E+04  0.7818609E-02  0.8198445E-01
       -2   -1    0    0    0  501  0.00000000000E+00  0.00000000000E+00  0.17371947799E+04  0.17371947799E+04  0.25500000920E-02 0. -1.
        2   -1    0    0  501    0  0.00000000000E+00  0.00000000000E+00 -0.14404826084E+04  0.14404826084E+04  0.25500000920E-02 0.  1.
    10030    2    1    2    0    0  0.00000000000E+00  0.00000000000E+00  0.29671217154E+03  0.31776773884E+04  0.31637944737E+04 0.  0.
        2    1    3    3  502    0  0.14396702540E+04 -0.11078898651E+03  0.79731376470E+03  0.16494344119E+04  0.25500000920E-02 0.  1.
       -2    1    3    3    0  502 -0.14396702540E+04  0.11078898651E+03 -0.50060159316E+03  0.15282429764E+04  0.25500000920E-02 0. -1.
</event>
<event>
 5   0  0.1881144E-06  0.3051476E+04  0.7818609E-02  0.8229182E-01
        1   -1    0    0  501    0  0.00000000000E+00  0.00000000000E+00  0.15785474356E+04  0.15785474357E+04  0.50400001928E-02 0. -1.
       -1   -1    0    0    0  501  0.00000000000E+00  0.00000000000E+00 -0.14746957156E+04  0.14746957156E+04  0.50400001928E-02 0.  1.
    10030    2    1    2    0    0  0.00000000000E+00  0.00000000000E+00  0.10385172005E+03  0.30532431513E+04  0.30514764559E+04 0.  0.
        3    1    3    3  502    0 -0.82871456726E+03  0.65119341033E+03 -0.10519156641E+04  0.14890759773E+04  0.10100000352E+00 0.  1.
       -3    1    3    3    0  502  0.82871456726E+03 -0.65119341033E+03  0.11557673841E+04  0.15641671740E+04  0.10100000352E+00 0. -1.
</event>
<event>
 5   0  0.1977015E-06  0.3394724E+04  0.7818609E-02  0.8139202E-01
        1   -1    0    0  501    0  0.00000000000E+00  0.00000000000E+00  0.19643703501E+04  0.19643703501E+04  0.50400001928E-02 0. -1.
       -1   -1    0    0    0  501  0.00000000000E+00  0.00000000000E+00 -0.14666473668E+04  0.14666473668E+04  0.50400001928E-02 0.  1.
    10030    2    1    2    0    0  0.00000000000E+00  0.00000000000E+00  0.49772298329E+03  0.34310177170E+04  0.33947244964E+04 0.  0.
        1    1    3    3  502    0  0.62576500383E+03 -0.82709840714E+03 -0.11091421486E+04  0.15185091112E+04  0.50400001928E-02 0.  1.
       -1    1    3    3    0  502 -0.62576500383E+03  0.82709840714E+03  0.16068651319E+04  0.19125086058E+04  0.50400001928E-02 0. -1.
</event>
<event>
 5   0  0.1881144E-06  0.3059142E+04  0.7818609E-02  0.8227041E-01
        1   -1    0    0  501    0  0.00000000000E+00  0.00000000000E+00  0.18812440108E+04  0.18812440109E+04  0.50400001928E-02 0. -1.
       -1   -1    0    0    0  501  0.00000000000E+00  0.00000000000E+00 -0.12436388199E+04  0.12436388200E+04  0.50400001928E-02 0.  1.
    10030    2    1    2    0    0  0.00000000000E+00  0.00000000000E+00  0.63760519091E+03  0.31248828308E+04  0.30591424169E+04 0.  0.
        3    1    3    3  502    0 -0.30292710289E+02 -0.20518974362E+03  0.18668122255E+04  0.18782993305E+04  0.10100000352E+00 0. -1.
       -3    1    3    3    0  502  0.30292710289E+02  0.20518974362E+03 -0.12292070346E+04  0.12465835004E+04  0.10100000352E+00 0.  1.
</event>
<event>
 5   0  0.1729500E-06  0.3211846E+04  0.7818609E-02  0.8185696E-01
       -3   -1    0    0    0  501  0.00000000000E+00  0.00000000000E+00  0.16208768235E+04  0.16208768267E+04  0.10100000352E+00 0. -1.
        3   -1    0    0  501    0  0.00000000000E+00  0.00000000000E+00 -0.15911070932E+04  0.15911070964E+04  0.10100000352E+00 0.  1.
    10030    2    1    2    0    0  0.00000000000E+00  0.00000000000E+00  0.29769730314E+02  0.32119839231E+04  0.32118459623E+04 0.  0.
        1    1    3    3  502    0  0.30271822214E+03 -0.15155553194E+04  0.45130064603E+03  0.16100368075E+04  0.50400001928E-02 0. -1.
       -1    1    3    3    0  502 -0.30271822214E+03  0.15155553194E+04 -0.42153091572E+03  0.16019471156E+04  0.50400001928E-02 0.  1.
</event>
<event>
 5   0  0.1886248E-06  0.3158661E+04  0.7818609E-02  0.8199821E-01
        1   -1    0    0  501    0  0.00000000000E+00  0.00000000000E+00  0.20688092587E+04  0.20688092588E+04  0.50400001928E-02 0. -1.
       -1   -1    0    0    0  501  0.00000000000E+00  0.00000000000E+00 -0.12056619379E+04  0.12056619379E+04  0.50400001928E-02 0.  1.
    10030    2    1    2    0    0  0.00000000000E+00  0.00000000000E+00  0.86314732085E+03  0.32744711967E+04  0.31586608429E+04 0.  0.
        4    1    3    3  502    0  0.10788776369E+04  0.70015621622E+03 -0.51859430376E+03  0.13867722767E+04  0.12699999809E+01 0.  1.
       -4    1    3    3    0  502 -0.10788776369E+04 -0.70015621622E+03  0.13817416246E+04  0.18876989200E+04  0.12699999809E+01 0. -1.
</event>
<event>
 5   0  0.1886248E-06  0.3078273E+04  0.7818609E-02  0.8221726E-01
       -1   -1    0    0    0  501  0.00000000000E+00  0.00000000000E+00  0.14265837639E+04  0.14265837639E+04  0.50400001928E-02 0.  1.
        1   -1    0    0  501    0  0.00000000000E+00  0.00000000000E+00 -0.16605691980E+04  0.16605691980E+04  0.50400001928E-02 0. -1.
    10030    2    1    2    0    0  0.00000000000E+00  0.00000000000E+00 -0.23398543404E+03  0.30871529619E+04  0.30782729293E+04 0.  0.
        4    1    3    3  502    0  0.10498980556E+04 -0.81736222307E+03 -0.89289925291E+03  0.16023849786E+04  0.12699999809E+01 0. -1.
       -4    1    3    3    0  502 -0.10498980556E+04  0.81736222307E+03  0.65891381887E+03  0.14847679834E+04  0.12699999809E+01 0.  1.
</event>
<event>
 5   0  0.5108810E-06  0.3184871E+04  0.7818609E-02  0.8192824E-01
        2   -1    0    0  501    0  0.00000000000E+00  0.00000000000E+00  0.19705607589E+04  0.19705607589E+04  0.25500000920E-02 0.  1.
       -2   -1    0    0    0  501  0.00000000000E+00  0.00000000000E+00 -0.12868674109E+04  0.12868674109E+04  0.25500000920E-02 0. -1.
    10030    2    1    2    0    0  0.00000000000E+00  0.00000000000E+00  0.68369334800E+03  0.32574281699E+04  0.31848707490E+04 0.  0.
        1    1    3    3  502    0  0.93724232719E+01 -0.10805201753E+04 -0.85451908735E+03  0.13776119055E+04  0.50400001928E-02 0. -1.
       -1    1    3    3    0  502 -0.93724232719E+01  0.10805201753E+04  0.15382124353E+04  0.18798162644E+04  0.50400001928E-02 0.  1.
</event>
<event>
 5   0  0.5131083E-06  0.3213213E+04  0.7818609E-02  0.8185336E-01
        2   -1    0    0  501    0  0.00000000000E+00  0.00000000000E+00  0.15731734001E+04  0.15731734001E+04  0.25500000920E-02 0. -1.
       -2   -1    0    0    0  501  0.00000000000E+00  0.00000000000E+00 -0.16407502782E+04  0.16407502782E+04  0.25500000920E-02 0.  1.
    10030    2    1    2    0    0  0.00000000000E+00  0.00000000000E+00 -0.67576878080E+02  0.32139236783E+04  0.32132131544E+04 0.  0.
        3    1    3    3  502    0  0.14685436330E+03  0.84475630000E+03 -0.13927666441E+04  0.16355361034E+04  0.10100000352E+00 0.  1.
       -3    1    3    3    0  502 -0.14685436330E+03 -0.84475630000E+03  0.13251897660E+04  0.15783875749E+04  0.10100000352E+00 0. -1.
</event>
<event>
 5   0  0.1729500E-06  0.2137817E+04  0.7818609E-02  0.8544765E-01
       -3   -1    0    0    0  501  0.00000000000E+00  0.00000000000E+00  0.47046681205E+03  0.47046682289E+03  0.10100000352E+00 0. -1.
        3   -1    0    0  501    0  0.00000000000E+00  0.00000000000E+00 -0.24285776999E+04  0.24285777020E+04  0.10100000352E+00 0.  1.
    10030    2    1    2    0    0  0.00000000000E+00  0.00000000000E+00 -0.19581108879E+04  0.28990445249E+04  0.21378168556E+04 0.  0.
        2    1    3    3  502    0  0.89928276033E+03  0.15326550271E+03 -0.17345321169E+04  0.19597962807E+04  0.25500000920E-02 0.  1.
       -2    1    3    3    0  502 -0.89928276033E+03 -0.15326550271E+03 -0.22357877094E+03  0.93924824417E+03  0.25500000920E-02 0. -1.
</event>
<event>
 5   0  0.5347280E-06  0.2743318E+04  0.7818609E-02  0.8321085E-01
       -2   -1    0    0    0  501  0.00000000000E+00  0.00000000000E+00  0.15185268857E+04  0.15185268857E+04  0.25500000920E-02 0.  1.
        2   -1    0    0  501    0  0.00000000000E+00  0.00000000000E+00 -0.12389955485E+04  0.12389955485E+04  0.25500000920E-02 0. -1.
    10030    2    1    2    0    0  0.00000000000E+00  0.00000000000E+00  0.27953133724E+03  0.27575224342E+04  0.27433177371E+04 0.  0.
        2    1    3    3  502    0 -0.65711624996E+03 -0.99033006251E+03 -0.54853732252E+03  0.13089876214E+04  0.25500000920E-02 0. -1.
       -2    1    3    3    0  502  0.65711624996E+03  0.99033006251E+03  0.82806865975E+03  0.14485348128E+04  0.25500000920E-02 0.  1.
</event>
<event>
 5   0  0.5121624E-06  0.3183649E+04  0.7818609E-02  0.8193149E-01
        2   -1    0    0  501    0  0.00000000000E+00  0.00000000000E+00  0.18971457405E+04  0.18971457405E+04  0.25500000920E-02 0.  1.
       -2   -1    0    0    0  501  0.00000000000E+00  0.00000000000E+00 -0.13356407892E+04  0.13356407892E+04  0.25500000920E-02 0. -1.
    10030    2    1    2    0    0  0.00000000000E+00  0.00000000000E+00  0.56150495132E+03  0.32327865297E+04  0.31836489970E+04 0.  0.
        4    1    3    3  502    0  0.13595034280E+04  0.81411320656E+03  0.12717751530E+03  0.15897187227E+04  0.12699999809E+01 0. -1.
       -4    1    3    3    0  502 -0.13595034280E+04 -0.81411320656E+03  0.43432743602E+03  0.16430678070E+04  0.12699999809E+01 0.  1.
</event>
<event>
 5   0  0.1886248E-06  0.3220411E+04  0.7818609E-02  0.8183447E-01
        1   -1    0    0  501    0  0.00000000000E+00  0.00000000000E+00  0.18830088496E+04  0.18830088496E+04  0.50400001928E-02 0. -1.
       -1   -1    0    0    0  501  0.00000000000E+00  0.00000000000E+00 -0.13769251618E+04  0.13769251619E+04  0.50400001928E-02 0.  1.
    10030    2    1    2    0    0  0.00000000000E+00  0.00000000000E+00  0.50608368777E+03  0.32599340115E+04  0.32204113185E+04 0.  0.
        4    1    3    3  502    0  0.14769950034E+04  0.63641448935E+03  0.33289603413E+03  0.16423638527E+04  0.12699999809E+01 0.  1.
       -4    1    3    3    0  502 -0.14769950034E+04 -0.63641448935E+03  0.17318765365E+03  0.16175701588E+04  0.12699999809E+01 0. -1.
</event>
<event>
 5   0  0.5373060E-06  0.3234140E+04  0.7818609E-02  0.8179859E-01
        2   -1    0    0  501    0  0.00000000000E+00  0.00000000000E+00  0.20415582814E+04  0.20415582814E+04  0.25500000920E-02 0.  1.
       -2   -1    0    0    0  501  0.00000000000E+00  0.00000000000E+00 -0.12808429987E+04  0.12808429987E+04  0.25500000920E-02 0. -1.
    10030    2    1    2    0    0  0.00000000000E+00  0.00000000000E+00  0.76071528271E+03  0.33224012802E+04  0.32341401524E+04 0.  0.
        5    1    3    3  502    0  0.24240414435E+03 -0.48081774350E+03 -0.11860322711E+04  0.13025513847E+04  0.46999998093E+01 0. -1.
       -5    1    3    3    0  502 -0.24240414435E+03  0.48081774350E+03  0.19467475539E+04  0.20198498954E+04  0.46999998093E+01 0.  1.
</event>
<event>
 5   0  0.5108810E-06  0.3266346E+04  0.7818609E-02  0.8171512E-01
        2   -1    0    0  501    0  0.00000000000E+00  0.00000000000E+00  0.12449159365E+04  0.12449159365E+04  0.25500000920E-02 0. -1.
       -2   -1    0    0    0  501  0.00000000000E+00  0.00000000000E+00 -0.21425170079E+04  0.21425170079E+04  0.25500000920E-02 0.  1.
    10030    2    1    2    0    0  0.00000000000E+00  0.00000000000E+00 -0.89760107147E+03  0.33874329444E+04  0.32663457057E+04 0.  0.
        1    1    3    3  502    0  0.12930372345E+04 -0.37790894464E+03 -0.14063340798E+04  0.19474434534E+04  0.50400001928E-02 0.  1.
       -1    1    3    3    0  502 -0.12930372345E+04  0.37790894464E+03  0.50873300831E+03  0.14399894910E+04  0.50400001928E-02 0. -1.
</event>
<event>
 5   0  0.1886248E-06  0.3198577E+04  0.7818609E-02  0.8189193E-01
       -1   -1    0    0    0  501  0.00000000000E+00  0.00000000000E+00  0.20407258277E+04  0.20407258277E+04  0.50400001928E-02 0.  1.
        1   -1    0    0  501    0  0.00000000000E+00  0.00000000000E+00 -0.12533399750E+04  0.12533399751E+04  0.50400001928E-02 0. -1.
    10030    2    1    2    0    0  0.00000000000E+00  0.00000000000E+00  0.78738585269E+03  0.32940658028E+04  0.31985767198E+04 0.  0.
        4    1    3    3  502    0  0.12996145576E+04 -0.72551316059E+03 -0.20888524114E+03  0.15029976718E+04  0.12699999809E+01 0. -1.
       -4    1    3    3    0  502 -0.12996145576E+04  0.72551316059E+03  0.99627109384E+03  0.17910681310E+04  0.12699999809E+01 0.  1.
</event>
<event>
 5   0  0.1881144E-06  0.2190093E+04  0.7818609E-02  0.8522563E-01
        1   -1    0    0  501    0  0.00000000000E+00  0.00000000000E+00  0.67493930426E+03  0.67493930427E+03  0.50400001928E-02 0. -1.
       -1   -1    0    0    0  501  0.00000000000E+00  0.00000000000E+00 -0.17766432912E+04  0.17766432912E+04  0.50400001928E-02 0.  1.
    10030    2    1    2    0    0  0.00000000000E+00  0.00000000000E+00 -0.11017039869E+04  0.24515825955E+04  0.21900925888E+04 0.  0.
        3    1    3    3  502    0 -0.52224135726E+03 -0.30315988379E+03  0.47171830001E+03  0.76626373732E+03  0.10100000352E+00 0. -1.
       -3    1    3    3    0  502  0.52224135726E+03  0.30315988379E+03 -0.15734222870E+04  0.16853188582E+04  0.10100000352E+00 0.  1.
</event>
<event>
 5   0  0.5121624E-06  0.3027530E+04  0.7818609E-02  0.8235913E-01
       -2   -1    0    0    0  501  0.00000000000E+00  0.00000000000E+00  0.13336784446E+04  0.13336784446E+04  0.25500000920E-02 0. -1.
        2   -1    0    0  501    0  0.00000000000E+00  0.00000000000E+00 -0.17181685563E+04  0.17181685563E+04  0.25500000920E-02 0.  1.
    10030    2    1    2    0    0  0.00000000000E+00  0.00000000000E+00 -0.38449011166E+03  0.30518470009E+04  0.30275299290E+04 0.  0.
        4    1    3    3  502    0 -0.12647989567E+04 -0.24665843953E+03  0.60844330148E+03  0.14250479468E+04  0.12699999809E+01 0. -1.
       -4    1    3    3    0  502  0.12647989567E+04  0.24665843953E+03 -0.99293341314E+03  0.16267990541E+04  0.12699999809E+01 0.  1.
</event>
<event>
 5   0  0.5131083E-06  0.2380359E+04  0.7818609E-02  0.8446894E-01
        2   -1    0    0  501    0  0.00000000000E+00  0.00000000000E+00  0.12347493370E+04  0.12347493370E+04  0.25500000920E-02 0.  1.
       -2   -1    0    0    0  501  0.00000000000E+00  0.00000000000E+00 -0.11472181911E+04  0.11472181911E+04  0.25500000920E-02 0. -1.
    10030    2    1    2    0    0  0.00000000000E+00  0.00000000000E+00  0.87531145892E+02  0.23819675281E+04  0.23803587132E+04 0.  0.
        3    1    3    3  502    0 -0.30708107031E+03 -0.94549462176E+03  0.69862978058E+03  0.12150483299E+04  0.10100000352E+00 0.  1.
       -3    1    3    3    0  502  0.30708107031E+03  0.94549462176E+03 -0.61109863468E+03  0.11669191982E+04  0.10100000352E+00 0. -1.
</event>
<event>
 5   0  0.5347280E-06  0.3208212E+04  0.7818609E-02  0.8186652E-01
        2   -1    0    0  501    0  0.00000000000E+00  0.00000000000E+00  0.20827180528E+04  0.20827180528E+04  0.25500000920E-02 0.  1.
       -2   -1    0    0    0  501  0.00000000000E+00  0.00000000000E+00 -0.12354798514E+04  0.12354798514E+04  0.25500000920E-02 0. -1.
    10030    2    1    2    0    0  0.00000000000E+00  0.00000000000E+00  0.84723820139E+03  0.33181979041E+04  0.32082120817E+04 0.  0.
        2    1    3    3  502    0  0.15369157126E+04  0.32861135736E+03  0.91582397951E+02  0.15743197475E+04  0.25500000920E-02 0. -1.
       -2    1    3    3    0  502 -0.15369157126E+04 -0.32861135736E+03  0.75565580344E+03  0.17438781566E+04  0.25500000920E-02 0.  1.
</event>
<event>
 5   0  0.5347280E-06  0.3222765E+04  0.7818609E-02  0.8182831E-01
       -2   -1    0    0    0  501  0.00000000000E+00  0.00000000000E+00  0.16276292176E+04  0.16276292176E+04  0.25500000920E-02 0.  1.
        2   -1    0    0  501    0  0.00000000000E+00  0.00000000000E+00 -0.15952975405E+04  0.15952975405E+04  0.25500000920E-02 0. -1.
    10030    2    1    2    0    0  0.00000000000E+00  0.00000000000E+00  0.32331677141E+02  0.32229267582E+04  0.32227645820E+04 0.  0.
        2    1    3    3  502    0 -0.92279793559E+02 -0.15978507417E+04 -0.17068663920E+03  0.16095889170E+04  0.25500000920E-02 0. -1.
       -2    1    3    3    0  502  0.92279793559E+02  0.15978507417E+04  0.20301831635E+03  0.16133378412E+04  0.25500000920E-02 0.  1.
</event>
<event>
 5   0  0.5121624E-06  0.3196706E+04  0.7818609E-02  0.8189688E-01
        2   -1    0    0  501    0  0.00000000000E+00  0.00000000000E+00  0.18226966473E+04  0.18226966473E+04  0.25500000920E-02 0. -1.
       -2   -1    0    0    0  501  0.00000000000E+00  0.00000000000E+00 -0.14016224325E+04  0.14016224325E+04  0.25500000920E-02 0.  1.
    10030    2    1    2    0    0  0.00000000000E+00  0.00000000000E+00  0.42107421487E+03  0.32243190798E+04  0.31967061226E+04 0.  0.
        4    1    3    3  502    0  0.31763195691E+03  0.54202237443E+03 -0.12718699091E+04  0.14185672325E+04  0.12699999809E+01 0.  1.
       -4    1    3    3    0  502 -0.31763195691E+03 -0.54202237443E+03  0.16929441240E+04  0.18057518473E+04  0.12699999809E+01 0. -1.
</event>
<event>
 5   0  0.5373060E-06  0.3160842E+04  0.7818609E-02  0.8199236E-01
        2   -1    0    0  501    0  0.00000000000E+00  0.00000000000E+00  0.18997321193E+04  0.18997321193E+04  0.25500000920E-02 0. -1.
       -2   -1    0    0    0  501  0.00000000000E+00  0.00000000000E+00 -0.13147806412E+04  0.13147806412E+04  0.25500000920E-02 0.  1.
    10030    2    1    2    0    0  0.00000000000E+00  0.00000000000E+00  0.58495147803E+03  0.32145127605E+04  0.31608423016E+04 0.  0.
        5    1    3    3  502    0 -0.14549578334E+03  0.12263419044E+04 -0.71048777939E+03  0.14247450523E+04  0.46999998093E+01 0.  1.
       -5    1    3    3    0  502  0.14549578334E+03 -0.12263419044E+04  0.12954392574E+04  0.17897677082E+04  0.46999998093E+01 0. -1.
</event>
<event>
 5   0  0.5373060E-06  0.2890608E+04  0.7818609E-02  0.8275677E-01
       -2   -1    0    0    0  501  0.00000000000E+00  0.00000000000E+00  0.65197927937E+03  0.65197927938E+03  0.25500000920E-02 0. -1.
        2   -1    0    0  501    0  0.00000000000E+00  0.00000000000E+00 -0.32039421276E+04  0.32039421276E+04  0.25500000920E-02 0.  1.
    10030    2    1    2    0    0  0.00000000000E+00  0.00000000000E+00 -0.25519628483E+04  0.38559214070E+04  0.28906081571E+04 0.  0.
        5    1    3    3  502    0 -0.13904948441E+04 -0.73681047206E+02 -0.75938516892E+03  0.15860620205E+04  0.46999998093E+01 0.  1.
       -5    1    3    3    0  502  0.13904948441E+04  0.73681047206E+02 -0.17925776793E+04  0.22698593865E+04  0.46999998093E+01 0. -1.
</event>
<event>
 5   0  0.5131083E-06  0.2510324E+04  0.7818609E-02  0.8399317E-01
       -2   -1    0    0    0  501  0.00000000000E+00  0.00000000000E+00  0.81510936954E+03  0.81510936954E+03  0.25500000920E-02 0.  1.
        2   -1    0    0  501    0  0.00000000000E+00  0.00000000000E+00 -0.19327852991E+04  0.19327852991E+04  0.25500000920E-02 0. -1.
    10030    2    1    2    0    0  0.00000000000E+00  0.00000000000E+00 -0.11176759295E+04  0.27478946686E+04  0.25103238091E+04 0.  0.
        3    1    3    3  502    0 -0.91070474428E+02  0.11353039822E+04  0.18548246948E+02  0.11391018440E+04  0.10100000352E+00 0.  1.
       -3    1    3    3    0  502  0.91070474428E+02 -0.11353039822E+04 -0.11362241765E+04  0.16087928246E+04  0.10100000352E+00 0. -1.
</event>
<event>
 5   0  0.1977015E-06  0.3167981E+04  0.7818609E-02  0.8197325E-01
       -1   -1    0    0    0  501  0.00000000000E+00  0.00000000000E+00  0.80241773781E+03  0.80241773782E+03  0.50400001928E-02 0.  1.
        1   -1    0    0  501    0  0.00000000000E+00  0.00000000000E+00 -0.31268332596E+04  0.31268332596E+04  0.50400001928E-02 0. -1.
    10030    2    1    2    0    0  0.00000000000E+00  0.00000000000E+00 -0.23244155218E+04  0.39292509974E+04  0.31679813577E+04 0.  0.
        1    1    3    3  502    0 -0.16161798063E+03 -0.11320632541E+04 -0.25216473796E+04  0.27688252184E+04  0.50400001928E-02 0. -1.
       -1    1    3    3    0  502  0.16161798063E+03  0.11320632541E+04  0.19723185775E+03  0.11604257791E+04  0.50400001928E-02 0.  1.
</event>
<event>
 5   0  0.1977015E-06  0.2544384E+04  0.7818609E-02  0.8387342E-01
        1   -1    0    0  501    0  0.00000000000E+00  0.00000000000E+00  0.14005877803E+04  0.14005877803E+04  0.50400001928E-02 0.  1.
       -1   -1    0    0    0  501  0.00000000000E+00  0.00000000000E+00 -0.11555667947E+04  0.11555667947E+04  0.50400001928E-02 0. -1.
    10030    2    1    2    0    0  0.00000000000E+00  0.00000000000E+00  0.24502098560E+03  0.25561545750E+04  0.25443841943E+04 0.  0.
        1    1    3    3  502    0 -0.66486475305E+03 -0.32564437570E+03 -0.91686887761E+03  0.11784472572E+04  0.50400001928E-02 0. -1.
       -1    1    3    3    0  502  0.66486475305E+03  0.32564437570E+03  0.11618898632E+04  0.13777073178E+04  0.50400001928E-02 0.  1.
</event>
<event>
 5   0  0.5347280E-06  0.3227598E+04  0.7818609E-02  0.8181566E-01
        2   -1    0    0  501    0  0.00000000000E+00  0.00000000000E+00  0.20071890400E+04  0.20071890400E+04  0.25500000920E-02 0.  1.
       -2   -1    0    0    0  501  0.00000000000E+00  0.00000000000E+00 -0.12975095883E+04  0.12975095883E+04  0.25500000920E-02 0. -1.
    10030    2    1    2    0    0  0.00000000000E+00  0.00000000000E+00  0.70967945171E+03  0.33046986284E+04  0.32275978839E+04 0.  0.
        2    1    3    3  502    0 -0.14886935585E+04 -0.33015567982E+03  0.89579350871E+03  0.17685183895E+04  0.25500000920E-02 0.  1.
       -2    1    3    3    0  502  0.14886935585E+04  0.33015567982E+03 -0.18611405699E+03  0.15361802388E+04  0.25500000920E-02 0. -1.
</event>
<event>
 5   0  0.5121624E-06  0.2029030E+04  0.7818609E-02  0.8593167E-01
       -2   -1    0    0    0  501  0.00000000000E+00  0.00000000000E+00  0.43090946159E+03  0.43090946159E+03  0.25500000920E-02 0.  1.
        2   -1    0    0  501    0  0.00000000000E+00  0.00000000000E+00 -0.23885303116E+04  0.23885303116E+04  0.25500000920E-02 0. -1.
    10030    2    1    2    0    0  0.00000000000E+00  0.00000000000E+00 -0.19576208500E+04  0.28194397732E+04  0.20290296307E+04 0.  0.
        4    1    3    3  502    0  0.78212722957E+03  0.54023174361E+03 -0.48622425028E+03  0.10677026620E+04  0.12699999809E+01 0. -1.
       -4    1    3    3    0  502 -0.78212722957E+03 -0.54023174361E+03 -0.14713965998E+04  0.17517371112E+04  0.12699999809E+01 0.  1.
</event>
<event>
 5   0  0.1846850E-06  0.2878441E+04  0.7818609E-02  0.8279321E-01
        1   -1    0    0  501    0  0.00000000000E+00  0.00000000000E+00  0.61819033267E+03  0.61819033269E+03  0.50400001928E-02 0. -1.
       -1   -1    0    0    0  501  0.00000000000E+00  0.00000000000E+00 -0.33506759084E+04  0.33506759084E+04  0.50400001928E-02 0.  1.
    10030    2    1    2    0    0  0.00000000000E+00  0.00000000000E+00 -0.27324855757E+04  0.39688662411E+04  0.28784408658E+04 0.  0.
        5    1    3    3  502    0  0.55322841261E+03  0.50744607999E+03  0.32683426407E+03  0.81878319889E+03  0.46999998093E+01 0. -1.
       -5    1    3    3    0  502 -0.55322841261E+03 -0.50744607999E+03 -0.30593198398E+04  0.31500830422E+04  0.46999998093E+01 0.  1.
</event>
<event>
 5   0  0.5121624E-06  0.3111746E+04  0.7818609E-02  0.8212522E-01
        2   -1    0    0  501    0  0.00000000000E+00  0.00000000000E+00  0.18746179321E+04  0.18746179321E+04  0.25500000920E-02 0. -1.
       -2   -1    0    0    0  501  0.00000000000E+00  0.00000000000E+00 -0.12913249454E+04  0.12913249454E+04  0.25500000920E-02 0.  1.
    10030    2    1    2    0    0  0.00000000000E+00  0.00000000000E+00  0.58329298669E+03  0.31659428775E+04  0.31117460686E+04 0.  0.
        4    1    3    3  502    0  0.13460192542E+04 -0.10764202587E+03 -0.49472172674E+03  0.14380910396E+04  0.12699999809E+01 0. -1.
       -4    1    3    3    0  502 -0.13460192542E+04  0.10764202587E+03  0.10780147134E+04  0.17278518379E+04  0.12699999809E+01 0.  1.
</event>
<event>
 5   0  0.1846850E-06  0.3127555E+04  0.7818609E-02  0.8208216E-01
       -1   -1    0    0    0  501  0.00000000000E+00  0.00000000000E+00  0.15595080073E+04  0.15595080073E+04  0.50400001928E-02 0. -1.
        1   -1    0    0  501    0  0.00000000000E+00  0.00000000000E+00 -0.15680584837E+04  0.15680584837E+04  0.50400001928E-02 0.  1.
    10030    2    1    2    0    0  0.00000000000E+00  0.00000000000E+00 -0.85504763741E+01  0.31275664910E+04  0.31275548029E+04 0.  0.
        5    1    3    3  502    0  0.31790543664E+02 -0.36299554692E+03 -0.15250048495E+04  0.15679407791E+04  0.46999998093E+01 0.  1.
       -5    1    3    3    0  502 -0.31790543664E+02  0.36299554692E+03  0.15164543731E+04  0.15596257120E+04  0.46999998093E+01 0. -1.
</event>
<event>
 5   0  0.1886248E-06  0.3203862E+04  0.7818609E-02  0.8187798E-01
       -1   -1    0    0    0  501  0.00000000000E+00  0.00000000000E+00  0.87473713418E+03  0.87473713419E+03  0.50400001928E-02 0. -1.
        1   -1    0    0  501    0  0.00000000000E+00  0.00000000000E+00 -0.29336609744E+04  0.29336609744E+04  0.50400001928E-02 0.  1.
    10030    2    1    2    0    0  0.00000000000E+00  0.00000000000E+00 -0.20589238403E+04  0.38083981086E+04  0.32038615410E+04 0.  0.
        4    1    3    3  502    0 -0.11449185614E+03 -0.42003289489E+03 -0.28619903439E+04  0.28949138777E+04  0.12699999809E+01 0.  1.
       -4    1    3    3    0  502  0.11449185614E+03  0.42003289489E+03  0.80306650366E+03  0.91348423090E+03  0.12699999809E+01 0. -1.
</event>
<event>
 5   0  0.1977015E-06  0.3011554E+04  0.7818609E-02  0.8240439E-01
       -1   -1    0    0    0  501  0.00000000000E+00  0.00000000000E+00  0.12460160967E+04  0.12460160967E+04  0.50400001928E-02 0. -1.
        1   -1    0    0  501    0  0.00000000000E+00  0.00000000000E+00 -0.18196907208E+04  0.18196907208E+04  0.50400001928E-02 0.  1.
    10030    2    1    2    0    0  0.00000000000E+00  0.00000000000E+00 -0.57367462414E+03  0.30657068175E+04  0.30115537048E+04 0.  0.
        1    1    3    3  502    0  0.48954239800E+03  0.22357564449E+03 -0.17184418947E+04  0.18007443944E+04  0.50400001928E-02 0.  1.
       -1    1    3    3    0  502 -0.48954239800E+03 -0.22357564449E+03  0.11447672706E+04  0.12649624232E+04  0.50400001928E-02 0. -1.
</event>
<event>
 5   0  0.1977015E-06  0.3168812E+04  0.7818609E-02  0.8197103E-01
       -1   -1    0    0    0  501  0.00000000000E+00  0.00000000000E+00  0.12441218305E+04  0.12441218305E+04  0.50400001928E-02 0.  1.
        1   -1    0    0  501    0  0.00000000000E+00  0.00000000000E+00 -0.20177622463E+04  0.20177622463E+04  0.50400001928E-02 0. -1.
    10030    2    1    2    0    0  0.00000000000E+00  0.00000000000E+00 -0.77364041579E+03  0.32618840768E+04  0.31688118022E+04 0.  0.
        1    1    3    3  502    0  0.20778509822E+02 -0.11635819771E+04  0.71992743666E+03  0.13684481276E+04  0.50400001928E-02 0.  1.
       -1    1    3    3    0  502 -0.20778509822E+02  0.11635819771E+04 -0.14935678525E+04  0.18934359492E+04  0.50400001928E-02 0. -1.
</event>
<event>
 5   0  0.1977015E-06  0.3180724E+04  0.7818609E-02  0.8193926E-01
       -1   -1    0    0    0  501  0.00000000000E+00  0.00000000000E+00  0.12347155437E+04  0.12347155437E+04  0.50400001928E-02 0.  1.
        1   -1    0    0  501    0  0.00000000000E+00  0.00000000000E+00 -0.20484491973E+04  0.20484491973E+04  0.50400001928E-02 0. -1.
    10030    2    1    2    0    0  0.00000000000E+00  0.00000000000E+00 -0.81373365356E+03  0.32831647410E+04  0.31807244863E+04 0.  0.
        1    1    3    3  502    0  0.10700611559E+03  0.65217961033E+03  0.10862561190E+04  0.12715112697E+04  0.50400001928E-02 0.  1.
       -1    1    3    3    0  502 -0.10700611559E+03 -0.65217961033E+03 -0.18999897726E+04  0.20116534713E+04  0.50400001928E-02 0. -1.
</event>
<event>
 5   0  0.1969465E-06  0.3170321E+04  0.7818609E-02  0.8196700E-01
       -1   -1    0    0    0  501  0.00000000000E+00  0.00000000000E+00  0.13373426164E+04  0.13373426164E+04  0.50400001928E-02 0. -1.
        1   -1    0    0  501    0  0.00000000000E+00  0.00000000000E+00 -0.18789006044E+04  0.18789006044E+04  0.50400001928E-02 0.  1.
    10030    2    1    2    0    0  0.00000000000E+00  0.00000000000E+00 -0.54155798805E+03  0.32162432208E+04  0.31703210249E+04 0.  0.
        2    1    3    3  502    0  0.81171009572E+03 -0.98747703543E+03  0.68021600194E+03  0.14479910167E+04  0.25500000920E-02 0. -1.
       -2    1    3    3    0  502 -0.81171009572E+03  0.98747703543E+03 -0.12217739900E+04  0.17682522042E+04  0.25500000920E-02 0.  1.
</event>
<event>
 5   0  0.1846850E-06  0.2132700E+04  0.7818609E-02  0.8546974E-01
        1   -1    0    0  501    0  0.00000000000E+00  0.00000000000E+00  0.10492945983E+04  0.10492945983E+04  0.50400001928E-02 0.  1.
       -1   -1    0    0    0  501  0.00000000000E+00  0.00000000000E+00 -0.10836822164E+04  0.10836822164E+04  0.50400001928E-02 0. -1.
    10030    2    1    2    0    0  0.00000000000E+00  0.00000000000E+00 -0.34387618086E+02  0.21329768147E+04  0.21326996000E+04 0.  0.
        5    1    3    3  502    0  0.10400041965E+04  0.73886705649E+02 -0.24085613088E+03  0.10700942667E+04  0.46999998093E+01 0. -1.
       -5    1    3    3    0  502 -0.10400041965E+04 -0.73886705649E+02  0.20646851280E+03  0.10628825479E+04  0.46999998093E+01 0.  1.
</event>
<event>
 5   0  0.5131083E-06  0.3189192E+04  0.7818609E-02  0.8191677E-01
        2   -1    0    0  501    0  0.00000000000E+00  0.00000000000E+00  0.19141331631E+04  0.19141331631E+04  0.25500000920E-02 0. -1.
       -2   -1    0    0    0  501  0.00000000000E+00  0.00000000000E+00 -0.13284007690E+04  0.13284007690E+04  0.25500000920E-02 0.  1.
    10030    2    1    2    0    0  0.00000000000E+00  0.00000000000E+00  0.58573239411E+03  0.32425339322E+04  0.31891917258E+04 0.  0.
        3    1    3    3  502    0  0.69479329487E+03 -0.58581094905E+03  0.16250580061E+04  0.18619145319E+04  0.10100000352E+00 0. -1.
       -3    1    3    3    0  502 -0.69479329487E+03  0.58581094905E+03 -0.10393256120E+04  0.13806194003E+04  0.10100000352E+00 0.  1.
</event>
<event>
 5   0  0.1881144E-06  0.3340155E+04  0.7818609E-02  0.8152752E-01
        1   -1    0    0  501    0  0.00000000000E+00  0.00000000000E+00  0.15190918592E+04  0.15190918592E+04  0.50400001928E-02 0.  1.
       -1   -1    0    0    0  501  0.00000000000E+00  0.00000000000E+00 -0.18360702076E+04  0.18360702076E+04  0.50400001928E-02 0. -1.
    10030    2    1    2    0    0  0.00000000000E+00  0.00000000000E+00 -0.31697834843E+03  0.33551620667E+04  0.33401552690E+04 0.  0.
        3    1    3    3  502    0 -0.12161887353E+04  0.28751156855E+03  0.95436076865E+03  0.15724447300E+04  0.10100000352E+00 0.  1.
       -3    1    3    3    0  502  0.12161887353E+04 -0.28751156855E+03 -0.12713391171E+04  0.17827173368E+04  0.10100000352E+00 0. -1.
</event>
<event>
 5   0  0.1969465E-06  0.3135555E+04  0.7818609E-02  0.8206047E-01
       -1   -1    0    0    0  501  0.00000000000E+00  0.00000000000E+00  0.14258338295E+04  0.14258338295E+04  0.50400001928E-02 0.  1.
        1   -1    0    0  501    0  0.00000000000E+00  0.00000000000E+00 -0.17238513856E+04  0.17238513856E+04  0.50400001928E-02 0. -1.
    10030    2    1    2    0    0  0.00000000000E+00  0.00000000000E+00 -0.29801755609E+03  0.31496852151E+04  0.31355545746E+04 0.  0.
        2    1    3    3  502    0 -0.15078210532E+03  0.77355742614E+03 -0.15104021719E+04  0.17036552045E+04  0.25500000920E-02 0. -1.
       -2    1    3    3    0  502  0.15078210532E+03 -0.77355742614E+03  0.12123846159E+04  0.14460300106E+04  0.25500000920E-02 0.  1.
</event>
<event>
 5   0  0.5373060E-06  0.3169400E+04  0.7818609E-02  0.8196946E-01
        2   -1    0    0  501    0  0.00000000000E+00  0.00000000000E+00  0.13766406870E+04  0.13766406870E+04  0.25500000920E-02 0.  1.
       -2   -1    0    0    0  501  0.00000000000E+00  0.00000000000E+00 -0.18242043447E+04  0.18242043447E+04  0.25500000920E-02 0. -1.
    10030    2    1    2    0    0  0.00000000000E+00  0.00000000000E+00 -0.44756365761E+03  0.32008450317E+04  0.31693998942E+04 0.  0.
        5    1    3    3  502    0 -0.22343228412E+03 -0.14751102117E+04  0.31572774466E+03  0.15249846625E+04  0.46999998093E+01 0. -1.
       -5    1    3    3    0  502  0.22343228412E+03  0.14751102117E+04 -0.76329140226E+03  0.16758603692E+04  0.46999998093E+01 0.  1.
</event>
<event>
 5   0  0.5131083E-06  0.3186135E+04  0.7818609E-02  0.8192488E-01
        2   -1    0    0  501    0  0.00000000000E+00  0.00000000000E+00  0.22972538122E+04  0.22972538122E+04  0.25500000920E-02 0. -1.
       -2   -1    0    0    0  501  0.00000000000E+00  0.00000000000E+00 -0.11047382295E+04  0.11047382295E+04  0.25500000920E-02 0.  1.
    10030    2    1    2    0    0  0.00000000000E+00  0.00000000000E+00  0.11925155828E+04  0.34019920417E+04  0.31861350311E+04 0.  0.
        3    1    3    3  502    0  0.15786788470E+04  0.14624282117E+03  0.42998274176E+03  0.16427108793E+04  0.10100000352E+00 0.  1.
       -3    1    3    3    0  502 -0.15786788470E+04 -0.14624282117E+03  0.76253284103E+03  0.17592811624E+04  0.10100000352E+00 0. -1.
</event>
<event>
 5   0  0.1977015E-06  0.2511823E+04  0.7818609E-02  0.8398786E-01
        1   -1    0    0  501    0  0.00000000000E+00  0.00000000000E+00  0.10905053462E+04  0.10905053462E+04  0.50400001928E-02 0. -1.
       -1   -1    0    0    0  501  0.00000000000E+00  0.00000000000E+00 -0.14464057067E+04  0.14464057067E+04  0.50400001928E-02 0.  1.
    10030    2    1    2    0    0  0.00000000000E+00  0.00000000000E+00 -0.35590036051E+03  0.25369110530E+04  0.25118225702E+04 0.  0.
        1    1    3    3  502    0 -0.71708585719E+03 -0.82921541484E+03  0.44095324545E+03  0.11816302702E+04  0.50400001928E-02 0. -1.
       -1    1    3    3    0  502  0.71708585719E+03  0.82921541484E+03 -0.79685360595E+03  0.13552807828E+04  0.50400001928E-02 0.  1.
</event>
<event>
 5   0  0.5121624E-06  0.2833543E+04  0.7818609E-02  0.8292930E-01
        2   -1    0    0  501    0  0.00000000000E+00  0.00000000000E+00  0.79424996462E+03  0.79424996462E+03  0.25500000920E-02 0.  1.
       -2   -1    0    0    0  501  0.00000000000E+00  0.00000000000E+00 -0.25272158967E+04  0.25272158967E+04  0.25500000920E-02 0. -1.
    10030    2    1    2    0    0  0.00000000000E+00  0.00000000000E+00 -0.17329659321E+04  0.33214658613E+04  0.28335427553E+04 0.  0.
        4    1    3    3  502    0  0.17905383831E+03  0.10467311626E+04 -0.19658080102E+04  0.22343028330E+04  0.12699999809E+01 0. -1.
       -4    1    3    3    0  502 -0.17905383831E+03 -0.10467311626E+04  0.23284207818E+03  0.10871630283E+04  0.12699999809E+01 0.  1.
</event>
<event>
 5   0  0.5108810E-06  0.3185729E+04  0.7818609E-02  0.8192596E-01
       -2   -1    0    0    0  501  0.00000000000E+00  0.00000000000E+00  0.10933424211E+04  0.10933424211E+04  0.25500000920E-02 0. -1.
        2   -1    0    0  501    0  0.00000000000E+00  0.00000000000E+00 -0.23206063347E+04  0.23206063347E+04  0.25500000920E-02 0.  1.
    10030    2    1    2    0    0  0.00000000000E+00  0.00000000000E+00 -0.12272639136E+04  0.34139487558E+04  0.31857290208E+04 0.  0.
        1    1    3    3  502    0 -0.93244120853E+03  0.33757390759E+03 -0.19494514135E+04  0.21871816486E+04  0.50400001928E-02 0.  1.
       -1    1    3    3    0  502  0.93244120853E+03 -0.33757390759E+03  0.72218749985E+03  0.12267671072E+04  0.50400001928E-02 0. -1.
</event>
<event>
 5   0  0.5131083E-06  0.3200346E+04  0.7818609E-02  0.8188726E-01
       -2   -1    0    0    0  501  0.00000000000E+00  0.00000000000E+00  0.91906881412E+03  0.91906881412E+03  0.25500000920E-02 0.  1.
        2   -1    0    0  501    0  0.00000000000E+00  0.00000000000E+00 -0.27860299655E+04  0.27860299655E+04  0.25500000920E-02 0. -1.
    10030    2    1    2    0    0  0.00000000000E+00  0.00000000000E+00 -0.18669611514E+04  0.37050987796E+04  0.32003457666E+04 0.  0.
        3    1    3    3  502    0  0.50829493581E+03 -0.45765401511E+03 -0.26082721441E+04  0.26964596283E+04  0.10100000352E+00 0. -1.
       -3    1    3    3    0  502 -0.50829493581E+03  0.45765401511E+03  0.74131099275E+03  0.10086391513E+04  0.10100000352E+00 0.  1.
</event>
<event>
 5   0  0.1846850E-06  0.3188699E+04  0.7818609E-02  0.8191808E-01
       -1   -1    0    0    0  501  0.00000000000E+00  0.00000000000E+00  0.14119846990E+04  0.14119846990E+04  0.50400001928E-02 0. -1.
        1   -1    0    0  501    0  0.00000000000E+00  0.00000000000E+00 -0.18002670593E+04  0.18002670593E+04  0.50400001928E-02 0.  1.
    10030    2    1    2    0    0  0.00000000000E+00  0.00000000000E+00 -0.38828236031E+03  0.32122517583E+04  0.31886985068E+04 0.  0.
        5    1    3    3  502    0  0.18845974833E+03  0.15295254651E+04 -0.60576948552E+03  0.16558816337E+04  0.46999998093E+01 0.  1.
       -5    1    3    3    0  502 -0.18845974833E+03 -0.15295254651E+04  0.21748712522E+03  0.15563701246E+04  0.46999998093E+01 0. -1.
</event>
<event>
 5   0  0.1969465E-06  0.2182842E+04  0.7818609E-02  0.8525604E-01
        1   -1    0    0  501    0  0.00000000000E+00  0.00000000000E+00  0.13842926510E+04  0.13842926510E+04  0.50400001928E-02 0. -1.
       -1   -1    0    0    0  501  0.00000000000E+00  0.00000000000E+00 -0.86051150683E+03  0.86051150684E+03  0.50400001928E-02 0.  1.
    10030    2    1    2    0    0  0.00000000000E+00  0.00000000000E+00  0.52378114422E+03  0.22448041579E+04  0.21828419595E+04 0.  0.
        2    1    3    3  502    0  0.51751592586E+03 -0.95467884396E+03  0.37438174380E+03  0.11486496936E+04  0.25500000920E-02 0. -1.
       -2    1    3    3    0  502 -0.51751592586E+03  0.95467884396E+03  0.14939940042E+03  0.10961544642E+04  0.25500000920E-02 0.  1.
</event>
<event>
 5   0  0.1881144E-06  0.3073710E+04  0.7818609E-02  0.8222990E-01
       -1   -1    0    0    0  501  0.00000000000E+00  0.00000000000E+00  0.12589193048E+04  0.12589193048E+04  0.50400001928E-02 0. -1.
        1   -1    0    0  501    0  0.00000000000E+00  0.00000000000E+00 -0.18761516541E+04  0.18761516541E+04  0.50400001928E-02 0.  1.
    10030    2    1    2    0    0  0.00000000000E+00  0.00000000000E+00 -0.61723234930E+03  0.31350709590E+04  0.30737101595E+04 0.  0.
        3    1    3    3  502    0 -0.11772341285E+04 -0.19547882984E+03 -0.12963657187E+04  0.17620034770E+04  0.10100000352E+00 0.  1.
       -3    1    3    3    0  502  0.11772341285E+04  0.19547882984E+03  0.67913336939E+03  0.13730674819E+04  0.10100000352E+00 0. -1.
</event>
<event>
 5   0  0.5347280E-06  0.2196560E+04  0.7818609E-02  0.8519861E-01
        2   -1    0    0  501    0  0.00000000000E+00  0.00000000000E+00  0.14713784512E+04  0.14713784512E+04  0.25500000920E-02 0.  1.
       -2   -1    0    0    0  501  0.00000000000E+00  0.00000000000E+00 -0.81978828843E+03  0.81978828843E+03  0.25500000920E-02 0. -1.
    10030    2    1    2    0    0  0.00000000000E+00  0.00000000000E+00  0.65159016281E+03  0.22911667397E+04  0.21965598760E+04 0.  0.
        2    1    3    3  502    0  0.73326852874E+03 -0.36591512014E+03 -0.43689003675E+03  0.92868160023E+03  0.25500000920E-02 0. -1.
       -2    1    3    3    0  502 -0.73326852874E+03  0.36591512014E+03  0.10884801996E+04  0.13624851394E+04  0.25500000920E-02 0.  1.
</event>
<event>
 5   0  0.5121624E-06  0.2865226E+04  0.7818609E-02  0.8283300E-01
        2   -1    0    0  501    0  0.00000000000E+00  0.00000000000E+00  0.29127722038E+04  0.29127722038E+04  0.25500000920E-02 0. -1.
       -2   -1    0    0    0  501  0.00000000000E+00  0.00000000000E+00 -0.70461382036E+03  0.70461382036E+03  0.25500000920E-02 0.  1.
    10030    2    1    2    0    0  0.00000000000E+00  0.00000000000E+00  0.22081583834E+04  0.36173860241E+04  0.28652256807E+04 0.  0.
        4    1    3    3  502    0  0.93843514251E+03 -0.76094273894E+03  0.13212126726E+03  0.12153814261E+04  0.12699999809E+01 0.  1.
       -4    1    3    3    0  502 -0.93843514251E+03  0.76094273894E+03  0.20760371161E+04  0.24020045981E+04  0.12699999809E+01 0. -1.
</event>
<event>
 5   0  0.1969465E-06  0.3241341E+04  0.7818609E-02  0.8177984E-01
        1   -1    0    0  501    0  0.00000000000E+00  0.00000000000E+00  0.20179549976E+04  0.20179549976E+04  0.50400001928E-02 0.  1.
       -1   -1    0    0    0  501  0.00000000000E+00  0.00000000000E+00 -0.13016014634E+04  0.13016014635E+04  0.50400001928E-02 0. -1.
    10030    2    1    2    0    0  0.00000000000E+00  0.00000000000E+00  0.71635353411E+03  0.33195564610E+04  0.32413411903E+04 0.  0.
        2    1    3    3  502    0  0.73783503266E+03 -0.11703289950E+04  0.12226440563E+04  0.18463285137E+04  0.25500000920E-02 0. -1.
       -2    1    3    3    0  502 -0.73783503266E+03  0.11703289950E+04 -0.50629052218E+03  0.14732279473E+04  0.25500000920E-02 0.  1.
</event>
<event>
 5   0  0.1846850E-06  0.3370715E+04  0.7818609E-02  0.8145132E-01
        1   -1    0    0  501    0  0.00000000000E+00  0.00000000000E+00  0.16540285801E+04  0.16540285801E+04  0.50400001928E-02 0.  1.
       -1   -1    0    0    0  501  0.00000000000E+00  0.00000000000E+00 -0.17172793185E+04  0.17172793185E+04  0.50400001928E-02 0. -1.
    10030    2    1    2    0    0  0.00000000000E+00  0.00000000000E+00 -0.63250738430E+02  0.33713078986E+04  0.33707145076E+04 0.  0.
        5    1    3    3  502    0  0.15465524819E+04  0.63873029974E+03  0.16991942954E+03  0.16818726698E+04  0.46999998093E+01 0. -1.
       -5    1    3    3    0  502 -0.15465524819E+04 -0.63873029974E+03 -0.23317016797E+03  0.16894352288E+04  0.46999998093E+01 0.  1.
</event>
<event>
 5   0  0.1969465E-06  0.3161633E+04  0.7818609E-02  0.8199024E-01
        1   -1    0    0  501    0  0.00000000000E+00  0.00000000000E+00  0.20684910722E+04  0.20684910722E+04  0.50400001928E-02 0. -1.
       -1   -1    0    0    0  501  0.00000000000E+00  0.00000000000E+00 -0.12081178046E+04  0.12081178046E+04  0.50400001928E-02 0.  1.
    10030    2    1    2    0    0  0.00000000000E+00  0.00000000000E+00  0.86037326763E+03  0.32766088769E+04  0.31616330547E+04 0.  0.
        2    1    3    3  502    0 -0.96154902582E+03  0.64802651014E+03 -0.68334796279E+03  0.13459120793E+04  0.25500000920E-02 0.  1.
       -2    1    3    3    0  502  0.96154902582E+03 -0.64802651014E+03  0.15437212304E+04  0.19306967976E+04  0.25500000920E-02 0. -1.
</event>
<event>
 5   0  0.5347280E-06  0.3028214E+04  0.7818609E-02  0.8235720E-01
       -2   -1    0    0    0  501  0.00000000000E+00  0.00000000000E+00  0.13292339980E+04  0.13292339980E+04  0.25500000920E-02 0.  1.
        2   -1    0    0  501    0  0.00000000000E+00  0.00000000000E+00 -0.17246928482E+04  0.17246928482E+04  0.25500000920E-02 0. -1.
    10030    2    1    2    0    0  0.00000000000E+00  0.00000000000E+00 -0.39545885026E+03  0.30539268462E+04  0.30282142394E+04 0.  0.
        2    1    3    3  502    0  0.62946565075E+03 -0.58562831149E+02 -0.15852253320E+04  0.17066329318E+04  0.25500000920E-02 0. -1.
       -2    1    3    3    0  502 -0.62946565075E+03  0.58562831149E+02  0.11897664818E+04  0.13472939144E+04  0.25500000920E-02 0.  1.
</event>
<event>
 5   0  0.5131083E-06  0.3046780E+04  0.7818609E-02  0.8230497E-01
        2   -1    0    0  501    0  0.00000000000E+00  0.00000000000E+00  0.19239786090E+04  0.19239786090E+04  0.25500000920E-02 0. -1.
       -2   -1    0    0    0  501  0.00000000000E+00  0.00000000000E+00 -0.12062075539E+04  0.12062075539E+04  0.25500000920E-02 0.  1.
    10030    2    1    2    0    0  0.00000000000E+00  0.00000000000E+00  0.71777105510E+03  0.31301861628E+04  0.30467802885E+04 0.  0.
        3    1    3    3  502    0 -0.94938543507E+03  0.11913442010E+04  0.34948002946E+03  0.15629363425E+04  0.10100000352E+00 0. -1.
       -3    1    3    3    0  502  0.94938543507E+03 -0.11913442010E+04  0.36829102564E+03  0.15672498203E+04  0.10100000352E+00 0.  1.
</event>
<event>
 5   0  0.5347280E-06  0.3226460E+04  0.7818609E-02  0.8181864E-01
        2   -1    0    0  501    0  0.00000000000E+00  0.00000000000E+00  0.20210627861E+04  0.20210627861E+04  0.25500000920E-02 0. -1.
       -2   -1    0    0    0  501  0.00000000000E+00  0.00000000000E+00 -0.12876946847E+04  0.12876946847E+04  0.25500000920E-02 0.  1.
    10030    2    1    2    0    0  0.00000000000E+00  0.00000000000E+00  0.73336810141E+03  0.33087574707E+04  0.32264604799E+04 0.  0.
        2    1    3    3  502    0  0.87708188107E+03  0.65308913196E+03 -0.84961804155E+03  0.13847919905E+04  0.25500000920E-02 0.  1.
       -2    1    3    3    0  502 -0.87708188107E+03 -0.65308913196E+03  0.15829861430E+04  0.19239654803E+04  0.25500000920E-02 0. -1.
</event>
<event>
 5   0  0.1881144E-06  0.3164835E+04  0.7818609E-02  0.8198166E-01
       -1   -1    0    0    0  501  0.00000000000E+00  0.00000000000E+00  0.14164445309E+04  0.14164445310E+04  0.50400001928E-02 0. -1.
        1   -1    0    0  501    0  0.00000000000E+00  0.00000000000E+00 -0.17678388407E+04  0.17678388407E+04  0.50400001928E-02 0.  1.
    10030    2    1    2    0    0  0.00000000000E+00  0.00000000000E+00 -0.35139430974E+03  0.31842833716E+04  0.31648353243E+04 0.  0.
        3    1    3    3  502    0  0.60156021022E+03  0.78441877363E+03 -0.14189513610E+04  0.17293381607E+04  0.10100000352E+00 0.  1.
       -3    1    3    3    0  502 -0.60156021022E+03 -0.78441877363E+03  0.10675570513E+04  0.14549452109E+04  0.10100000352E+00 0. -1.
</event>
<event>
 5   0  0.1846850E-06  0.1992883E+04  0.7818609E-02  0.8609955E-01
       -1   -1    0    0    0  501  0.00000000000E+00  0.00000000000E+00  0.77888929512E+03  0.77888929513E+03  0.50400001928E-02 0.  1.
        1   -1    0    0  501    0  0.00000000000E+00  0.00000000000E+00 -0.12747590228E+04  0.12747590229E+04  0.50400001928E-02 0. -1.
    10030    2    1    2    0    0  0.00000000000E+00  0.00000000000E+00 -0.49586972773E+03  0.20536483180E+04  0.19928834956E+04 0.  0.
        5    1    3    3  502    0 -0.20199857876E+03  0.30885735277E+03  0.70585546330E+03  0.79652389497E+03  0.46999998093E+01 0.  1.
       -5    1    3    3    0  502  0.20199857876E+03 -0.30885735277E+03 -0.12017251910E+04  0.12571244230E+04  0.46999998093E+01 0. -1.
</event>
<event>
 5   0  0.5131083E-06  0.3155634E+04  0.7818609E-02  0.8200633E-01
        2   -1    0    0  501    0  0.00000000000E+00  0.00000000000E+00  0.17504206199E+04  0.17504206199E+04  0.25500000920E-02 0. -1.
       -2   -1    0    0    0  501  0.00000000000E+00  0.00000000000E+00 -0.14222334996E+04  0.14222334996E+04  0.25500000920E-02 0.  1.
    10030    2    1    2    0    0  0.00000000000E+00  0.00000000000E+00  0.32818712027E+03  0.31726541195E+04  0.31556342272E+04 0.  0.
        3    1    3    3  502    0 -0.68042902809E+02  0.89067934211E+03  0.14717110226E+04  0.17215902158E+04  0.10100000352E+00 0. -1.
       -3    1    3    3    0  502  0.68042902809E+02 -0.89067934211E+03 -0.11435239023E+04  0.14510639036E+04  0.10100000352E+00 0.  1.
</event>
<event>
 5   0  0.1846850E-06  0.2912165E+04  0.7818609E-02  0.8269267E-01
        1   -1    0    0  501    0  0.00000000000E+00  0.00000000000E+00  0.15882277578E+04  0.15882277578E+04  0.50400001928E-02 0.  1.
       -1   -1    0    0    0  501  0.00000000000E+00  0.00000000000E+00 -0.13349318436E+04  0.13349318436E+04  0.50400001928E-02 0. -1.
    10030    2    1    2    0    0  0.00000000000E+00  0.00000000000E+00  0.25329591424E+03  0.29231596014E+04  0.29121646991E+04 0.  0.
        5    1    3    3  502    0  0.12499415462E+04 -0.70720623632E+03 -0.11438190951E+03  0.14406942218E+04  0.46999998093E+01 0.  1.
       -5    1    3    3    0  502 -0.12499415462E+04  0.70720623632E+03  0.36767782375E+03  0.14824653796E+04  0.46999998093E+01 0. -1.
</event>
<event>
 5   0  0.1969465E-06  0.2712826E+04  0.7818609E-02  0.8330855E-01
        1   -1    0    0  501    0  0.00000000000E+00  0.00000000000E+00  0.29983231227E+04  0.29983231227E+04  0.50400001928E-02 0. -1.
       -1   -1    0    0    0  501  0.00000000000E+00  0.00000000000E+00 -0.61362860553E+03  0.61362860555E+03  0.50400001928E-02 0.  1.
    10030    2    1    2    0    0  0.00000000000E+00  0.00000000000E+00  0.23846945172E+04  0.36119517283E+04  0.27128264499E+04 0.  0.
        2    1    3    3  502    0 -0.22805848996E+03 -0.85782542683E+03  0.25579488643E+04  0.27075777976E+04  0.25500000920E-02 0. -1.
       -2    1    3    3    0  502  0.22805848996E+03  0.85782542683E+03 -0.17325434707E+03  0.90437393070E+03  0.25500000920E-02 0.  1.
</event>
<event>
 5   0  0.5373060E-06  0.2742015E+04  0.7818609E-02  0.8321500E-01
       -2   -1    0    0    0  501  0.00000000000E+00  0.00000000000E+00  0.11486669366E+04  0.11486669366E+04  0.25500000920E-02 0. -1.
        2   -1    0    0  501    0  0.00000000000E+00  0.00000000000E+00 -0.16363853931E+04  0.16363853931E+04  0.25500000920E-02 0.  1.
    10030    2    1    2    0    0  0.00000000000E+00  0.00000000000E+00 -0.48771845652E+03  0.27850523298E+04  0.27420151690E+04 0.  0.
        5    1    3    3  502    0 -0.37902766448E+03 -0.66466172139E+03  0.91162661615E+03  0.11901774454E+04  0.46999998093E+01 0. -1.
       -5    1    3    3    0  502  0.37902766448E+03  0.66466172139E+03 -0.13993450727E+04  0.15948748844E+04  0.46999998093E+01 0.  1.
</event>
<event>
 5   0  0.1977015E-06  0.3139903E+04  0.7818609E-02  0.8204871E-01
       -1   -1    0    0    0  501  0.00000000000E+00  0.00000000000E+00  0.26691704562E+04  0.26691704562E+04  0.50400001928E-02 0. -1.
        1   -1    0    0  501    0  0.00000000000E+00  0.00000000000E+00 -0.92341365606E+03  0.92341365608E+03  0.50400001928E-02 0.  1.
    10030    2    1    2    0    0  0.00000000000E+00  0.00000000000E+00  0.17457568001E+04  0.35925841123E+04  0.31399034696E+04 0.  0.
        1    1    3    3  502    0  0.50376175377E+03  0.30747212361E+03 -0.79165669201E+03  0.98743877248E+03  0.50400001928E-02 0.  1.
       -1    1    3    3    0  502 -0.50376175377E+03 -0.30747212361E+03  0.25374134922E+04  0.26051453398E+04  0.50400001928E-02 0. -1.
</event>
<event>
 5   0  0.5131083E-06  0.3178417E+04  0.7818609E-02  0.8194541E-01
       -2   -1    0    0    0  501  0.00000000000E+00  0.00000000000E+00  0.16876122237E+04  0.16876122237E+04  0.25500000920E-02 0.  1.
        2   -1    0    0  501    0  0.00000000000E+00  0.00000000000E+00 -0.14965423345E+04  0.14965423345E+04  0.25500000920E-02 0. -1.
    10030    2    1    2    0    0  0.00000000000E+00  0.00000000000E+00  0.19106988921E+03  0.31841545582E+04  0.31784166731E+04 0.  0.
        3    1    3    3  502    0  0.21626097418E+03  0.12483499354E+04 -0.86559096873E+03  0.15344035015E+04  0.10100000352E+00 0. -1.
       -3    1    3    3    0  502 -0.21626097418E+03 -0.12483499354E+04  0.10566608579E+04  0.16497510567E+04  0.10100000352E+00 0.  1.
</event>
<event>
 5   0  0.5108810E-06  0.3230193E+04  0.7818609E-02  0.8180888E-01
        2   -1    0    0  501    0  0.00000000000E+00  0.00000000000E+00  0.13606928925E+04  0.13606928925E+04  0.25500000920E-02 0.  1.
       -2   -1    0    0    0  501  0.00000000000E+00  0.00000000000E+00 -0.19170652848E+04  0.19170652848E+04  0.25500000920E-02 0. -1.
    10030    2    1    2    0    0  0.00000000000E+00  0.00000000000E+00 -0.55637239223E+03  0.32777581773E+04  0.32301932497E+04 0.  0.
        1    1    3    3  502    0  0.11026634688E+04 -0.72448989829E+03 -0.12234530208E+04  0.17993303288E+04  0.50400001928E-02 0. -1.
       -1    1    3    3    0  502 -0.11026634688E+04  0.72448989829E+03  0.66708062860E+03  0.14784278485E+04  0.50400001928E-02 0.  1.
</event>
<event>
 5   0  0.5131083E-06  0.3190323E+04  0.7818609E-02  0.8191378E-01
        2   -1    0    0  501    0  0.00000000000E+00  0.00000000000E+00  0.95109145673E+03  0.95109145674E+03  0.25500000920E-02 0. -1.
       -2   -1    0    0    0  501  0.00000000000E+00  0.00000000000E+00 -0.26753891031E+04  0.26753891031E+04  0.25500000920E-02 0.  1.
    10030    2    1    2    0    0  0.00000000000E+00  0.00000000000E+00 -0.17242976464E+04  0.36264805599E+04  0.31903226918E+04 0.  0.
        3    1    3    3  502    0 -0.90980345319E+02 -0.32675553817E+03 -0.26339238508E+04  0.26556734488E+04  0.10100000352E+00 0.  1.
       -3    1    3    3    0  502  0.90980345319E+02  0.32675553817E+03  0.90962620437E+03  0.97080711104E+03  0.10100000352E+00 0. -1.
</event>
<event>
 5   0  0.1969465E-06  0.3205238E+04  0.7818609E-02  0.8187435E-01
       -1   -1    0    0    0  501  0.00000000000E+00  0.00000000000E+00  0.12893919177E+04  0.12893919177E+04  0.50400001928E-02 0. -1.
        1   -1    0    0  501    0  0.00000000000E+00  0.00000000000E+00 -0.19919366890E+04  0.19919366890E+04  0.50400001928E-02 0.  1.
    10030    2    1    2    0    0  0.00000000000E+00  0.00000000000E+00 -0.70254477134E+03  0.32813286067E+04  0.32052376307E+04 0.  0.
        2    1    3    3  502    0 -0.50837947619E+03  0.10220253159E+04 -0.15028777693E+04  0.18872273386E+04  0.25500000920E-02 0.  1.
       -2    1    3    3    0  502  0.50837947619E+03 -0.10220253159E+04  0.80033299795E+03  0.13941012681E+04  0.25500000920E-02 0. -1.
</event>
<event>
 5   0  0.5121624E-06  0.3149356E+04  0.7818609E-02  0.8202322E-01
        2   -1    0    0  501    0  0.00000000000E+00  0.00000000000E+00  0.12759836705E+04  0.12759836705E+04  0.25500000920E-02 0. -1.
       -2   -1    0    0    0  501  0.00000000000E+00  0.00000000000E+00 -0.19432941267E+04  0.19432941267E+04  0.25500000920E-02 0.  1.
    10030    2    1    2    0    0  0.00000000000E+00  0.00000000000E+00 -0.66731045624E+03  0.32192777972E+04  0.31493564883E+04 0.  0.
        4    1    3    3  502    0  0.15467196073E+04 -0.95195553427E+01 -0.63546935901E+03  0.16722006712E+04  0.12699999809E+01 0. -1.
       -4    1    3    3    0  502 -0.15467196073E+04  0.95195553427E+01 -0.31841097224E+02  0.15470771260E+04  0.12699999809E+01 0.  1.
</event>
<event>
 5   0  0.1846850E-06  0.3151164E+04  0.7818609E-02  0.8201835E-01
        1   -1    0    0  501    0  0.00000000000E+00  0.00000000000E+00  0.14698973950E+04  0.14698973950E+04  0.50400001928E-02 0. -1.
       -1   -1    0    0    0  501  0.00000000000E+00  0.00000000000E+00 -0.16888656867E+04  0.16888656867E+04  0.50400001928E-02 0.  1.
    10030    2    1    2    0    0  0.00000000000E+00  0.00000000000E+00 -0.21896829169E+03  0.31587630818E+04  0.31511644029E+04 0.  0.
        5    1    3    3  502    0  0.58460366745E+03 -0.27915516772E+03  0.13302062004E+04  0.14795809140E+04  0.46999998093E+01 0. -1.
       -5    1    3    3    0  502 -0.58460366745E+03  0.27915516772E+03 -0.15491744921E+04  0.16791821678E+04  0.46999998093E+01 0.  1.
</event>
<event>
 5   0  0.1729500E-06  0.3211550E+04  0.7818609E-02  0.8185773E-01
        4   -1    0    0  501    0  0.00000000000E+00  0.00000000000E+00  0.16555446310E+04  0.16555451181E+04  0.12699999809E+01 0.  1.
       -4   -1    0    0    0  501  0.00000000000E+00  0.00000000000E+00 -0.15575007405E+04  0.15575012583E+04  0.12699999809E+01 0. -1.
    10030    2    1    2    0    0  0.00000000000E+00  0.00000000000E+00  0.98043890462E+02  0.32130463764E+04  0.32115501572E+04 0.  0.
        4    1    3    3  502    0 -0.73619411905E+03 -0.11789935226E+04 -0.75540767838E+03  0.15819765740E+04  0.12699999809E+01 0. -1.
       -4    1    3    3    0  502  0.73619411905E+03  0.11789935226E+04  0.85345156884E+03  0.16310698024E+04  0.12699999809E+01 0.  1.
</event>
<event>
 5   0  0.1729500E-06  0.2695702E+04  0.7818609E-02  0.8336401E-01
       -3   -1    0    0    0  501  0.00000000000E+00  0.00000000000E+00  0.16069893799E+04  0.16069893830E+04  0.10100000352E+00 0.  1.
        3   -1    0    0  501    0  0.00000000000E+00  0.00000000000E+00 -0.11305005727E+04  0.11305005772E+04  0.10100000352E+00 0. -1.
    10030    2    1    2    0    0  0.00000000000E+00  0.00000000000E+00  0.47648880716E+03  0.27374899603E+04  0.26957020791E+04 0.  0.
        5    1    3    3  502    0  0.10669816554E+04  0.11255006864E+03  0.10667114055E+04  0.15129483413E+04  0.46999998093E+01 0.  1.
       -5    1    3    3    0  502 -0.10669816554E+04 -0.11255006864E+03 -0.59022259833E+03  0.12245416189E+04  0.46999998093E+01 0. -1.
</event>
<event>
 5   0  0.1969465E-06  0.3029671E+04  0.7818609E-02  0.8235309E-01
        1   -1    0    0  501    0  0.00000000000E+00  0.00000000000E+00  0.25558398276E+04  0.25558398276E+04  0.50400001928E-02 0.  1.
       -1   -1    0    0    0  501  0.00000000000E+00  0.00000000000E+00 -0.89783648611E+03  0.89783648613E+03  0.50400001928E-02 0. -1.
    10030    2    1    2    0    0  0.00000000000E+00  0.00000000000E+00  0.16580033414E+04  0.34536763137E+04  0.30296707741E+04 0.  0.
        2    1    3    3  502    0  0.10297013690E+04  0.23114666081E+03  0.20678366319E+04  0.23215645639E+04  0.25500000920E-02 0.  1.
       -2    1    3    3    0  502 -0.10297013690E+04 -0.23114666081E+03 -0.40983329048E+03  0.11321117498E+04  0.25500000920E-02 0. -1.
</event>
<event>
 5   0  0.1881144E-06  0.3183345E+04  0.7818609E-02  0.8193230E-01
        1   -1    0    0  501    0  0.00000000000E+00  0.00000000000E+00  0.15348569067E+04  0.15348569067E+04  0.50400001928E-02 0.  1.
       -1   -1    0    0    0  501  0.00000000000E+00  0.00000000000E+00 -0.16505915327E+04  0.16505915327E+04  0.50400001928E-02 0. -1.
    10030    2    1    2    0    0  0.00000000000E+00  0.00000000000E+00 -0.11573462604E+03  0.31854484394E+04  0.31833452933E+04 0.  0.
        3    1    3    3  502    0 -0.14349781953E+04 -0.79422905774E+02  0.62665435466E+03  0.15678539822E+04  0.10100000352E+00 0. -1.
       -3    1    3    3    0  502  0.14349781953E+04  0.79422905774E+02 -0.74238898070E+03  0.16175944572E+04  0.10100000352E+00 0.  1.
</event>
<event>
 5   0  0.1846850E-06  0.3277010E+04  0.7818609E-02  0.8168770E-01
       -1   -1    0    0    0  501  0.00000000000E+00  0.00000000000E+00  0.12647869131E+04  0.12647869131E+04  0.50400001928E-02 0. -1.
        1   -1    0    0  501    0  0.00000000000E+00  0.00000000000E+00 -0.21226494404E+04  0.21226494404E+04  0.50400001928E-02 0.  1.
    10030    2    1    2    0    0  0.00000000000E+00  0.00000000000E+00 -0.85786252732E+03  0.33874363534E+04  0.32770103651E+04 0.  0.
        5    1    3    3  502    0 -0.12803274020E+04 -0.86158966039E+03  0.14016775031E+03  0.15495948140E+04  0.46999998093E+01 0. -1.
       -5    1    3    3    0  502  0.12803274020E+04  0.86158966039E+03 -0.99803027763E+03  0.18378415395E+04  0.46999998093E+01 0.  1.
</event>
<event>
 5   0  0.5373060E-06  0.3237930E+04  0.7818609E-02  0.8178871E-01
       -2   -1    0    0    0  501  0.00000000000E+00  0.00000000000E+00  0.13095975556E+04  0.13095975556E+04  0.25500000920E-02 0.  1.
        2   -1    0    0  501    0  0.00000000000E+00  0.00000000000E+00 -0.20014149659E+04  0.20014149659E+04  0.25500000920E-02 0. -1.
    10030    2    1    2    0    0  0.00000000000E+00  0.00000000000E+00 -0.69181741037E+03  0.33110125215E+04  0.32379302939E+04 0.  0.
        5    1    3    3  502    0 -0.66935747130E+03 -0.13611974274E+04 -0.92447788077E+03  0.17763950300E+04  0.46999998093E+01 0. -1.
       -5    1    3    3    0  502  0.66935747130E+03  0.13611974274E+04  0.23266047041E+03  0.15346174915E+04  0.46999998093E+01 0.  1.
</event>
<event>
 5   0  0.1977015E-06  0.2262888E+04  0.7818609E-02  0.8492699E-01
        1   -1    0    0  501    0  0.00000000000E+00  0.00000000000E+00  0.17690386405E+04  0.17690386405E+04  0.50400001928E-02 0. -1.
       -1   -1    0    0    0  501  0.00000000000E+00  0.00000000000E+00 -0.72365066420E+03  0.72365066422E+03  0.50400001928E-02 0.  1.
    10030    2    1    2    0    0  0.00000000000E+00  0.00000000000E+00  0.10453879763E+04  0.24926893047E+04  0.22628884084E+04 0.  0.
        1    1    3    3  502    0 -0.61115377054E+02 -0.45219475791E+03 -0.61779852491E+03  0.76804310152E+03  0.50400001928E-02 0.  1.
       -1    1    3    3    0  502  0.61115377054E+02  0.45219475791E+03  0.16631865012E+04  0.17246462032E+04  0.50400001928E-02 0. -1.
</event>
<event>
 5   0  0.1846850E-06  0.3188416E+04  0.7818609E-02  0.8191883E-01
       -1   -1    0    0    0  501  0.00000000000E+00  0.00000000000E+00  0.97681506026E+03  0.97681506027E+03  0.50400001928E-02 0.  1.
        1   -1    0    0  501    0  0.00000000000E+00  0.00000000000E+00 -0.26018230212E+04  0.26018230212E+04  0.50400001928E-02 0. -1.
    10030    2    1    2    0    0  0.00000000000E+00  0.00000000000E+00 -0.16250079609E+04  0.35786380814E+04  0.31884164792E+04 0.  0.
        5    1    3    3  502    0 -0.11300487015E+04  0.21684899475E+03  0.42591408434E+03  0.12269712513E+04  0.46999998093E+01 0.  1.
       -5    1    3    3    0  502  0.11300487015E+04 -0.21684899475E+03 -0.20509220452E+04  0.23516668301E+04  0.46999998093E+01 0. -1.
</event>
<event>
 5   0  0.1886248E-06  0.3235426E+04  0.7818609E-02  0.8179523E-01
        1   -1    0    0  501    0  0.00000000000E+00  0.00000000000E+00  0.16671452075E+04  0.16671452075E+04  0.50400001928E-02 0.  1.
       -1   -1    0    0    0  501  0.00000000000E+00  0.00000000000E+00 -0.15697465634E+04  0.15697465634E+04  0.50400001928E-02 0. -1.
    10030    2    1    2    0    0  0.00000000000E+00  0.00000000000E+00  0.97398644154E+02  0.32368917709E+04  0.32354260679E+04 0.  0.
        4    1    3    3  502    0 -0.42954293538E+03 -0.14894558749E+04 -0.41412013841E+03  0.16045195663E+04  0.12699999809E+01 0. -1.
       -4    1    3    3    0  502  0.42954293538E+03  0.14894558749E+04  0.51151878257E+03  0.16323722046E+04  0.12699999809E+01 0.  1.
</event>
<event>
 5   0  0.1969465E-06  0.3283597E+04  0.7818609E-02  0.8167082E-01
        1   -1    0    0  501    0  0.00000000000E+00  0.00000000000E+00  0.92814223995E+03  0.92814223997E+03  0.50400001928E-02 0. -1.
       -1   -1    0    0    0  501  0.00000000000E+00  0.00000000000E+00 -0.29041910703E+04  0.29041910703E+04  0.50400001928E-02 0.  1.
    10030    2    1    2    0    0  0.00000000000E+00  0.00000000000E+00 -0.19760488304E+04  0.38323333103E+04  0.32835970552E+04 0.  0.
        2    1    3    3  502    0 -0.69849297819E+03 -0.14032963922E+04 -0.15578454620E+04  0.22099809249E+04  0.25500000920E-02 0. -1.
       -2    1    3    3    0  502  0.69849297819E+03  0.14032963922E+04 -0.41820336834E+03  0.16223523854E+04  0.25500000920E-02 0.  1.
</event>
<event>
 5   0  0.5347280E-06  0.3204491E+04  0.7818609E-02  0.8187632E-01
       -2   -1    0    0    0  501  0.00000000000E+00  0.00000000000E+00  0.12375071086E+04  0.12375071086E+04  0.25500000920E-02 0. -1.
        2   -1    0    0  501    0  0.00000000000E+00  0.00000000000E+00 -0.20744852797E+04  0.20744852797E+04  0.25500000920E-02 0.  1.
    10030    2    1    2    0    0  0.00000000000E+00  0.00000000000E+00 -0.83697817116E+03  0.33119923883E+04  0.32044907741E+04 0.  0.
        2    1    3    3  502    0  0.52359540599E+03 -0.14242007183E+04  0.11325104329E+03  0.15216194117E+04  0.25500000920E-02 0.  1.
       -2    1    3    3    0  502 -0.52359540599E+03  0.14242007183E+04 -0.95022921446E+03  0.17903729766E+04  0.25500000920E-02 0. -1.
</event>
<event>
 5   0  0.5131083E-06  0.3217771E+04  0.7818609E-02  0.8184139E-01
        2   -1    0    0  501    0  0.00000000000E+00  0.00000000000E+00  0.16767339324E+04  0.16767339324E+04  0.25500000920E-02 0. -1.
       -2   -1    0    0    0  501  0.00000000000E+00  0.00000000000E+00 -0.15437829862E+04  0.15437829862E+04  0.25500000920E-02 0.  1.
    10030    2    1    2    0    0  0.00000000000E+00  0.00000000000E+00  0.13295094622E+03  0.32205169186E+04  0.32177714756E+04 0.  0.
        3    1    3    3  502    0 -0.91496422774E+03 -0.12321232926E+04 -0.41687131063E+03  0.15903047022E+04  0.10100000352E+00 0. -1.
       -3    1    3    3    0  502  0.91496422774E+03  0.12321232926E+04  0.54982225684E+03  0.16302122164E+04  0.10100000352E+00 0.  1.
</event>
<event>
 5   0  0.5121624E-06  0.3193758E+04  0.7818609E-02  0.8190468E-01
       -2   -1    0    0    0  501  0.00000000000E+00  0.00000000000E+00  0.18142668398E+04  0.18142668399E+04  0.25500000920E-02 0.  1.
        2   -1    0    0  501    0  0.00000000000E+00  0.00000000000E+00 -0.14055392093E+04  0.14055392093E+04  0.25500000920E-02 0. -1.
    10030    2    1    2    0    0  0.00000000000E+00  0.00000000000E+00  0.40872763055E+03  0.32198060492E+04  0.31937584001E+04 0.  0.
        4    1    3    3  502    0  0.17294472221E+01 -0.56068968171E+03  0.17117659895E+04  0.18012552084E+04  0.12699999809E+01 0.  1.
       -4    1    3    3    0  502 -0.17294472221E+01  0.56068968171E+03 -0.13030383589E+04  0.14185508408E+04  0.12699999809E+01 0. -1.
</event>
<event>
 5   0  0.1846850E-06  0.3195710E+04  0.7818609E-02  0.8189951E-01
       -1   -1    0    0    0  501  0.00000000000E+00  0.00000000000E+00  0.15775379559E+04  0.15775379559E+04  0.50400001928E-02 0.  1.
        1   -1    0    0  501    0  0.00000000000E+00  0.00000000000E+00 -0.16184337165E+04  0.16184337165E+04  0.50400001928E-02 0. -1.
    10030    2    1    2    0    0  0.00000000000E+00  0.00000000000E+00 -0.40895760603E+02  0.31959716724E+04  0.31957100099E+04 0.  0.
        5    1    3    3  502    0 -0.97606540296E+03 -0.35171956705E+03 -0.12357462123E+04  0.16135368344E+04  0.46999998093E+01 0. -1.
       -5    1    3    3    0  502  0.97606540296E+03  0.35171956705E+03  0.11948504517E+04  0.15824348380E+04  0.46999998093E+01 0.  1.
</event>
<event>
 5   0  0.5108810E-06  0.3240733E+04  0.7818609E-02  0.8178142E-01
        2   -1    0    0  501    0  0.00000000000E+00  0.00000000000E+00  0.15955570469E+04  0.15955570469E+04  0.25500000920E-02 0.  1.
       -2   -1    0    0    0  501  0.00000000000E+00  0.00000000000E+00 -0.16455613231E+04  0.16455613231E+04  0.25500000920E-02 0. -1.
    10030    2    1    2    0    0  0.00000000000E+00  0.00000000000E+00 -0.50004276157E+02  0.32411183700E+04  0.32407326118E+04 0.  0.
        1    1    3    3  502    0 -0.12702395010E+04 -0.13017037617E+03 -0.10226850400E+04  0.16359515298E+04  0.50400001928E-02 0. -1.
       -1    1    3    3    0  502  0.12702395010E+04  0.13017037617E+03  0.97268076380E+03  0.16051668403E+04  0.50400001928E-02 0.  1.
</event>
<event>
 5   0  0.5373060E-06  0.3156701E+04  0.7818609E-02  0.8200347E-01
        2   -1    0    0  501    0  0.00000000000E+00  0.00000000000E+00  0.13994877761E+04  0.13994877761E+04  0.25500000920E-02 0.  1.
       -2   -1    0    0    0  501  0.00000000000E+00  0.00000000000E+00 -0.17800726575E+04  0.17800726575E+04  0.25500000920E-02 0. -1.
    10030    2    1    2    0    0  0.00000000000E+00  0.00000000000E+00 -0.38058488140E+03  0.31795604336E+04  0.31567007617E+04 0.  0.
        5    1    3    3  502    0 -0.19311548815E+03 -0.58417736319E+03  0.12737155346E+04  0.14145423771E+04  0.46999998093E+01 0.  1.
       -5    1    3    3    0  502  0.19311548815E+03  0.58417736319E+03 -0.16543004160E+04  0.17650180565E+04  0.46999998093E+01 0. -1.
</event>
<event>
 5   0  0.1886248E-06  0.3232122E+04  0.7818609E-02  0.8180385E-01
        1   -1    0    0  501    0  0.00000000000E+00  0.00000000000E+00  0.12797839403E+04  0.12797839404E+04  0.50400001928E-02 0. -1.
       -1   -1    0    0    0  501  0.00000000000E+00  0.00000000000E+00 -0.20406990008E+04  0.20406990008E+04  0.50400001928E-02 0.  1.
    10030    2    1    2    0    0  0.00000000000E+00  0.00000000000E+00 -0.76091506050E+03  0.33204829412E+04  0.32321224039E+04 0.  0.
        4    1    3    3  502    0 -0.10776620011E+04 -0.44702380635E+03 -0.15292709196E+04  0.19235011907E+04  0.12699999809E+01 0.  1.
       -4    1    3    3    0  502  0.10776620011E+04  0.44702380635E+03  0.76835585909E+03  0.13969817505E+04  0.12699999809E+01 0. -1.
</event>
<event>
 5   0  0.1969465E-06  0.2528738E+04  0.7818609E-02  0.8392818E-01
       -1   -1    0    0    0  501  0.00000000000E+00  0.00000000000E+00  0.11418134084E+04  0.11418134084E+04  0.50400001928E-02 0. -1.
        1   -1    0    0  501    0  0.00000000000E+00  0.00000000000E+00 -0.14000788549E+04  0.14000788550E+04  0.50400001928E-02 0.  1.
    10030    2    1    2    0    0  0.00000000000E+00  0.00000000000E+00 -0.25826544652E+03  0.25418922634E+04  0.25287378745E+04 0.  0.
        2    1    3    3  502    0  0.47588831779E+03 -0.11350538436E+04 -0.42014153840E+03  0.13005136797E+04  0.25500000920E-02 0.  1.
       -2    1    3    3    0  502 -0.47588831779E+03  0.11350538436E+04  0.16187609188E+03  0.12413785837E+04  0.25500000920E-02 0. -1.
</event>
<event>
 5   0  0.1969465E-06  0.3185426E+04  0.7818609E-02  0.8192677E-01
        1   -1    0    0  501    0  0.00000000000E+00  0.00000000000E+00  0.17730964275E+04  0.17730964275E+04  0.50400001928E-02 0.  1.
       -1   -1    0    0    0  501  0.00000000000E+00  0.00000000000E+00 -0.14306801840E+04  0.14306801840E+04  0.50400001928E-02 0. -1.
    10030    2    1    2    0    0  0.00000000000E+00  0.00000000000E+00  0.34241624354E+03  0.32037766115E+04  0.31854255120E+04 0.  0.
        2    1    3    3  502    0 -0.98266619647E+03 -0.75760821518E+03  0.11755252088E+04  0.17092286500E+04  0.25500000920E-02 0.  1.
       -2    1    3    3    0  502  0.98266619647E+03  0.75760821518E+03 -0.83310896522E+03  0.14945479615E+04  0.25500000920E-02 0. -1.
</event>
<event>
 5   0  0.1846850E-06  0.3226625E+04  0.7818609E-02  0.8181821E-01
        1   -1    0    0  501    0  0.00000000000E+00  0.00000000000E+00  0.90222895796E+03  0.90222895798E+03  0.50400001928E-02 0. -1.
       -1   -1    0    0    0  501  0.00000000000E+00  0.00000000000E+00 -0.28848301651E+04  0.28848301651E+04  0.50400001928E-02 0.  1.
    10030    2    1    2    0    0  0.00000000000E+00  0.00000000000E+00 -0.19826012071E+04  0.37870591231E+04  0.32266250565E+04 0.  0.
        5    1    3    3  502    0 -0.80898586213E+03  0.13721676869E+04 -0.12915748982E+04  0.20507291614E+04  0.46999998093E+01 0.  1.
       -5    1    3    3    0  502  0.80898586213E+03 -0.13721676869E+04 -0.69102630894E+03  0.17363299616E+04  0.46999998093E+01 0. -1.
</event>
<event>
 5   0  0.1969465E-06  0.3121739E+04  0.7818609E-02  0.8209797E-01
       -1   -1    0    0    0  501  0.00000000000E+00  0.00000000000E+00  0.11046018678E+04  0.11046018678E+04  0.50400001928E-02 0.  1.
        1   -1    0    0  501    0  0.00000000000E+00  0.00000000000E+00 -0.22056029214E+04  0.22056029214E+04  0.50400001928E-02 0. -1.
    10030    2    1    2    0    0  0.00000000000E+00  0.00000000000E+00 -0.11010010536E+04  0.33102047892E+04  0.31217386864E+04 0.  0.
        2    1    3    3  502    0 -0.52896664337E+03  0.10797860331E+04  0.50485987841E+03  0.13040809346E+04  0.25500000920E-02 0.  1.
       -2    1    3    3    0  502  0.52896664337E+03 -0.10797860331E+04 -0.16058609320E+04  0.20061238546E+04  0.25500000920E-02 0. -1.
</event>
<event>
 5   0  0.5347280E-06  0.3219481E+04  0.7818609E-02  0.8183691E-01
        2   -1    0    0  501    0  0.00000000000E+00  0.00000000000E+00  0.10128939246E+04  0.10128939246E+04  0.25500000920E-02 0. -1.
       -2   -1    0    0    0  501  0.00000000000E+00  0.00000000000E+00 -0.25582777886E+04  0.25582777886E+04  0.25500000920E-02 0.  1.
    10030    2    1    2    0    0  0.00000000000E+00  0.00000000000E+00 -0.15453838640E+04  0.35711717132E+04  0.32194807219E+04 0.  0.
        2    1    3    3  502    0  0.99295531415E+03  0.24671703954E+03 -0.21512010654E+04  0.23821199755E+04  0.25500000920E-02 0.  1.
       -2    1    3    3    0  502 -0.99295531415E+03 -0.24671703954E+03  0.60581720149E+03  0.11890517378E+04  0.25500000920E-02 0. -1.
</event>
<event>
 5   0  0.5347280E-06  0.3179837E+04  0.7818609E-02  0.8194163E-01
       -2   -1    0    0    0  501  0.00000000000E+00  0.00000000000E+00  0.22525214776E+04  0.22525214776E+04  0.25500000920E-02 0. -1.
        2   -1    0    0  501    0  0.00000000000E+00  0.00000000000E+00 -0.11222271272E+04  0.11222271272E+04  0.25500000920E-02 0.  1.
    10030    2    1    2    0    0  0.00000000000E+00  0.00000000000E+00  0.11302943504E+04  0.33747486048E+04  0.31798369183E+04 0.  0.
        2    1    3    3  502    0 -0.32344129194E+03  0.11258358738E+04 -0.57579306568E+03  0.13052426359E+04  0.25500000920E-02 0.  1.
       -2    1    3    3    0  502  0.32344129194E+03 -0.11258358738E+04  0.17060874160E+04  0.20695059689E+04  0.25500000920E-02 0. -1.
</event>
<event>
 5   0  0.5131083E-06  0.3097755E+04  0.7818609E-02  0.8216354E-01
        2   -1    0    0  501    0  0.00000000000E+00  0.00000000000E+00  0.14426502452E+04  0.14426502452E+04  0.25500000920E-02 0. -1.
       -2   -1    0    0    0  501  0.00000000000E+00  0.00000000000E+00 -0.16629268695E+04  0.16629268695E+04  0.25500000920E-02 0.  1.
    10030    2    1    2    0    0  0.00000000000E+00  0.00000000000E+00 -0.22027662430E+03  0.31055771147E+04  0.30977552234E+04 0.  0.
        3    1    3    3  502    0 -0.98606352866E+03  0.10628171169E+04 -0.65660212856E+03  0.15915488909E+04  0.10100000352E+00 0.  1.
       -3    1    3    3    0  502  0.98606352866E+03 -0.10628171169E+04  0.43632550426E+03  0.15140282238E+04  0.10100000352E+00 0. -1.
</event>
<event>
 5   0  0.1977015E-06  0.3212135E+04  0.7818609E-02  0.8185620E-01
        1   -1    0    0  501    0  0.00000000000E+00  0.00000000000E+00  0.16711948009E+04  0.16711948009E+04  0.50400001928E-02 0. -1.
       -1   -1    0    0    0  501  0.00000000000E+00  0.00000000000E+00 -0.15434778056E+04  0.15434778056E+04  0.50400001928E-02 0.  1.
    10030    2    1    2    0    0  0.00000000000E+00  0.00000000000E+00  0.12771699528E+03  0.32146726066E+04  0.32121345452E+04 0.  0.
        1    1    3    3  502    0 -0.16520281489E+03 -0.34762424361E+02 -0.15345734023E+04  0.15438315722E+04  0.50400001928E-02 0.  1.
       -1    1    3    3    0  502  0.16520281489E+03  0.34762424361E+02  0.16622903976E+04  0.16708410344E+04  0.50400001928E-02 0. -1.
</event>
<event>
 5   0  0.1969465E-06  0.3248961E+04  0.7818609E-02  0.8176005E-01
       -1   -1    0    0    0  501  0.00000000000E+00  0.00000000000E+00  0.17206330843E+04  0.17206330843E+04  0.50400001928E-02 0. -1.
        1   -1    0    0  501    0  0.00000000000E+00  0.00000000000E+00 -0.15337014795E+04  0.15337014795E+04  0.50400001928E-02 0.  1.
    10030    2    1    2    0    0  0.00000000000E+00  0.00000000000E+00  0.18693160479E+03  0.32543345638E+04  0.32489613768E+04 0.  0.
        2    1    3    3  502    0  0.47854170868E+03 -0.18465952789E+03  0.16373897295E+04  0.17158515188E+04  0.25500000920E-02 0. -1.
       -2    1    3    3    0  502 -0.47854170868E+03  0.18465952789E+03 -0.14504581247E+04  0.15384830450E+04  0.25500000920E-02 0.  1.
</event>
<event>
 5   0  0.1969465E-06  0.3209818E+04  0.7818609E-02  0.8186229E-01
        1   -1    0    0  501    0  0.00000000000E+00  0.00000000000E+00  0.16058297268E+04  0.16058297269E+04  0.50400001928E-02 0. -1.
       -1   -1    0    0    0  501  0.00000000000E+00  0.00000000000E+00 -0.16039888727E+04  0.16039888727E+04  0.50400001928E-02 0.  1.
    10030    2    1    2    0    0  0.00000000000E+00  0.00000000000E+00  0.18408541400E+01  0.32098185996E+04  0.32098180717E+04 0.  0.
        2    1    3    3  502    0 -0.50297203141E+03  0.46119506481E+03 -0.14516813612E+04  0.16040762222E+04  0.25500000920E-02 0.  1.
       -2    1    3    3    0  502  0.50297203141E+03 -0.46119506481E+03  0.14535222153E+04  0.16057423774E+04  0.25500000920E-02 0. -1.
</event>
<event>
 5   0  0.5131083E-06  0.3211552E+04  0.7818609E-02  0.8185773E-01
        2   -1    0    0  501    0  0.00000000000E+00  0.00000000000E+00  0.22268307488E+04  0.22268307488E+04  0.25500000920E-02 0.  1.
       -2   -1    0    0    0  501  0.00000000000E+00  0.00000000000E+00 -0.11579309445E+04  0.11579309445E+04  0.25500000920E-02 0. -1.
    10030    2    1    2    0    0  0.00000000000E+00  0.00000000000E+00  0.10688998043E+04  0.33847616933E+04  0.32115517946E+04 0.  0.
        3    1    3    3  502    0  0.10814123389E+04 -0.20040394310E+03  0.17675528034E+04  0.20817918508E+04  0.10100000352E+00 0.  1.
       -3    1    3    3    0  502 -0.10814123389E+04  0.20040394310E+03 -0.69865299909E+03  0.13029698425E+04  0.10100000352E+00 0. -1.
</event>
<event>
 5   0  0.5347280E-06  0.3188244E+04  0.7818609E-02  0.8191929E-01
        2   -1    0    0  501    0  0.00000000000E+00  0.00000000000E+00  0.22431645512E+04  0.22431645512E+04  0.25500000920E-02 0.  1.
       -2   -1    0    0    0  501  0.00000000000E+00  0.00000000000E+00 -0.11328750202E+04  0.11328750203E+04  0.25500000920E-02 0. -1.
    10030    2    1    2    0    0  0.00000000000E+00  0.00000000000E+00  0.11102895309E+04  0.33760395714E+04  0.31882440850E+04 0.  0.
        2    1    3    3  502    0 -0.55154947240E+03 -0.13948017906E+04  0.11268993838E+04  0.18760546572E+04  0.25500000920E-02 0.  1.
       -2    1    3    3    0  502  0.55154947240E+03  0.13948017906E+04 -0.16609852895E+02  0.14999849142E+04  0.25500000920E-02 0. -1.
</event>
<event>
 5   0  0.5347280E-06  0.3172745E+04  0.7818609E-02  0.8196052E-01
        2   -1    0    0  501    0  0.00000000000E+00  0.00000000000E+00  0.28194607299E+04  0.28194607299E+04  0.25500000920E-02 0.  1.
       -2   -1    0    0    0  501  0.00000000000E+00  0.00000000000E+00 -0.89257403580E+03  0.89257403581E+03  0.25500000920E-02 0. -1.
    10030    2    1    2    0    0  0.00000000000E+00  0.00000000000E+00  0.19268866941E+04  0.37120347657E+04  0.31727448322E+04 0.  0.
        2    1    3    3  502    0 -0.50101889796E+02  0.15185676540E+04  0.14970594640E+04  0.21330131171E+04  0.25500000920E-02 0.  1.
       -2    1    3    3    0  502  0.50101889796E+02 -0.15185676540E+04  0.42982723012E+03  0.15790216486E+04  0.25500000920E-02 0. -1.
</event>
<event>
 5   0  0.1886248E-06  0.3286428E+04  0.7818609E-02  0.8166357E-01
       -1   -1    0    0    0  501  0.00000000000E+00  0.00000000000E+00  0.16446798512E+04  0.16446798512E+04  0.50400001928E-02 0. -1.
        1   -1    0    0  501    0  0.00000000000E+00  0.00000000000E+00 -0.16417494490E+04  0.16417494490E+04  0.50400001928E-02 0.  1.
    10030    2    1    2    0    0  0.00000000000E+00  0.00000000000E+00  0.29304021817E+01  0.32864293002E+04  0.32864279937E+04 0.  0.
        4    1    3    3  502    0  0.10108999262E+04 -0.92279410450E+03  0.91068666129E+03  0.16440253733E+04  0.12699999809E+01 0. -1.
       -4    1    3    3    0  502 -0.10108999262E+04  0.92279410450E+03 -0.90775625911E+03  0.16424039269E+04  0.12699999809E+01 0.  1.
</event>
<event>
 5   0  0.1729500E-06  0.3214014E+04  0.7818609E-02  0.8185126E-01
        3   -1    0    0  501    0  0.00000000000E+00  0.00000000000E+00  0.14253062241E+04  0.14253062277E+04  0.10100000352E+00 0.  1.
       -3   -1    0    0    0  501  0.00000000000E+00  0.00000000000E+00 -0.18118711361E+04  0.18118711389E+04  0.10100000352E+00 0. -1.
    10030    2    1    2    0    0  0.00000000000E+00  0.00000000000E+00 -0.38656491195E+03  0.32371773666E+04  0.32140138257E+04 0.  0.
        1    1    3    3  502    0 -0.75284545255E+03 -0.45111722703E+03 -0.15491597955E+04  0.17804996770E+04  0.50400001928E-02 0. -1.
       -1    1    3    3    0  502  0.75284545255E+03  0.45111722703E+03  0.11625948835E+04  0.14566776895E+04  0.50400001928E-02 0.  1.
</event>
<event>
 5   0  0.5108810E-06  0.2123660E+04  0.7818609E-02  0.8550892E-01
        2   -1    0    0  501    0  0.00000000000E+00  0.00000000000E+00  0.18009753180E+04  0.18009753180E+04  0.25500000920E-02 0.  1.
       -2   -1    0    0    0  501  0.00000000000E+00  0.00000000000E+00 -0.62603997014E+03  0.62603997015E+03  0.25500000920E-02 0. -1.
    10030    2    1    2    0    0  0.00000000000E+00  0.00000000000E+00  0.11749353478E+04  0.24270152881E+04  0.21236596095E+04 0.  0.
        1    1    3    3  502    0  0.23712900919E+03  0.10346718130E+04  0.55708846598E+03  0.11988008536E+04  0.50400001928E-02 0. -1.
       -1    1    3    3    0  502 -0.23712900919E+03 -0.10346718130E+04  0.61784688185E+03  0.12282144345E+04  0.50400001928E-02 0.  1.
</event>
<event>
 5   0  0.5131083E-06  0.3267228E+04  0.7818609E-02  0.8171285E-01
       -2   -1    0    0    0  501  0.00000000000E+00  0.00000000000E+00  0.15954267601E+04  0.15954267601E+04  0.25500000920E-02 0.  1.
        2   -1    0    0  501    0  0.00000000000E+00  0.00000000000E+00 -0.16727153782E+04  0.16727153782E+04  0.25500000920E-02 0. -1.
    10030    2    1    2    0    0  0.00000000000E+00  0.00000000000E+00 -0.77288618137E+02  0.32681421383E+04  0.32672281073E+04 0.  0.
        3    1    3    3  502    0  0.96575253832E+03  0.13161565368E+04 -0.99889467132E+02  0.16355194620E+04  0.10100000352E+00 0. -1.
       -3    1    3    3    0  502 -0.96575253832E+03 -0.13161565368E+04  0.22600848996E+02  0.16326226763E+04  0.10100000352E+00 0.  1.
</event>
<event>
 5   0  0.1969465E-06  0.3171229E+04  0.7818609E-02  0.8196457E-01
        1   -1    0    0  501    0  0.00000000000E+00  0.00000000000E+00  0.15810094629E+04  0.15810094629E+04  0.50400001928E-02 0.  1.
       -1   -1    0    0    0  501  0.00000000000E+00  0.00000000000E+00 -0.15902329233E+04  0.15902329233E+04  0.50400001928E-02 0. -1.
    10030    2    1    2    0    0  0.00000000000E+00  0.00000000000E+00 -0.92234604421E+01  0.31712423862E+04  0.31712289731E+04 0.  0.
        2    1    3    3  502    0 -0.11395760615E+04  0.50761931935E+03 -0.98332028206E+03  0.15884677367E+04  0.25500000920E-02 0. -1.
       -2    1    3    3    0  502  0.11395760615E+04 -0.50761931935E+03  0.97409682161E+03  0.15827746496E+04  0.25500000920E-02 0.  1.
</event>
<event>
 5   0  0.5131083E-06  0.3352590E+04  0.7818609E-02  0.8149641E-01
       -2   -1    0    0    0  501  0.00000000000E+00  0.00000000000E+00  0.16290084756E+04  0.16290084756E+04  0.25500000920E-02 0. -1.
        2   -1    0    0  501    0  0.00000000000E+00  0.00000000000E+00 -0.17249542528E+04  0.17249542528E+04  0.25500000920E-02 0.  1.
    10030    2    1    2    0    0  0.00000000000E+00  0.00000000000E+00 -0.95945777203E+02  0.33539627283E+04  0.33525901018E+04 0.  0.
        3    1    3    3  502    0  0.45188190985E+03 -0.22356275417E+03 -0.16473104844E+04  0.17227331214E+04  0.10100000352E+00 0.  1.
       -3    1    3    3    0  502 -0.45188190985E+03  0.22356275417E+03  0.15513647072E+04  0.16312296069E+04  0.10100000352E+00 0. -1.
</event>
<event>
 5   0  0.5347280E-06  0.2877095E+04  0.7818609E-02  0.8279725E-01
        2   -1    0    0  501    0  0.00000000000E+00  0.00000000000E+00  0.24894392505E+04  0.24894392505E+04  0.25500000920E-02 0.  1.
       -2   -1    0    0    0  501  0.00000000000E+00  0.00000000000E+00 -0.83127939466E+03  0.83127939467E+03  0.25500000920E-02 0. -1.
    10030    2    1    2    0    0  0.00000000000E+00  0.00000000000E+00  0.16581598558E+04  0.33207186452E+04  0.28770954473E+04 0.  0.
        2    1    3    3  502    0  0.12875411445E+03  0.10495916489E+04 -0.29659650101E+03  0.10982666961E+04  0.25500000920E-02 0. -1.
       -2    1    3    3    0  502 -0.12875411445E+03 -0.10495916489E+04  0.19547563568E+04  0.22224519491E+04  0.25500000920E-02 0.  1.
</event>
<event>
 5   0  0.5131083E-06  0.2998269E+04  0.7818609E-02  0.8244225E-01
        2   -1    0    0  501    0  0.00000000000E+00  0.00000000000E+00  0.15236018535E+04  0.15236018535E+04  0.25500000920E-02 0. -1.
       -2   -1    0    0    0  501  0.00000000000E+00  0.00000000000E+00 -0.14750597343E+04  0.14750597343E+04  0.25500000920E-02 0.  1.
    10030    2    1    2    0    0  0.00000000000E+00  0.00000000000E+00  0.48542119230E+02  0.29986615878E+04  0.29982686639E+04 0.  0.
        3    1    3    3  502    0  0.11480307718E+04  0.57704623116E+03 -0.74812978732E+03  0.14868272242E+04  0.10100000352E+00 0. -1.
       -3    1    3    3    0  502 -0.11480307718E+04 -0.57704623116E+03  0.79667190655E+03  0.15118343635E+04  0.10100000352E+00 0.  1.
</event>
<event>
 5   0  0.1846850E-06  0.3217351E+04  0.7818609E-02  0.8184250E-01
       -1   -1    0    0    0  501  0.00000000000E+00  0.00000000000E+00  0.20314236334E+04  0.20314236334E+04  0.50400001928E-02 0.  1.
        1   -1    0    0  501    0  0.00000000000E+00  0.00000000000E+00 -0.12739034548E+04  0.12739034548E+04  0.50400001928E-02 0. -1.
    10030    2    1    2    0    0  0.00000000000E+00  0.00000000000E+00  0.75752017859E+03  0.33053270882E+04  0.32173514478E+04 0.  0.
        5    1    3    3  502    0  0.18874213327E+03  0.11989326909E+04  0.14634488210E+04  0.19012542523E+04  0.46999998093E+01 0. -1.
       -5    1    3    3    0  502 -0.18874213327E+03 -0.11989326909E+04 -0.70592864244E+03  0.14040728358E+04  0.46999998093E+01 0.  1.
</event>
<event>
 5   0  0.1846850E-06  0.3211182E+04  0.7818609E-02  0.8185870E-01
       -1   -1    0    0    0  501  0.00000000000E+00  0.00000000000E+00  0.29617445373E+04  0.29617445373E+04  0.50400001928E-02 0.  1.
        1   -1    0    0  501    0  0.00000000000E+00  0.00000000000E+00 -0.87040651814E+03  0.87040651815E+03  0.50400001928E-02 0. -1.
    10030    2    1    2    0    0  0.00000000000E+00  0.00000000000E+00  0.20913380191E+04  0.38321510554E+04  0.32111815585E+04 0.  0.
        5    1    3    3  502    0 -0.13491495338E+04  0.86478574367E+03  0.11640530761E+04  0.19806818273E+04  0.46999998093E+01 0.  1.
       -5    1    3    3    0  502  0.13491495338E+04 -0.86478574367E+03  0.92728494302E+03  0.18514692281E+04  0.46999998093E+01 0. -1.
</event>
<event>
 5   0  0.5108810E-06  0.3072944E+04  0.7818609E-02  0.8223203E-01
       -2   -1    0    0    0  501  0.00000000000E+00  0.00000000000E+00  0.15412888727E+04  0.15412888727E+04  0.25500000920E-02 0.  1.
        2   -1    0    0  501    0  0.00000000000E+00  0.00000000000E+00 -0.15316700479E+04  0.15316700479E+04  0.25500000920E-02 0. -1.
    10030    2    1    2    0    0  0.00000000000E+00  0.00000000000E+00  0.96188247388E+01  0.30729589206E+04  0.30729438664E+04 0.  0.
        1    1    3    3  502    0  0.14338012301E+04 -0.53527518694E+03 -0.13098708634E+03  0.15360543968E+04  0.50400001928E-02 0. -1.
       -1    1    3    3    0  502 -0.14338012301E+04  0.53527518694E+03  0.14060591108E+03  0.15369045238E+04  0.50400001928E-02 0.  1.
</event>
<event>
 5   0  0.1886248E-06  0.1971534E+04  0.7818609E-02  0.8620046E-01
       -1   -1    0    0    0  501  0.00000000000E+00  0.00000000000E+00  0.87400931050E+03  0.87400931052E+03  0.50400001928E-02 0.  1.
        1   -1    0    0  501    0  0.00000000000E+00  0.00000000000E+00 -0.11118145877E+04  0.11118145877E+04  0.50400001928E-02 0. -1.
    10030    2    1    2    0    0  0.00000000000E+00  0.00000000000E+00 -0.23780527723E+03  0.19858238983E+04  0.19715337190E+04 0.  0.
        4    1    3    3  502    0 -0.63625247226E+03 -0.67227973542E+03 -0.46041392456E+03  0.10338084184E+04  0.12699999809E+01 0. -1.
       -4    1    3    3    0  502  0.63625247226E+03  0.67227973542E+03  0.22260864733E+03  0.95201547986E+03  0.12699999809E+01 0.  1.
</event>
<event>
 5   0  0.5347280E-06  0.3036081E+04  0.7818609E-02  0.8233502E-01
       -2   -1    0    0    0  501  0.00000000000E+00  0.00000000000E+00  0.11778812108E+04  0.11778812108E+04  0.25500000920E-02 0. -1.
        2   -1    0    0  501    0  0.00000000000E+00  0.00000000000E+00 -0.19564338046E+04  0.19564338046E+04  0.25500000920E-02 0.  1.
    10030    2    1    2    0    0  0.00000000000E+00  0.00000000000E+00 -0.77855259377E+03  0.31343150154E+04  0.30360807753E+04 0.  0.
        2    1    3    3  502    0  0.28060963332E+03 -0.11411835894E+04  0.60275506285E+03  0.13207404805E+04  0.25500000920E-02 0. -1.
       -2    1    3    3    0  502 -0.28060963332E+03  0.11411835894E+04 -0.13813076566E+04  0.18135745348E+04  0.25500000920E-02 0.  1.
</event>
<event>
 5   0  0.1977015E-06  0.3198047E+04  0.7818609E-02  0.8189333E-01
       -1   -1    0    0    0  501  0.00000000000E+00  0.00000000000E+00  0.16599592823E+04  0.16599592823E+04  0.50400001928E-02 0. -1.
        1   -1    0    0  501    0  0.00000000000E+00  0.00000000000E+00 -0.15403242974E+04  0.15403242974E+04  0.50400001928E-02 0.  1.
    10030    2    1    2    0    0  0.00000000000E+00  0.00000000000E+00  0.11963498493E+03  0.32002835797E+04  0.31980466634E+04 0.  0.
        1    1    3    3  502    0 -0.12863114461E+04  0.38941825598E+03  0.92681365570E+03  0.16325523780E+04  0.50400001928E-02 0. -1.
       -1    1    3    3    0  502  0.12863114461E+04 -0.38941825598E+03 -0.80717867078E+03  0.15677312018E+04  0.50400001928E-02 0.  1.
</event>
<event>
 5   0  0.5121624E-06  0.3151705E+04  0.7818609E-02  0.8201689E-01
       -2   -1    0    0    0  501  0.00000000000E+00  0.00000000000E+00  0.12592611563E+04  0.12592611563E+04  0.25500000920E-02 0.  1.
        2   -1    0    0  501    0  0.00000000000E+00  0.00000000000E+00 -0.19720382020E+04  0.19720382020E+04  0.25500000920E-02 0. -1.
    10030    2    1    2    0    0  0.00000000000E+00  0.00000000000E+00 -0.71277704562E+03  0.32312993583E+04  0.31517050030E+04 0.  0.
        4    1    3    3  502    0  0.98232384412E+03  0.31312552034E+03 -0.15782499279E+04  0.18851743087E+04  0.12699999809E+01 0. -1.
       -4    1    3    3    0  502 -0.98232384412E+03 -0.31312552034E+03  0.86547288233E+03  0.13461250496E+04  0.12699999809E+01 0.  1.
</event>
<event>
 5   0  0.1886248E-06  0.3134264E+04  0.7818609E-02  0.8206397E-01
        1   -1    0    0  501    0  0.00000000000E+00  0.00000000000E+00  0.24875526307E+04  0.24875526308E+04  0.50400001928E-02 0.  1.
       -1   -1    0    0    0  501  0.00000000000E+00  0.00000000000E+00 -0.98727660218E+03  0.98727660220E+03  0.50400001928E-02 0. -1.
    10030    2    1    2    0    0  0.00000000000E+00  0.00000000000E+00  0.15002760286E+04  0.34748292329E+04  0.31342638747E+04 0.  0.
        4    1    3    3  502    0  0.13529954065E+04  0.57200891161E+03  0.13554597618E+04  0.19987655049E+04  0.12699999809E+01 0. -1.
       -4    1    3    3    0  502 -0.13529954065E+04 -0.57200891161E+03  0.14481626679E+03  0.14760637280E+04  0.12699999809E+01 0.  1.
</event>
<event>
 5   0  0.5373060E-06  0.3254435E+04  0.7818609E-02  0.8174587E-01
       -2   -1    0    0    0  501  0.00000000000E+00  0.00000000000E+00  0.18901569041E+04  0.18901569041E+04  0.25500000920E-02 0.  1.
        2   -1    0    0  501    0  0.00000000000E+00  0.00000000000E+00 -0.14008555763E+04  0.14008555763E+04  0.25500000920E-02 0. -1.
    10030    2    1    2    0    0  0.00000000000E+00  0.00000000000E+00  0.48930132780E+03  0.32910124803E+04  0.32544350288E+04 0.  0.
        5    1    3    3  502    0 -0.10922097469E+04  0.11015897159E+04 -0.25218870762E+03  0.15716371298E+04  0.46999998093E+01 0.  1.
       -5    1    3    3    0  502  0.10922097469E+04 -0.11015897159E+04  0.74149003542E+03  0.17193753506E+04  0.46999998093E+01 0. -1.
</event>
<event>
 5   0  0.1886248E-06  0.3223740E+04  0.7818609E-02  0.8182576E-01
        1   -1    0    0  501    0  0.00000000000E+00  0.00000000000E+00  0.17757913803E+04  0.17757913803E+04  0.50400001928E-02 0. -1.
       -1   -1    0    0    0  501  0.00000000000E+00  0.00000000000E+00 -0.14630797338E+04  0.14630797338E+04  0.50400001928E-02 0.  1.
    10030    2    1    2    0    0  0.00000000000E+00  0.00000000000E+00  0.31271164645E+03  0.32388711141E+04  0.32237396793E+04 0.  0.
        4    1    3    3  502    0 -0.63178478935E+03 -0.51143545672E+03 -0.12420842353E+04  0.14844167565E+04  0.12699999809E+01 0.  1.
       -4    1    3    3    0  502  0.63178478935E+03  0.51143545672E+03  0.15547958817E+04  0.17544543577E+04  0.12699999809E+01 0. -1.
</event>
<event>
 5   0  0.1846850E-06  0.2370800E+04  0.7818609E-02  0.8450517E-01
        1   -1    0    0  501    0  0.00000000000E+00  0.00000000000E+00  0.11749190526E+04  0.11749190526E+04  0.50400001928E-02 0.  1.
       -1   -1    0    0    0  501  0.00000000000E+00  0.00000000000E+00 -0.11959746644E+04  0.11959746644E+04  0.50400001928E-02 0. -1.
    10030    2    1    2    0    0  0.00000000000E+00  0.00000000000E+00 -0.21055611791E+02  0.23708937170E+04  0.23708002190E+04 0.  0.
        5    1    3    3  502    0  0.82463748055E+03  0.21813211272E+03  0.81263449805E+03  0.11781364566E+04  0.46999998093E+01 0.  1.
       -5    1    3    3    0  502 -0.82463748055E+03 -0.21813211272E+03 -0.83369010984E+03  0.11927572604E+04  0.46999998093E+01 0. -1.
</event>
<event>
 5   0  0.5108810E-06  0.3148732E+04  0.7818609E-02  0.8202490E-01
        2   -1    0    0  501    0  0.00000000000E+00  0.00000000000E+00  0.13861518559E+04  0.13861518559E+04  0.25500000920E-02 0.  1.
       -2   -1    0    0    0  501  0.00000000000E+00  0.00000000000E+00 -0.17881361048E+04  0.17881361048E+04  0.25500000920E-02 0. -1.
    10030    2    1    2    0    0  0.00000000000E+00  0.00000000000E+00 -0.40198424887E+03  0.31742879607E+04  0.31487319227E+04 0.  0.
        1    1    3    3  502    0  0.79342063812E+02 -0.52565944961E+03  0.12929311788E+04  0.13979570999E+04  0.50400001928E-02 0.  1.
       -1    1    3    3    0  502 -0.79342063812E+02  0.52565944961E+03 -0.16949154277E+04  0.17763308608E+04  0.50400001928E-02 0. -1.
</event>
<event>
 5   0  0.1846850E-06  0.3248877E+04  0.7818609E-02  0.8176027E-01
       -1   -1    0    0    0  501  0.00000000000E+00  0.00000000000E+00  0.14632837122E+04  0.14632837122E+04  0.50400001928E-02 0.  1.
        1   -1    0    0  501    0  0.00000000000E+00  0.00000000000E+00 -0.18033420293E+04  0.18033420293E+04  0.50400001928E-02 0. -1.
    10030    2    1    2    0    0  0.00000000000E+00  0.00000000000E+00 -0.34005831711E+03  0.32666257415E+04  0.32488773562E+04 0.  0.
        5    1    3    3  502    0  0.55304269005E+03 -0.10702400174E+04  0.92565282570E+03  0.15192515117E+04  0.46999998093E+01 0.  1.
       -5    1    3    3    0  502 -0.55304269005E+03  0.10702400174E+04 -0.12657111428E+04  0.17473742298E+04  0.46999998093E+01 0. -1.
</event>
<event>
 5   0  0.5108810E-06  0.3250122E+04  0.7818609E-02  0.8175704E-01
       -2   -1    0    0    0  501  0.00000000000E+00  0.00000000000E+00  0.20225847885E+04  0.20225847885E+04  0.25500000920E-02 0.  1.
        2   -1    0    0  501    0  0.00000000000E+00  0.00000000000E+00 -0.13056671902E+04  0.13056671902E+04  0.25500000920E-02 0. -1.
    10030    2    1    2    0    0  0.00000000000E+00  0.00000000000E+00  0.71691759825E+03  0.33282519787E+04  0.32501215963E+04 0.  0.
        1    1    3    3  502    0  0.10820047671E+04  0.46117963046E+03 -0.78983653169E+03  0.14167789928E+04  0.50400001928E-02 0. -1.
       -1    1    3    3    0  502 -0.10820047671E+04 -0.46117963046E+03  0.15067541299E+04  0.19114729859E+04  0.50400001928E-02 0.  1.
</event>
<event>
 5   0  0.1881144E-06  0.2096672E+04  0.7818609E-02  0.8562711E-01
       -1   -1    0    0    0  501  0.00000000000E+00  0.00000000000E+00  0.76916058089E+03  0.76916058091E+03  0.50400001928E-02 0.  1.
        1   -1    0    0  501    0  0.00000000000E+00  0.00000000000E+00 -0.14288416634E+04  0.14288416634E+04  0.50400001928E-02 0. -1.
    10030    2    1    2    0    0  0.00000000000E+00  0.00000000000E+00 -0.65968108251E+03  0.21980022443E+04  0.20966723004E+04 0.  0.
        3    1    3    3  502    0  0.41219857788E+03 -0.95798136547E+02  0.67563956687E+03  0.79722881602E+03  0.10100000352E+00 0.  1.
       -3    1    3    3    0  502 -0.41219857788E+03  0.95798136547E+02 -0.13353206494E+04  0.14007734283E+04  0.10100000352E+00 0. -1.
</event>
<event>
 5   0  0.1846850E-06  0.3152464E+04  0.7818609E-02  0.8201485E-01
        1   -1    0    0  501    0  0.00000000000E+00  0.00000000000E+00  0.12966359990E+04  0.12966359990E+04  0.50400001928E-02 0.  1.
       -1   -1    0    0    0  501  0.00000000000E+00  0.00000000000E+00 -0.19161175815E+04  0.19161175815E+04  0.50400001928E-02 0. -1.
    10030    2    1    2    0    0  0.00000000000E+00  0.00000000000E+00 -0.61948158250E+03  0.32127535806E+04  0.31524638203E+04 0.  0.
        5    1    3    3  502    0 -0.40989279759E+02  0.64085630601E+03 -0.17767522325E+04  0.18892452227E+04  0.46999998093E+01 0. -1.
       -5    1    3    3    0  502  0.40989279759E+02 -0.64085630601E+03  0.11572706500E+04  0.13235083579E+04  0.46999998093E+01 0.  1.
</event>
<event>
 5   0  0.5121624E-06  0.3155436E+04  0.7818609E-02  0.8200687E-01
        2   -1    0    0  501    0  0.00000000000E+00  0.00000000000E+00  0.20090649386E+04  0.20090649386E+04  0.25500000920E-02 0.  1.
       -2   -1    0    0    0  501  0.00000000000E+00  0.00000000000E+00 -0.12389813094E+04  0.12389813094E+04  0.25500000920E-02 0. -1.
    10030    2    1    2    0    0  0.00000000000E+00  0.00000000000E+00  0.77008362923E+03  0.32480462480E+04  0.31554358864E+04 0.  0.
        4    1    3    3  502    0  0.90151283657E+03  0.12190101345E+04 -0.64209022615E+02  0.15175096421E+04  0.12699999809E+01 0. -1.
       -4    1    3    3    0  502 -0.90151283657E+03 -0.12190101345E+04  0.83429265185E+03  0.17305366059E+04  0.12699999809E+01 0.  1.
</event>
<event>
 5   0  0.5347280E-06  0.3259212E+04  0.7818609E-02  0.8173352E-01
        2   -1    0    0  501    0  0.00000000000E+00  0.00000000000E+00  0.25338773617E+04  0.25338773617E+04  0.25500000920E-02 0.  1.
       -2   -1    0    0    0  501  0.00000000000E+00  0.00000000000E+00 -0.10480445484E+04  0.10480445484E+04  0.25500000920E-02 0. -1.
    10030    2    1    2    0    0  0.00000000000E+00  0.00000000000E+00  0.14858328133E+04  0.35819219102E+04  0.32592123928E+04 0.  0.
        2    1    3    3  502    0 -0.68078343936E+03  0.14628717057E+04  0.99390745910E+03  0.18950756597E+04  0.25500000920E-02 0.  1.
       -2    1    3    3    0  502  0.68078343936E+03 -0.14628717057E+04  0.49192535419E+03  0.16868462505E+04  0.25500000920E-02 0. -1.
</event>
<event>
 5   0  0.1886248E-06  0.3158254E+04  0.7818609E-02  0.8199930E-01
        1   -1    0    0  501    0  0.00000000000E+00  0.00000000000E+00  0.93591956941E+03  0.93591956943E+03  0.50400001928E-02 0.  1.
       -1   -1    0    0    0  501  0.00000000000E+00  0.00000000000E+00 -0.26643760522E+04  0.26643760522E+04  0.50400001928E-02 0. -1.
    10030    2    1    2    0    0  0.00000000000E+00  0.00000000000E+00 -0.17284564828E+04  0.36002956217E+04  0.31582537502E+04 0.  0.
        4    1    3    3  502    0  0.34013157194E+03 -0.14822848224E+04 -0.37953262956E+03  0.15674515657E+04  0.12699999809E+01 0. -1.
       -4    1    3    3    0  502 -0.34013157194E+03  0.14822848224E+04 -0.13489238533E+04  0.20328440560E+04  0.12699999809E+01 0.  1.
</event>
<event>
 5   0  0.5373060E-06  0.2215918E+04  0.7818609E-02  0.8511832E-01
       -2   -1    0    0    0  501  0.00000000000E+00  0.00000000000E+00  0.11389660210E+04  0.11389660210E+04  0.25500000920E-02 0.  1.
        2   -1    0    0  501    0  0.00000000000E+00  0.00000000000E+00 -0.10777956403E+04  0.10777956403E+04  0.25500000920E-02 0. -1.
    10030    2    1    2    0    0  0.00000000000E+00  0.00000000000E+00  0.61170380695E+02  0.22167616612E+04  0.22159175181E+04 0.  0.
        5    1    3    3  502    0 -0.51649158954E+03 -0.39733726627E+03  0.92697902261E+03  0.11331163504E+04  0.46999998093E+01 0.  1.
       -5    1    3    3    0  502  0.51649158954E+03  0.39733726627E+03 -0.86580864191E+03  0.10836453108E+04  0.46999998093E+01 0. -1.
</event>
<event>
 5   0  0.1977015E-06  0.3126109E+04  0.7818609E-02  0.8208609E-01
        1   -1    0    0  501    0  0.00000000000E+00  0.00000000000E+00  0.81441411100E+03  0.81441411102E+03  0.50400001928E-02 0.  1.
       -1   -1    0    0    0  501  0.00000000000E+00  0.00000000000E+00 -0.29998743434E+04  0.29998743434E+04  0.50400001928E-02 0. -1.
    10030    2    1    2    0    0  0.00000000000E+00  0.00000000000E+00 -0.21854602324E+04  0.38142884544E+04  0.31261094008E+04 0.  0.
        1    1    3    3  502    0 -0.44268791375E+03 -0.14638969677E+04 -0.14865404462E+04  0.21327844287E+04  0.50400001928E-02 0. -1.
       -1    1    3    3    0  502  0.44268791375E+03  0.14638969677E+04 -0.69891978615E+03  0.16815040257E+04  0.50400001928E-02 0.  1.
</event>
<event>
 5   0  0.5121624E-06  0.3319704E+04  0.7818609E-02  0.8157900E-01
        2   -1    0    0  501    0  0.00000000000E+00  0.00000000000E+00  0.12410819178E+04  0.12410819178E+04  0.25500000920E-02 0.  1.
       -2   -1    0    0    0  501  0.00000000000E+00  0.00000000000E+00 -0.22199245433E+04  0.22199245433E+04  0.25500000920E-02 0. -1.
    10030    2    1    2    0    0  0.00000000000E+00  0.00000000000E+00 -0.97884262552E+03  0.34610064611E+04  0.33197037274E+04 0.  0.
        4    1    3    3  502    0  0.75460607111E+03 -0.80454503105E+03 -0.17825311037E+04  0.20962208323E+04  0.12699999809E+01 0. -1.
       -4    1    3    3    0  502 -0.75460607111E+03  0.80454503105E+03  0.80368847814E+03  0.13647856287E+04  0.12699999809E+01 0.  1.
</event>
<event>
 5   0  0.1969465E-06  0.3198948E+04  0.7818609E-02  0.8189095E-01
        1   -1    0    0  501    0  0.00000000000E+00  0.00000000000E+00  0.23529931003E+04  0.23529931003E+04  0.50400001928E-02 0. -1.
       -1   -1    0    0    0  501  0.00000000000E+00  0.00000000000E+00 -0.10872608911E+04  0.10872608911E+04  0.50400001928E-02 0.  1.
    10030    2    1    2    0    0  0.00000000000E+00  0.00000000000E+00  0.12657322092E+04  0.34402539913E+04  0.31989481864E+04 0.  0.
        2    1    3    3  502    0  0.71962359287E+03  0.19288037192E+03 -0.88926329144E+03  0.11601078203E+04  0.25500000920E-02 0.  1.
       -2    1    3    3    0  502 -0.71962359287E+03 -0.19288037192E+03  0.21549955007E+04  0.22801461710E+04  0.25500000920E-02 0. -1.
</event>
<event>
 5   0  0.1969465E-06  0.2692406E+04  0.7818609E-02  0.8337473E-01
       -1   -1    0    0    0  501  0.00000000000E+00  0.00000000000E+00  0.11602479491E+04  0.11602479491E+04  0.50400001928E-02 0. -1.
        1   -1    0    0  501    0  0.00000000000E+00  0.00000000000E+00 -0.15619617257E+04  0.15619617257E+04  0.50400001928E-02 0.  1.
    10030    2    1    2    0    0  0.00000000000E+00  0.00000000000E+00 -0.40171377662E+03  0.27222096749E+04  0.26924062761E+04 0.  0.
        2    1    3    3  502    0 -0.53322886214E+03  0.12351459816E+04 -0.15190323320E+03  0.13538807952E+04  0.25500000920E-02 0. -1.
       -2    1    3    3    0  502  0.53322886214E+03 -0.12351459816E+04 -0.24981054342E+03  0.13683288797E+04  0.25500000920E-02 0.  1.
</event>
<event>
 5   0  0.5347280E-06  0.3258134E+04  0.7818609E-02  0.8173631E-01
        2   -1    0    0  501    0  0.00000000000E+00  0.00000000000E+00  0.30962330520E+04  0.30962330520E+04  0.25500000920E-02 0. -1.
       -2   -1    0    0    0  501  0.00000000000E+00  0.00000000000E+00 -0.85712502625E+03  0.85712502625E+03  0.25500000920E-02 0.  1.
    10030    2    1    2    0    0  0.00000000000E+00  0.00000000000E+00  0.22391080257E+04  0.39533580782E+04  0.32581337210E+04 0.  0.
        2    1    3    3  502    0  0.11746511427E+04  0.98336398451E+03  0.44719543158E+03  0.15958677223E+04  0.25500000920E-02 0. -1.
       -2    1    3    3    0  502 -0.11746511427E+04 -0.98336398451E+03  0.17919125941E+04  0.23574903559E+04  0.25500000920E-02 0.  1.
</event>
<event>
 5   0  0.1846850E-06  0.3212342E+04  0.7818609E-02  0.8185565E-01
        1   -1    0    0  501    0  0.00000000000E+00  0.00000000000E+00  0.23641247014E+04  0.23641247014E+04  0.50400001928E-02 0.  1.
       -1   -1    0    0    0  501  0.00000000000E+00  0.00000000000E+00 -0.10912219670E+04  0.10912219670E+04  0.50400001928E-02 0. -1.
    10030    2    1    2    0    0  0.00000000000E+00  0.00000000000E+00  0.12729027343E+04  0.34553466684E+04  0.32123417047E+04 0.  0.
        5    1    3    3  502    0  0.64946081606E+01  0.94646018199E+03  0.20322808875E+04  0.22418779520E+04  0.46999998093E+01 0.  1.
       -5    1    3    3    0  502 -0.64946081606E+01 -0.94646018199E+03 -0.75937815320E+03  0.12134687164E+04  0.46999998093E+01 0. -1.
</event>
<event>
 5   0  0.1886248E-06  0.3329881E+04  0.7818609E-02  0.8155334E-01
       -1   -1    0    0    0  501  0.00000000000E+00  0.00000000000E+00  0.14855488536E+04  0.14855488537E+04  0.50400001928E-02 0.  1.
        1   -1    0    0  501    0  0.00000000000E+00  0.00000000000E+00 -0.18659946397E+04  0.18659946397E+04  0.50400001928E-02 0. -1.
    10030    2    1    2    0    0  0.00000000000E+00  0.00000000000E+00 -0.38044578608E+03  0.33515434934E+04  0.33298805973E+04 0.  0.
        4    1    3    3  502    0  0.97721229419E+03 -0.55646607904E+03 -0.14259831713E+04  0.18160473515E+04  0.12699999809E+01 0. -1.
       -4    1    3    3    0  502 -0.97721229419E+03  0.55646607904E+03  0.10455373852E+04  0.15354961419E+04  0.12699999809E+01 0.  1.
</event>
<event>
 5   0  0.1846850E-06  0.3303952E+04  0.7818609E-02  0.8161891E-01
        1   -1    0    0  501    0  0.00000000000E+00  0.00000000000E+00  0.23839644581E+04  0.23839644581E+04  0.50400001928E-02 0. -1.
       -1   -1    0    0    0  501  0.00000000000E+00  0.00000000000E+00 -0.11447421718E+04  0.11447421718E+04  0.50400001928E-02 0.  1.
    10030    2    1    2    0    0  0.00000000000E+00  0.00000000000E+00  0.12392222863E+04  0.35287066299E+04  0.33039519677E+04 0.  0.
        5    1    3    3  502    0 -0.37323649284E+03  0.15467956141E+04  0.10937959393E+04  0.19308790222E+04  0.46999998093E+01 0.  1.
       -5    1    3    3    0  502  0.37323649284E+03 -0.15467956141E+04  0.14542634707E+03  0.15978276077E+04  0.46999998093E+01 0. -1.
</event>
<event>
 5   0  0.5347280E-06  0.3157572E+04  0.7818609E-02  0.8200113E-01
       -2   -1    0    0    0  501  0.00000000000E+00  0.00000000000E+00  0.16251289800E+04  0.16251289800E+04  0.25500000920E-02 0. -1.
        2   -1    0    0  501    0  0.00000000000E+00  0.00000000000E+00 -0.15337647485E+04  0.15337647485E+04  0.25500000920E-02 0.  1.
    10030    2    1    2    0    0  0.00000000000E+00  0.00000000000E+00  0.91364231530E+02  0.31588937285E+04  0.31575721948E+04 0.  0.
        2    1    3    3  502    0  0.24940172484E+03 -0.32742130459E+03 -0.14791472628E+04  0.15353444422E+04  0.25500000920E-02 0.  1.
       -2    1    3    3    0  502 -0.24940172484E+03  0.32742130459E+03  0.15705114944E+04  0.16235492863E+04  0.25500000920E-02 0. -1.
</event>
<event>
 5   0  0.5347280E-06  0.3079927E+04  0.7818609E-02  0.8221269E-01
       -2   -1    0    0    0  501  0.00000000000E+00  0.00000000000E+00  0.10929974694E+04  0.10929974694E+04  0.25500000920E-02 0.  1.
        2   -1    0    0  501    0  0.00000000000E+00  0.00000000000E+00 -0.21697094476E+04  0.21697094476E+04  0.25500000920E-02 0. -1.
    10030    2    1    2    0    0  0.00000000000E+00  0.00000000000E+00 -0.10767119782E+04  0.32627069169E+04  0.30799265806E+04 0.  0.
        2    1    3    3  502    0  0.12962549752E+04 -0.72337685513E+03 -0.10423631014E+03  0.14880914769E+04  0.25500000920E-02 0.  1.
       -2    1    3    3    0  502 -0.12962549752E+04  0.72337685513E+03 -0.97247566805E+03  0.17746154401E+04  0.25500000920E-02 0. -1.
</event>
<event>
 5   0  0.1977015E-06  0.3237944E+04  0.7818609E-02  0.8178868E-01
       -1   -1    0    0    0  501  0.00000000000E+00  0.00000000000E+00  0.16350207036E+04  0.16350207036E+04  0.50400001928E-02 0.  1.
        1   -1    0    0  501    0  0.00000000000E+00  0.00000000000E+00 -0.16030806707E+04  0.16030806707E+04  0.50400001928E-02 0. -1.
    10030    2    1    2    0    0  0.00000000000E+00  0.00000000000E+00  0.31940032960E+02  0.32381013743E+04  0.32379438452E+04 0.  0.
        1    1    3    3  502    0  0.16310817524E+03 -0.16105483747E+04  0.40460836942E+02  0.16192922601E+04  0.50400001928E-02 0. -1.
       -1    1    3    3    0  502 -0.16310817524E+03  0.16105483747E+04 -0.85208039815E+01  0.16188091142E+04  0.50400001928E-02 0.  1.
</event>
<event>
 5   0  0.5131083E-06  0.2794529E+04  0.7818609E-02  0.8304969E-01
       -2   -1    0    0    0  501  0.00000000000E+00  0.00000000000E+00  0.83199711451E+03  0.83199711452E+03  0.25500000920E-02 0. -1.
        2   -1    0    0  501    0  0.00000000000E+00  0.00000000000E+00 -0.23465802918E+04  0.23465802918E+04  0.25500000920E-02 0.  1.
    10030    2    1    2    0    0  0.00000000000E+00  0.00000000000E+00 -0.15145831773E+04  0.31785774064E+04  0.27945289634E+04 0.  0.
        3    1    3    3  502    0  0.45484051791E+03  0.19247928883E+03  0.72940204299E+03  0.88088337700E+03  0.10100000352E+00 0. -1.
       -3    1    3    3    0  502 -0.45484051791E+03 -0.19247928883E+03 -0.22439852203E+04  0.22976940294E+04  0.10100000352E+00 0.  1.
</event>
<event>
 5   0  0.5131083E-06  0.3179009E+04  0.7818609E-02  0.8194383E-01
        2   -1    0    0  501    0  0.00000000000E+00  0.00000000000E+00  0.16820352606E+04  0.16820352606E+04  0.25500000920E-02 0.  1.
       -2   -1    0    0    0  501  0.00000000000E+00  0.00000000000E+00 -0.15020641581E+04  0.15020641581E+04  0.25500000920E-02 0. -1.
    10030    2    1    2    0    0  0.00000000000E+00  0.00000000000E+00  0.17997110243E+03  0.31840994187E+04  0.31790092027E+04 0.  0.
        3    1    3    3  502    0  0.73517976456E+03 -0.70920171996E+03  0.13097485077E+04  0.16609929348E+04  0.10100000352E+00 0.  1.
       -3    1    3    3    0  502 -0.73517976456E+03  0.70920171996E+03 -0.11297774053E+04  0.15231064839E+04  0.10100000352E+00 0. -1.
</event>
<event>
 5   0  0.5121624E-06  0.3222297E+04  0.7818609E-02  0.8182953E-01
       -2   -1    0    0    0  501  0.00000000000E+00  0.00000000000E+00  0.13758489781E+04  0.13758489781E+04  0.25500000920E-02 0.  1.
        2   -1    0    0  501    0  0.00000000000E+00  0.00000000000E+00 -0.18866888441E+04  0.18866888441E+04  0.25500000920E-02 0. -1.
    10030    2    1    2    0    0  0.00000000000E+00  0.00000000000E+00 -0.51083986595E+03  0.32625378222E+04  0.32222966456E+04 0.  0.
        4    1    3    3  502    0  0.81804958340E+03  0.10258423944E+04  0.69126456325E+03  0.14830394629E+04  0.12699999809E+01 0.  1.
       -4    1    3    3    0  502 -0.81804958340E+03 -0.10258423944E+04 -0.12021044292E+04  0.17794983593E+04  0.12699999809E+01 0. -1.
</event>
<event>
 5   0  0.1886248E-06  0.3179091E+04  0.7818609E-02  0.8194361E-01
       -1   -1    0    0    0  501  0.00000000000E+00  0.00000000000E+00  0.21072673709E+04  0.21072673709E+04  0.50400001928E-02 0.  1.
        1   -1    0    0  501    0  0.00000000000E+00  0.00000000000E+00 -0.11990197156E+04  0.11990197156E+04  0.50400001928E-02 0. -1.
    10030    2    1    2    0    0  0.00000000000E+00  0.00000000000E+00  0.90824765530E+03  0.33062870864E+04  0.31790911428E+04 0.  0.
        4    1    3    3  502    0  0.13589468574E+04  0.22128183624E+03  0.12802293037E+04  0.18800773642E+04  0.12699999809E+01 0.  1.
       -4    1    3    3    0  502 -0.13589468574E+04 -0.22128183624E+03 -0.37198164840E+03  0.14262097223E+04  0.12699999809E+01 0. -1.
</event>
<event>
 5   0  0.1886248E-06  0.3259424E+04  0.7818609E-02  0.8173297E-01
        1   -1    0    0  501    0  0.00000000000E+00  0.00000000000E+00  0.14000647328E+04  0.14000647328E+04  0.50400001928E-02 0. -1.
       -1   -1    0    0    0  501  0.00000000000E+00  0.00000000000E+00 -0.18970269180E+04  0.18970269180E+04  0.50400001928E-02 0.  1.
    10030    2    1    2    0    0  0.00000000000E+00  0.00000000000E+00 -0.49696218529E+03  0.32970916508E+04  0.32594235595E+04 0.  0.
        4    1    3    3  502    0  0.10899281000E+04 -0.91892837607E+03 -0.10472818795E+04  0.17689470234E+04  0.12699999809E+01 0.  1.
       -4    1    3    3    0  502 -0.10899281000E+04  0.91892837607E+03  0.55031969425E+03  0.15281446274E+04  0.12699999809E+01 0. -1.
</event>
<event>
 5   0  0.5131083E-06  0.3228013E+04  0.7818609E-02  0.8181458E-01
       -2   -1    0    0    0  501  0.00000000000E+00  0.00000000000E+00  0.10965432217E+04  0.10965432217E+04  0.25500000920E-02 0. -1.
        2   -1    0    0  501    0  0.00000000000E+00  0.00000000000E+00 -0.23756635413E+04  0.23756635413E+04  0.25500000920E-02 0.  1.
    10030    2    1    2    0    0  0.00000000000E+00  0.00000000000E+00 -0.12791203196E+04  0.34722067630E+04  0.32280134778E+04 0.  0.
        3    1    3    3  502    0 -0.29672178402E+03 -0.50963369419E+03 -0.22556288723E+04  0.23314441746E+04  0.10100000352E+00 0.  1.
       -3    1    3    3    0  502  0.29672178402E+03  0.50963369419E+03  0.97650855273E+03  0.11407625884E+04  0.10100000352E+00 0. -1.
</event>
<event>
 5   0  0.1886248E-06  0.3168458E+04  0.7818609E-02  0.8197197E-01
       -1   -1    0    0    0  501  0.00000000000E+00  0.00000000000E+00  0.92920364061E+03  0.92920364063E+03  0.50400001928E-02 0. -1.
        1   -1    0    0  501    0  0.00000000000E+00  0.00000000000E+00 -0.27010022685E+04  0.27010022685E+04  0.50400001928E-02 0.  1.
    10030    2    1    2    0    0  0.00000000000E+00  0.00000000000E+00 -0.17717986279E+04  0.36302059092E+04  0.31684577581E+04 0.  0.
        4    1    3    3  502    0  0.32418298605E+03  0.48948732236E+03 -0.25717574345E+04  0.26379215989E+04  0.12699999809E+01 0.  1.
       -4    1    3    3    0  502 -0.32418298605E+03 -0.48948732236E+03  0.79995880659E+03  0.99228431024E+03  0.12699999809E+01 0. -1.
</event>
<event>
 5   0  0.5131083E-06  0.3123578E+04  0.7818609E-02  0.8209297E-01
       -2   -1    0    0    0  501  0.00000000000E+00  0.00000000000E+00  0.24534417940E+04  0.24534417940E+04  0.25500000920E-02 0. -1.
        2   -1    0    0  501    0  0.00000000000E+00  0.00000000000E+00 -0.99418925722E+03  0.99418925723E+03  0.25500000920E-02 0.  1.
    10030    2    1    2    0    0  0.00000000000E+00  0.00000000000E+00  0.14592525368E+04  0.34476310513E+04  0.31235783805E+04 0.  0.
        3    1    3    3  502    0 -0.10893391389E+04  0.95499230701E+03  0.13737017300E+04  0.19964284408E+04  0.10100000352E+00 0. -1.
       -3    1    3    3    0  502  0.10893391389E+04 -0.95499230701E+03  0.85550806814E+02  0.14512026105E+04  0.10100000352E+00 0.  1.
</event>
<event>
 5   0  0.5131083E-06  0.3176265E+04  0.7818609E-02  0.8195114E-01
       -2   -1    0    0    0  501  0.00000000000E+00  0.00000000000E+00  0.15778005401E+04  0.15778005401E+04  0.25500000920E-02 0.  1.
        2   -1    0    0  501    0  0.00000000000E+00  0.00000000000E+00 -0.15985320039E+04  0.15985320039E+04  0.25500000920E-02 0. -1.
    10030    2    1    2    0    0  0.00000000000E+00  0.00000000000E+00 -0.20731463776E+02  0.31763325439E+04  0.31762648876E+04 0.  0.
        3    1    3    3  502    0 -0.42494412218E+02 -0.11693934055E+04 -0.10841101388E+04  0.15951744466E+04  0.10100000352E+00 0. -1.
       -3    1    3    3    0  502  0.42494412218E+02  0.11693934055E+04  0.10633786750E+04  0.15811580973E+04  0.10100000352E+00 0.  1.
</event>
<event>
 5   0  0.1886248E-06  0.3234512E+04  0.7818609E-02  0.8179762E-01
        1   -1    0    0  501    0  0.00000000000E+00  0.00000000000E+00  0.18190462824E+04  0.18190462824E+04  0.50400001928E-02 0.  1.
       -1   -1    0    0    0  501  0.00000000000E+00  0.00000000000E+00 -0.14378506831E+04  0.14378506831E+04  0.50400001928E-02 0. -1.
    10030    2    1    2    0    0  0.00000000000E+00  0.00000000000E+00  0.38119559933E+03  0.32568969655E+04  0.32345119816E+04 0.  0.
        4    1    3    3  502    0  0.10649133208E+04 -0.76396174666E+03  0.11446982490E+04  0.17401188538E+04  0.12699999809E+01 0.  1.
       -4    1    3    3    0  502 -0.10649133208E+04  0.76396174666E+03 -0.76350264968E+03  0.15167781117E+04  0.12699999809E+01 0. -1.
</event>
<event>
 5   0  0.1881144E-06  0.3122593E+04  0.7818609E-02  0.8209565E-01
        1   -1    0    0  501    0  0.00000000000E+00  0.00000000000E+00  0.93516638610E+03  0.93516638611E+03  0.50400001928E-02 0.  1.
       -1   -1    0    0    0  501  0.00000000000E+00  0.00000000000E+00 -0.26066441860E+04  0.26066441860E+04  0.50400001928E-02 0. -1.
    10030    2    1    2    0    0  0.00000000000E+00  0.00000000000E+00 -0.16714777999E+04  0.35418105721E+04  0.31225925275E+04 0.  0.
        3    1    3    3  502    0 -0.39368270629E+03 -0.11507328417E+04 -0.19461918238E+04  0.22949585555E+04  0.10100000352E+00 0. -1.
       -3    1    3    3    0  502  0.39368270629E+03  0.11507328417E+04  0.27471402388E+03  0.12468520166E+04  0.10100000352E+00 0.  1.
</event>
<event>
 5   0  0.1886248E-06  0.2582052E+04  0.7818609E-02  0.8374323E-01
        1   -1    0    0  501    0  0.00000000000E+00  0.00000000000E+00  0.14453289726E+04  0.14453289726E+04  0.50400001928E-02 0. -1.
       -1   -1    0    0    0  501  0.00000000000E+00  0.00000000000E+00 -0.11531965546E+04  0.11531965546E+04  0.50400001928E-02 0.  1.
    10030    2    1    2    0    0  0.00000000000E+00  0.00000000000E+00  0.29213241807E+03  0.25985255272E+04  0.25820522004E+04 0.  0.
        4    1    3    3  502    0  0.66681176320E+03 -0.52681530777E+03 -0.83202661826E+03  0.11893032424E+04  0.12699999809E+01 0.  1.
       -4    1    3    3    0  502 -0.66681176320E+03  0.52681530777E+03  0.11241590363E+04  0.14092222848E+04  0.12699999809E+01 0. -1.
</event>
<event>
 5   0  0.5373060E-06  0.3145949E+04  0.7818609E-02  0.8203239E-01
        2   -1    0    0  501    0  0.00000000000E+00  0.00000000000E+00  0.14540881867E+04  0.14540881867E+04  0.25500000920E-02 0.  1.
       -2   -1    0    0    0  501  0.00000000000E+00  0.00000000000E+00 -0.17015813446E+04  0.17015813446E+04  0.25500000920E-02 0. -1.
    10030    2    1    2    0    0  0.00000000000E+00  0.00000000000E+00 -0.24749315791E+03  0.31556695313E+04  0.31459493523E+04 0.  0.
        5    1    3    3  502    0 -0.11236664552E+04 -0.51926166177E+03 -0.10972958281E+04  0.16541883811E+04  0.46999998093E+01 0. -1.
       -5    1    3    3    0  502  0.11236664552E+04  0.51926166177E+03  0.84980267022E+03  0.15014811501E+04  0.46999998093E+01 0.  1.
</event>
<event>
 5   0  0.1886248E-06  0.3177516E+04  0.7818609E-02  0.8194780E-01
       -1   -1    0    0    0  501  0.00000000000E+00  0.00000000000E+00  0.23125817810E+04  0.23125817810E+04  0.50400001928E-02 0.  1.
        1   -1    0    0  501    0  0.00000000000E+00  0.00000000000E+00 -0.10914866719E+04  0.10914866719E+04  0.50400001928E-02 0. -1.
    10030    2    1    2    0    0  0.00000000000E+00  0.00000000000E+00  0.12210951091E+04  0.34040684529E+04  0.31775161316E+04 0.  0.
        4    1    3    3  502    0 -0.64513808145E+03 -0.13569234854E+03  0.21591336232E+04  0.22575374135E+04  0.12699999809E+01 0.  1.
       -4    1    3    3    0  502  0.64513808145E+03  0.13569234854E+03 -0.93803851408E+03  0.11465310394E+04  0.12699999809E+01 0. -1.
</event>
<event>
 5   0  0.1969465E-06  0.2291293E+04  0.7818609E-02  0.8481362E-01
        1   -1    0    0  501    0  0.00000000000E+00  0.00000000000E+00  0.15490300584E+04  0.15490300584E+04  0.50400001928E-02 0. -1.
       -1   -1    0    0    0  501  0.00000000000E+00  0.00000000000E+00 -0.84730789471E+03  0.84730789473E+03  0.50400001928E-02 0.  1.
    10030    2    1    2    0    0  0.00000000000E+00  0.00000000000E+00  0.70172216367E+03  0.23963379531E+04  0.22912925589E+04 0.  0.
        2    1    3    3  502    0  0.73224638430E+03 -0.45400736941E+03 -0.43887202187E+03  0.96691060103E+03  0.25500000920E-02 0.  1.
       -2    1    3    3    0  502 -0.73224638430E+03  0.45400736941E+03  0.11405941855E+04  0.14294273521E+04  0.25500000920E-02 0. -1.
</event>
<event>
 5   0  0.1846850E-06  0.3197302E+04  0.7818609E-02  0.8189530E-01
        1   -1    0    0  501    0  0.00000000000E+00  0.00000000000E+00  0.18073223306E+04  0.18073223306E+04  0.50400001928E-02 0.  1.
       -1   -1    0    0    0  501  0.00000000000E+00  0.00000000000E+00 -0.14140727052E+04  0.14140727052E+04  0.50400001928E-02 0. -1.
    10030    2    1    2    0    0  0.00000000000E+00  0.00000000000E+00  0.39324962539E+03  0.32213950358E+04  0.31973020984E+04 0.  0.
        5    1    3    3  502    0  0.15021181522E+04 -0.52514373993E+03  0.35116969607E+03  0.16295634803E+04  0.46999998093E+01 0. -1.
       -5    1    3    3    0  502 -0.15021181522E+04  0.52514373993E+03  0.42079929312E+02  0.15918315555E+04  0.46999998093E+01 0.  1.
</event>
<event>
 5   0  0.5347280E-06  0.2972046E+04  0.7818609E-02  0.8251759E-01
        2   -1    0    0  501    0  0.00000000000E+00  0.00000000000E+00  0.19905835093E+04  0.19905835093E+04  0.25500000920E-02 0. -1.
       -2   -1    0    0    0  501  0.00000000000E+00  0.00000000000E+00 -0.11093552915E+04  0.11093552916E+04  0.25500000920E-02 0.  1.
    10030    2    1    2    0    0  0.00000000000E+00  0.00000000000E+00  0.88122821778E+03  0.30999388009E+04  0.29720459952E+04 0.  0.
        2    1    3    3  502    0 -0.37151439380E+03 -0.13772824585E+04  0.87486429898E+03  0.16734149088E+04  0.25500000920E-02 0.  1.
       -2    1    3    3    0  502  0.37151439380E+03  0.13772824585E+04  0.63639187996E+01  0.14265238921E+04  0.25500000920E-02 0. -1.
</event>
<event>
 5   0  0.5121624E-06  0.3195590E+04  0.7818609E-02  0.8189983E-01
        2   -1    0    0  501    0  0.00000000000E+00  0.00000000000E+00  0.16570210609E+04  0.16570210609E+04  0.25500000920E-02 0. -1.
       -2   -1    0    0    0  501  0.00000000000E+00  0.00000000000E+00 -0.15406860004E+04  0.15406860004E+04  0.25500000920E-02 0.  1.
    10030    2    1    2    0    0  0.00000000000E+00  0.00000000000E+00  0.11633506054E+03  0.31977070613E+04  0.31955901808E+04 0.  0.
        4    1    3    3  502    0 -0.19702726577E+03 -0.19132785511E+03  0.16332246539E+04  0.16561553292E+04  0.12699999809E+01 0. -1.
       -4    1    3    3    0  502  0.19702726577E+03  0.19132785511E+03 -0.15168895933E+04  0.15415517321E+04  0.12699999809E+01 0.  1.
</event>
<event>
 5   0  0.5131083E-06  0.3224862E+04  0.7818609E-02  0.8182282E-01
        2   -1    0    0  501    0  0.00000000000E+00  0.00000000000E+00  0.20224485932E+04  0.20224485932E+04  0.25500000920E-02 0. -1.
       -2   -1    0    0    0  501  0.00000000000E+00  0.00000000000E+00 -0.12855376523E+04  0.12855376523E+04  0.25500000920E-02 0.  1.
    10030    2    1    2    0    0  0.00000000000E+00  0.00000000000E+00  0.73691094086E+03  0.33079862455E+04  0.32248620537E+04 0.  0.
        3    1    3    3  502    0  0.15125390246E+04  0.55188149389E+03  0.45780004488E+03  0.16738961663E+04  0.10100000352E+00 0. -1.
       -3    1    3    3    0  502 -0.15125390246E+04 -0.55188149389E+03  0.27911089598E+03  0.16340900792E+04  0.10100000352E+00 0.  1.
</event>
<event>
 5   0  0.1977015E-06  0.3026758E+04  0.7818609E-02  0.8236131E-01
       -1   -1    0    0    0  501  0.00000000000E+00  0.00000000000E+00  0.14410958867E+04  0.14410958867E+04  0.50400001928E-02 0. -1.
        1   -1    0    0  501    0  0.00000000000E+00  0.00000000000E+00 -0.15892872693E+04  0.15892872693E+04  0.50400001928E-02 0.  1.
    10030    2    1    2    0    0  0.00000000000E+00  0.00000000000E+00 -0.14819138266E+03  0.30303831560E+04  0.30267575698E+04 0.  0.
        1    1    3    3  502    0  0.10269107170E+04 -0.59483273855E+03  0.86614782404E+03  0.14692119182E+04  0.50400001928E-02 0. -1.
       -1    1    3    3    0  502 -0.10269107170E+04  0.59483273855E+03 -0.10143392067E+04  0.15611712378E+04  0.50400001928E-02 0.  1.
</event>
<event>
 5   0  0.1881144E-06  0.3214628E+04  0.7818609E-02  0.8184965E-01
        1   -1    0    0  501    0  0.00000000000E+00  0.00000000000E+00  0.21711544702E+04  0.21711544702E+04  0.50400001928E-02 0.  1.
       -1   -1    0    0    0  501  0.00000000000E+00  0.00000000000E+00 -0.11899006348E+04  0.11899006348E+04  0.50400001928E-02 0. -1.
    10030    2    1    2    0    0  0.00000000000E+00  0.00000000000E+00  0.98125383537E+03  0.33610551050E+04  0.32146278679E+04 0.  0.
        3    1    3    3  502    0  0.61527432858E+03 -0.40682238680E+03  0.19837485560E+04  0.21164416594E+04  0.10100000352E+00 0.  1.
       -3    1    3    3    0  502 -0.61527432858E+03  0.40682238680E+03 -0.10024947206E+04  0.12446134456E+04  0.10100000352E+00 0. -1.
</event>
<event>
 5   0  0.1846850E-06  0.3202265E+04  0.7818609E-02  0.8188219E-01
       -1   -1    0    0    0  501  0.00000000000E+00  0.00000000000E+00  0.17616515797E+04  0.17616515797E+04  0.50400001928E-02 0. -1.
        1   -1    0    0  501    0  0.00000000000E+00  0.00000000000E+00 -0.14552401235E+04  0.14552401235E+04  0.50400001928E-02 0.  1.
    10030    2    1    2    0    0  0.00000000000E+00  0.00000000000E+00  0.30641145622E+03  0.32168917032E+04  0.32022654871E+04 0.  0.
        5    1    3    3  502    0 -0.15659525212E+04  0.27618165655E+03  0.34146597528E+03  0.16263777877E+04  0.46999998093E+01 0. -1.
       -5    1    3    3    0  502  0.15659525212E+04 -0.27618165655E+03 -0.35054519059E+02  0.15905139155E+04  0.46999998093E+01 0.  1.
</event>
<event>
 5   0  0.1846850E-06  0.2987764E+04  0.7818609E-02  0.8247234E-01
       -1   -1    0    0    0  501  0.00000000000E+00  0.00000000000E+00  0.96033147099E+03  0.96033147100E+03  0.50400001928E-02 0. -1.
        1   -1    0    0  501    0  0.00000000000E+00  0.00000000000E+00 -0.23238682080E+04  0.23238682080E+04  0.50400001928E-02 0.  1.
    10030    2    1    2    0    0  0.00000000000E+00  0.00000000000E+00 -0.13635367370E+04  0.32841996790E+04  0.29877642307E+04 0.  0.
        5    1    3    3  502    0 -0.41748022164E+03 -0.14127603212E+04 -0.40921537800E+03  0.15289410637E+04  0.46999998093E+01 0. -1.
       -5    1    3    3    0  502  0.41748022164E+03  0.14127603212E+04 -0.95432135905E+03  0.17552586154E+04  0.46999998093E+01 0.  1.
</event>
<event>
 5   0  0.5347280E-06  0.3055686E+04  0.7818609E-02  0.8228006E-01
       -2   -1    0    0    0  501  0.00000000000E+00  0.00000000000E+00  0.12495586465E+04  0.12495586465E+04  0.25500000920E-02 0.  1.
        2   -1    0    0  501    0  0.00000000000E+00  0.00000000000E+00 -0.18681027776E+04  0.18681027776E+04  0.25500000920E-02 0. -1.
    10030    2    1    2    0    0  0.00000000000E+00  0.00000000000E+00 -0.61854413106E+03  0.31176614241E+04  0.30556858336E+04 0.  0.
        2    1    3    3  502    0  0.61613587031E+03 -0.64593890363E+03 -0.15743574285E+04  0.18098236905E+04  0.25500000920E-02 0. -1.
       -2    1    3    3    0  502 -0.61613587031E+03  0.64593890363E+03  0.95581329746E+03  0.13078377336E+04  0.25500000920E-02 0.  1.
</event>
<event>
 5   0  0.5347280E-06  0.3173839E+04  0.7818609E-02  0.8195761E-01
       -2   -1    0    0    0  501  0.00000000000E+00  0.00000000000E+00  0.22897668737E+04  0.22897668737E+04  0.25500000920E-02 0.  1.
        2   -1    0    0  501    0  0.00000000000E+00  0.00000000000E+00 -0.10998121281E+04  0.10998121281E+04  0.25500000920E-02 0. -1.
    10030    2    1    2    0    0  0.00000000000E+00  0.00000000000E+00  0.11899547456E+04  0.33895790018E+04  0.31738389236E+04 0.  0.
        2    1    3    3  502    0 -0.90521878233E+03  0.36386797759E+03 -0.74169517507E+03  0.12255336314E+04  0.25500000920E-02 0. -1.
       -2    1    3    3    0  502  0.90521878233E+03 -0.36386797759E+03  0.19316499207E+04  0.21640453704E+04  0.25500000920E-02 0.  1.
</event>
<event>
 5   0  0.1881144E-06  0.3250672E+04  0.7818609E-02  0.8175561E-01
        1   -1    0    0  501    0  0.00000000000E+00  0.00000000000E+00  0.17389556883E+04  0.17389556883E+04  0.50400001928E-02 0.  1.
       -1   -1    0    0    0  501  0.00000000000E+00  0.00000000000E+00 -0.15191403448E+04  0.15191403448E+04  0.50400001928E-02 0. -1.
    10030    2    1    2    0    0  0.00000000000E+00  0.00000000000E+00  0.21981534352E+03  0.32580960331E+04  0.32506723883E+04 0.  0.
        3    1    3    3  502    0  0.99378528165E+02 -0.13631928542E+04  0.99143138476E+03  0.16885221499E+04  0.10100000352E+00 0.  1.
       -3    1    3    3    0  502 -0.99378528165E+02  0.13631928542E+04 -0.77161604124E+03  0.15695738833E+04  0.10100000352E+00 0. -1.
</event>
<event>
 5   0  0.1977015E-06  0.3133547E+04  0.7818609E-02  0.8206591E-01
       -1   -1    0    0    0  501  0.00000000000E+00  0.00000000000E+00  0.11590003158E+04  0.11590003158E+04  0.50400001928E-02 0. -1.
        1   -1    0    0  501    0  0.00000000000E+00  0.00000000000E+00 -0.21180147277E+04  0.21180147277E+04  0.50400001928E-02 0.  1.
    10030    2    1    2    0    0  0.00000000000E+00  0.00000000000E+00 -0.95901441189E+03  0.32770150434E+04  0.31335473433E+04 0.  0.
        1    1    3    3  502    0  0.11192468258E+02  0.14861324449E+04 -0.99826775425E+03  0.17903221566E+04  0.50400001928E-02 0. -1.
       -1    1    3    3    0  502 -0.11192468258E+02 -0.14861324449E+04  0.39253342364E+02  0.14866928869E+04  0.50400001928E-02 0.  1.
</event>
<event>
 5   0  0.5108810E-06  0.3193393E+04  0.7818609E-02  0.8190564E-01
        2   -1    0    0  501    0  0.00000000000E+00  0.00000000000E+00  0.83687859542E+03  0.83687859543E+03  0.25500000920E-02 0. -1.
       -2   -1    0    0    0  501  0.00000000000E+00  0.00000000000E+00 -0.30463667516E+04  0.30463667516E+04  0.25500000920E-02 0.  1.
    10030    2    1    2    0    0  0.00000000000E+00  0.00000000000E+00 -0.22094881561E+04  0.38832453470E+04  0.31933926337E+04 0.  0.
        1    1    3    3  502    0 -0.12386887542E+04 -0.96457017253E+03 -0.14586338531E+04  0.21429788065E+04  0.50400001928E-02 0.  1.
       -1    1    3    3    0  502  0.12386887542E+04  0.96457017253E+03 -0.75085430304E+03  0.17402665405E+04  0.50400001928E-02 0. -1.
</event>
<event>
 5   0  0.5373060E-06  0.3092580E+04  0.7818609E-02  0.8217777E-01
        2   -1    0    0  501    0  0.00000000000E+00  0.00000000000E+00  0.13381312141E+04  0.13381312141E+04  0.25500000920E-02 0.  1.
       -2   -1    0    0    0  501  0.00000000000E+00  0.00000000000E+00 -0.17868298558E+04  0.17868298558E+04  0.25500000920E-02 0. -1.
    10030    2    1    2    0    0  0.00000000000E+00  0.00000000000E+00 -0.44869864165E+03  0.31249610699E+04  0.30925800260E+04 0.  0.
        5    1    3    3  502    0 -0.49640978127E+03  0.17830961359E+03 -0.16931070275E+04  0.17733726303E+04  0.46999998093E+01 0. -1.
       -5    1    3    3    0  502  0.49640978127E+03 -0.17830961359E+03  0.12444083859E+04  0.13515884396E+04  0.46999998093E+01 0.  1.
</event>
<event>
 5   0  0.1969465E-06  0.2905370E+04  0.7818609E-02  0.8271281E-01
        1   -1    0    0  501    0  0.00000000000E+00  0.00000000000E+00  0.16739253763E+04  0.16739253763E+04  0.50400001928E-02 0.  1.
       -1   -1    0    0    0  501  0.00000000000E+00  0.00000000000E+00 -0.12606860819E+04  0.12606860819E+04  0.50400001928E-02 0. -1.
    10030    2    1    2    0    0  0.00000000000E+00  0.00000000000E+00  0.41323929437E+03  0.29346114582E+04  0.29053704921E+04 0.  0.
        2    1    3    3  502    0 -0.14276930115E+04 -0.15986924836E+03  0.42426196499E+03  0.14979531791E+04  0.25500000920E-02 0.  1.
       -2    1    3    3    0  502  0.14276930115E+04  0.15986924836E+03 -0.11022670623E+02  0.14366582791E+04  0.25500000920E-02 0. -1.
</event>
<event>
 5   0  0.1969465E-06  0.3218077E+04  0.7818609E-02  0.8184059E-01
       -1   -1    0    0    0  501  0.00000000000E+00  0.00000000000E+00  0.24085752502E+04  0.24085752502E+04  0.50400001928E-02 0.  1.
        1   -1    0    0  501    0  0.00000000000E+00  0.00000000000E+00 -0.10749111805E+04  0.10749111805E+04  0.50400001928E-02 0. -1.
    10030    2    1    2    0    0  0.00000000000E+00  0.00000000000E+00  0.13336640698E+04  0.34834864307E+04  0.32180767334E+04 0.  0.
        2    1    3    3  502    0  0.14220756645E+04 -0.13987794553E+03 -0.13386226116E+03  0.14351948091E+04  0.25500000920E-02 0. -1.
       -2    1    3    3    0  502 -0.14220756645E+04  0.13987794553E+03  0.14675263309E+04  0.20482916216E+04  0.25500000920E-02 0.  1.
</event>
<event>
 5   0  0.1881144E-06  0.3206308E+04  0.7818609E-02  0.8187153E-01
       -1   -1    0    0    0  501  0.00000000000E+00  0.00000000000E+00  0.12279592621E+04  0.12279592622E+04  0.50400001928E-02 0.  1.
        1   -1    0    0  501    0  0.00000000000E+00  0.00000000000E+00 -0.20929870326E+04  0.20929870326E+04  0.50400001928E-02 0. -1.
    10030    2    1    2    0    0  0.00000000000E+00  0.00000000000E+00 -0.86502777048E+03  0.33209462948E+04  0.32063080403E+04 0.  0.
        3    1    3    3  502    0 -0.86072556175E+03 -0.24248645344E+03 -0.18106718812E+04  0.20194506294E+04  0.10100000352E+00 0. -1.
       -3    1    3    3    0  502  0.86072556175E+03  0.24248645344E+03  0.94564411074E+03  0.13014956654E+04  0.10100000352E+00 0.  1.
</event>
<event>
 5   0  0.5131083E-06  0.3241879E+04  0.7818609E-02  0.8177844E-01
        2   -1    0    0  501    0  0.00000000000E+00  0.00000000000E+00  0.18611360784E+04  0.18611360784E+04  0.25500000920E-02 0.  1.
       -2   -1    0    0    0  501  0.00000000000E+00  0.00000000000E+00 -0.14117421131E+04  0.14117421131E+04  0.25500000920E-02 0. -1.
    10030    2    1    2    0    0  0.00000000000E+00  0.00000000000E+00  0.44939396532E+03  0.32728781915E+04  0.32418785789E+04 0.  0.
        3    1    3    3  502    0  0.76894038705E+03 -0.36794737570E+03  0.16165716119E+04  0.18275553006E+04  0.10100000352E+00 0.  1.
       -3    1    3    3    0  502 -0.76894038705E+03  0.36794737570E+03 -0.11671776466E+04  0.14453228909E+04  0.10100000352E+00 0. -1.
</event>
<event>
 5   0  0.1846850E-06  0.2382499E+04  0.7818609E-02  0.8446085E-01
        1   -1    0    0  501    0  0.00000000000E+00  0.00000000000E+00  0.16617843818E+04  0.16617843818E+04  0.50400001928E-02 0. -1.
       -1   -1    0    0    0  501  0.00000000000E+00  0.00000000000E+00 -0.85394648470E+03  0.85394648471E+03  0.50400001928E-02 0.  1.
    10030    2    1    2    0    0  0.00000000000E+00  0.00000000000E+00  0.80783789712E+03  0.25157308665E+04  0.23824986306E+04 0.  0.
        5    1    3    3  502    0 -0.10202340137E+04 -0.60878327291E+03  0.49571929105E+03  0.12873438630E+04  0.46999998093E+01 0. -1.
       -5    1    3    3    0  502  0.10202340137E+04  0.60878327291E+03  0.31211860607E+03  0.12283870035E+04  0.46999998093E+01 0.  1.
</event>
<event>
 5   0  0.1969465E-06  0.3212377E+04  0.7818609E-02  0.8185556E-01
        1   -1    0    0  501    0  0.00000000000E+00  0.00000000000E+00  0.20960143699E+04  0.20960143699E+04  0.50400001928E-02 0. -1.
       -1   -1    0    0    0  501  0.00000000000E+00  0.00000000000E+00 -0.12308321304E+04  0.12308321304E+04  0.50400001928E-02 0.  1.
    10030    2    1    2    0    0  0.00000000000E+00  0.00000000000E+00  0.86518223952E+03  0.33268465004E+04  0.32123772084E+04 0.  0.
        2    1    3    3  502    0  0.14608808849E+04 -0.63211136139E+03  0.21022122096E+03  0.16055935646E+04  0.25500000920E-02 0. -1.
       -2    1    3    3    0  502 -0.14608808849E+04  0.63211136139E+03  0.65496101856E+03  0.17212529357E+04  0.25500000920E-02 0.  1.
</event>
<event>
 5   0  0.5108810E-06  0.3129301E+04  0.7818609E-02  0.8207742E-01
       -2   -1    0    0    0  501  0.00000000000E+00  0.00000000000E+00  0.14441180820E+04  0.14441180820E+04  0.25500000920E-02 0. -1.
        2   -1    0    0  501    0  0.00000000000E+00  0.00000000000E+00 -0.16952433675E+04  0.16952433675E+04  0.25500000920E-02 0.  1.
    10030    2    1    2    0    0  0.00000000000E+00  0.00000000000E+00 -0.25112528547E+03  0.31393614495E+04  0.31293012641E+04 0.  0.
        1    1    3    3  502    0  0.10583248992E+04  0.96809528849E+03  0.50164444800E+03  0.15195088786E+04  0.50400001928E-02 0. -1.
       -1    1    3    3    0  502 -0.10583248992E+04 -0.96809528849E+03 -0.75276973347E+03  0.16198525709E+04  0.50400001928E-02 0.  1.
</event>
<event>
 5   0  0.5373060E-06  0.3195931E+04  0.7818609E-02  0.8189893E-01
        2   -1    0    0  501    0  0.00000000000E+00  0.00000000000E+00  0.24740643778E+04  0.24740643778E+04  0.25500000920E-02 0.  1.
       -2   -1    0    0    0  501  0.00000000000E+00  0.00000000000E+00 -0.10321050738E+04  0.10321050738E+04  0.25500000920E-02 0. -1.
    10030    2    1    2    0    0  0.00000000000E+00  0.00000000000E+00  0.14419593040E+04  0.35061694516E+04  0.31959314118E+04 0.  0.
        5    1    3    3  502    0  0.42627316100E+03  0.14367160170E+04  0.11251396863E+03  0.15028450368E+04  0.46999998093E+01 0. -1.
       -5    1    3    3    0  502 -0.42627316100E+03 -0.14367160170E+04  0.13294453353E+04  0.20033244148E+04  0.46999998093E+01 0.  1.
</event>
<event>
 5   0  0.5373060E-06  0.3227149E+04  0.7818609E-02  0.8181684E-01
        2   -1    0    0  501    0  0.00000000000E+00  0.00000000000E+00  0.17620826937E+04  0.17620826937E+04  0.25500000920E-02 0. -1.
       -2   -1    0    0    0  501  0.00000000000E+00  0.00000000000E+00 -0.14775828638E+04  0.14775828638E+04  0.25500000920E-02 0.  1.
    10030    2    1    2    0    0  0.00000000000E+00  0.00000000000E+00  0.28449982990E+03  0.32396655575E+04  0.32271493259E+04 0.  0.
        5    1    3    3  502    0  0.11494965874E+04  0.97900470378E+02 -0.99025406436E+03  0.15203789358E+04  0.46999998093E+01 0.  1.
       -5    1    3    3    0  502 -0.11494965874E+04 -0.97900470378E+02  0.12747538943E+04  0.17192866217E+04  0.46999998093E+01 0. -1.
</event>
<event>
 5   0  0.5373060E-06  0.3271221E+04  0.7818609E-02  0.8170257E-01
        2   -1    0    0  501    0  0.00000000000E+00  0.00000000000E+00  0.17720233731E+04  0.17720233731E+04  0.25500000920E-02 0. -1.
       -2   -1    0    0    0  501  0.00000000000E+00  0.00000000000E+00 -0.15096990724E+04  0.15096990724E+04  0.25500000920E-02 0.  1.
    10030    2    1    2    0    0  0.00000000000E+00  0.00000000000E+00  0.26232430070E+03  0.32817224454E+04  0.32712212047E+04 0.  0.
        5    1    3    3  502    0  0.31899965644E+03 -0.12668555241E+04  0.11184536349E+04  0.17197803125E+04  0.46999998093E+01 0. -1.
       -5    1    3    3    0  502 -0.31899965644E+03  0.12668555241E+04 -0.85612933422E+03  0.15619421329E+04  0.46999998093E+01 0.  1.
</event>
<event>
 5   0  0.5347280E-06  0.3178607E+04  0.7818609E-02  0.8194490E-01
        2   -1    0    0  501    0  0.00000000000E+00  0.00000000000E+00  0.85822801715E+03  0.85822801715E+03  0.25500000920E-02 0.  1.
       -2   -1    0    0    0  501  0.00000000000E+00  0.00000000000E+00 -0.29431411449E+04  0.29431411449E+04  0.25500000920E-02 0. -1.
    10030    2    1    2    0    0  0.00000000000E+00  0.00000000000E+00 -0.20849131278E+04  0.38013691621E+04  0.31786073611E+04 0.  0.
        2    1    3    3  502    0 -0.15326165025E+04  0.33605996584E+02 -0.15439512092E+04  0.21757362072E+04  0.25500000920E-02 0. -1.
       -2    1    3    3    0  502  0.15326165025E+04 -0.33605996584E+02 -0.54096191856E+03  0.16256329549E+04  0.25500000920E-02 0.  1.
</event>
<event>
 5   0  0.5121624E-06  0.2134124E+04  0.7818609E-02  0.8546359E-01
        2   -1    0    0  501    0  0.00000000000E+00  0.00000000000E+00  0.21192396915E+04  0.21192396915E+04  0.25500000920E-02 0.  1.
       -2   -1    0    0    0  501  0.00000000000E+00  0.00000000000E+00 -0.53727817451E+03  0.53727817452E+03  0.25500000920E-02 0. -1.
    10030    2    1    2    0    0  0.00000000000E+00  0.00000000000E+00  0.15819615170E+04  0.26565178660E+04  0.21341239260E+04 0.  0.
        4    1    3    3  502    0  0.28952430141E+02 -0.89987247523E+03  0.15038949295E+04  0.17528006980E+04  0.12699999809E+01 0.  1.
       -4    1    3    3    0  502 -0.28952430141E+02  0.89987247523E+03  0.78066587490E+02  0.90371716807E+03  0.12699999809E+01 0. -1.
</event>
<event>
 5   0  0.5131083E-06  0.3213648E+04  0.7818609E-02  0.8185222E-01
       -2   -1    0    0    0  501  0.00000000000E+00  0.00000000000E+00  0.93710481666E+03  0.93710481667E+03  0.25500000920E-02 0.  1.
        2   -1    0    0  501    0  0.00000000000E+00  0.00000000000E+00 -0.27551699884E+04  0.27551699884E+04  0.25500000920E-02 0. -1.
    10030    2    1    2    0    0  0.00000000000E+00  0.00000000000E+00 -0.18180651717E+04  0.36922748051E+04  0.32136478132E+04 0.  0.
        3    1    3    3  502    0 -0.72702616565E+03 -0.10726491406E+04  0.18260137789E+03  0.13086200739E+04  0.10100000352E+00 0.  1.
       -3    1    3    3    0  502  0.72702616565E+03  0.10726491406E+04 -0.20006665496E+04  0.23836547312E+04  0.10100000352E+00 0. -1.
</event>
<event>
 5   0  0.5373060E-06  0.3047031E+04  0.7818609E-02  0.8230427E-01
       -2   -1    0    0    0  501  0.00000000000E+00  0.00000000000E+00  0.11374448771E+04  0.11374448771E+04  0.25500000920E-02 0.  1.
        2   -1    0    0  501    0  0.00000000000E+00  0.00000000000E+00 -0.20406260822E+04  0.20406260822E+04  0.25500000920E-02 0. -1.
    10030    2    1    2    0    0  0.00000000000E+00  0.00000000000E+00 -0.90318120508E+03  0.31780709592E+04  0.30470311342E+04 0.  0.
        5    1    3    3  502    0 -0.70729164411E+03 -0.78999588201E+03 -0.15925848366E+04  0.19132965048E+04  0.46999998093E+01 0. -1.
       -5    1    3    3    0  502  0.70729164411E+03  0.78999588201E+03  0.68940363154E+03  0.12647744544E+04  0.46999998093E+01 0.  1.
</event>
<event>
 5   0  0.5121624E-06  0.3329239E+04  0.7818609E-02  0.8155495E-01
       -2   -1    0    0    0  501  0.00000000000E+00  0.00000000000E+00  0.14143321364E+04  0.14143321364E+04  0.25500000920E-02 0.  1.
        2   -1    0    0  501    0  0.00000000000E+00  0.00000000000E+00 -0.19591987773E+04  0.19591987773E+04  0.25500000920E-02 0. -1.
    10030    2    1    2    0    0  0.00000000000E+00  0.00000000000E+00 -0.54486664091E+03  0.33735309137E+04  0.33292388273E+04 0.  0.
        4    1    3    3  502    0 -0.17189230946E+03  0.15939248210E+04  0.18164997291E+03  0.16134254327E+04  0.12699999809E+01 0. -1.
       -4    1    3    3    0  502  0.17189230946E+03 -0.15939248210E+04 -0.72651661382E+03  0.17601054810E+04  0.12699999809E+01 0.  1.
</event>
<event>
 5   0  0.1729500E-06  0.2506316E+04  0.7818609E-02  0.8400739E-01
       -3   -1    0    0    0  501  0.00000000000E+00  0.00000000000E+00  0.73736562833E+03  0.73736563525E+03  0.10100000352E+00 0. -1.
        3   -1    0    0  501    0  0.00000000000E+00  0.00000000000E+00 -0.21297504061E+04  0.21297504085E+04  0.10100000352E+00 0.  1.
    10030    2    1    2    0    0  0.00000000000E+00  0.00000000000E+00 -0.13923847777E+04  0.28671160437E+04  0.25063158298E+04 0.  0.
        5    1    3    3  502    0 -0.73690357566E+02  0.10887489764E+04  0.85980907915E+01  0.10912839316E+04  0.46999998093E+01 0. -1.
       -5    1    3    3    0  502  0.73690357566E+02 -0.10887489764E+04 -0.14009828685E+04  0.17758321121E+04  0.46999998093E+01 0.  1.
</event>
<event>
 5   0  0.5108810E-06  0.3106978E+04  0.7818609E-02  0.8213825E-01
       -2   -1    0    0    0  501  0.00000000000E+00  0.00000000000E+00  0.14577502272E+04  0.14577502272E+04  0.25500000920E-02 0.  1.
        2   -1    0    0  501    0  0.00000000000E+00  0.00000000000E+00 -0.16555158491E+04  0.16555158491E+04  0.25500000920E-02 0. -1.
    10030    2    1    2    0    0  0.00000000000E+00  0.00000000000E+00 -0.19776562189E+03  0.31132660763E+04  0.31069783424E+04 0.  0.
        1    1    3    3  502    0  0.40398502416E+03 -0.13564476912E+04  0.54286186050E+03  0.15158671572E+04  0.50400001928E-02 0.  1.
       -1    1    3    3    0  502 -0.40398502416E+03  0.13564476912E+04 -0.74062748239E+03  0.15973989190E+04  0.50400001928E-02 0. -1.
</event>
<event>
 5   0  0.1969465E-06  0.3190886E+04  0.7818609E-02  0.8191228E-01
       -1   -1    0    0    0  501  0.00000000000E+00  0.00000000000E+00  0.13458760069E+04  0.13458760069E+04  0.50400001928E-02 0.  1.
        1   -1    0    0  501    0  0.00000000000E+00  0.00000000000E+00 -0.18912875791E+04  0.18912875791E+04  0.50400001928E-02 0. -1.
    10030    2    1    2    0    0  0.00000000000E+00  0.00000000000E+00 -0.54541157222E+03  0.32371635860E+04  0.31908861308E+04 0.  0.
        2    1    3    3  502    0  0.43280833454E+03  0.18734726739E+03  0.12735434193E+04  0.13580629197E+04  0.25500000920E-02 0.  1.
       -2    1    3    3    0  502 -0.43280833454E+03 -0.18734726739E+03 -0.18189549915E+04  0.18791006663E+04  0.25500000920E-02 0. -1.
</event>
<event>
 5   0  0.5131083E-06  0.3203317E+04  0.7818609E-02  0.8187942E-01
       -2   -1    0    0    0  501  0.00000000000E+00  0.00000000000E+00  0.11242597001E+04  0.11242597001E+04  0.25500000920E-02 0. -1.
        2   -1    0    0  501    0  0.00000000000E+00  0.00000000000E+00 -0.22817763833E+04  0.22817763833E+04  0.25500000920E-02 0.  1.
    10030    2    1    2    0    0  0.00000000000E+00  0.00000000000E+00 -0.11575166832E+04  0.34060360834E+04  0.32033165515E+04 0.  0.
        3    1    3    3  502    0  0.15468319040E+04  0.38622617105E+03 -0.74158194498E+03  0.17583524635E+04  0.10100000352E+00 0.  1.
       -3    1    3    3    0  502 -0.15468319040E+04 -0.38622617105E+03 -0.41593473818E+03  0.16476836199E+04  0.10100000352E+00 0. -1.
</event>
<event>
 5   0  0.1886248E-06  0.3379644E+04  0.7818609E-02  0.8142920E-01
       -1   -1    0    0    0  501  0.00000000000E+00  0.00000000000E+00  0.17937224745E+04  0.17937224745E+04  0.50400001928E-02 0.  1.
        1   -1    0    0  501    0  0.00000000000E+00  0.00000000000E+00 -0.15919401889E+04  0.15919401889E+04  0.50400001928E-02 0. -1.
    10030    2    1    2    0    0  0.00000000000E+00  0.00000000000E+00  0.20178228565E+03  0.33856626634E+04  0.33796442978E+04 0.  0.
        4    1    3    3  502    0  0.10804788966E+04 -0.12832405772E+04 -0.10283337731E+03  0.16806895434E+04  0.12699999809E+01 0. -1.
       -4    1    3    3    0  502 -0.10804788966E+04  0.12832405772E+04  0.30461566295E+03  0.17049731200E+04  0.12699999809E+01 0.  1.
</event>
<event>
 5   0  0.1977015E-06  0.3147363E+04  0.7818609E-02  0.8202858E-01
       -1   -1    0    0    0  501  0.00000000000E+00  0.00000000000E+00  0.12520725819E+04  0.12520725819E+04  0.50400001928E-02 0. -1.
        1   -1    0    0  501    0  0.00000000000E+00  0.00000000000E+00 -0.19778991905E+04  0.19778991905E+04  0.50400001928E-02 0.  1.
    10030    2    1    2    0    0  0.00000000000E+00  0.00000000000E+00 -0.72582660853E+03  0.32299717724E+04  0.31473629255E+04 0.  0.
        1    1    3    3  502    0 -0.11735676088E+04 -0.24874026511E+03  0.68231848536E+03  0.13801054914E+04  0.50400001928E-02 0.  1.
       -1    1    3    3    0  502  0.11735676088E+04  0.24874026511E+03 -0.14081450939E+04  0.18498662810E+04  0.50400001928E-02 0. -1.
</event>
<event>
 5   0  0.1846850E-06  0.3136823E+04  0.7818609E-02  0.8205704E-01
       -1   -1    0    0    0  501  0.00000000000E+00  0.00000000000E+00  0.19650541373E+04  0.19650541373E+04  0.50400001928E-02 0. -1.
        1   -1    0    0  501    0  0.00000000000E+00  0.00000000000E+00 -0.12518307542E+04  0.12518307542E+04  0.50400001928E-02 0.  1.
    10030    2    1    2    0    0  0.00000000000E+00  0.00000000000E+00  0.71322338309E+03  0.32168848915E+04  0.31368233631E+04 0.  0.
        5    1    3    3  502    0  0.39869895841E+03  0.25533296528E+02  0.19119892822E+04  0.19532889991E+04  0.46999998093E+01 0. -1.
       -5    1    3    3    0  502 -0.39869895841E+03 -0.25533296528E+02 -0.11987658991E+04  0.12635958925E+04  0.46999998093E+01 0.  1.
</event>
<event>
 5   0  0.5121624E-06  0.3218320E+04  0.7818609E-02  0.8183996E-01
       -2   -1    0    0    0  501  0.00000000000E+00  0.00000000000E+00  0.14674885647E+04  0.14674885647E+04  0.25500000920E-02 0.  1.
        2   -1    0    0  501    0  0.00000000000E+00  0.00000000000E+00 -0.17645079196E+04  0.17645079196E+04  0.25500000920E-02 0. -1.
    10030    2    1    2    0    0  0.00000000000E+00  0.00000000000E+00 -0.29701935492E+03  0.32319964844E+04  0.32183195581E+04 0.  0.
        4    1    3    3  502    0 -0.66759437769E+03 -0.13968064190E+04  0.29226689931E+03  0.15754910278E+04  0.12699999809E+01 0.  1.
       -4    1    3    3    0  502  0.66759437769E+03  0.13968064190E+04 -0.58928625422E+03  0.16565054566E+04  0.12699999809E+01 0. -1.
</event>
<event>
 5   0  0.1969465E-06  0.3044631E+04  0.7818609E-02  0.8231100E-01
       -1   -1    0    0    0  501  0.00000000000E+00  0.00000000000E+00  0.12550484629E+04  0.12550484629E+04  0.50400001928E-02 0. -1.
        1   -1    0    0  501    0  0.00000000000E+00  0.00000000000E+00 -0.18464977117E+04  0.18464977117E+04  0.50400001928E-02 0.  1.
    10030    2    1    2    0    0  0.00000000000E+00  0.00000000000E+00 -0.59144924879E+03  0.31015461746E+04  0.30446307591E+04 0.  0.
        2    1    3    3  502    0 -0.13666215671E+04 -0.22527907459E+03  0.34777939327E+03  0.14280601092E+04  0.25500000920E-02 0. -1.
       -2    1    3    3    0  502  0.13666215671E+04  0.22527907459E+03 -0.93922864206E+03  0.16734860654E+04  0.25500000920E-02 0.  1.
</event>
<event>
 5   0  0.5347280E-06  0.3176022E+04  0.7818609E-02  0.8195179E-01
       -2   -1    0    0    0  501  0.00000000000E+00  0.00000000000E+00  0.18686907361E+04  0.18686907361E+04  0.25500000920E-02 0.  1.
        2   -1    0    0  501    0  0.00000000000E+00  0.00000000000E+00 -0.13494898337E+04  0.13494898337E+04  0.25500000920E-02 0. -1.
    10030    2    1    2    0    0  0.00000000000E+00  0.00000000000E+00  0.51920090231E+03  0.32181805698E+04  0.31760221351E+04 0.  0.
        2    1    3    3  502    0  0.14150556605E+04 -0.19537818600E+02  0.98959026760E+03  0.17268622256E+04  0.25500000920E-02 0.  1.
       -2    1    3    3    0  502 -0.14150556605E+04  0.19537818600E+02 -0.47038936529E+03  0.14913183442E+04  0.25500000920E-02 0. -1.
</event>
<event>
 5   0  0.5108810E-06  0.3185599E+04  0.7818609E-02  0.8192631E-01
        2   -1    0    0  501    0  0.00000000000E+00  0.00000000000E+00  0.17894293670E+04  0.17894293670E+04  0.25500000920E-02 0.  1.
       -2   -1    0    0    0  501  0.00000000000E+00  0.00000000000E+00 -0.14177761572E+04  0.14177761572E+04  0.25500000920E-02 0. -1.
    10030    2    1    2    0    0  0.00000000000E+00  0.00000000000E+00  0.37165320980E+03  0.32072055242E+04  0.31855990279E+04 0.  0.
        1    1    3    3  502    0 -0.98259811097E+03  0.12227249294E+04  0.46420697117E+03  0.16358616728E+04  0.50400001928E-02 0.  1.
       -1    1    3    3    0  502  0.98259811097E+03 -0.12227249294E+04 -0.92553761372E+02  0.15713438514E+04  0.50400001928E-02 0. -1.
</event>
<event>
 5   0  0.5373060E-06  0.3228230E+04  0.7818609E-02  0.8181401E-01
       -2   -1    0    0    0  501  0.00000000000E+00  0.00000000000E+00  0.16120246399E+04  0.16120246399E+04  0.25500000920E-02 0. -1.
        2   -1    0    0  501    0  0.00000000000E+00  0.00000000000E+00 -0.16162081586E+04  0.16162081586E+04  0.25500000920E-02 0.  1.
    10030    2    1    2    0    0  0.00000000000E+00  0.00000000000E+00 -0.41835186638E+01  0.32282327984E+04  0.32282300877E+04 0.  0.
        5    1    3    3  502    0  0.43758726948E+03  0.60853197388E+03 -0.14316213795E+04  0.16159689496E+04  0.46999998093E+01 0.  1.
       -5    1    3    3    0  502 -0.43758726948E+03 -0.60853197388E+03  0.14274378609E+04  0.16122638489E+04  0.46999998093E+01 0. -1.
</event>
<event>
 5   0  0.1969465E-06  0.3133814E+04  0.7818609E-02  0.8206519E-01
        1   -1    0    0  501    0  0.00000000000E+00  0.00000000000E+00  0.15928168944E+04  0.15928168944E+04  0.50400001928E-02 0. -1.
       -1   -1    0    0    0  501  0.00000000000E+00  0.00000000000E+00 -0.15414185019E+04  0.15414185019E+04  0.50400001928E-02 0.  1.
    10030    2    1    2    0    0  0.00000000000E+00  0.00000000000E+00  0.51398392419E+02  0.31342353963E+04  0.31338139263E+04 0.  0.
        2    1    3    3  502    0 -0.20164435269E+03 -0.10306866538E+04 -0.11373080075E+04  0.15480455185E+04  0.25500000920E-02 0.  1.
       -2    1    3    3    0  502  0.20164435269E+03  0.10306866538E+04  0.11887063999E+04  0.15861898778E+04  0.25500000920E-02 0. -1.
</event>
<event>
 5   0  0.1886248E-06  0.3177513E+04  0.7818609E-02  0.8194781E-01
       -1   -1    0    0    0  501  0.00000000000E+00  0.00000000000E+00  0.10236499960E+04  0.10236499960E+04  0.50400001928E-02 0.  1.
        1   -1    0    0  501    0  0.00000000000E+00  0.00000000000E+00 -0.24658299080E+04  0.24658299080E+04  0.50400001928E-02 0. -1.
    10030    2    1    2    0    0  0.00000000000E+00  0.00000000000E+00 -0.14421799120E+04  0.34894799040E+04  0.31775127225E+04 0.  0.
        4    1    3    3  502    0 -0.47651909357E+03  0.70379827309E+03 -0.21951656657E+04  0.23539660934E+04  0.12699999809E+01 0. -1.
       -4    1    3    3    0  502  0.47651909357E+03 -0.70379827309E+03  0.75298575379E+03  0.11355138106E+04  0.12699999809E+01 0.  1.
</event>
<event>
 5   0  0.5121624E-06  0.3242946E+04  0.7818609E-02  0.8177566E-01
       -2   -1    0    0    0  501  0.00000000000E+00  0.00000000000E+00  0.20257351854E+04  0.20257351854E+04  0.25500000920E-02 0.  1.
        2   -1    0    0  501    0  0.00000000000E+00  0.00000000000E+00 -0.12978869703E+04  0.12978869703E+04  0.25500000920E-02 0. -1.
    10030    2    1    2    0    0  0.00000000000E+00  0.00000000000E+00  0.72784821510E+03  0.33236221557E+04  0.32429463779E+04 0.  0.
        4    1    3    3  502    0 -0.90704091506E+03 -0.13343883237E+04  0.19911864375E+03  0.16257199228E+04  0.12699999809E+01 0. -1.
       -4    1    3    3    0  502  0.90704091506E+03  0.13343883237E+04  0.52872957135E+03  0.16979022329E+04  0.12699999809E+01 0.  1.
</event>
<event>
 5   0  0.5131083E-06  0.3021237E+04  0.7818609E-02  0.8237692E-01
        2   -1    0    0  501    0  0.00000000000E+00  0.00000000000E+00  0.19959476258E+04  0.19959476258E+04  0.25500000920E-02 0. -1.
       -2   -1    0    0    0  501  0.00000000000E+00  0.00000000000E+00 -0.11433005819E+04  0.11433005819E+04  0.25500000920E-02 0.  1.
    10030    2    1    2    0    0  0.00000000000E+00  0.00000000000E+00  0.85264704392E+03  0.31392482076E+04  0.30212368870E+04 0.  0.
        3    1    3    3  502    0 -0.10011257863E+04  0.47569927844E+02 -0.74806886836E+03  0.12506489436E+04  0.10100000352E+00 0.  1.
       -3    1    3    3    0  502  0.10011257863E+04 -0.47569927844E+02  0.16007159123E+04  0.18885992640E+04  0.10100000352E+00 0. -1.
</event>
<event>
 5   0  0.1977015E-06  0.3141034E+04  0.7818609E-02  0.8204566E-01
        1   -1    0    0  501    0  0.00000000000E+00  0.00000000000E+00  0.14656300905E+04  0.14656300905E+04  0.50400001928E-02 0.  1.
       -1   -1    0    0    0  501  0.00000000000E+00  0.00000000000E+00 -0.16829106016E+04  0.16829106016E+04  0.50400001928E-02 0. -1.
    10030    2    1    2    0    0  0.00000000000E+00  0.00000000000E+00 -0.21728051109E+03  0.31485406921E+04  0.31410344903E+04 0.  0.
        1    1    3    3  502    0  0.78947217700E+03  0.26454900013E+03 -0.14434650789E+04  0.16663864875E+04  0.50400001928E-02 0. -1.
       -1    1    3    3    0  502 -0.78947217700E+03 -0.26454900013E+03  0.12261845678E+04  0.14821542046E+04  0.50400001928E-02 0.  1.
</event>
<event>
 5   0  0.1881144E-06  0.3299606E+04  0.7818609E-02  0.8162996E-01
        1   -1    0    0  501    0  0.00000000000E+00  0.00000000000E+00  0.27058728578E+04  0.27058728579E+04  0.50400001928E-02 0.  1.
       -1   -1    0    0    0  501  0.00000000000E+00  0.00000000000E+00 -0.10059045919E+04  0.10059045919E+04  0.50400001928E-02 0. -1.
    10030    2    1    2    0    0  0.00000000000E+00  0.00000000000E+00  0.16999682660E+04  0.37117774497E+04  0.32996059963E+04 0.  0.
        3    1    3    3  502    0 -0.76728066920E+03 -0.10826137293E+04 -0.25282186599E+03  0.13508112445E+04  0.10100000352E+00 0. -1.
       -3    1    3    3    0  502  0.76728066920E+03  0.10826137293E+04  0.19527901320E+04  0.23609662052E+04  0.10100000352E+00 0.  1.
</event>
<event>
 5   0  0.1969465E-06  0.3211201E+04  0.7818609E-02  0.8185865E-01
       -1   -1    0    0    0  501  0.00000000000E+00  0.00000000000E+00  0.24903028258E+04  0.24903028258E+04  0.50400001928E-02 0. -1.
        1   -1    0    0  501    0  0.00000000000E+00  0.00000000000E+00 -0.10351966642E+04  0.10351966642E+04  0.50400001928E-02 0.  1.
    10030    2    1    2    0    0  0.00000000000E+00  0.00000000000E+00  0.14551061616E+04  0.35254994900E+04  0.32112011324E+04 0.  0.
        2    1    3    3  502    0 -0.13455101169E+04 -0.36312692688E+03  0.16028943171E+04  0.21240359769E+04  0.25500000920E-02 0.  1.
       -2    1    3    3    0  502  0.13455101169E+04  0.36312692688E+03 -0.14778815548E+03  0.14014635131E+04  0.25500000920E-02 0. -1.
</event>
<event>
 5   0  0.1969465E-06  0.3189888E+04  0.7818609E-02  0.8191493E-01
       -1   -1    0    0    0  501  0.00000000000E+00  0.00000000000E+00  0.16565398947E+04  0.16565398948E+04  0.50400001928E-02 0.  1.
        1   -1    0    0  501    0  0.00000000000E+00  0.00000000000E+00 -0.15356387213E+04  0.15356387213E+04  0.50400001928E-02 0. -1.
    10030    2    1    2    0    0  0.00000000000E+00  0.00000000000E+00  0.12090117341E+03  0.31921786161E+04  0.31898882776E+04 0.  0.
        2    1    3    3  502    0 -0.12954659613E+04 -0.44810989347E+03 -0.75549505169E+03  0.15651860294E+04  0.25500000920E-02 0. -1.
       -2    1    3    3    0  502  0.12954659613E+04  0.44810989347E+03  0.87639622511E+03  0.16269925866E+04  0.25500000920E-02 0.  1.
</event>
<event>
 5   0  0.5373060E-06  0.3285828E+04  0.7818609E-02  0.8166511E-01
        2   -1    0    0  501    0  0.00000000000E+00  0.00000000000E+00  0.15797925003E+04  0.15797925003E+04  0.25500000920E-02 0. -1.
       -2   -1    0    0    0  501  0.00000000000E+00  0.00000000000E+00 -0.17085577486E+04  0.17085577486E+04  0.25500000920E-02 0.  1.
    10030    2    1    2    0    0  0.00000000000E+00  0.00000000000E+00 -0.12876524824E+03  0.32883502489E+04  0.32858281864E+04 0.  0.
        5    1    3    3  502    0  0.35741208135E+03  0.20400895973E+02 -0.16690424972E+04  0.17070104100E+04  0.46999998093E+01 0.  1.
       -5    1    3    3    0  502 -0.35741208135E+03 -0.20400895973E+02  0.15402772489E+04  0.15813398389E+04  0.46999998093E+01 0. -1.
</event>
<event>
 5   0  0.1846850E-06  0.3177411E+04  0.7818609E-02  0.8194808E-01
       -1   -1    0    0    0  501  0.00000000000E+00  0.00000000000E+00  0.16589897787E+04  0.16589897787E+04  0.50400001928E-02 0. -1.
        1   -1    0    0  501    0  0.00000000000E+00  0.00000000000E+00 -0.15213991920E+04  0.15213991920E+04  0.50400001928E-02 0.  1.
    10030    2    1    2    0    0  0.00000000000E+00  0.00000000000E+00  0.13759058664E+03  0.31803889707E+04  0.31774113419E+04 0.  0.
        5    1    3    3  502    0 -0.50579915323E+03 -0.96022570335E+01 -0.14386168903E+04  0.15249805356E+04  0.46999998093E+01 0.  1.
       -5    1    3    3    0  502  0.50579915323E+03  0.96022570335E+01  0.15762074770E+04  0.16554084352E+04  0.46999998093E+01 0. -1.
</event>
<event>
 5   0  0.1881144E-06  0.3170300E+04  0.7818609E-02  0.8196705E-01
        1   -1    0    0  501    0  0.00000000000E+00  0.00000000000E+00  0.32674173878E+04  0.32674173878E+04  0.50400001928E-02 0.  1.
       -1   -1    0    0    0  501  0.00000000000E+00  0.00000000000E+00 -0.76901746007E+03  0.76901746008E+03  0.50400001928E-02 0. -1.
    10030    2    1    2    0    0  0.00000000000E+00  0.00000000000E+00  0.24983999277E+04  0.40364348479E+04  0.31703003142E+04 0.  0.
        3    1    3    3  502    0  0.80716845603E+03  0.13015779215E+04  0.17696191375E+04  0.23403371347E+04  0.10100000352E+00 0.  1.
       -3    1    3    3    0  502 -0.80716845603E+03 -0.13015779215E+04  0.72878079019E+03  0.16960977131E+04  0.10100000352E+00 0. -1.
</event>
<event>
 5   0  0.1846850E-06  0.3163317E+04  0.7818609E-02  0.8198573E-01
       -1   -1    0    0    0  501  0.00000000000E+00  0.00000000000E+00  0.15091773112E+04  0.15091773112E+04  0.50400001928E-02 0.  1.
        1   -1    0    0  501    0  0.00000000000E+00  0.00000000000E+00 -0.16576208160E+04  0.16576208160E+04  0.50400001928E-02 0. -1.
    10030    2    1    2    0    0  0.00000000000E+00  0.00000000000E+00 -0.14844350483E+03  0.31667981271E+04  0.31633170729E+04 0.  0.
        5    1    3    3  502    0  0.13918311970E+04  0.37902924269E+02  0.67693115176E+03  0.15481888085E+04  0.46999998093E+01 0.  1.
       -5    1    3    3    0  502 -0.13918311970E+04 -0.37902924269E+02 -0.82537465658E+03  0.16186093186E+04  0.46999998093E+01 0. -1.
</event>
<event>
 5   0  0.1977015E-06  0.3336150E+04  0.7818609E-02  0.8153758E-01
       -1   -1    0    0    0  501  0.00000000000E+00  0.00000000000E+00  0.19908867240E+04  0.19908867240E+04  0.50400001928E-02 0. -1.
        1   -1    0    0  501    0  0.00000000000E+00  0.00000000000E+00 -0.13976051747E+04  0.13976051747E+04  0.50400001928E-02 0.  1.
    10030    2    1    2    0    0  0.00000000000E+00  0.00000000000E+00  0.59328154931E+03  0.33884918987E+04  0.33361496295E+04 0.  0.
        1    1    3    3  502    0 -0.81834358351E+02 -0.82748333936E+03  0.17653740587E+04  0.19514023435E+04  0.50400001928E-02 0. -1.
       -1    1    3    3    0  502  0.81834358351E+02  0.82748333936E+03 -0.11720925094E+04  0.14370895552E+04  0.50400001928E-02 0.  1.
</event>
<event>
 5   0  0.5347280E-06  0.3234326E+04  0.7818609E-02  0.8179810E-01
        2   -1    0    0  501    0  0.00000000000E+00  0.00000000000E+00  0.19298801165E+04  0.19298801165E+04  0.25500000920E-02 0.  1.
       -2   -1    0    0    0  501  0.00000000000E+00  0.00000000000E+00 -0.13551180509E+04  0.13551180509E+04  0.25500000920E-02 0. -1.
    10030    2    1    2    0    0  0.00000000000E+00  0.00000000000E+00  0.57476206555E+03  0.32849981674E+04  0.32343255136E+04 0.  0.
        2    1    3    3  502    0 -0.45746658356E+03 -0.70196240321E+03 -0.11174700316E+04  0.13966983075E+04  0.25500000920E-02 0. -1.
       -2    1    3    3    0  502  0.45746658356E+03  0.70196240321E+03  0.16922320971E+04  0.18882998600E+04  0.25500000920E-02 0.  1.
</event>
<event>
 5   0  0.5108810E-06  0.3340495E+04  0.7818609E-02  0.8152667E-01
        2   -1    0    0  501    0  0.00000000000E+00  0.00000000000E+00  0.22375555861E+04  0.22375555861E+04  0.25500000920E-02 0.  1.
       -2   -1    0    0    0  501  0.00000000000E+00  0.00000000000E+00 -0.12467745659E+04  0.12467745659E+04  0.25500000920E-02 0. -1.
    10030    2    1    2    0    0  0.00000000000E+00  0.00000000000E+00  0.99078102026E+03  0.34843301520E+04  0.33404954090E+04 0.  0.
        1    1    3    3  502    0  0.61888441288E+03 -0.39952872539E+02  0.21130093077E+04  0.22021404321E+04  0.50400001928E-02 0.  1.
       -1    1    3    3    0  502 -0.61888441288E+03  0.39952872539E+02 -0.11222282874E+04  0.12821897198E+04  0.50400001928E-02 0. -1.
</event>
<event>
 5   0  0.1846850E-06  0.3378377E+04  0.7818609E-02  0.8143234E-01
       -1   -1    0    0    0  501  0.00000000000E+00  0.00000000000E+00  0.17454066086E+04  0.17454066087E+04  0.50400001928E-02 0. -1.
        1   -1    0    0  501    0  0.00000000000E+00  0.00000000000E+00 -0.16347812864E+04  0.16347812864E+04  0.50400001928E-02 0.  1.
    10030    2    1    2    0    0  0.00000000000E+00  0.00000000000E+00  0.11062532227E+03  0.33801878950E+04  0.33783771613E+04 0.  0.
        5    1    3    3  502    0 -0.93203249058E+03  0.10709411665E+04 -0.86045733264E+03  0.16601230246E+04  0.46999998093E+01 0. -1.
       -5    1    3    3    0  502  0.93203249058E+03 -0.10709411665E+04  0.97108265491E+03  0.17200648704E+04  0.46999998093E+01 0.  1.
</event>
<event>
 5   0  0.1969465E-06  0.2895547E+04  0.7818609E-02  0.8274203E-01
       -1   -1    0    0    0  501  0.00000000000E+00  0.00000000000E+00  0.98345536538E+03  0.98345536539E+03  0.50400001928E-02 0.  1.
        1   -1    0    0  501    0  0.00000000000E+00  0.00000000000E+00 -0.21313104263E+04  0.21313104263E+04  0.50400001928E-02 0. -1.
    10030    2    1    2    0    0  0.00000000000E+00  0.00000000000E+00 -0.11478550610E+04  0.31147657917E+04  0.28955473915E+04 0.  0.
        2    1    3    3  502    0  0.21680942218E+03  0.42571504473E+03  0.89622012787E+03  0.10156033391E+04  0.25500000920E-02 0.  1.
       -2    1    3    3    0  502 -0.21680942218E+03 -0.42571504473E+03 -0.20440751888E+04  0.20991624526E+04  0.25500000920E-02 0. -1.
</event>
<event>
 5   0  0.1881144E-06  0.3222206E+04  0.7818609E-02  0.8182977E-01
        1   -1    0    0  501    0  0.00000000000E+00  0.00000000000E+00  0.18158841178E+04  0.18158841179E+04  0.50400001928E-02 0.  1.
       -1   -1    0    0    0  501  0.00000000000E+00  0.00000000000E+00 -0.14294154161E+04  0.14294154161E+04  0.50400001928E-02 0. -1.
    10030    2    1    2    0    0  0.00000000000E+00  0.00000000000E+00  0.38646870174E+03  0.32452995340E+04  0.32222059226E+04 0.  0.
        3    1    3    3  502    0 -0.13375285800E+04 -0.55556978376E+03 -0.51752324659E+03  0.15380087152E+04  0.10100000352E+00 0. -1.
       -3    1    3    3    0  502  0.13375285800E+04  0.55556978376E+03  0.90399194833E+03  0.17072908188E+04  0.10100000352E+00 0.  1.
</event>
<event>
 5   0  0.5347280E-06  0.2691252E+04  0.7818609E-02  0.8337849E-01
        2   -1    0    0  501    0  0.00000000000E+00  0.00000000000E+00  0.17715665157E+04  0.17715665157E+04  0.25500000920E-02 0.  1.
       -2   -1    0    0    0  501  0.00000000000E+00  0.00000000000E+00 -0.10220952886E+04  0.10220952886E+04  0.25500000920E-02 0. -1.
    10030    2    1    2    0    0  0.00000000000E+00  0.00000000000E+00  0.74947122714E+03  0.27936618042E+04  0.26912523397E+04 0.  0.
        2    1    3    3  502    0 -0.13169881178E+04  0.13322490897E+03  0.12365726800E+03  0.13294727146E+04  0.25500000920E-02 0.  1.
       -2    1    3    3    0  502  0.13169881178E+04 -0.13322490897E+03  0.62581395914E+03  0.14641890897E+04  0.25500000920E-02 0. -1.
</event>
<event>
 5   0  0.5108810E-06  0.3177449E+04  0.7818609E-02  0.8194798E-01
        2   -1    0    0  501    0  0.00000000000E+00  0.00000000000E+00  0.23552103302E+04  0.23552103302E+04  0.25500000920E-02 0. -1.
       -2   -1    0    0    0  501  0.00000000000E+00  0.00000000000E+00 -0.10716859123E+04  0.10716859123E+04  0.25500000920E-02 0.  1.
    10030    2    1    2    0    0  0.00000000000E+00  0.00000000000E+00  0.12835244178E+04  0.34268962425E+04  0.31774491225E+04 0.  0.
        1    1    3    3  502    0 -0.29428592238E+03  0.54650383217E+03  0.22190280886E+04  0.23042040493E+04  0.50400001928E-02 0. -1.
       -1    1    3    3    0  502  0.29428592238E+03 -0.54650383217E+03 -0.93550367078E+03  0.11226921932E+04  0.50400001928E-02 0.  1.
</event>
<event>
 5   0  0.1977015E-06  0.3155791E+04  0.7818609E-02  0.8200591E-01
       -1   -1    0    0    0  501  0.00000000000E+00  0.00000000000E+00  0.12776285074E+04  0.12776285074E+04  0.50400001928E-02 0. -1.
        1   -1    0    0  501    0  0.00000000000E+00  0.00000000000E+00 -0.19487313071E+04  0.19487313071E+04  0.50400001928E-02 0.  1.
    10030    2    1    2    0    0  0.00000000000E+00  0.00000000000E+00 -0.67110279971E+03  0.32263598145E+04  0.31557912930E+04 0.  0.
        1    1    3    3  502    0 -0.95878778784E+03 -0.33006340847E+03  0.90042363910E+03  0.13560894534E+04  0.50400001928E-02 0. -1.
       -1    1    3    3    0  502  0.95878778784E+03  0.33006340847E+03 -0.15715264388E+04  0.18702703611E+04  0.50400001928E-02 0.  1.
</event>
<event>
 5   0  0.5347280E-06  0.3218854E+04  0.7818609E-02  0.8183856E-01
       -2   -1    0    0    0  501  0.00000000000E+00  0.00000000000E+00  0.11834541327E+04  0.11834541327E+04  0.25500000920E-02 0. -1.
        2   -1    0    0  501    0  0.00000000000E+00  0.00000000000E+00 -0.21887248601E+04  0.21887248601E+04  0.25500000920E-02 0.  1.
    10030    2    1    2    0    0  0.00000000000E+00  0.00000000000E+00 -0.10052707274E+04  0.33721789927E+04  0.32188541321E+04 0.  0.
        2    1    3    3  502    0  0.72282606209E+03 -0.69752047225E+03 -0.18200080404E+04  0.20788077334E+04  0.25500000920E-02 0.  1.
       -2    1    3    3    0  502 -0.72282606209E+03  0.69752047225E+03  0.81473731300E+03  0.12933712593E+04  0.25500000920E-02 0. -1.
</event>
<event>
 5   0  0.1886248E-06  0.3188709E+04  0.7818609E-02  0.8191805E-01
        1   -1    0    0  501    0  0.00000000000E+00  0.00000000000E+00  0.13420784786E+04  0.13420784786E+04  0.50400001928E-02 0.  1.
       -1   -1    0    0    0  501  0.00000000000E+00  0.00000000000E+00 -0.18940523623E+04  0.18940523623E+04  0.50400001928E-02 0. -1.
    10030    2    1    2    0    0  0.00000000000E+00  0.00000000000E+00 -0.55197388372E+03  0.32361308409E+04  0.31887094021E+04 0.  0.
        4    1    3    3  502    0  0.27171675930E+03 -0.15274513380E+04  0.96938991671E+02  0.15544569367E+04  0.12699999809E+01 0.  1.
       -4    1    3    3    0  502 -0.27171675930E+03  0.15274513380E+04 -0.64891287539E+03  0.16816739041E+04  0.12699999809E+01 0. -1.
</event>
<event>
 5   0  0.1881144E-06  0.2000929E+04  0.7818609E-02  0.8606186E-01
        1   -1    0    0  501    0  0.00000000000E+00  0.00000000000E+00  0.14557735533E+04  0.14557735533E+04  0.50400001928E-02 0.  1.
       -1   -1    0    0    0  501  0.00000000000E+00  0.00000000000E+00 -0.68755859223E+03  0.68755859224E+03  0.50400001928E-02 0. -1.
    10030    2    1    2    0    0  0.00000000000E+00  0.00000000000E+00  0.76821496105E+03  0.21433321455E+04  0.20009293990E+04 0.  0.
        3    1    3    3  502    0  0.59557105640E+03 -0.40795387460E+03  0.11260787533E+04  0.13376040580E+04  0.10100000352E+00 0.  1.
       -3    1    3    3    0  502 -0.59557105640E+03  0.40795387460E+03 -0.35786379229E+03  0.80572808754E+03  0.10100000352E+00 0. -1.
</event>
<event>
 5   0  0.5373060E-06  0.3191037E+04  0.7818609E-02  0.8191188E-01
        2   -1    0    0  501    0  0.00000000000E+00  0.00000000000E+00  0.13442176837E+04  0.13442176837E+04  0.25500000920E-02 0. -1.
       -2   -1    0    0    0  501  0.00000000000E+00  0.00000000000E+00 -0.18937994788E+04  0.18937994788E+04  0.25500000920E-02 0.  1.
    10030    2    1    2    0    0  0.00000000000E+00  0.00000000000E+00 -0.54958179516E+03  0.32380171625E+04  0.31910366647E+04 0.  0.
        5    1    3    3  502    0  0.33671359044E+03  0.35391144449E+03  0.12664613381E+04  0.13574151036E+04  0.46999998093E+01 0. -1.
       -5    1    3    3    0  502 -0.33671359044E+03 -0.35391144449E+03 -0.18160431332E+04  0.18806020590E+04  0.46999998093E+01 0.  1.
</event>
<event>
 5   0  0.5347280E-06  0.3163156E+04  0.7818609E-02  0.8198616E-01
        2   -1    0    0  501    0  0.00000000000E+00  0.00000000000E+00  0.18803802393E+04  0.18803802393E+04  0.25500000920E-02 0.  1.
       -2   -1    0    0    0  501  0.00000000000E+00  0.00000000000E+00 -0.13302567993E+04  0.13302567993E+04  0.25500000920E-02 0. -1.
    10030    2    1    2    0    0  0.00000000000E+00  0.00000000000E+00  0.55012343992E+03  0.32106370386E+04  0.31631557651E+04 0.  0.
        2    1    3    3  502    0  0.12123114682E+04  0.84464671914E+03  0.84767660417E+03  0.17034326524E+04  0.25500000920E-02 0.  1.
       -2    1    3    3    0  502 -0.12123114682E+04 -0.84464671914E+03 -0.29755316425E+03  0.15072043862E+04  0.25500000920E-02 0. -1.
</event>
<event>
 5   0  0.1729500E-06  0.2858392E+04  0.7818609E-02  0.8285366E-01
       -3   -1    0    0    0  501  0.00000000000E+00  0.00000000000E+00  0.14264458270E+04  0.14264458305E+04  0.10100000352E+00 0.  1.
        3   -1    0    0  501    0  0.00000000000E+00  0.00000000000E+00 -0.14319518344E+04  0.14319518380E+04  0.10100000352E+00 0. -1.
    10030    2    1    2    0    0  0.00000000000E+00  0.00000000000E+00 -0.55060074572E+01  0.28583976685E+04  0.28583923655E+04 0.  0.
        3    1    3    3  502    0 -0.99544878286E+03 -0.93930760159E+03  0.40881144734E+03  0.14284060555E+04  0.10100000352E+00 0.  1.
       -3    1    3    3    0  502  0.99544878286E+03  0.93930760159E+03 -0.41431745480E+03  0.14299916130E+04  0.10100000352E+00 0. -1.
</event>
<event>
 5   0  0.1846850E-06  0.2907532E+04  0.7818609E-02  0.8270640E-01
        1   -1    0    0  501    0  0.00000000000E+00  0.00000000000E+00  0.10751682548E+04  0.10751682548E+04  0.50400001928E-02 0. -1.
       -1   -1    0    0    0  501  0.00000000000E+00  0.00000000000E+00 -0.19656787253E+04  0.19656787253E+04  0.50400001928E-02 0.  1.
    10030    2    1    2    0    0  0.00000000000E+00  0.00000000000E+00 -0.89051047047E+03  0.30408469801E+04  0.29075318499E+04 0.  0.
        5    1    3    3  502    0  0.73525282864E+03  0.11748458403E+04  0.13674436010E+02  0.13860261724E+04  0.46999998093E+01 0.  1.
       -5    1    3    3    0  502 -0.73525282864E+03 -0.11748458403E+04 -0.90418490648E+03  0.16548208077E+04  0.46999998093E+01 0. -1.
</event>
<event>
 5   0  0.1969465E-06  0.3231073E+04  0.7818609E-02  0.8180659E-01
        1   -1    0    0  501    0  0.00000000000E+00  0.00000000000E+00  0.18452931432E+04  0.18452931432E+04  0.50400001928E-02 0.  1.
       -1   -1    0    0    0  501  0.00000000000E+00  0.00000000000E+00 -0.14143868427E+04  0.14143868427E+04  0.50400001928E-02 0. -1.
    10030    2    1    2    0    0  0.00000000000E+00  0.00000000000E+00  0.43090630045E+03  0.32596799859E+04  0.32310730989E+04 0.  0.
        2    1    3    3  502    0  0.14092601985E+03 -0.14197176546E+04  0.98012163557E+03  0.17309236789E+04  0.25500000920E-02 0.  1.
       -2    1    3    3    0  502 -0.14092601985E+03  0.14197176546E+04 -0.54921533513E+03  0.15287563070E+04  0.25500000920E-02 0. -1.
</event>
<event>
 5   0  0.1977015E-06  0.2015635E+04  0.7818609E-02  0.8599345E-01
        1   -1    0    0  501    0  0.00000000000E+00  0.00000000000E+00  0.27565820180E+04  0.27565820180E+04  0.50400001928E-02 0.  1.
       -1   -1    0    0    0  501  0.00000000000E+00  0.00000000000E+00 -0.36846218747E+03  0.36846218751E+03  0.50400001928E-02 0. -1.
    10030    2    1    2    0    0  0.00000000000E+00  0.00000000000E+00  0.23881198306E+04  0.31250442055E+04  0.20156351261E+04 0.  0.
        1    1    3    3  502    0  0.23757922557E+03 -0.12700282825E+03 -0.31160499993E+03  0.41191174154E+03  0.50400001928E-02 0. -1.
       -1    1    3    3    0  502 -0.23757922557E+03  0.12700282825E+03  0.26997248305E+04  0.27131324640E+04  0.50400001928E-02 0.  1.
</event>
<event>
 5   0  0.5347280E-06  0.3200564E+04  0.7818609E-02  0.8188668E-01
       -2   -1    0    0    0  501  0.00000000000E+00  0.00000000000E+00  0.12984597005E+04  0.12984597005E+04  0.25500000920E-02 0. -1.
        2   -1    0    0  501    0  0.00000000000E+00  0.00000000000E+00 -0.19722612462E+04  0.19722612462E+04  0.25500000920E-02 0.  1.
    10030    2    1    2    0    0  0.00000000000E+00  0.00000000000E+00 -0.67380154573E+03  0.32707209467E+04  0.32005635423E+04 0.  0.
        2    1    3    3  502    0  0.11610336807E+04 -0.69234864836E+03  0.53835229611E+03  0.14550495021E+04  0.25500000920E-02 0. -1.
       -2    1    3    3    0  502 -0.11610336807E+04  0.69234864836E+03 -0.12121538418E+04  0.18156714447E+04  0.25500000920E-02 0.  1.
</event>
<event>
 5   0  0.1977015E-06  0.3248644E+04  0.7818609E-02  0.8176087E-01
        1   -1    0    0  501    0  0.00000000000E+00  0.00000000000E+00  0.14985147284E+04  0.14985147284E+04  0.50400001928E-02 0. -1.
       -1   -1    0    0    0  501  0.00000000000E+00  0.00000000000E+00 -0.17606915078E+04  0.17606915078E+04  0.50400001928E-02 0.  1.
    10030    2    1    2    0    0  0.00000000000E+00  0.00000000000E+00 -0.26217677942E+03  0.32592062362E+04  0.32486441212E+04 0.  0.
        1    1    3    3  502    0  0.76474259290E+03  0.90577380822E+03 -0.12451783280E+04  0.17192226422E+04  0.50400001928E-02 0.  1.
       -1    1    3    3    0  502 -0.76474259290E+03 -0.90577380822E+03  0.98300154859E+03  0.15399835939E+04  0.50400001928E-02 0. -1.
</event>
<event>
 5   0  0.5373060E-06  0.3154771E+04  0.7818609E-02  0.8200865E-01
        2   -1    0    0  501    0  0.00000000000E+00  0.00000000000E+00  0.21913088346E+04  0.21913088346E+04  0.25500000920E-02 0.  1.
       -2   -1    0    0    0  501  0.00000000000E+00  0.00000000000E+00 -0.11354607157E+04  0.11354607157E+04  0.25500000920E-02 0. -1.
    10030    2    1    2    0    0  0.00000000000E+00  0.00000000000E+00  0.10558481189E+04  0.33267695503E+04  0.31547710521E+04 0.  0.
        5    1    3    3  502    0  0.71430976473E+03 -0.45477341774E+03 -0.87544600257E+03  0.12179840290E+04  0.46999998093E+01 0. -1.
       -5    1    3    3    0  502 -0.71430976473E+03  0.45477341774E+03  0.19312941215E+04  0.21087855214E+04  0.46999998093E+01 0.  1.
</event>
<event>
 5   0  0.1881144E-06  0.3139945E+04  0.7818609E-02  0.8204860E-01
       -1   -1    0    0    0  501  0.00000000000E+00  0.00000000000E+00  0.12577034262E+04  0.12577034262E+04  0.50400001928E-02 0.  1.
        1   -1    0    0  501    0  0.00000000000E+00  0.00000000000E+00 -0.19597734886E+04  0.19597734887E+04  0.50400001928E-02 0. -1.
    10030    2    1    2    0    0  0.00000000000E+00  0.00000000000E+00 -0.70207006247E+03  0.32174769148E+04  0.31399451149E+04 0.  0.
        3    1    3    3  502    0 -0.15338052469E+04 -0.33502909734E+03 -0.35440088089E+03  0.16094729032E+04  0.10100000352E+00 0. -1.
       -3    1    3    3    0  502  0.15338052469E+04  0.33502909734E+03 -0.34766918159E+03  0.16080040117E+04  0.10100000352E+00 0.  1.
</event>
<event>
 5   0  0.1729500E-06  0.1959550E+04  0.7818609E-02  0.8625769E-01
        3   -1    0    0  501    0  0.00000000000E+00  0.00000000000E+00  0.61872341884E+03  0.61872342708E+03  0.10100000352E+00 0. -1.
       -3   -1    0    0    0  501  0.00000000000E+00  0.00000000000E+00 -0.15515157527E+04  0.15515157560E+04  0.10100000352E+00 0.  1.
    10030    2    1    2    0    0  0.00000000000E+00  0.00000000000E+00 -0.93279233385E+03  0.21702391831E+04  0.19595500947E+04 0.  0.
        1    1    3    3  502    0 -0.55165009335E+03 -0.61169500998E+03  0.12118476992E+03  0.83257093344E+03  0.50400001928E-02 0. -1.
       -1    1    3    3    0  502  0.55165009335E+03  0.61169500998E+03 -0.10539771038E+04  0.13376682496E+04  0.50400001928E-02 0.  1.
</event>
<event>
 5   0  0.1846850E-06  0.3194537E+04  0.7818609E-02  0.8190261E-01
        1   -1    0    0  501    0  0.00000000000E+00  0.00000000000E+00  0.14757090161E+04  0.14757090161E+04  0.50400001928E-02 0.  1.
       -1   -1    0    0    0  501  0.00000000000E+00  0.00000000000E+00 -0.17288411377E+04  0.17288411377E+04  0.50400001928E-02 0. -1.
    10030    2    1    2    0    0  0.00000000000E+00  0.00000000000E+00 -0.25313212160E+03  0.32045501537E+04  0.31945368705E+04 0.  0.
        5    1    3    3  502    0  0.84938072356E+03 -0.67144028944E+03 -0.13045401577E+04  0.16953249803E+04  0.46999998093E+01 0. -1.
       -5    1    3    3    0  502 -0.84938072356E+03  0.67144028944E+03  0.10514080361E+04  0.15092251734E+04  0.46999998093E+01 0.  1.
</event>
<event>
 5   0  0.5347280E-06  0.3210159E+04  0.7818609E-02  0.8186139E-01
       -2   -1    0    0    0  501  0.00000000000E+00  0.00000000000E+00  0.15582024120E+04  0.15582024120E+04  0.25500000920E-02 0.  1.
        2   -1    0    0  501    0  0.00000000000E+00  0.00000000000E+00 -0.16533665026E+04  0.16533665026E+04  0.25500000920E-02 0. -1.
    10030    2    1    2    0    0  0.00000000000E+00  0.00000000000E+00 -0.95164090613E+02  0.32115689146E+04  0.32101586704E+04 0.  0.
        2    1    3    3  502    0  0.23836788468E+03  0.12928614727E+04 -0.96883925006E+03  0.16330828297E+04  0.25500000920E-02 0. -1.
       -2    1    3    3    0  502 -0.23836788468E+03 -0.12928614727E+04  0.87367515945E+03  0.15784860849E+04  0.25500000920E-02 0.  1.
</event>
<event>
 5   0  0.1729500E-06  0.3176462E+04  0.7818609E-02  0.8195061E-01
        3   -1    0    0  501    0  0.00000000000E+00  0.00000000000E+00  0.22012962891E+04  0.22012962914E+04  0.10100000352E+00 0.  1.
       -3   -1    0    0    0  501  0.00000000000E+00  0.00000000000E+00 -0.11459053417E+04  0.11459053461E+04  0.10100000352E+00 0. -1.
    10030    2    1    2    0    0  0.00000000000E+00  0.00000000000E+00  0.10553909475E+04  0.33472016375E+04  0.31764616715E+04 0.  0.
        1    1    3    3  502    0  0.44464942590E+03 -0.14853718450E+03  0.21267269402E+04  0.21777841687E+04  0.50400001928E-02 0.  1.
       -1    1    3    3    0  502 -0.44464942590E+03  0.14853718450E+03 -0.10713359927E+04  0.11694174689E+04  0.50400001928E-02 0. -1.
</event>
<event>
 5   0  0.1977015E-06  0.3220581E+04  0.7818609E-02  0.8183403E-01
       -1   -1    0    0    0  501  0.00000000000E+00  0.00000000000E+00  0.11084283697E+04  0.11084283697E+04  0.50400001928E-02 0.  1.
        1   -1    0    0  501    0  0.00000000000E+00  0.00000000000E+00 -0.23393797795E+04  0.23393797795E+04  0.50400001928E-02 0. -1.
    10030    2    1    2    0    0  0.00000000000E+00  0.00000000000E+00 -0.12309514098E+04  0.34478081492E+04  0.32205806402E+04 0.  0.
        1    1    3    3  502    0  0.25904013490E+03  0.14552678151E+04 -0.12993991427E+04  0.19680813848E+04  0.50400001928E-02 0. -1.
       -1    1    3    3    0  502 -0.25904013490E+03 -0.14552678151E+04  0.68447732888E+02  0.14797267644E+04  0.50400001928E-02 0.  1.
</event>
<event>
 5   0  0.5347280E-06  0.3266601E+04  0.7818609E-02  0.8171446E-01
        2   -1    0    0  501    0  0.00000000000E+00  0.00000000000E+00  0.24046432773E+04  0.24046432773E+04  0.25500000920E-02 0.  1.
       -2   -1    0    0    0  501  0.00000000000E+00  0.00000000000E+00 -0.11093831745E+04  0.11093831745E+04  0.25500000920E-02 0. -1.
    10030    2    1    2    0    0  0.00000000000E+00  0.00000000000E+00  0.12952601028E+04  0.35140264518E+04  0.32666011648E+04 0.  0.
        2    1    3    3  502    0 -0.40060866951E+03  0.77798009728E+03  0.21311938594E+04  0.23038506037E+04  0.25500000920E-02 0.  1.
       -2    1    3    3    0  502  0.40060866951E+03 -0.77798009728E+03 -0.83593375661E+03  0.12101758481E+04  0.25500000920E-02 0. -1.
</event>
<event>
 5   0  0.1969465E-06  0.3138679E+04  0.7818609E-02  0.8205202E-01
       -1   -1    0    0    0  501  0.00000000000E+00  0.00000000000E+00  0.21114434835E+04  0.21114434835E+04  0.50400001928E-02 0. -1.
        1   -1    0    0  501    0  0.00000000000E+00  0.00000000000E+00 -0.11664184374E+04  0.11664184374E+04  0.50400001928E-02 0.  1.
    10030    2    1    2    0    0  0.00000000000E+00  0.00000000000E+00  0.94502504617E+03  0.32778619209E+04  0.31386790907E+04 0.  0.
        2    1    3    3  502    0 -0.14246736594E+04 -0.62880513194E+03  0.26964159102E+03  0.15804421905E+04  0.25500000920E-02 0.  1.
       -2    1    3    3    0  502  0.14246736594E+04  0.62880513194E+03  0.67538345515E+03  0.16974197304E+04  0.25500000920E-02 0. -1.
</event>
<event>
 5   0  0.1969465E-06  0.3153806E+04  0.7818609E-02  0.8201124E-01
       -1   -1    0    0    0  501  0.00000000000E+00  0.00000000000E+00  0.11820077019E+04  0.11820077019E+04  0.50400001928E-02 0. -1.
        1   -1    0    0  501    0  0.00000000000E+00  0.00000000000E+00 -0.21037285817E+04  0.21037285817E+04  0.50400001928E-02 0.  1.
    10030    2    1    2    0    0  0.00000000000E+00  0.00000000000E+00 -0.92172087986E+03  0.32857362836E+04  0.31538061996E+04 0.  0.
        2    1    3    3  502    0 -0.79063881544E+03  0.98240976838E+03 -0.14472419389E+04  0.19195697224E+04  0.25500000920E-02 0.  1.
       -2    1    3    3    0  502  0.79063881544E+03 -0.98240976838E+03  0.52552105899E+03  0.13661665612E+04  0.25500000920E-02 0. -1.
</event>
<event>
 5   0  0.1886248E-06  0.2972084E+04  0.7818609E-02  0.8251748E-01
       -1   -1    0    0    0  501  0.00000000000E+00  0.00000000000E+00  0.16847236378E+04  0.16847236378E+04  0.50400001928E-02 0. -1.
        1   -1    0    0  501    0  0.00000000000E+00  0.00000000000E+00 -0.13107914515E+04  0.13107914515E+04  0.50400001928E-02 0.  1.
    10030    2    1    2    0    0  0.00000000000E+00  0.00000000000E+00  0.37393218626E+03  0.29955150893E+04  0.29720843478E+04 0.  0.
        4    1    3    3  502    0  0.60691018514E+03 -0.31443347763E+03 -0.11429482005E+04  0.13317434387E+04  0.12699999809E+01 0.  1.
       -4    1    3    3    0  502 -0.60691018514E+03  0.31443347763E+03  0.15168803867E+04  0.16637716506E+04  0.12699999809E+01 0. -1.
</event>
<event>
 5   0  0.1886248E-06  0.3028562E+04  0.7818609E-02  0.8235621E-01
       -1   -1    0    0    0  501  0.00000000000E+00  0.00000000000E+00  0.12180349590E+04  0.12180349590E+04  0.50400001928E-02 0. -1.
        1   -1    0    0  501    0  0.00000000000E+00  0.00000000000E+00 -0.18825792546E+04  0.18825792546E+04  0.50400001928E-02 0.  1.
    10030    2    1    2    0    0  0.00000000000E+00  0.00000000000E+00 -0.66454429561E+03  0.31006142136E+04  0.30285622630E+04 0.  0.
        4    1    3    3  502    0 -0.13241831194E+04 -0.66302524105E+03 -0.65599462138E+03  0.16196894641E+04  0.12699999809E+01 0.  1.
       -4    1    3    3    0  502  0.13241831194E+04  0.66302524105E+03 -0.85496742278E+01  0.14809247495E+04  0.12699999809E+01 0. -1.
</event>
<event>
 5   0  0.1846850E-06  0.3116670E+04  0.7818609E-02  0.8211178E-01
        1   -1    0    0  501    0  0.00000000000E+00  0.00000000000E+00  0.11164656479E+04  0.11164656479E+04  0.50400001928E-02 0.  1.
       -1   -1    0    0    0  501  0.00000000000E+00  0.00000000000E+00 -0.21750858136E+04  0.21750858136E+04  0.50400001928E-02 0. -1.
    10030    2    1    2    0    0  0.00000000000E+00  0.00000000000E+00 -0.10586201657E+04  0.32915514615E+04  0.31166703978E+04 0.  0.
        5    1    3    3  502    0 -0.79493169919E+03  0.11180530713E+04 -0.13099954114E+04  0.18968577028E+04  0.46999998093E+01 0. -1.
       -5    1    3    3    0  502  0.79493169919E+03 -0.11180530713E+04  0.25137524570E+03  0.13946937587E+04  0.46999998093E+01 0.  1.
</event>
<event>
 5   0  0.1881144E-06  0.3136656E+04  0.7818609E-02  0.8205749E-01
       -1   -1    0    0    0  501  0.00000000000E+00  0.00000000000E+00  0.21560850414E+04  0.21560850414E+04  0.50400001928E-02 0. -1.
        1   -1    0    0  501    0  0.00000000000E+00  0.00000000000E+00 -0.11407959278E+04  0.11407959278E+04  0.50400001928E-02 0.  1.
    10030    2    1    2    0    0  0.00000000000E+00  0.00000000000E+00  0.10152891136E+04  0.32968809692E+04  0.31366562038E+04 0.  0.
        3    1    3    3  502    0  0.74369540386E+03 -0.99666773189E+02 -0.93988827617E+03  0.12026663300E+04  0.10100000352E+00 0.  1.
       -3    1    3    3    0  502 -0.74369540386E+03  0.99666773189E+02  0.19551773898E+04  0.20942146392E+04  0.10100000352E+00 0. -1.
</event>
<event>
 5   0  0.5373060E-06  0.3200752E+04  0.7818609E-02  0.8188619E-01
        2   -1    0    0  501    0  0.00000000000E+00  0.00000000000E+00  0.23080490580E+04  0.23080490580E+04  0.25500000920E-02 0. -1.
       -2   -1    0    0    0  501  0.00000000000E+00  0.00000000000E+00 -0.11096832545E+04  0.11096832545E+04  0.25500000920E-02 0.  1.
    10030    2    1    2    0    0  0.00000000000E+00  0.00000000000E+00  0.11983658036E+04  0.34177323125E+04  0.32007520305E+04 0.  0.
        5    1    3    3  502    0 -0.47218322931E+03 -0.11549539760E+04  0.16692695848E+04  0.20840726296E+04  0.46999998093E+01 0. -1.
       -5    1    3    3    0  502  0.47218322931E+03  0.11549539760E+04 -0.47090378118E+03  0.13336596829E+04  0.46999998093E+01 0.  1.
</event>
<event>
 5   0  0.1846850E-06  0.2445569E+04  0.7818609E-02  0.8422637E-01
       -1   -1    0    0    0  501  0.00000000000E+00  0.00000000000E+00  0.53721611224E+03  0.53721611227E+03  0.50400001928E-02 0.  1.
        1   -1    0    0  501    0  0.00000000000E+00  0.00000000000E+00 -0.27832421057E+04  0.27832421057E+04  0.50400001928E-02 0. -1.
    10030    2    1    2    0    0  0.00000000000E+00  0.00000000000E+00 -0.22460259935E+04  0.33204582180E+04  0.24455694662E+04 0.  0.
        5    1    3    3  502    0  0.67142553884E+03  0.58556699782E+03 -0.22601832558E+04  0.24294343793E+04  0.46999998093E+01 0. -1.
       -5    1    3    3    0  502 -0.67142553884E+03 -0.58556699782E+03  0.14157262353E+02  0.89102383874E+03  0.46999998093E+01 0.  1.
</event>
<event>
 5   0  0.5108810E-06  0.3048595E+04  0.7818609E-02  0.8229989E-01
        2   -1    0    0  501    0  0.00000000000E+00  0.00000000000E+00  0.19027279607E+04  0.19027279607E+04  0.25500000920E-02 0. -1.
       -2   -1    0    0    0  501  0.00000000000E+00  0.00000000000E+00 -0.12211325439E+04  0.12211325439E+04  0.25500000920E-02 0.  1.
    10030    2    1    2    0    0  0.00000000000E+00  0.00000000000E+00  0.68159541675E+03  0.31238605046E+04  0.30485951093E+04 0.  0.
        1    1    3    3  502    0  0.33637828593E+03 -0.53495987688E+02  0.18632348611E+04  0.18941109576E+04  0.50400001928E-02 0. -1.
       -1    1    3    3    0  502 -0.33637828593E+03  0.53495987688E+02 -0.11816394444E+04  0.12297495470E+04  0.50400001928E-02 0.  1.
</event>
<event>
 5   0  0.1881144E-06  0.3056909E+04  0.7818609E-02  0.8227664E-01
        1   -1    0    0  501    0  0.00000000000E+00  0.00000000000E+00  0.16283153024E+04  0.16283153024E+04  0.50400001928E-02 0. -1.
       -1   -1    0    0    0  501  0.00000000000E+00  0.00000000000E+00 -0.14347183344E+04  0.14347183345E+04  0.50400001928E-02 0.  1.
    10030    2    1    2    0    0  0.00000000000E+00  0.00000000000E+00  0.19359696791E+03  0.30630336368E+04  0.30569094318E+04 0.  0.
        3    1    3    3  502    0  0.59132469937E+03  0.30979194665E+03 -0.12809244359E+04  0.14444387737E+04  0.10100000352E+00 0.  1.
       -3    1    3    3    0  502 -0.59132469937E+03 -0.30979194665E+03  0.14745214038E+04  0.16185948631E+04  0.10100000352E+00 0. -1.
</event>
<event>
 5   0  0.1886248E-06  0.3194782E+04  0.7818609E-02  0.8190197E-01
        1   -1    0    0  501    0  0.00000000000E+00  0.00000000000E+00  0.21835282933E+04  0.21835282933E+04  0.50400001928E-02 0. -1.
       -1   -1    0    0    0  501  0.00000000000E+00  0.00000000000E+00 -0.11685937287E+04  0.11685937287E+04  0.50400001928E-02 0.  1.
    10030    2    1    2    0    0  0.00000000000E+00  0.00000000000E+00  0.10149345646E+04  0.33521220220E+04  0.31947816639E+04 0.  0.
        4    1    3    3  502    0  0.14581231389E+03 -0.79113315328E+03  0.19554702835E+04  0.21144783138E+04  0.12699999809E+01 0. -1.
       -4    1    3    3    0  502 -0.14581231389E+03  0.79113315328E+03 -0.94053571884E+03  0.12376437082E+04  0.12699999809E+01 0.  1.
</event>
<event>
 5   0  0.5108810E-06  0.3185368E+04  0.7818609E-02  0.8192692E-01
        2   -1    0    0  501    0  0.00000000000E+00  0.00000000000E+00  0.26067858148E+04  0.26067858148E+04  0.25500000920E-02 0. -1.
       -2   -1    0    0    0  501  0.00000000000E+00  0.00000000000E+00 -0.97309202690E+03  0.97309202690E+03  0.25500000920E-02 0.  1.
    10030    2    1    2    0    0  0.00000000000E+00  0.00000000000E+00  0.16336937879E+04  0.35798778417E+04  0.31853681057E+04 0.  0.
        1    1    3    3  502    0 -0.10487469044E+04  0.27700396839E+03  0.21274905091E+04  0.23880571882E+04  0.50400001928E-02 0. -1.
       -1    1    3    3    0  502  0.10487469044E+04 -0.27700396839E+03 -0.49379672119E+03  0.11918206534E+04  0.50400001928E-02 0.  1.
</event>
<event>
 5   0  0.5131083E-06  0.3376440E+04  0.7818609E-02  0.8143713E-01
       -2   -1    0    0    0  501  0.00000000000E+00  0.00000000000E+00  0.14553111797E+04  0.14553111797E+04  0.25500000920E-02 0.  1.
        2   -1    0    0  501    0  0.00000000000E+00  0.00000000000E+00 -0.19584040503E+04  0.19584040504E+04  0.25500000920E-02 0. -1.
    10030    2    1    2    0    0  0.00000000000E+00  0.00000000000E+00 -0.50309287062E+03  0.34137152301E+04  0.33764403202E+04 0.  0.
        3    1    3    3  502    0 -0.95720980621E+03 -0.24277720939E+03  0.11328382714E+04  0.15028353023E+04  0.10100000352E+00 0.  1.
       -3    1    3    3    0  502  0.95720980621E+03  0.24277720939E+03 -0.16359311421E+04  0.19108799277E+04  0.10100000352E+00 0. -1.
</event>
<event>
 5   0  0.5108810E-06  0.3209739E+04  0.7818609E-02  0.8186250E-01
        2   -1    0    0  501    0  0.00000000000E+00  0.00000000000E+00  0.18704213550E+04  0.18704213550E+04  0.25500000920E-02 0. -1.
       -2   -1    0    0    0  501  0.00000000000E+00  0.00000000000E+00 -0.13770195028E+04  0.13770195028E+04  0.25500000920E-02 0.  1.
    10030    2    1    2    0    0  0.00000000000E+00  0.00000000000E+00  0.49340185214E+03  0.32474408578E+04  0.32097393566E+04 0.  0.
        1    1    3    3  502    0  0.12514126842E+04 -0.83378040635E+03 -0.32058388606E+03  0.15375296746E+04  0.50400001928E-02 0. -1.
       -1    1    3    3    0  502 -0.12514126842E+04  0.83378040635E+03  0.81398573820E+03  0.17099111832E+04  0.50400001928E-02 0.  1.
</event>
<event>
 5   0  0.5131083E-06  0.3205891E+04  0.7818609E-02  0.8187263E-01
        2   -1    0    0  501    0  0.00000000000E+00  0.00000000000E+00  0.16498570188E+04  0.16498570188E+04  0.25500000920E-02 0. -1.
       -2   -1    0    0    0  501  0.00000000000E+00  0.00000000000E+00 -0.15573678653E+04  0.15573678653E+04  0.25500000920E-02 0.  1.
    10030    2    1    2    0    0  0.00000000000E+00  0.00000000000E+00  0.92489153524E+02  0.32072248841E+04  0.32058910171E+04 0.  0.
        3    1    3    3  502    0  0.79702214835E+03 -0.12496277287E+03 -0.13394578222E+04  0.15636519009E+04  0.10100000352E+00 0.  1.
       -3    1    3    3    0  502 -0.79702214835E+03  0.12496277287E+03  0.14319469757E+04  0.16435729832E+04  0.10100000352E+00 0. -1.
</event>
<event>
 5   0  0.5347280E-06  0.1986766E+04  0.7818609E-02  0.8612833E-01
        2   -1    0    0  501    0  0.00000000000E+00  0.00000000000E+00  0.10997460362E+04  0.10997460362E+04  0.25500000920E-02 0. -1.
       -2   -1    0    0    0  501  0.00000000000E+00  0.00000000000E+00 -0.89730732009E+03  0.89730732010E+03  0.25500000920E-02 0.  1.
    10030    2    1    2    0    0  0.00000000000E+00  0.00000000000E+00  0.20243871611E+03  0.19970533563E+04  0.19867663864E+04 0.  0.
        2    1    3    3  502    0 -0.60642668926E+03  0.56611687925E+03 -0.44802407231E+03  0.94285058190E+03  0.25500000920E-02 0.  1.
       -2    1    3    3    0  502  0.60642668926E+03 -0.56611687925E+03  0.65046278841E+03  0.10542027744E+04  0.25500000920E-02 0. -1.
</event>
<event>
 5   0  0.5108810E-06  0.3148767E+04  0.7818609E-02  0.8202480E-01
        2   -1    0    0  501    0  0.00000000000E+00  0.00000000000E+00  0.20372231681E+04  0.20372231681E+04  0.25500000920E-02 0.  1.
       -2   -1    0    0    0  501  0.00000000000E+00  0.00000000000E+00 -0.12166970701E+04  0.12166970701E+04  0.25500000920E-02 0. -1.
    10030    2    1    2    0    0  0.00000000000E+00  0.00000000000E+00  0.82052609799E+03  0.32539202382E+04  0.31487670347E+04 0.  0.
        1    1    3    3  502    0  0.23439637814E+03 -0.14858598110E+04  0.89049988101E+03  0.17480592319E+04  0.50400001928E-02 0.  1.
       -1    1    3    3    0  502 -0.23439637814E+03  0.14858598110E+04 -0.69973783014E+02  0.15058610063E+04  0.50400001928E-02 0. -1.
</event>
<event>
 5   0  0.1846850E-06  0.3297454E+04  0.7818609E-02  0.8163543E-01
        1   -1    0    0  501    0  0.00000000000E+00  0.00000000000E+00  0.16587353000E+04  0.16587353000E+04  0.50400001928E-02 0.  1.
       -1   -1    0    0    0  501  0.00000000000E+00  0.00000000000E+00 -0.16387792232E+04  0.16387792232E+04  0.50400001928E-02 0. -1.
    10030    2    1    2    0    0  0.00000000000E+00  0.00000000000E+00  0.19956076884E+02  0.32975145232E+04  0.32974541370E+04 0.  0.
        5    1    3    3  502    0  0.41361544741E+03  0.15953423115E+04  0.55630022305E+02  0.16490335407E+04  0.46999998093E+01 0.  1.
       -5    1    3    3    0  502 -0.41361544741E+03 -0.15953423115E+04 -0.35673945421E+02  0.16484809825E+04  0.46999998093E+01 0. -1.
</event>
<event>
 5   0  0.1846850E-06  0.3208641E+04  0.7818609E-02  0.8186539E-01
       -1   -1    0    0    0  501  0.00000000000E+00  0.00000000000E+00  0.16297209919E+04  0.16297209919E+04  0.50400001928E-02 0. -1.
        1   -1    0    0  501    0  0.00000000000E+00  0.00000000000E+00 -0.15793155612E+04  0.15793155612E+04  0.50400001928E-02 0.  1.
    10030    2    1    2    0    0  0.00000000000E+00  0.00000000000E+00  0.50405430685E+02  0.32090365531E+04  0.32086406611E+04 0.  0.
        5    1    3    3  502    0  0.37918025253E+03 -0.15323423335E+04  0.31154371991E+03  0.16090159323E+04  0.46999998093E+01 0. -1.
       -5    1    3    3    0  502 -0.37918025253E+03  0.15323423335E+04 -0.26113828923E+03  0.16000206208E+04  0.46999998093E+01 0.  1.
</event>
<event>
 5   0  0.5347280E-06  0.2310117E+04  0.7818609E-02  0.8473943E-01
        2   -1    0    0  501    0  0.00000000000E+00  0.00000000000E+00  0.22447806610E+04  0.22447806610E+04  0.25500000920E-02 0.  1.
       -2   -1    0    0    0  501  0.00000000000E+00  0.00000000000E+00 -0.59433873123E+03  0.59433873124E+03  0.25500000920E-02 0. -1.
    10030    2    1    2    0    0  0.00000000000E+00  0.00000000000E+00  0.16504419298E+04  0.28391193922E+04  0.23101169581E+04 0.  0.
        2    1    3    3  502    0  0.34602184473E+03 -0.84887146391E+03 -0.38444493727E+02  0.91749215712E+03  0.25500000920E-02 0. -1.
       -2    1    3    3    0  502 -0.34602184473E+03  0.84887146391E+03  0.16888864235E+04  0.19216272351E+04  0.25500000920E-02 0.  1.
</event>
<event>
 5   0  0.1881144E-06  0.2109525E+04  0.7818609E-02  0.8557059E-01
        1   -1    0    0  501    0  0.00000000000E+00  0.00000000000E+00  0.10635021582E+04  0.10635021582E+04  0.50400001928E-02 0. -1.
       -1   -1    0    0    0  501  0.00000000000E+00  0.00000000000E+00 -0.10460951439E+04  0.10460951439E+04  0.50400001928E-02 0.  1.
    10030    2    1    2    0    0  0.00000000000E+00  0.00000000000E+00  0.17407014374E+02  0.21095973021E+04  0.21095254852E+04 0.  0.
        3    1    3    3  502    0 -0.78383009583E+03 -0.47870465628E+03  0.52735076727E+03  0.10590781883E+04  0.10100000352E+00 0. -1.
       -3    1    3    3    0  502  0.78383009583E+03  0.47870465628E+03 -0.50994375289E+03  0.10505191138E+04  0.10100000352E+00 0.  1.
</event>
<event>
 5   0  0.1846850E-06  0.3237507E+04  0.7818609E-02  0.8178981E-01
       -1   -1    0    0    0  501  0.00000000000E+00  0.00000000000E+00  0.14381489593E+04  0.14381489593E+04  0.50400001928E-02 0. -1.
        1   -1    0    0  501    0  0.00000000000E+00  0.00000000000E+00 -0.18220384847E+04  0.18220384847E+04  0.50400001928E-02 0.  1.
    10030    2    1    2    0    0  0.00000000000E+00  0.00000000000E+00 -0.38388952537E+03  0.32601874440E+04  0.32375069116E+04 0.  0.
        5    1    3    3  502    0  0.49641383451E+03  0.15068382065E+04  0.13179238628E+03  0.15919734291E+04  0.46999998093E+01 0. -1.
       -5    1    3    3    0  502 -0.49641383451E+03 -0.15068382065E+04 -0.51568191165E+03  0.16682140150E+04  0.46999998093E+01 0.  1.
</event>
<event>
 5   0  0.5373060E-06  0.2357027E+04  0.7818609E-02  0.8455769E-01
       -2   -1    0    0    0  501  0.00000000000E+00  0.00000000000E+00  0.57234149991E+03  0.57234149992E+03  0.25500000920E-02 0.  1.
        2   -1    0    0  501    0  0.00000000000E+00  0.00000000000E+00 -0.24266880504E+04  0.24266880504E+04  0.25500000920E-02 0. -1.
    10030    2    1    2    0    0  0.00000000000E+00  0.00000000000E+00 -0.18543465505E+04  0.29990295503E+04  0.23570271773E+04 0.  0.
        5    1    3    3  502    0 -0.10476766002E+04 -0.53131641533E+03 -0.80680875794E+03  0.14250915247E+04  0.46999998093E+01 0. -1.
       -5    1    3    3    0  502  0.10476766002E+04  0.53131641533E+03 -0.10475377925E+04  0.15739380256E+04  0.46999998093E+01 0.  1.
</event>
<event>
 5   0  0.5131083E-06  0.3095187E+04  0.7818609E-02  0.8217060E-01
        2   -1    0    0  501    0  0.00000000000E+00  0.00000000000E+00  0.21029547199E+04  0.21029547199E+04  0.25500000920E-02 0.  1.
       -2   -1    0    0    0  501  0.00000000000E+00  0.00000000000E+00 -0.11388955279E+04  0.11388955279E+04  0.25500000920E-02 0. -1.
    10030    2    1    2    0    0  0.00000000000E+00  0.00000000000E+00  0.96405919208E+03  0.32418502478E+04  0.30951870547E+04 0.  0.
        3    1    3    3  502    0  0.92449435511E+03  0.12403864245E+04  0.43762469046E+03  0.16077200237E+04  0.10100000352E+00 0. -1.
       -3    1    3    3    0  502 -0.92449435511E+03 -0.12403864245E+04  0.52643450162E+03  0.16341302241E+04  0.10100000352E+00 0.  1.
</event>
<event>
 5   0  0.1846850E-06  0.3164566E+04  0.7818609E-02  0.8198238E-01
        1   -1    0    0  501    0  0.00000000000E+00  0.00000000000E+00  0.93634018054E+03  0.93634018056E+03  0.50400001928E-02 0.  1.
       -1   -1    0    0    0  501  0.00000000000E+00  0.00000000000E+00 -0.26738356755E+04  0.26738356755E+04  0.50400001928E-02 0. -1.
    10030    2    1    2    0    0  0.00000000000E+00  0.00000000000E+00 -0.17374954950E+04  0.36101758561E+04  0.31645661814E+04 0.  0.
        5    1    3    3  502    0  0.33710908992E+03 -0.34622376747E+03  0.85009110909E+03  0.97784989616E+03  0.46999998093E+01 0.  1.
       -5    1    3    3    0  502 -0.33710908992E+03  0.34622376747E+03 -0.25875866040E+04  0.26323259599E+04  0.46999998093E+01 0. -1.
</event>
<event>
 5   0  0.5347280E-06  0.3275026E+04  0.7818609E-02  0.8169279E-01
        2   -1    0    0  501    0  0.00000000000E+00  0.00000000000E+00  0.21896307757E+04  0.21896307757E+04  0.25500000920E-02 0. -1.
       -2   -1    0    0    0  501  0.00000000000E+00  0.00000000000E+00 -0.12246119733E+04  0.12246119733E+04  0.25500000920E-02 0.  1.
    10030    2    1    2    0    0  0.00000000000E+00  0.00000000000E+00  0.96501880240E+03  0.34142427489E+04  0.32750255357E+04 0.  0.
        2    1    3    3  502    0  0.90024842702E+03 -0.50542239887E+03  0.18075823166E+04  0.20816466710E+04  0.25500000920E-02 0. -1.
       -2    1    3    3    0  502 -0.90024842702E+03  0.50542239887E+03 -0.84256351415E+03  0.13325960780E+04  0.25500000920E-02 0.  1.
</event>
<event>
 5   0  0.1977015E-06  0.2783564E+04  0.7818609E-02  0.8308389E-01
        1   -1    0    0  501    0  0.00000000000E+00  0.00000000000E+00  0.15442689943E+04  0.15442689943E+04  0.50400001928E-02 0. -1.
       -1   -1    0    0    0  501  0.00000000000E+00  0.00000000000E+00 -0.12543517208E+04  0.12543517208E+04  0.50400001928E-02 0.  1.
    10030    2    1    2    0    0  0.00000000000E+00  0.00000000000E+00  0.28991727351E+03  0.27986207151E+04  0.27835635221E+04 0.  0.
        1    1    3    3  502    0  0.64617831632E+03  0.10001165457E+04 -0.57954810328E+03  0.13242565935E+04  0.50400001928E-02 0.  1.
       -1    1    3    3    0  502 -0.64617831632E+03 -0.10001165457E+04  0.86946537680E+03  0.14743641216E+04  0.50400001928E-02 0. -1.
</event>
<event>
 5   0  0.5108810E-06  0.3167976E+04  0.7818609E-02  0.8197326E-01
       -2   -1    0    0    0  501  0.00000000000E+00  0.00000000000E+00  0.97989833045E+03  0.97989833046E+03  0.25500000920E-02 0.  1.
        2   -1    0    0  501    0  0.00000000000E+00  0.00000000000E+00 -0.25604878148E+04  0.25604878148E+04  0.25500000920E-02 0. -1.
    10030    2    1    2    0    0  0.00000000000E+00  0.00000000000E+00 -0.15805894843E+04  0.35403861452E+04  0.31679758426E+04 0.  0.
        1    1    3    3  502    0  0.21573299731E+03  0.15666748772E+04 -0.89029457895E+03  0.18148375504E+04  0.50400001928E-02 0. -1.
       -1    1    3    3    0  502 -0.21573299731E+03 -0.15666748772E+04 -0.69029490536E+03  0.17255485949E+04  0.50400001928E-02 0.  1.
</event>
<event>
 5   0  0.1969465E-06  0.3182260E+04  0.7818609E-02  0.8193518E-01
        1   -1    0    0  501    0  0.00000000000E+00  0.00000000000E+00  0.13975471246E+04  0.13975471246E+04  0.50400001928E-02 0. -1.
       -1   -1    0    0    0  501  0.00000000000E+00  0.00000000000E+00 -0.18115277186E+04  0.18115277186E+04  0.50400001928E-02 0.  1.
    10030    2    1    2    0    0  0.00000000000E+00  0.00000000000E+00 -0.41398059398E+03  0.32090748432E+04  0.31822604258E+04 0.  0.
        2    1    3    3  502    0  0.10593213563E+04  0.13429641150E+03  0.98256719234E+03  0.14510808212E+04  0.25500000920E-02 0. -1.
       -2    1    3    3    0  502 -0.10593213563E+04 -0.13429641150E+03 -0.13965477863E+04  0.17579940221E+04  0.25500000920E-02 0.  1.
</event>
<event>
 5   0  0.1881144E-06  0.3181824E+04  0.7818609E-02  0.8193634E-01
        1   -1    0    0  501    0  0.00000000000E+00  0.00000000000E+00  0.13326324903E+04  0.13326324903E+04  0.50400001928E-02 0. -1.
       -1   -1    0    0    0  501  0.00000000000E+00  0.00000000000E+00 -0.18992485511E+04  0.18992485511E+04  0.50400001928E-02 0.  1.
    10030    2    1    2    0    0  0.00000000000E+00  0.00000000000E+00 -0.56661606081E+03  0.32318810414E+04  0.31818235818E+04 0.  0.
        3    1    3    3  502    0  0.46052323728E+03 -0.13499803323E+04  0.43238460566E+03  0.14904646950E+04  0.10100000352E+00 0. -1.
       -3    1    3    3    0  502 -0.46052323728E+03  0.13499803323E+04 -0.99900066647E+03  0.17414163464E+04  0.10100000352E+00 0.  1.
</event>
<event>
 5   0  0.1846850E-06  0.3218824E+04  0.7818609E-02  0.8183864E-01
        1   -1    0    0  501    0  0.00000000000E+00  0.00000000000E+00  0.17133125028E+04  0.17133125028E+04  0.50400001928E-02 0. -1.
       -1   -1    0    0    0  501  0.00000000000E+00  0.00000000000E+00 -0.15118120493E+04  0.15118120493E+04  0.50400001928E-02 0.  1.
    10030    2    1    2    0    0  0.00000000000E+00  0.00000000000E+00  0.20150045345E+03  0.32251245521E+04  0.32188236894E+04 0.  0.
        5    1    3    3  502    0  0.13145284253E+04  0.91642894930E+03 -0.49066364444E+02  0.16032019829E+04  0.46999998093E+01 0.  1.
       -5    1    3    3    0  502 -0.13145284253E+04 -0.91642894930E+03  0.25056681789E+03  0.16219225691E+04  0.46999998093E+01 0. -1.
</event>
<event>
 5   0  0.1969465E-06  0.3124379E+04  0.7818609E-02  0.8209079E-01
        1   -1    0    0  501    0  0.00000000000E+00  0.00000000000E+00  0.18511629717E+04  0.18511629717E+04  0.50400001928E-02 0.  1.
       -1   -1    0    0    0  501  0.00000000000E+00  0.00000000000E+00 -0.13183259041E+04  0.13183259041E+04  0.50400001928E-02 0. -1.
    10030    2    1    2    0    0  0.00000000000E+00  0.00000000000E+00  0.53283706761E+03  0.31694888758E+04  0.31243790412E+04 0.  0.
        2    1    3    3  502    0 -0.27706335456E+03 -0.96525595009E+03  0.14803380391E+04  0.17888219200E+04  0.25500000920E-02 0.  1.
       -2    1    3    3    0  502  0.27706335456E+03  0.96525595009E+03 -0.94750097149E+03  0.13806669557E+04  0.25500000920E-02 0. -1.
</event>
<event>
 5   0  0.5121624E-06  0.2891198E+04  0.7818609E-02  0.8275501E-01
       -2   -1    0    0    0  501  0.00000000000E+00  0.00000000000E+00  0.11987300422E+04  0.11987300422E+04  0.25500000920E-02 0. -1.
        2   -1    0    0  501    0  0.00000000000E+00  0.00000000000E+00 -0.17433089421E+04  0.17433089421E+04  0.25500000920E-02 0.  1.
    10030    2    1    2    0    0  0.00000000000E+00  0.00000000000E+00 -0.54457889988E+03  0.29420389843E+04  0.28911982303E+04 0.  0.
        4    1    3    3  502    0 -0.14234842958E+04  0.17742250926E+03 -0.90346843718E+02  0.14373414529E+04  0.12699999809E+01 0. -1.
       -4    1    3    3    0  502  0.14234842958E+04 -0.17742250926E+03 -0.45423205616E+03  0.15046975314E+04  0.12699999809E+01 0.  1.
</event>
<event>
 5   0  0.1886248E-06  0.3171929E+04  0.7818609E-02  0.8196270E-01
        1   -1    0    0  501    0  0.00000000000E+00  0.00000000000E+00  0.28059761738E+04  0.28059761738E+04  0.50400001928E-02 0. -1.
       -1   -1    0    0    0  501  0.00000000000E+00  0.00000000000E+00 -0.89640207107E+03  0.89640207109E+03  0.50400001928E-02 0.  1.
    10030    2    1    2    0    0  0.00000000000E+00  0.00000000000E+00  0.19095741027E+04  0.37023782449E+04  0.31719286585E+04 0.  0.
        4    1    3    3  502    0 -0.13006126746E+04 -0.88819286065E+03  0.73703841505E+03  0.17388809980E+04  0.12699999809E+01 0. -1.
       -4    1    3    3    0  502  0.13006126746E+04  0.88819286065E+03  0.11725356877E+04  0.19634972469E+04  0.12699999809E+01 0.  1.
</event>
<event>
 5   0  0.1846850E-06  0.3209550E+04  0.7818609E-02  0.8186300E-01
       -1   -1    0    0    0  501  0.00000000000E+00  0.00000000000E+00  0.15394540612E+04  0.15394540612E+04  0.50400001928E-02 0.  1.
        1   -1    0    0  501    0  0.00000000000E+00  0.00000000000E+00 -0.16728679269E+04  0.16728679269E+04  0.50400001928E-02 0. -1.
    10030    2    1    2    0    0  0.00000000000E+00  0.00000000000E+00 -0.13341386570E+03  0.32123219881E+04  0.32095503261E+04 0.  0.
        5    1    3    3  502    0  0.90189887982E+02  0.14130590605E+04  0.68920093950E+03  0.15747666968E+04  0.46999998093E+01 0.  1.
       -5    1    3    3    0  502 -0.90189887982E+02 -0.14130590605E+04 -0.82261480520E+03  0.16375552913E+04  0.46999998093E+01 0. -1.
</event>
<event>
 5   0  0.1729500E-06  0.3170086E+04  0.7818609E-02  0.8196762E-01
        4   -1    0    0  501    0  0.00000000000E+00  0.00000000000E+00  0.15600733752E+04  0.15600738921E+04  0.12699999809E+01 0. -1.
       -4   -1    0    0    0  501  0.00000000000E+00  0.00000000000E+00 -0.16104116053E+04  0.16104121061E+04  0.12699999809E+01 0.  1.
    10030    2    1    2    0    0  0.00000000000E+00  0.00000000000E+00 -0.50338230109E+02  0.31704859982E+04  0.31700863597E+04 0.  0.
        4    1    3    3  502    0 -0.12195207179E+04  0.90930660800E+03 -0.47052400583E+03  0.15923139583E+04  0.12699999809E+01 0. -1.
       -4    1    3    3    0  502  0.12195207179E+04 -0.90930660800E+03  0.42018577572E+03  0.15781720400E+04  0.12699999809E+01 0.  1.
</event>
<event>
 5   0  0.5108810E-06  0.3025724E+04  0.7818609E-02  0.8236423E-01
       -2   -1    0    0    0  501  0.00000000000E+00  0.00000000000E+00  0.12669183835E+04  0.12669183835E+04  0.25500000920E-02 0.  1.
        2   -1    0    0  501    0  0.00000000000E+00  0.00000000000E+00 -0.18065503568E+04  0.18065503568E+04  0.25500000920E-02 0. -1.
    10030    2    1    2    0    0  0.00000000000E+00  0.00000000000E+00 -0.53963197326E+03  0.30734687403E+04  0.30257242820E+04 0.  0.
        1    1    3    3  502    0  0.20279648079E+03 -0.14952558475E+04 -0.15930871934E+03  0.15173317798E+04  0.50400001928E-02 0. -1.
       -1    1    3    3    0  502 -0.20279648079E+03  0.14952558475E+04 -0.38032325391E+03  0.15561369604E+04  0.50400001928E-02 0.  1.
</event>
<event>
 5   0  0.5131083E-06  0.3205142E+04  0.7818609E-02  0.8187461E-01
        2   -1    0    0  501    0  0.00000000000E+00  0.00000000000E+00  0.21637135996E+04  0.21637135996E+04  0.25500000920E-02 0.  1.
       -2   -1    0    0    0  501  0.00000000000E+00  0.00000000000E+00 -0.11869563109E+04  0.11869563109E+04  0.25500000920E-02 0. -1.
    10030    2    1    2    0    0  0.00000000000E+00  0.00000000000E+00  0.97675728871E+03  0.33506699105E+04  0.32051418141E+04 0.  0.
        3    1    3    3  502    0 -0.11682412743E+04 -0.10686002157E+04  0.74771359160E+03  0.17509339569E+04  0.10100000352E+00 0.  1.
       -3    1    3    3    0  502  0.11682412743E+04  0.10686002157E+04  0.22904369712E+03  0.15997359537E+04  0.10100000352E+00 0. -1.
</event>
<event>
 5   0  0.5131083E-06  0.3222463E+04  0.7818609E-02  0.8182910E-01
        2   -1    0    0  501    0  0.00000000000E+00  0.00000000000E+00  0.18695526993E+04  0.18695526993E+04  0.25500000920E-02 0.  1.
       -2   -1    0    0    0  501  0.00000000000E+00  0.00000000000E+00 -0.13886032127E+04  0.13886032127E+04  0.25500000920E-02 0. -1.
    10030    2    1    2    0    0  0.00000000000E+00  0.00000000000E+00  0.48094948653E+03  0.32581559120E+04  0.32224629615E+04 0.  0.
        3    1    3    3  502    0  0.63210858056E+03  0.11613016333E+04 -0.69053061916E+03  0.14916485134E+04  0.10100000352E+00 0. -1.
       -3    1    3    3    0  502 -0.63210858056E+03 -0.11613016333E+04  0.11714801057E+04  0.17665073986E+04  0.10100000352E+00 0.  1.
</event>
<event>
 5   0  0.1886248E-06  0.3248469E+04  0.7818609E-02  0.8176133E-01
        1   -1    0    0  501    0  0.00000000000E+00  0.00000000000E+00  0.24384000395E+04  0.24384000395E+04  0.50400001928E-02 0.  1.
       -1   -1    0    0    0  501  0.00000000000E+00  0.00000000000E+00 -0.10819130836E+04  0.10819130836E+04  0.50400001928E-02 0. -1.
    10030    2    1    2    0    0  0.00000000000E+00  0.00000000000E+00  0.13564869559E+04  0.35203131231E+04  0.32484685043E+04 0.  0.
        4    1    3    3  502    0  0.50302637091E+03 -0.83175563499E+03 -0.73191304938E+03  0.12167790641E+04  0.12699999809E+01 0. -1.
       -4    1    3    3    0  502 -0.50302637091E+03  0.83175563499E+03  0.20884000053E+04  0.23035340590E+04  0.12699999809E+01 0.  1.
</event>
<event>
 5   0  0.5108810E-06  0.2798789E+04  0.7818609E-02  0.8303644E-01
       -2   -1    0    0    0  501  0.00000000000E+00  0.00000000000E+00  0.11413376411E+04  0.11413376411E+04  0.25500000920E-02 0. -1.
        2   -1    0    0  501    0  0.00000000000E+00  0.00000000000E+00 -0.17157986473E+04  0.17157986473E+04  0.25500000920E-02 0.  1.
    10030    2    1    2    0    0  0.00000000000E+00  0.00000000000E+00 -0.57446100616E+03  0.28571362883E+04  0.27987894388E+04 0.  0.
        1    1    3    3  502    0  0.72840795494E+02  0.17988047941E+03 -0.17019946110E+04  0.17130231827E+04  0.50400001928E-02 0.  1.
       -1    1    3    3    0  502 -0.72840795494E+02 -0.17988047941E+03  0.11275336049E+04  0.11441131057E+04  0.50400001928E-02 0. -1.
</event>
<event>
 5   0  0.1969465E-06  0.3172782E+04  0.7818609E-02  0.8196043E-01
       -1   -1    0    0    0  501  0.00000000000E+00  0.00000000000E+00  0.11985210052E+04  0.11985210052E+04  0.50400001928E-02 0. -1.
        1   -1    0    0  501    0  0.00000000000E+00  0.00000000000E+00 -0.20997850026E+04  0.20997850026E+04  0.50400001928E-02 0.  1.
    10030    2    1    2    0    0  0.00000000000E+00  0.00000000000E+00 -0.90126399734E+03  0.32983060078E+04  0.31727820171E+04 0.  0.
        2    1    3    3  502    0 -0.40695499185E+03  0.10421689084E+04  0.71854479259E+03  0.13296747790E+04  0.25500000920E-02 0. -1.
       -2    1    3    3    0  502  0.40695499185E+03 -0.10421689084E+04 -0.16198087899E+04  0.19686312288E+04  0.25500000920E-02 0.  1.
</event>
<event>
 5   0  0.1977015E-06  0.3085188E+04  0.7818609E-02  0.8219815E-01
        1   -1    0    0  501    0  0.00000000000E+00  0.00000000000E+00  0.16365596195E+04  0.16365596195E+04  0.50400001928E-02 0. -1.
       -1   -1    0    0    0  501  0.00000000000E+00  0.00000000000E+00 -0.14540233019E+04  0.14540233019E+04  0.50400001928E-02 0.  1.
    10030    2    1    2    0    0  0.00000000000E+00  0.00000000000E+00  0.18253631757E+03  0.30905829214E+04  0.30851877231E+04 0.  0.
        1    1    3    3  502    0  0.58837037452E+03  0.87953320112E+03  0.12156558086E+04  0.16117001565E+04  0.50400001928E-02 0. -1.
       -1    1    3    3    0  502 -0.58837037452E+03 -0.87953320112E+03 -0.10331194910E+04  0.14788827649E+04  0.50400001928E-02 0.  1.
</event>
<event>
 5   0  0.1846850E-06  0.3240824E+04  0.7818609E-02  0.8178118E-01
        1   -1    0    0  501    0  0.00000000000E+00  0.00000000000E+00  0.29714493130E+04  0.29714493130E+04  0.50400001928E-02 0.  1.
       -1   -1    0    0    0  501  0.00000000000E+00  0.00000000000E+00 -0.88365449355E+03  0.88365449356E+03  0.50400001928E-02 0. -1.
    10030    2    1    2    0    0  0.00000000000E+00  0.00000000000E+00  0.20877948194E+04  0.38551038065E+04  0.32408236841E+04 0.  0.
        5    1    3    3  502    0  0.11670577992E+04 -0.21403898933E+03  0.23566478799E+04  0.26384934935E+04  0.46999998093E+01 0.  1.
       -5    1    3    3    0  502 -0.11670577992E+04  0.21403898933E+03 -0.26885306043E+03  0.12166103130E+04  0.46999998093E+01 0. -1.
</event>
<event>
 5   0  0.5347280E-06  0.3173168E+04  0.7818609E-02  0.8195940E-01
        2   -1    0    0  501    0  0.00000000000E+00  0.00000000000E+00  0.21454205615E+04  0.21454205615E+04  0.25500000920E-02 0.  1.
       -2   -1    0    0    0  501  0.00000000000E+00  0.00000000000E+00 -0.11733122024E+04  0.11733122024E+04  0.25500000920E-02 0. -1.
    10030    2    1    2    0    0  0.00000000000E+00  0.00000000000E+00  0.97210835916E+03  0.33187327639E+04  0.31731675809E+04 0.  0.
        2    1    3    3  502    0 -0.71652005435E+03  0.84027163337E+03 -0.70541168987E+03  0.13103675280E+04  0.25500000920E-02 0. -1.
       -2    1    3    3    0  502  0.71652005435E+03 -0.84027163337E+03  0.16775200490E+04  0.20083652360E+04  0.25500000920E-02 0.  1.
</event>
<event>
 5   0  0.5108810E-06  0.3229375E+04  0.7818609E-02  0.8181102E-01
        2   -1    0    0  501    0  0.00000000000E+00  0.00000000000E+00  0.16057045444E+04  0.16057045444E+04  0.25500000920E-02 0.  1.
       -2   -1    0    0    0  501  0.00000000000E+00  0.00000000000E+00 -0.16237211874E+04  0.16237211874E+04  0.25500000920E-02 0. -1.
    10030    2    1    2    0    0  0.00000000000E+00  0.00000000000E+00 -0.18016643018E+02  0.32294257318E+04  0.32293754749E+04 0.  0.
        1    1    3    3  502    0 -0.11792657462E+04 -0.10917946213E+04 -0.16564183533E+03  0.16155867086E+04  0.50400001928E-02 0. -1.
       -1    1    3    3    0  502  0.11792657462E+04  0.10917946213E+04  0.14762519231E+03  0.16138390232E+04  0.50400001928E-02 0.  1.
</event>
<event>
 5   0  0.5131083E-06  0.3189268E+04  0.7818609E-02  0.8191657E-01
        2   -1    0    0  501    0  0.00000000000E+00  0.00000000000E+00  0.22252298181E+04  0.22252298181E+04  0.25500000920E-02 0. -1.
       -2   -1    0    0    0  501  0.00000000000E+00  0.00000000000E+00 -0.11427392574E+04  0.11427392574E+04  0.25500000920E-02 0.  1.
    10030    2    1    2    0    0  0.00000000000E+00  0.00000000000E+00  0.10824905607E+04  0.33679690755E+04  0.31892679222E+04 0.  0.
        3    1    3    3  502    0 -0.15700150859E+04  0.10467560053E+03  0.26799383830E+03  0.15961594717E+04  0.10100000352E+00 0.  1.
       -3    1    3    3    0  502  0.15700150859E+04 -0.10467560053E+03  0.81449672237E+03  0.17718096039E+04  0.10100000352E+00 0. -1.
</event>
<event>
 5   0  0.1729500E-06  0.3155929E+04  0.7818609E-02  0.8200554E-01
       -3   -1    0    0    0  501  0.00000000000E+00  0.00000000000E+00  0.18790266966E+04  0.18790266993E+04  0.10100000352E+00 0.  1.
        3   -1    0    0  501    0  0.00000000000E+00  0.00000000000E+00 -0.13251391624E+04  0.13251391662E+04  0.10100000352E+00 0. -1.
    10030    2    1    2    0    0  0.00000000000E+00  0.00000000000E+00  0.55388753426E+03  0.32041658655E+04  0.31559289430E+04 0.  0.
        5    1    3    3  502    0  0.48450273653E+03 -0.12705943610E+04  0.10896768863E+04  0.17425758917E+04  0.46999998093E+01 0.  1.
       -5    1    3    3    0  502 -0.48450273653E+03  0.12705943610E+04 -0.53578935206E+03  0.14615899738E+04  0.46999998093E+01 0. -1.
</event>
<event>
 5   0  0.1729500E-06  0.3245333E+04  0.7818609E-02  0.8176946E-01
        4   -1    0    0  501    0  0.00000000000E+00  0.00000000000E+00  0.22595755700E+04  0.22595759269E+04  0.12699999809E+01 0.  1.
       -4   -1    0    0    0  501  0.00000000000E+00  0.00000000000E+00 -0.11652831983E+04  0.11652838904E+04  0.12699999809E+01 0. -1.
    10030    2    1    2    0    0  0.00000000000E+00  0.00000000000E+00  0.10942923716E+04  0.34248598173E+04  0.32453334148E+04 0.  0.
        2    1    3    3  502    0 -0.16341237304E+03 -0.15042140701E+04 -0.71529328496E+02  0.15147541111E+04  0.25500000920E-02 0. -1.
       -2    1    3    3    0  502  0.16341237304E+03  0.15042140701E+04  0.11658217001E+04  0.19101057062E+04  0.25500000920E-02 0.  1.
</event>
<event>
 5   0  0.5121624E-06  0.3197957E+04  0.7818609E-02  0.8189357E-01
        2   -1    0    0  501    0  0.00000000000E+00  0.00000000000E+00  0.24767120776E+04  0.24767120776E+04  0.25500000920E-02 0.  1.
       -2   -1    0    0    0  501  0.00000000000E+00  0.00000000000E+00 -0.10323090363E+04  0.10323090364E+04  0.25500000920E-02 0. -1.
    10030    2    1    2    0    0  0.00000000000E+00  0.00000000000E+00  0.14444030412E+04  0.35090211139E+04  0.31979570092E+04 0.  0.
        4    1    3    3  502    0 -0.11119613998E+04  0.97544507590E+03  0.55860294344E+02  0.14802274272E+04  0.12699999809E+01 0. -1.
       -4    1    3    3    0  502  0.11119613998E+04 -0.97544507590E+03  0.13885427469E+04  0.20287936868E+04  0.12699999809E+01 0.  1.
</event>
<event>
 5   0  0.5108810E-06  0.2722195E+04  0.7818609E-02  0.8327839E-01
        2   -1    0    0  501    0  0.00000000000E+00  0.00000000000E+00  0.20267878817E+04  0.20267878817E+04  0.25500000920E-02 0. -1.
       -2   -1    0    0    0  501  0.00000000000E+00  0.00000000000E+00 -0.91405022336E+03  0.91405022337E+03  0.25500000920E-02 0.  1.
    10030    2    1    2    0    0  0.00000000000E+00  0.00000000000E+00  0.11127376583E+04  0.29408381050E+04  0.27221946411E+04 0.  0.
        1    1    3    3  502    0  0.10145979868E+04  0.52066375056E+01  0.15365161629E+04  0.18412816468E+04  0.50400001928E-02 0. -1.
       -1    1    3    3    0  502 -0.10145979868E+04 -0.52066375056E+01 -0.42377850456E+03  0.10995564583E+04  0.50400001928E-02 0.  1.
</event>
<event>
 5   0  0.1977015E-06  0.3218036E+04  0.7818609E-02  0.8184070E-01
       -1   -1    0    0    0  501  0.00000000000E+00  0.00000000000E+00  0.11427862586E+04  0.11427862587E+04  0.50400001928E-02 0. -1.
        1   -1    0    0  501    0  0.00000000000E+00  0.00000000000E+00 -0.22654623713E+04  0.22654623713E+04  0.50400001928E-02 0.  1.
    10030    2    1    2    0    0  0.00000000000E+00  0.00000000000E+00 -0.11226761126E+04  0.34082486299E+04  0.32180362132E+04 0.  0.
        1    1    3    3  502    0  0.30886370911E+03  0.13776672532E+04  0.25601317866E+03  0.14348890546E+04  0.50400001928E-02 0. -1.
       -1    1    3    3    0  502 -0.30886370911E+03 -0.13776672532E+04 -0.13786892913E+04  0.19733595753E+04  0.50400001928E-02 0.  1.
</event>
<event>
 5   0  0.1846850E-06  0.2707627E+04  0.7818609E-02  0.8332534E-01
       -1   -1    0    0    0  501  0.00000000000E+00  0.00000000000E+00  0.12984043547E+04  0.12984043547E+04  0.50400001928E-02 0. -1.
        1   -1    0    0  501    0  0.00000000000E+00  0.00000000000E+00 -0.14115875015E+04  0.14115875015E+04  0.50400001928E-02 0.  1.
    10030    2    1    2    0    0  0.00000000000E+00  0.00000000000E+00 -0.11318314678E+03  0.27099918562E+04  0.27076272705E+04 0.  0.
        5    1    3    3  502    0  0.12363886175E+03 -0.13248078784E+04  0.19340002501E+03  0.13445549979E+04  0.46999998093E+01 0. -1.
       -5    1    3    3    0  502 -0.12363886175E+03  0.13248078784E+04 -0.30658317179E+03  0.13654368583E+04  0.46999998093E+01 0.  1.
</event>
<event>
 5   0  0.5373060E-06  0.2769409E+04  0.7818609E-02  0.8312829E-01
       -2   -1    0    0    0  501  0.00000000000E+00  0.00000000000E+00  0.17909654334E+04  0.17909654334E+04  0.25500000920E-02 0. -1.
        2   -1    0    0  501    0  0.00000000000E+00  0.00000000000E+00 -0.10705994050E+04  0.10705994050E+04  0.25500000920E-02 0.  1.
    10030    2    1    2    0    0  0.00000000000E+00  0.00000000000E+00  0.72036602847E+03  0.28615648384E+04  0.27694089819E+04 0.  0.
        5    1    3    3  502    0 -0.83401185361E+03 -0.16635502394E+03 -0.76894491114E+03  0.11465374535E+04  0.46999998093E+01 0.  1.
       -5    1    3    3    0  502  0.83401185361E+03  0.16635502394E+03  0.14893109396E+04  0.17150273849E+04  0.46999998093E+01 0. -1.
</event>
<event>
 5   0  0.5373060E-06  0.3199606E+04  0.7818609E-02  0.8188921E-01
        2   -1    0    0  501    0  0.00000000000E+00  0.00000000000E+00  0.15051428744E+04  0.15051428744E+04  0.25500000920E-02 0.  1.
       -2   -1    0    0    0  501  0.00000000000E+00  0.00000000000E+00 -0.17004161752E+04  0.17004161752E+04  0.25500000920E-02 0. -1.
    10030    2    1    2    0    0  0.00000000000E+00  0.00000000000E+00 -0.19527330082E+03  0.32055590496E+04  0.31996057817E+04 0.  0.
        5    1    3    3  502    0  0.21929595625E+03 -0.10007877337E+04 -0.13286133038E+04  0.16777670295E+04  0.46999998093E+01 0. -1.
       -5    1    3    3    0  502 -0.21929595625E+03  0.10007877337E+04  0.11333400030E+04  0.15277920201E+04  0.46999998093E+01 0.  1.
</event>
<event>
 5   0  0.5373060E-06  0.3211061E+04  0.7818609E-02  0.8185902E-01
       -2   -1    0    0    0  501  0.00000000000E+00  0.00000000000E+00  0.15503010789E+04  0.15503010789E+04  0.25500000920E-02 0. -1.
        2   -1    0    0  501    0  0.00000000000E+00  0.00000000000E+00 -0.16627274744E+04  0.16627274744E+04  0.25500000920E-02 0.  1.
    10030    2    1    2    0    0  0.00000000000E+00  0.00000000000E+00 -0.11242639552E+03  0.32130285533E+04  0.32110610069E+04 0.  0.
        5    1    3    3  502    0 -0.10451563717E+04 -0.10211634829E+04 -0.72188725168E+03  0.16298067352E+04  0.46999998093E+01 0.  1.
       -5    1    3    3    0  502  0.10451563717E+04  0.10211634829E+04  0.60946085616E+03  0.15832218181E+04  0.46999998093E+01 0. -1.
</event>
<event>
 5   0  0.5121624E-06  0.3187112E+04  0.7818609E-02  0.8192229E-01
       -2   -1    0    0    0  501  0.00000000000E+00  0.00000000000E+00  0.14757818529E+04  0.14757818529E+04  0.25500000920E-02 0.  1.
        2   -1    0    0  501    0  0.00000000000E+00  0.00000000000E+00 -0.17207289280E+04  0.17207289280E+04  0.25500000920E-02 0. -1.
    10030    2    1    2    0    0  0.00000000000E+00  0.00000000000E+00 -0.24494707513E+03  0.31965107809E+04  0.31871118749E+04 0.  0.
        4    1    3    3  502    0  0.38471217108E+03  0.52351474506E+03  0.13369285494E+04  0.14864221144E+04  0.12699999809E+01 0.  1.
       -4    1    3    3    0  502 -0.38471217108E+03 -0.52351474506E+03 -0.15818756246E+04  0.17100886665E+04  0.12699999809E+01 0. -1.
</event>
<event>
 5   0  0.5121624E-06  0.3013082E+04  0.7818609E-02  0.8240005E-01
        2   -1    0    0  501    0  0.00000000000E+00  0.00000000000E+00  0.19019792865E+04  0.19019792865E+04  0.25500000920E-02 0.  1.
       -2   -1    0    0    0  501  0.00000000000E+00  0.00000000000E+00 -0.11933181511E+04  0.11933181511E+04  0.25500000920E-02 0. -1.
    10030    2    1    2    0    0  0.00000000000E+00  0.00000000000E+00  0.70866113536E+03  0.30952974376E+04  0.30130824121E+04 0.  0.
        4    1    3    3  502    0  0.89985556569E+03  0.58804819172E+03  0.14386522892E+04  0.17959016501E+04  0.12699999809E+01 0.  1.
       -4    1    3    3    0  502 -0.89985556569E+03 -0.58804819172E+03 -0.72999115380E+03  0.12993957874E+04  0.12699999809E+01 0. -1.
</event>
<event>
 5   0  0.1846850E-06  0.3205219E+04  0.7818609E-02  0.8187440E-01
       -1   -1    0    0    0  501  0.00000000000E+00  0.00000000000E+00  0.11529796855E+04  0.11529796856E+04  0.50400001928E-02 0.  1.
        1   -1    0    0  501    0  0.00000000000E+00  0.00000000000E+00 -0.22275826712E+04  0.22275826712E+04  0.50400001928E-02 0. -1.
    10030    2    1    2    0    0  0.00000000000E+00  0.00000000000E+00 -0.10746029856E+04  0.33805623568E+04  0.32052192236E+04 0.  0.
        5    1    3    3  502    0  0.10895803720E+03 -0.66183035613E+03  0.99780930803E+03  0.12023047781E+04  0.46999998093E+01 0.  1.
       -5    1    3    3    0  502 -0.10895803720E+03  0.66183035613E+03 -0.20724122937E+04  0.21782575787E+04  0.46999998093E+01 0. -1.
</event>
<event>
 5   0  0.5108810E-06  0.2679954E+04  0.7818609E-02  0.8341539E-01
        2   -1    0    0  501    0  0.00000000000E+00  0.00000000000E+00  0.13357619846E+04  0.13357619846E+04  0.25500000920E-02 0. -1.
       -2   -1    0    0    0  501  0.00000000000E+00  0.00000000000E+00 -0.13442054013E+04  0.13442054013E+04  0.25500000920E-02 0.  1.
    10030    2    1    2    0    0  0.00000000000E+00  0.00000000000E+00 -0.84434167086E+01  0.26799673858E+04  0.26799540850E+04 0.  0.
        1    1    3    3  502    0 -0.46501965192E+03 -0.10227943483E+04  0.72597840899E+03  0.13376831485E+04  0.50400001928E-02 0. -1.
       -1    1    3    3    0  502  0.46501965192E+03  0.10227943483E+04 -0.73442182570E+03  0.13422842373E+04  0.50400001928E-02 0.  1.
</event>
<event>
 5   0  0.5347280E-06  0.3172480E+04  0.7818609E-02  0.8196123E-01
        2   -1    0    0  501    0  0.00000000000E+00  0.00000000000E+00  0.15071332813E+04  0.15071332813E+04  0.25500000920E-02 0.  1.
       -2   -1    0    0    0  501  0.00000000000E+00  0.00000000000E+00 -0.16694993033E+04  0.16694993033E+04  0.25500000920E-02 0. -1.
    10030    2    1    2    0    0  0.00000000000E+00  0.00000000000E+00 -0.16236602199E+03  0.31766325847E+04  0.31724803944E+04 0.  0.
        2    1    3    3  502    0 -0.26617900202E+03 -0.13252810436E+04  0.74992553758E+03  0.15458361549E+04  0.25500000920E-02 0.  1.
       -2    1    3    3    0  502  0.26617900202E+03  0.13252810436E+04 -0.91229155957E+03  0.16307964298E+04  0.25500000920E-02 0. -1.
</event>
<event>
 5   0  0.1881144E-06  0.3195470E+04  0.7818609E-02  0.8190015E-01
       -1   -1    0    0    0  501  0.00000000000E+00  0.00000000000E+00  0.13006330654E+04  0.13006330654E+04  0.50400001928E-02 0. -1.
        1   -1    0    0  501    0  0.00000000000E+00  0.00000000000E+00 -0.19627034577E+04  0.19627034577E+04  0.50400001928E-02 0.  1.
    10030    2    1    2    0    0  0.00000000000E+00  0.00000000000E+00 -0.66207039224E+03  0.32633365231E+04  0.31954699277E+04 0.  0.
        3    1    3    3  502    0 -0.46988789609E+03 -0.27231839145E+02 -0.18902962487E+04  0.19480133793E+04  0.10100000352E+00 0.  1.
       -3    1    3    3    0  502  0.46988789609E+03  0.27231839145E+02  0.12282258564E+04  0.13153231438E+04  0.10100000352E+00 0. -1.
</event>
<event>
 5   0  0.5373060E-06  0.3380930E+04  0.7818609E-02  0.8142603E-01
       -2   -1    0    0    0  501  0.00000000000E+00  0.00000000000E+00  0.10353054756E+04  0.10353054756E+04  0.25500000920E-02 0. -1.
        2   -1    0    0  501    0  0.00000000000E+00  0.00000000000E+00 -0.27602209207E+04  0.27602209207E+04  0.25500000920E-02 0.  1.
    10030    2    1    2    0    0  0.00000000000E+00  0.00000000000E+00 -0.17249154452E+04  0.37955263963E+04  0.33809299507E+04 0.  0.
        5    1    3    3  502    0  0.19800821327E+03  0.44570973695E+03 -0.26795153270E+04  0.27235434456E+04  0.46999998093E+01 0.  1.
       -5    1    3    3    0  502 -0.19800821327E+03 -0.44570973695E+03  0.95459988187E+03  0.10719829507E+04  0.46999998093E+01 0. -1.
</event>
<event>
 5   0  0.5347280E-06  0.3157919E+04  0.7818609E-02  0.8200020E-01
       -2   -1    0    0    0  501  0.00000000000E+00  0.00000000000E+00  0.18965737324E+04  0.18965737324E+04  0.25500000920E-02 0.  1.
        2   -1    0    0  501    0  0.00000000000E+00  0.00000000000E+00 -0.13145356283E+04  0.13145356283E+04  0.25500000920E-02 0. -1.
    10030    2    1    2    0    0  0.00000000000E+00  0.00000000000E+00  0.58203810407E+03  0.32111093607E+04  0.31579194055E+04 0.  0.
        2    1    3    3  502    0  0.13894835917E+04 -0.73237903491E+03  0.45520081284E+03  0.16353138788E+04  0.25500000920E-02 0. -1.
       -2    1    3    3    0  502 -0.13894835917E+04  0.73237903491E+03  0.12683729123E+03  0.15757954819E+04  0.25500000920E-02 0.  1.
</event>
<event>
 5   0  0.1977015E-06  0.3322717E+04  0.7818609E-02  0.8157139E-01
        1   -1    0    0  501    0  0.00000000000E+00  0.00000000000E+00  0.19759951585E+04  0.19759951585E+04  0.50400001928E-02 0. -1.
       -1   -1    0    0    0  501  0.00000000000E+00  0.00000000000E+00 -0.13968211545E+04  0.13968211546E+04  0.50400001928E-02 0.  1.
    10030    2    1    2    0    0  0.00000000000E+00  0.00000000000E+00  0.57917400392E+03  0.33728163130E+04  0.33227168634E+04 0.  0.
        1    1    3    3  502    0  0.14939516262E+04 -0.88986370494E+02  0.10217824415E+04  0.18121394520E+04  0.50400001928E-02 0.  1.
       -1    1    3    3    0  502 -0.14939516262E+04  0.88986370494E+02 -0.44260843761E+03  0.15606768611E+04  0.50400001928E-02 0. -1.
</event>
<event>
 5   0  0.5373060E-06  0.2312803E+04  0.7818609E-02  0.8472890E-01
       -2   -1    0    0    0  501  0.00000000000E+00  0.00000000000E+00  0.49179905354E+03  0.49179905355E+03  0.25500000920E-02 0. -1.
        2   -1    0    0  501    0  0.00000000000E+00  0.00000000000E+00 -0.27191286401E+04  0.27191286401E+04  0.25500000920E-02 0.  1.
    10030    2    1    2    0    0  0.00000000000E+00  0.00000000000E+00 -0.22273295866E+04  0.32109276937E+04  0.23128033999E+04 0.  0.
        5    1    3    3  502    0  0.77237954646E+03 -0.85329446125E+03 -0.95806558639E+03  0.14975290846E+04  0.46999998093E+01 0.  1.
       -5    1    3    3    0  502 -0.77237954646E+03  0.85329446125E+03 -0.12692640002E+04  0.17133986091E+04  0.46999998093E+01 0. -1.
</event>
<event>
 5   0  0.5373060E-06  0.3153085E+04  0.7818609E-02  0.8201318E-01
       -2   -1    0    0    0  501  0.00000000000E+00  0.00000000000E+00  0.13378691903E+04  0.13378691903E+04  0.25500000920E-02 0.  1.
        2   -1    0    0  501    0  0.00000000000E+00  0.00000000000E+00 -0.18577944521E+04  0.18577944521E+04  0.25500000920E-02 0. -1.
    10030    2    1    2    0    0  0.00000000000E+00  0.00000000000E+00 -0.51992526180E+03  0.31956636424E+04  0.31530848129E+04 0.  0.
        5    1    3    3  502    0  0.45525945362E+03 -0.85894540807E+03  0.99793224151E+03  0.13931759518E+04  0.46999998093E+01 0.  1.
       -5    1    3    3    0  502 -0.45525945362E+03  0.85894540807E+03 -0.15178575033E+04  0.18024876905E+04  0.46999998093E+01 0. -1.
</event>
<event>
 5   0  0.5131083E-06  0.3239538E+04  0.7818609E-02  0.8178453E-01
       -2   -1    0    0    0  501  0.00000000000E+00  0.00000000000E+00  0.21050121410E+04  0.21050121410E+04  0.25500000920E-02 0. -1.
        2   -1    0    0  501    0  0.00000000000E+00  0.00000000000E+00 -0.12463834363E+04  0.12463834363E+04  0.25500000920E-02 0.  1.
    10030    2    1    2    0    0  0.00000000000E+00  0.00000000000E+00  0.85862870465E+03  0.33513955773E+04  0.32395384028E+04 0.  0.
        3    1    3    3  502    0 -0.65662899975E+03  0.12156488551E+04  0.13038971854E+04  0.18997662126E+04  0.10100000352E+00 0. -1.
       -3    1    3    3    0  502  0.65662899975E+03 -0.12156488551E+04 -0.44526848072E+03  0.14516293647E+04  0.10100000352E+00 0.  1.
</event>
<event>
 5   0  0.1969465E-06  0.3378485E+04  0.7818609E-02  0.8143207E-01
        1   -1    0    0  501    0  0.00000000000E+00  0.00000000000E+00  0.26329945109E+04  0.26329945109E+04  0.50400001928E-02 0. -1.
       -1   -1    0    0    0  501  0.00000000000E+00  0.00000000000E+00 -0.10837622231E+04  0.10837622231E+04  0.50400001928E-02 0.  1.
    10030    2    1    2    0    0  0.00000000000E+00  0.00000000000E+00  0.15492322878E+04  0.37167567340E+04  0.33784848584E+04 0.  0.
        2    1    3    3  502    0 -0.16379185816E+04 -0.39683515278E+03  0.64781713809E+03  0.18055255364E+04  0.25500000920E-02 0. -1.
       -2    1    3    3    0  502  0.16379185816E+04  0.39683515278E+03  0.90141514969E+03  0.19112311975E+04  0.25500000920E-02 0.  1.
</event>
<event>
 5   0  0.1846850E-06  0.3145993E+04  0.7818609E-02  0.8203228E-01
       -1   -1    0    0    0  501  0.00000000000E+00  0.00000000000E+00  0.11976150659E+04  0.11976150659E+04  0.50400001928E-02 0.  1.
        1   -1    0    0  501    0  0.00000000000E+00  0.00000000000E+00 -0.20660374480E+04  0.20660374480E+04  0.50400001928E-02 0. -1.
    10030    2    1    2    0    0  0.00000000000E+00  0.00000000000E+00 -0.86842238206E+03  0.32636525139E+04  0.31459927364E+04 0.  0.
        5    1    3    3  502    0 -0.80075287583E+03  0.10817889558E+04 -0.12787993194E+04  0.18565619576E+04  0.46999998093E+01 0. -1.
       -5    1    3    3    0  502  0.80075287583E+03 -0.10817889558E+04  0.41037693734E+03  0.14070905563E+04  0.46999998093E+01 0.  1.
</event>
<event>
 5   0  0.5347280E-06  0.3273273E+04  0.7818609E-02  0.8169730E-01
       -2   -1    0    0    0  501  0.00000000000E+00  0.00000000000E+00  0.10868785074E+04  0.10868785074E+04  0.25500000920E-02 0.  1.
        2   -1    0    0  501    0  0.00000000000E+00  0.00000000000E+00 -0.24644688468E+04  0.24644688468E+04  0.25500000920E-02 0. -1.
    10030    2    1    2    0    0  0.00000000000E+00  0.00000000000E+00 -0.13775903394E+04  0.35513473542E+04  0.32732725042E+04 0.  0.
        2    1    3    3  502    0  0.12720206083E+02 -0.46976808734E+03 -0.23896939147E+04  0.24354631727E+04  0.25500000920E-02 0. -1.
       -2    1    3    3    0  502 -0.12720206083E+02  0.46976808734E+03  0.10121035753E+04  0.11158841815E+04  0.25500000920E-02 0.  1.
</event>
<event>
 5   0  0.5108810E-06  0.3351501E+04  0.7818609E-02  0.8149913E-01
        2   -1    0    0  501    0  0.00000000000E+00  0.00000000000E+00  0.23998049722E+04  0.23998049722E+04  0.25500000920E-02 0. -1.
       -2   -1    0    0    0  501  0.00000000000E+00  0.00000000000E+00 -0.11701531825E+04  0.11701531825E+04  0.25500000920E-02 0.  1.
    10030    2    1    2    0    0  0.00000000000E+00  0.00000000000E+00  0.12296517897E+04  0.35699581547E+04  0.33515008134E+04 0.  0.
        1    1    3    3  502    0 -0.12590245424E+03 -0.15860954867E+04  0.11750236067E+04  0.19779359942E+04  0.50400001928E-02 0. -1.
       -1    1    3    3    0  502  0.12590245424E+03  0.15860954867E+04  0.54628183057E+02  0.15920221605E+04  0.50400001928E-02 0.  1.
</event>
<event>
 5   0  0.1969465E-06  0.3183333E+04  0.7818609E-02  0.8193233E-01
        1   -1    0    0  501    0  0.00000000000E+00  0.00000000000E+00  0.16310204360E+04  0.16310204360E+04  0.50400001928E-02 0. -1.
       -1   -1    0    0    0  501  0.00000000000E+00  0.00000000000E+00 -0.15532625105E+04  0.15532625105E+04  0.50400001928E-02 0.  1.
    10030    2    1    2    0    0  0.00000000000E+00  0.00000000000E+00  0.77757925481E+02  0.31842829465E+04  0.31833334083E+04 0.  0.
        2    1    3    3  502    0  0.29280419482E+03 -0.56161658752E+03 -0.14217810371E+04  0.15564731946E+04  0.25500000920E-02 0.  1.
       -2    1    3    3    0  502 -0.29280419482E+03  0.56161658752E+03  0.14995389626E+04  0.16278097519E+04  0.25500000920E-02 0. -1.
</event>
<event>
 5   0  0.1881144E-06  0.3057910E+04  0.7818609E-02  0.8227385E-01
        1   -1    0    0  501    0  0.00000000000E+00  0.00000000000E+00  0.15512329614E+04  0.15512329614E+04  0.50400001928E-02 0. -1.
       -1   -1    0    0    0  501  0.00000000000E+00  0.00000000000E+00 -0.15069970142E+04  0.15069970143E+04  0.50400001928E-02 0.  1.
    10030    2    1    2    0    0  0.00000000000E+00  0.00000000000E+00  0.44235947188E+02  0.30582299757E+04  0.30579100322E+04 0.  0.
        3    1    3    3  502    0  0.20779299112E+03 -0.85611835354E+03 -0.12276474675E+04  0.15110376822E+04  0.10100000352E+00 0.  1.
       -3    1    3    3    0  502 -0.20779299112E+03  0.85611835354E+03  0.12718834147E+04  0.15471922935E+04  0.10100000352E+00 0. -1.
</event>
<event>
 5   0  0.5347280E-06  0.2324121E+04  0.7818609E-02  0.8468471E-01
       -2   -1    0    0    0  501  0.00000000000E+00  0.00000000000E+00  0.80424781413E+03  0.80424781413E+03  0.25500000920E-02 0. -1.
        2   -1    0    0  501    0  0.00000000000E+00  0.00000000000E+00 -0.16790658982E+04  0.16790658982E+04  0.25500000920E-02 0.  1.
    10030    2    1    2    0    0  0.00000000000E+00  0.00000000000E+00 -0.87481808410E+03  0.24833137124E+04  0.23241214068E+04 0.  0.
        2    1    3    3  502    0  0.80712287800E+03 -0.46865753838E+02 -0.13292934370E+04  0.15558485726E+04  0.25500000920E-02 0.  1.
       -2    1    3    3    0  502 -0.80712287800E+03  0.46865753838E+02  0.45447535293E+03  0.92746513978E+03  0.25500000920E-02 0. -1.
</event>
<event>
 5   0  0.1977015E-06  0.3422964E+04  0.7818609E-02  0.8132293E-01
        1   -1    0    0  501    0  0.00000000000E+00  0.00000000000E+00  0.17550831532E+04  0.17550831532E+04  0.50400001928E-02 0. -1.
       -1   -1    0    0    0  501  0.00000000000E+00  0.00000000000E+00 -0.16689640161E+04  0.16689640161E+04  0.50400001928E-02 0.  1.
    10030    2    1    2    0    0  0.00000000000E+00  0.00000000000E+00  0.86119137091E+02  0.34240471692E+04  0.34229639950E+04 0.  0.
        1    1    3    3  502    0 -0.13386295744E+04 -0.10620483329E+04 -0.53380633476E+02  0.17095979910E+04  0.50400001928E-02 0.  1.
       -1    1    3    3    0  502  0.13386295744E+04  0.10620483329E+04  0.13949977057E+03  0.17144491782E+04  0.50400001928E-02 0. -1.
</event>
<event>
 5   0  0.1977015E-06  0.3296734E+04  0.7818609E-02  0.8163727E-01
       -1   -1    0    0    0  501  0.00000000000E+00  0.00000000000E+00  0.15080174990E+04  0.15080174990E+04  0.50400001928E-02 0. -1.
        1   -1    0    0  501    0  0.00000000000E+00  0.00000000000E+00 -0.18017790232E+04  0.18017790232E+04  0.50400001928E-02 0.  1.
    10030    2    1    2    0    0  0.00000000000E+00  0.00000000000E+00 -0.29376152414E+03  0.33097965222E+04  0.32967343213E+04 0.  0.
        1    1    3    3  502    0  0.10867859336E+03  0.15779839477E+04  0.31892946684E+03  0.16135551991E+04  0.50400001928E-02 0. -1.
       -1    1    3    3    0  502 -0.10867859336E+03 -0.15779839477E+04 -0.61269099099E+03  0.16962413231E+04  0.50400001928E-02 0.  1.
</event>
<event>
 5   0  0.1969465E-06  0.3165992E+04  0.7818609E-02  0.8197857E-01
        1   -1    0    0  501    0  0.00000000000E+00  0.00000000000E+00  0.73586126660E+03  0.73586126662E+03  0.50400001928E-02 0.  1.
       -1   -1    0    0    0  501  0.00000000000E+00  0.00000000000E+00 -0.34053653546E+04  0.34053653546E+04  0.50400001928E-02 0. -1.
    10030    2    1    2    0    0  0.00000000000E+00  0.00000000000E+00 -0.26695040880E+04  0.41412266212E+04  0.31659920803E+04 0.  0.
        2    1    3    3  502    0  0.14442627536E+04  0.49291411966E+03 -0.18850868063E+04  0.24253683222E+04  0.25500000920E-02 0. -1.
       -2    1    3    3    0  502 -0.14442627536E+04 -0.49291411966E+03 -0.78441728162E+03  0.17158582990E+04  0.25500000920E-02 0.  1.
</event>
<event>
 5   0  0.5121624E-06  0.3176461E+04  0.7818609E-02  0.8195062E-01
        2   -1    0    0  501    0  0.00000000000E+00  0.00000000000E+00  0.14689113150E+04  0.14689113150E+04  0.25500000920E-02 0. -1.
       -2   -1    0    0    0  501  0.00000000000E+00  0.00000000000E+00 -0.17172414476E+04  0.17172414476E+04  0.25500000920E-02 0.  1.
    10030    2    1    2    0    0  0.00000000000E+00  0.00000000000E+00 -0.24833013257E+03  0.31861527626E+04  0.31764605415E+04 0.  0.
        4    1    3    3  502    0 -0.27515136377E+03 -0.82965401509E+03 -0.14542729653E+04  0.16967455697E+04  0.12699999809E+01 0.  1.
       -4    1    3    3    0  502  0.27515136377E+03  0.82965401509E+03  0.12059428327E+04  0.14894071929E+04  0.12699999809E+01 0. -1.
</event>
<event>
 5   0  0.5373060E-06  0.3454558E+04  0.7818609E-02  0.8124644E-01
       -2   -1    0    0    0  501  0.00000000000E+00  0.00000000000E+00  0.10761551491E+04  0.10761551491E+04  0.25500000920E-02 0.  1.
        2   -1    0    0  501    0  0.00000000000E+00  0.00000000000E+00 -0.27723629119E+04  0.27723629119E+04  0.25500000920E-02 0. -1.
    10030    2    1    2    0    0  0.00000000000E+00  0.00000000000E+00 -0.16962077629E+04  0.38485180610E+04  0.34545579299E+04 0.  0.
        5    1    3    3  502    0  0.23068505176E+03  0.16692740429E+04 -0.12705282309E+04  0.21104396459E+04  0.46999998093E+01 0. -1.
       -5    1    3    3    0  502 -0.23068505176E+03 -0.16692740429E+04 -0.42567953194E+03  0.17380784151E+04  0.46999998093E+01 0.  1.
</event>
<event>
 5   0  0.5121624E-06  0.3155414E+04  0.7818609E-02  0.8200692E-01
       -2   -1    0    0    0  501  0.00000000000E+00  0.00000000000E+00  0.16948024207E+04  0.16948024207E+04  0.25500000920E-02 0.  1.
        2   -1    0    0  501    0  0.00000000000E+00  0.00000000000E+00 -0.14687019090E+04  0.14687019090E+04  0.25500000920E-02 0. -1.
    10030    2    1    2    0    0  0.00000000000E+00  0.00000000000E+00  0.22610051169E+03  0.31635043298E+04  0.31554141096E+04 0.  0.
        4    1    3    3  502    0  0.19781890963E+03  0.58051703573E+03 -0.13443017000E+04  0.14775929830E+04  0.12699999809E+01 0. -1.
       -4    1    3    3    0  502 -0.19781890963E+03 -0.58051703573E+03  0.15704022117E+04  0.16859113468E+04  0.12699999809E+01 0.  1.
</event>
<event>
 5   0  0.5108810E-06  0.3139485E+04  0.7818609E-02  0.8204984E-01
       -2   -1    0    0    0  501  0.00000000000E+00  0.00000000000E+00  0.92493274524E+03  0.92493274524E+03  0.25500000920E-02 0. -1.
        2   -1    0    0  501    0  0.00000000000E+00  0.00000000000E+00 -0.26640762703E+04  0.26640762703E+04  0.25500000920E-02 0.  1.
    10030    2    1    2    0    0  0.00000000000E+00  0.00000000000E+00 -0.17391435251E+04  0.35890090156E+04  0.31394849121E+04 0.  0.
        1    1    3    3  502    0  0.10104506330E+03  0.13684397447E+04 -0.17411354014E+04  0.22168423321E+04  0.50400001928E-02 0.  1.
       -1    1    3    3    0  502 -0.10104506330E+03 -0.13684397447E+04  0.19918762905E+01  0.13721666834E+04  0.50400001928E-02 0. -1.
</event>
<event>
 5   0  0.5373060E-06  0.3050129E+04  0.7818609E-02  0.8229559E-01
       -2   -1    0    0    0  501  0.00000000000E+00  0.00000000000E+00  0.10615055926E+04  0.10615055926E+04  0.25500000920E-02 0.  1.
        2   -1    0    0  501    0  0.00000000000E+00  0.00000000000E+00 -0.21910590157E+04  0.21910590157E+04  0.25500000920E-02 0. -1.
    10030    2    1    2    0    0  0.00000000000E+00  0.00000000000E+00 -0.11295534231E+04  0.32525646083E+04  0.30501287834E+04 0.  0.
        5    1    3    3  502    0  0.26989243708E+03 -0.65065469364E+03  0.87762598504E+03  0.11253634602E+04  0.46999998093E+01 0.  1.
       -5    1    3    3    0  502 -0.26989243708E+03  0.65065469364E+03 -0.20071794081E+04  0.21272011481E+04  0.46999998093E+01 0. -1.
</event>
<event>
 5   0  0.5131083E-06  0.3115322E+04  0.7818609E-02  0.8211545E-01
        2   -1    0    0  501    0  0.00000000000E+00  0.00000000000E+00  0.18798718080E+04  0.18798718080E+04  0.25500000920E-02 0.  1.
       -2   -1    0    0    0  501  0.00000000000E+00  0.00000000000E+00 -0.12906776270E+04  0.12906776270E+04  0.25500000920E-02 0. -1.
    10030    2    1    2    0    0  0.00000000000E+00  0.00000000000E+00  0.58919418102E+03  0.31705494349E+04  0.31153224450E+04 0.  0.
        3    1    3    3  502    0 -0.54676419073E+03 -0.53608162033E+03 -0.10859059106E+04  0.13287310641E+04  0.10100000352E+00 0. -1.
       -3    1    3    3    0  502  0.54676419073E+03  0.53608162033E+03  0.16751000916E+04  0.18418183708E+04  0.10100000352E+00 0.  1.
</event>
<event>
 5   0  0.5121624E-06  0.3352454E+04  0.7818609E-02  0.8149675E-01
        2   -1    0    0  501    0  0.00000000000E+00  0.00000000000E+00  0.28709870856E+04  0.28709870856E+04  0.25500000920E-02 0. -1.
       -2   -1    0    0    0  501  0.00000000000E+00  0.00000000000E+00 -0.97866608328E+03  0.97866608328E+03  0.25500000920E-02 0.  1.
    10030    2    1    2    0    0  0.00000000000E+00  0.00000000000E+00  0.18923210023E+04  0.38496531689E+04  0.33524544359E+04 0.  0.
        4    1    3    3  502    0 -0.73250918072E+03  0.39674072073E+03 -0.72413090568E+03  0.11037844358E+04  0.12699999809E+01 0.  1.
       -4    1    3    3    0  502  0.73250918072E+03 -0.39674072073E+03  0.26164519080E+04  0.27458687330E+04  0.12699999809E+01 0. -1.
</event>
<event>
 5   0  0.1881144E-06  0.3207449E+04  0.7818609E-02  0.8186853E-01
       -1   -1    0    0    0  501  0.00000000000E+00  0.00000000000E+00  0.22251814733E+04  0.22251814733E+04  0.50400001928E-02 0.  1.
        1   -1    0    0  501    0  0.00000000000E+00  0.00000000000E+00 -0.11558306939E+04  0.11558306939E+04  0.50400001928E-02 0. -1.
    10030    2    1    2    0    0  0.00000000000E+00  0.00000000000E+00  0.10693507794E+04  0.33810121672E+04  0.32074494829E+04 0.  0.
        3    1    3    3  502    0  0.94392403184E+03  0.34025579901E+03  0.18534396645E+04  0.21076065066E+04  0.10100000352E+00 0.  1.
       -3    1    3    3    0  502 -0.94392403184E+03 -0.34025579901E+03 -0.78408888504E+03  0.12734056606E+04  0.10100000352E+00 0. -1.
</event>
<event>
 5   0  0.1969465E-06  0.3323272E+04  0.7818609E-02  0.8156999E-01
        1   -1    0    0  501    0  0.00000000000E+00  0.00000000000E+00  0.17915644258E+04  0.17915644258E+04  0.50400001928E-02 0.  1.
       -1   -1    0    0    0  501  0.00000000000E+00  0.00000000000E+00 -0.15411299400E+04  0.15411299400E+04  0.50400001928E-02 0. -1.
    10030    2    1    2    0    0  0.00000000000E+00  0.00000000000E+00  0.25043448584E+03  0.33326943658E+04  0.33232716266E+04 0.  0.
        2    1    3    3  502    0  0.62410905647E+03  0.13574718314E+04  0.85445972042E+03  0.17211459268E+04  0.25500000920E-02 0.  1.
       -2    1    3    3    0  502 -0.62410905647E+03 -0.13574718314E+04 -0.60402523458E+03  0.16115484391E+04  0.25500000920E-02 0. -1.
</event>
<event>
 5   0  0.1846850E-06  0.3031500E+04  0.7818609E-02  0.8234793E-01
        1   -1    0    0  501    0  0.00000000000E+00  0.00000000000E+00  0.15484193154E+04  0.15484193154E+04  0.50400001928E-02 0.  1.
       -1   -1    0    0    0  501  0.00000000000E+00  0.00000000000E+00 -0.14837698662E+04  0.14837698662E+04  0.50400001928E-02 0. -1.
    10030    2    1    2    0    0  0.00000000000E+00  0.00000000000E+00  0.64649449223E+02  0.30321891815E+04  0.30314999062E+04 0.  0.
        5    1    3    3  502    0  0.10914294415E+04  0.11790957176E+02 -0.10196361272E+04  0.14936656836E+04  0.46999998093E+01 0. -1.
       -5    1    3    3    0  502 -0.10914294415E+04 -0.11790957176E+02  0.10842855765E+04  0.15385234979E+04  0.46999998093E+01 0.  1.
</event>
<event>
 5   0  0.5121624E-06  0.2918740E+04  0.7818609E-02  0.8267324E-01
        2   -1    0    0  501    0  0.00000000000E+00  0.00000000000E+00  0.20815319731E+04  0.20815319731E+04  0.25500000920E-02 0.  1.
       -2   -1    0    0    0  501  0.00000000000E+00  0.00000000000E+00 -0.10231698887E+04  0.10231698887E+04  0.25500000920E-02 0. -1.
    10030    2    1    2    0    0  0.00000000000E+00  0.00000000000E+00  0.10583620844E+04  0.31047018618E+04  0.29187400277E+04 0.  0.
        4    1    3    3  502    0 -0.61793009961E+03 -0.28906546388E+03 -0.84311712976E+03  0.10845480892E+04  0.12699999809E+01 0. -1.
       -4    1    3    3    0  502  0.61793009961E+03  0.28906546388E+03  0.19014792141E+04  0.20201537726E+04  0.12699999809E+01 0.  1.
</event>
<event>
 5   0  0.1977015E-06  0.3187314E+04  0.7818609E-02  0.8192175E-01
       -1   -1    0    0    0  501  0.00000000000E+00  0.00000000000E+00  0.13299762770E+04  0.13299762770E+04  0.50400001928E-02 0. -1.
        1   -1    0    0  501    0  0.00000000000E+00  0.00000000000E+00 -0.19096152756E+04  0.19096152757E+04  0.50400001928E-02 0.  1.
    10030    2    1    2    0    0  0.00000000000E+00  0.00000000000E+00 -0.57963899864E+03  0.32395915527E+04  0.31873142392E+04 0.  0.
        1    1    3    3  502    0 -0.35603020014E+03  0.18067347496E+03  0.12783215015E+04  0.13392185293E+04  0.50400001928E-02 0. -1.
       -1    1    3    3    0  502  0.35603020014E+03 -0.18067347496E+03 -0.18579605001E+04  0.19003730234E+04  0.50400001928E-02 0.  1.
</event>
<event>
 5   0  0.1846850E-06  0.3174318E+04  0.7818609E-02  0.8195633E-01
        1   -1    0    0  501    0  0.00000000000E+00  0.00000000000E+00  0.17698478737E+04  0.17698478737E+04  0.50400001928E-02 0.  1.
       -1   -1    0    0    0  501  0.00000000000E+00  0.00000000000E+00 -0.14233278727E+04  0.14233278727E+04  0.50400001928E-02 0. -1.
    10030    2    1    2    0    0  0.00000000000E+00  0.00000000000E+00  0.34652000100E+03  0.31931757465E+04  0.31743180743E+04 0.  0.
        5    1    3    3  502    0 -0.11701787328E+04 -0.98247125135E+03 -0.25880727215E+03  0.15497003971E+04  0.46999998093E+01 0. -1.
       -5    1    3    3    0  502  0.11701787328E+04  0.98247125135E+03  0.60532727315E+03  0.16434753494E+04  0.46999998093E+01 0.  1.
</event>
<event>
 5   0  0.1977015E-06  0.3198170E+04  0.7818609E-02  0.8189301E-01
        1   -1    0    0  501    0  0.00000000000E+00  0.00000000000E+00  0.23571806866E+04  0.23571806866E+04  0.50400001928E-02 0. -1.
       -1   -1    0    0    0  501  0.00000000000E+00  0.00000000000E+00 -0.10848011268E+04  0.10848011268E+04  0.50400001928E-02 0.  1.
    10030    2    1    2    0    0  0.00000000000E+00  0.00000000000E+00  0.12723795599E+04  0.34419818134E+04  0.31981696421E+04 0.  0.
        1    1    3    3  502    0 -0.61518880942E+02 -0.45399747667E+03 -0.10126547815E+04  0.11114710919E+04  0.50400001928E-02 0.  1.
       -1    1    3    3    0  502  0.61518880942E+02  0.45399747667E+03  0.22850343414E+04  0.23305107215E+04  0.50400001928E-02 0. -1.
</event>
<event>
 5   0  0.1969465E-06  0.3220517E+04  0.7818609E-02  0.8183419E-01
        1   -1    0    0  501    0  0.00000000000E+00  0.00000000000E+00  0.17181649764E+04  0.17181649764E+04  0.50400001928E-02 0.  1.
       -1   -1    0    0    0  501  0.00000000000E+00  0.00000000000E+00 -0.15091293470E+04  0.15091293470E+04  0.50400001928E-02 0. -1.
    10030    2    1    2    0    0  0.00000000000E+00  0.00000000000E+00  0.20903562934E+03  0.32272943234E+04  0.32205174670E+04 0.  0.
        2    1    3    3  502    0  0.14270726798E+04  0.63408198217E+03 -0.28916608539E+03  0.15881477949E+04  0.25500000920E-02 0.  1.
       -2    1    3    3    0  502 -0.14270726798E+04 -0.63408198217E+03  0.49820171473E+03  0.16391465285E+04  0.25500000920E-02 0. -1.
</event>
<event>
 5   0  0.5373060E-06  0.3188899E+04  0.7818609E-02  0.8191755E-01
       -2   -1    0    0    0  501  0.00000000000E+00  0.00000000000E+00  0.13402945583E+04  0.13402945583E+04  0.25500000920E-02 0. -1.
        2   -1    0    0  501    0  0.00000000000E+00  0.00000000000E+00 -0.18967989454E+04  0.18967989454E+04  0.25500000920E-02 0.  1.
    10030    2    1    2    0    0  0.00000000000E+00  0.00000000000E+00 -0.55650438710E+03  0.32370935038E+04  0.31888990607E+04 0.  0.
        5    1    3    3  502    0 -0.11472410181E+04 -0.11004197650E+04 -0.15325881135E+03  0.15970585355E+04  0.46999998093E+01 0.  1.
       -5    1    3    3    0  502  0.11472410181E+04  0.11004197650E+04 -0.40324557575E+03  0.16400349682E+04  0.46999998093E+01 0. -1.
</event>
<event>
 5   0  0.5121624E-06  0.3136596E+04  0.7818609E-02  0.8205766E-01
       -2   -1    0    0    0  501  0.00000000000E+00  0.00000000000E+00  0.14383423558E+04  0.14383423558E+04  0.25500000920E-02 0.  1.
        2   -1    0    0  501    0  0.00000000000E+00  0.00000000000E+00 -0.17099950558E+04  0.17099950558E+04  0.25500000920E-02 0. -1.
    10030    2    1    2    0    0  0.00000000000E+00  0.00000000000E+00 -0.27165270001E+03  0.31483374116E+04  0.31365958089E+04 0.  0.
        4    1    3    3  502    0 -0.14932420173E+04 -0.47917791623E+03 -0.14904784792E+03  0.15753095161E+04  0.12699999809E+01 0.  1.
       -4    1    3    3    0  502  0.14932420173E+04  0.47917791623E+03 -0.12260485208E+03  0.15730278956E+04  0.12699999809E+01 0. -1.
</event>
<event>
 5   0  0.1881144E-06  0.3151350E+04  0.7818609E-02  0.8201785E-01
       -1   -1    0    0    0  501  0.00000000000E+00  0.00000000000E+00  0.99645178049E+03  0.99645178050E+03  0.50400001928E-02 0. -1.
        1   -1    0    0  501    0  0.00000000000E+00  0.00000000000E+00 -0.24915922203E+04  0.24915922203E+04  0.50400001928E-02 0.  1.
    10030    2    1    2    0    0  0.00000000000E+00  0.00000000000E+00 -0.14951404398E+04  0.34880440008E+04  0.31513498722E+04 0.  0.
        3    1    3    3  502    0 -0.67021747967E+03  0.13682143685E+04 -0.11924453167E+04  0.19347164836E+04  0.10100000352E+00 0.  1.
       -3    1    3    3    0  502  0.67021747967E+03 -0.13682143685E+04 -0.30269512305E+03  0.15533275172E+04  0.10100000352E+00 0. -1.
</event>
<event>
 5   0  0.1969465E-06  0.3181190E+04  0.7818609E-02  0.8193803E-01
       -1   -1    0    0    0  501  0.00000000000E+00  0.00000000000E+00  0.16790555946E+04  0.16790555946E+04  0.50400001928E-02 0.  1.
        1   -1    0    0  501    0  0.00000000000E+00  0.00000000000E+00 -0.15067947220E+04  0.15067947220E+04  0.50400001928E-02 0. -1.
    10030    2    1    2    0    0  0.00000000000E+00  0.00000000000E+00  0.17226087266E+03  0.31858503166E+04  0.31811897824E+04 0.  0.
        2    1    3    3  502    0 -0.33698037518E+02  0.84271885584E+03 -0.12644302712E+04  0.15198995159E+04  0.25500000920E-02 0. -1.
       -2    1    3    3    0  502  0.33698037518E+02 -0.84271885584E+03  0.14366911438E+04  0.16659508007E+04  0.25500000920E-02 0.  1.
</event>
<event>
 5   0  0.5121624E-06  0.3191877E+04  0.7818609E-02  0.8190966E-01
        2   -1    0    0  501    0  0.00000000000E+00  0.00000000000E+00  0.20253502382E+04  0.20253502382E+04  0.25500000920E-02 0. -1.
       -2   -1    0    0    0  501  0.00000000000E+00  0.00000000000E+00 -0.12575697549E+04  0.12575697549E+04  0.25500000920E-02 0.  1.
    10030    2    1    2    0    0  0.00000000000E+00  0.00000000000E+00  0.76778048332E+03  0.32829199931E+04  0.31918766910E+04 0.  0.
        4    1    3    3  502    0  0.10011127524E+04 -0.22960128987E+03  0.16402366097E+04  0.19352832465E+04  0.12699999809E+01 0. -1.
       -4    1    3    3    0  502 -0.10011127524E+04  0.22960128987E+03 -0.87245612642E+03  0.13476367466E+04  0.12699999809E+01 0.  1.
</event>
<event>
 5   0  0.1977015E-06  0.1985133E+04  0.7818609E-02  0.8613603E-01
        1   -1    0    0  501    0  0.00000000000E+00  0.00000000000E+00  0.18696307496E+04  0.18696307496E+04  0.50400001928E-02 0.  1.
       -1   -1    0    0    0  501  0.00000000000E+00  0.00000000000E+00 -0.52694278443E+03  0.52694278446E+03  0.50400001928E-02 0. -1.
    10030    2    1    2    0    0  0.00000000000E+00  0.00000000000E+00  0.13426879651E+04  0.23965735340E+04  0.19851331775E+04 0.  0.
        1    1    3    3  502    0 -0.64922697149E+03  0.38801594060E+03  0.14473191850E+04  0.16330293488E+04  0.50400001928E-02 0.  1.
       -1    1    3    3    0  502  0.64922697149E+03 -0.38801594060E+03 -0.10463121985E+03  0.76354418527E+03  0.50400001928E-02 0. -1.
</event>
<event>
 5   0  0.5121624E-06  0.3113783E+04  0.7818609E-02  0.8211965E-01
        2   -1    0    0  501    0  0.00000000000E+00  0.00000000000E+00  0.19889054801E+04  0.19889054801E+04  0.25500000920E-02 0. -1.
       -2   -1    0    0    0  501  0.00000000000E+00  0.00000000000E+00 -0.12187160260E+04  0.12187160260E+04  0.25500000920E-02 0.  1.
    10030    2    1    2    0    0  0.00000000000E+00  0.00000000000E+00  0.77018945411E+03  0.32076215061E+04  0.31137828973E+04 0.  0.
        4    1    3    3  502    0 -0.12381163129E+04 -0.74714014455E+03 -0.20914225103E+03  0.14611271313E+04  0.12699999809E+01 0. -1.
       -4    1    3    3    0  502  0.12381163129E+04  0.74714014455E+03  0.97933170514E+03  0.17464943748E+04  0.12699999809E+01 0.  1.
</event>
<event>
 5   0  0.1977015E-06  0.3322889E+04  0.7818609E-02  0.8157096E-01
        1   -1    0    0  501    0  0.00000000000E+00  0.00000000000E+00  0.11188092839E+04  0.11188092839E+04  0.50400001928E-02 0. -1.
       -1   -1    0    0    0  501  0.00000000000E+00  0.00000000000E+00 -0.24672637188E+04  0.24672637188E+04  0.50400001928E-02 0.  1.
    10030    2    1    2    0    0  0.00000000000E+00  0.00000000000E+00 -0.13484544349E+04  0.35860730027E+04  0.33228888362E+04 0.  0.
        1    1    3    3  502    0 -0.55651429278E+03 -0.10296918191E+04  0.59832896589E+03  0.13145230891E+04  0.50400001928E-02 0. -1.
       -1    1    3    3    0  502  0.55651429278E+03  0.10296918191E+04 -0.19467834008E+04  0.22715499136E+04  0.50400001928E-02 0.  1.
</event>
<event>
 5   0  0.1977015E-06  0.3238450E+04  0.7818609E-02  0.8178736E-01
       -1   -1    0    0    0  501  0.00000000000E+00  0.00000000000E+00  0.11677387348E+04  0.11677387348E+04  0.50400001928E-02 0. -1.
        1   -1    0    0  501    0  0.00000000000E+00  0.00000000000E+00 -0.22452700858E+04  0.22452700858E+04  0.50400001928E-02 0.  1.
    10030    2    1    2    0    0  0.00000000000E+00  0.00000000000E+00 -0.10775313510E+04  0.34130088207E+04  0.32384495361E+04 0.  0.
        1    1    3    3  502    0  0.34451263506E+03 -0.15619689218E+04 -0.80424230310E+03  0.17903188404E+04  0.50400001928E-02 0. -1.
       -1    1    3    3    0  502 -0.34451263506E+03  0.15619689218E+04 -0.27328904789E+03  0.16226899802E+04  0.50400001928E-02 0.  1.
</event>
<event>
 5   0  0.5131083E-06  0.2911546E+04  0.7818609E-02  0.8269451E-01
       -2   -1    0    0    0  501  0.00000000000E+00  0.00000000000E+00  0.13640937633E+04  0.13640937633E+04  0.25500000920E-02 0. -1.
        2   -1    0    0  501    0  0.00000000000E+00  0.00000000000E+00 -0.15536136545E+04  0.15536136545E+04  0.25500000920E-02 0.  1.
    10030    2    1    2    0    0  0.00000000000E+00  0.00000000000E+00 -0.18951989122E+03  0.29177074179E+04  0.29115457728E+04 0.  0.
        3    1    3    3  502    0 -0.77112605902E+03 -0.51939964702E+03  0.10278175340E+04  0.13859366095E+04  0.10100000352E+00 0. -1.
       -3    1    3    3    0  502  0.77112605902E+03  0.51939964702E+03 -0.12173374252E+04  0.15317708083E+04  0.10100000352E+00 0.  1.
</event>
<event>
 5   0  0.1846850E-06  0.3198602E+04  0.7818609E-02  0.8189186E-01
        1   -1    0    0  501    0  0.00000000000E+00  0.00000000000E+00  0.24270615174E+04  0.24270615174E+04  0.50400001928E-02 0. -1.
       -1   -1    0    0    0  501  0.00000000000E+00  0.00000000000E+00 -0.10538520462E+04  0.10538520462E+04  0.50400001928E-02 0.  1.
    10030    2    1    2    0    0  0.00000000000E+00  0.00000000000E+00  0.13732094712E+04  0.34809135636E+04  0.31986020361E+04 0.  0.
        5    1    3    3  502    0 -0.33784856944E+03 -0.11091294586E+04  0.18853881450E+04  0.22133730728E+04  0.46999998093E+01 0. -1.
       -5    1    3    3    0  502  0.33784856944E+03  0.11091294586E+04 -0.51217867383E+03  0.12675404908E+04  0.46999998093E+01 0.  1.
</event>
<event>
 5   0  0.5131083E-06  0.3251183E+04  0.7818609E-02  0.8175429E-01
       -2   -1    0    0    0  501  0.00000000000E+00  0.00000000000E+00  0.11056787821E+04  0.11056787821E+04  0.25500000920E-02 0. -1.
        2   -1    0    0  501    0  0.00000000000E+00  0.00000000000E+00 -0.23899781358E+04  0.23899781358E+04  0.25500000920E-02 0.  1.
    10030    2    1    2    0    0  0.00000000000E+00  0.00000000000E+00 -0.12842993537E+04  0.34956569179E+04  0.32511832397E+04 0.  0.
        3    1    3    3  502    0  0.60100178687E+03 -0.11796731066E+04  0.37202586480E+03  0.13752218150E+04  0.10100000352E+00 0.  1.
       -3    1    3    3    0  502 -0.60100178687E+03  0.11796731066E+04 -0.16563252185E+04  0.21204351029E+04  0.10100000352E+00 0. -1.
</event>
<event>
 5   0  0.5121624E-06  0.2448601E+04  0.7818609E-02  0.8421529E-01
        2   -1    0    0  501    0  0.00000000000E+00  0.00000000000E+00  0.15429771677E+04  0.15429771677E+04  0.25500000920E-02 0. -1.
       -2   -1    0    0    0  501  0.00000000000E+00  0.00000000000E+00 -0.97144124269E+03  0.97144124269E+03  0.25500000920E-02 0.  1.
    10030    2    1    2    0    0  0.00000000000E+00  0.00000000000E+00  0.57153592497E+03  0.25144184104E+04  0.24486009534E+04 0.  0.
        4    1    3    3  502    0 -0.39945917050E+03 -0.25516570894E+01 -0.90263654220E+03  0.98708078700E+03  0.12699999809E+01 0.  1.
       -4    1    3    3    0  502  0.39945917050E+03  0.25516570894E+01  0.14741724672E+04  0.15273376234E+04  0.12699999809E+01 0. -1.
</event>
<event>
 5   0  0.5131083E-06  0.3197965E+04  0.7818609E-02  0.8189355E-01
        2   -1    0    0  501    0  0.00000000000E+00  0.00000000000E+00  0.30895132862E+04  0.30895132862E+04  0.25500000920E-02 0. -1.
       -2   -1    0    0    0  501  0.00000000000E+00  0.00000000000E+00 -0.82755596509E+03  0.82755596509E+03  0.25500000920E-02 0.  1.
    10030    2    1    2    0    0  0.00000000000E+00  0.00000000000E+00  0.22619573211E+04  0.39170692513E+04  0.31979650712E+04 0.  0.
        3    1    3    3  502    0  0.86553373429E+03  0.51826421146E+03  0.26504994990E+04  0.28359996549E+04  0.10100000352E+00 0. -1.
       -3    1    3    3    0  502 -0.86553373429E+03 -0.51826421146E+03 -0.38854217789E+03  0.10810695964E+04  0.10100000352E+00 0.  1.
</event>
<event>
 5   0  0.5108810E-06  0.3233165E+04  0.7818609E-02  0.8180113E-01
        2   -1    0    0  501    0  0.00000000000E+00  0.00000000000E+00  0.19988514872E+04  0.19988514872E+04  0.25500000920E-02 0. -1.
       -2   -1    0    0    0  501  0.00000000000E+00  0.00000000000E+00 -0.13074201558E+04  0.13074201558E+04  0.25500000920E-02 0.  1.
    10030    2    1    2    0    0  0.00000000000E+00  0.00000000000E+00  0.69143133145E+03  0.33062716430E+04  0.32331648413E+04 0.  0.
        1    1    3    3  502    0  0.10622503975E+04  0.88935826642E+03  0.11976220784E+04  0.18312926243E+04  0.50400001928E-02 0. -1.
       -1    1    3    3    0  502 -0.10622503975E+04 -0.88935826642E+03 -0.50619074699E+03  0.14749790187E+04  0.50400001928E-02 0.  1.
</event>
<event>
 5   0  0.1969465E-06  0.3234151E+04  0.7818609E-02  0.8179856E-01
       -1   -1    0    0    0  501  0.00000000000E+00  0.00000000000E+00  0.14213610710E+04  0.14213610710E+04  0.50400001928E-02 0. -1.
        1   -1    0    0  501    0  0.00000000000E+00  0.00000000000E+00 -0.18397384134E+04  0.18397384134E+04  0.50400001928E-02 0.  1.
    10030    2    1    2    0    0  0.00000000000E+00  0.00000000000E+00 -0.41837734233E+03  0.32610994844E+04  0.32341506221E+04 0.  0.
        2    1    3    3  502    0 -0.18654102086E+03 -0.72273054558E+02  0.14088353644E+04  0.14229680358E+04  0.25500000920E-02 0. -1.
       -2    1    3    3    0  502  0.18654102086E+03  0.72273054558E+02 -0.18272127067E+04  0.18381314486E+04  0.25500000920E-02 0.  1.
</event>
<event>
 5   0  0.1886248E-06  0.3149251E+04  0.7818609E-02  0.8202350E-01
       -1   -1    0    0    0  501  0.00000000000E+00  0.00000000000E+00  0.10669245629E+04  0.10669245629E+04  0.50400001928E-02 0.  1.
        1   -1    0    0  501    0  0.00000000000E+00  0.00000000000E+00 -0.23239183678E+04  0.23239183678E+04  0.50400001928E-02 0. -1.
    10030    2    1    2    0    0  0.00000000000E+00  0.00000000000E+00 -0.12569938049E+04  0.33908429307E+04  0.31492510784E+04 0.  0.
        4    1    3    3  502    0  0.11862173904E+04 -0.90633461476E+03 -0.89182612593E+02  0.14954963331E+04  0.12699999809E+01 0.  1.
       -4    1    3    3    0  502 -0.11862173904E+04  0.90633461476E+03 -0.11678111923E+04  0.18953465976E+04  0.12699999809E+01 0. -1.
</event>
<event>
 5   0  0.5373060E-06  0.3138556E+04  0.7818609E-02  0.8205236E-01
       -2   -1    0    0    0  501  0.00000000000E+00  0.00000000000E+00  0.13511345980E+04  0.13511345980E+04  0.25500000920E-02 0. -1.
        2   -1    0    0  501    0  0.00000000000E+00  0.00000000000E+00 -0.18226406725E+04  0.18226406725E+04  0.25500000920E-02 0.  1.
    10030    2    1    2    0    0  0.00000000000E+00  0.00000000000E+00 -0.47150607445E+03  0.31737752705E+04  0.31385556374E+04 0.  0.
        5    1    3    3  502    0  0.16214266166E+03 -0.86943258051E+03 -0.15466050016E+04  0.17816319417E+04  0.46999998093E+01 0.  1.
       -5    1    3    3    0  502 -0.16214266166E+03  0.86943258051E+03  0.10750989271E+04  0.13921433288E+04  0.46999998093E+01 0. -1.
</event>
<event>
 5   0  0.1977015E-06  0.3382917E+04  0.7818609E-02  0.8142112E-01
        1   -1    0    0  501    0  0.00000000000E+00  0.00000000000E+00  0.17937239597E+04  0.17937239597E+04  0.50400001928E-02 0. -1.
       -1   -1    0    0    0  501  0.00000000000E+00  0.00000000000E+00 -0.15950231940E+04  0.15950231940E+04  0.50400001928E-02 0.  1.
    10030    2    1    2    0    0  0.00000000000E+00  0.00000000000E+00  0.19870076573E+03  0.33887471538E+04  0.33829166821E+04 0.  0.
        1    1    3    3  502    0  0.12885674448E+04  0.12796186968E+03  0.11894589376E+04  0.17582925991E+04  0.50400001928E-02 0. -1.
       -1    1    3    3    0  502 -0.12885674448E+04 -0.12796186968E+03 -0.99075817183E+03  0.16304545547E+04  0.50400001928E-02 0.  1.
</event>
<event>
 5   0  0.1886248E-06  0.3151844E+04  0.7818609E-02  0.8201652E-01
       -1   -1    0    0    0  501  0.00000000000E+00  0.00000000000E+00  0.13147720103E+04  0.13147720104E+04  0.50400001928E-02 0. -1.
        1   -1    0    0  501    0  0.00000000000E+00  0.00000000000E+00 -0.18889434068E+04  0.18889434068E+04  0.50400001928E-02 0.  1.
    10030    2    1    2    0    0  0.00000000000E+00  0.00000000000E+00 -0.57417139643E+03  0.32037154171E+04  0.31518438542E+04 0.  0.
        4    1    3    3  502    0  0.11815301770E+04 -0.28715940207E+03 -0.13061086931E+04  0.17844874930E+04  0.12699999809E+01 0.  1.
       -4    1    3    3    0  502 -0.11815301770E+04  0.28715940207E+03  0.73193729672E+03  0.14192279241E+04  0.12699999809E+01 0. -1.
</event>
<event>
 5   0  0.1846850E-06  0.2766838E+04  0.7818609E-02  0.8313638E-01
        1   -1    0    0  501    0  0.00000000000E+00  0.00000000000E+00  0.16324516967E+04  0.16324516967E+04  0.50400001928E-02 0. -1.
       -1   -1    0    0    0  501  0.00000000000E+00  0.00000000000E+00 -0.11723763837E+04  0.11723763838E+04  0.50400001928E-02 0.  1.
    10030    2    1    2    0    0  0.00000000000E+00  0.00000000000E+00  0.46007531291E+03  0.28048280804E+04  0.27668377739E+04 0.  0.
        5    1    3    3  502    0  0.57315198499E+03 -0.78189735817E+03  0.12304819220E+04  0.15665166858E+04  0.46999998093E+01 0. -1.
       -5    1    3    3    0  502 -0.57315198499E+03  0.78189735817E+03 -0.77040660910E+03  0.12383113946E+04  0.46999998093E+01 0.  1.
</event>
<event>
 5   0  0.5121624E-06  0.3219970E+04  0.7818609E-02  0.8183563E-01
       -2   -1    0    0    0  501  0.00000000000E+00  0.00000000000E+00  0.99636462544E+03  0.99636462545E+03  0.25500000920E-02 0. -1.
        2   -1    0    0  501    0  0.00000000000E+00  0.00000000000E+00 -0.26015083673E+04  0.26015083673E+04  0.25500000920E-02 0.  1.
    10030    2    1    2    0    0  0.00000000000E+00  0.00000000000E+00 -0.16051437418E+04  0.35978729927E+04  0.32199695091E+04 0.  0.
        4    1    3    3  502    0 -0.50399819762E+03  0.14135602154E+04 -0.14539880712E+04  0.20895572713E+04  0.12699999809E+01 0.  1.
       -4    1    3    3    0  502  0.50399819762E+03 -0.14135602154E+04 -0.15115567061E+03  0.15083157214E+04  0.12699999809E+01 0. -1.
</event>
<event>
 5   0  0.1977015E-06  0.3189860E+04  0.7818609E-02  0.8191500E-01
       -1   -1    0    0    0  501  0.00000000000E+00  0.00000000000E+00  0.99690225576E+03  0.99690225578E+03  0.50400001928E-02 0. -1.
        1   -1    0    0  501    0  0.00000000000E+00  0.00000000000E+00 -0.25517068992E+04  0.25517068992E+04  0.50400001928E-02 0.  1.
    10030    2    1    2    0    0  0.00000000000E+00  0.00000000000E+00 -0.15548046434E+04  0.35486091550E+04  0.31898604132E+04 0.  0.
        1    1    3    3  502    0 -0.15735755782E+04 -0.17382301812E+03 -0.56212426141E+03  0.16799816151E+04  0.50400001928E-02 0.  1.
       -1    1    3    3    0  502  0.15735755782E+04  0.17382301812E+03 -0.99268038204E+03  0.18686275399E+04  0.50400001928E-02 0. -1.
</event>
<event>
 5   0  0.5347280E-06  0.3217446E+04  0.7818609E-02  0.8184225E-01
        2   -1    0    0  501    0  0.00000000000E+00  0.00000000000E+00  0.29943464551E+04  0.29943464551E+04  0.25500000920E-02 0.  1.
       -2   -1    0    0    0  501  0.00000000000E+00  0.00000000000E+00 -0.86429196488E+03  0.86429196488E+03  0.25500000920E-02 0. -1.
    10030    2    1    2    0    0  0.00000000000E+00  0.00000000000E+00  0.21300544902E+04  0.38586384200E+04  0.32174459319E+04 0.  0.
        2    1    3    3  502    0  0.46411814274E+03  0.10073127665E+04  0.24625455591E+04  0.27007804966E+04  0.25500000920E-02 0.  1.
       -2    1    3    3    0  502 -0.46411814274E+03 -0.10073127665E+04 -0.33249106886E+03  0.11578579234E+04  0.25500000920E-02 0. -1.
</event>
<event>
 5   0  0.5373060E-06  0.3195660E+04  0.7818609E-02  0.8189964E-01
       -2   -1    0    0    0  501  0.00000000000E+00  0.00000000000E+00  0.13645384612E+04  0.13645384612E+04  0.25500000920E-02 0.  1.
        2   -1    0    0  501    0  0.00000000000E+00  0.00000000000E+00 -0.18710063660E+04  0.18710063660E+04  0.25500000920E-02 0. -1.
    10030    2    1    2    0    0  0.00000000000E+00  0.00000000000E+00 -0.50646790480E+03  0.32355448271E+04  0.31956596486E+04 0.  0.
        5    1    3    3  502    0  0.31401615232E+03  0.77670796628E+03  0.11243195899E+04  0.14021405205E+04  0.46999998093E+01 0.  1.
       -5    1    3    3    0  502 -0.31401615232E+03 -0.77670796628E+03 -0.16307874947E+04  0.18334043067E+04  0.46999998093E+01 0. -1.
</event>
<event>
 5   0  0.1881144E-06  0.3078224E+04  0.7818609E-02  0.8221740E-01
       -1   -1    0    0    0  501  0.00000000000E+00  0.00000000000E+00  0.11781243281E+04  0.11781243281E+04  0.50400001928E-02 0. -1.
        1   -1    0    0  501    0  0.00000000000E+00  0.00000000000E+00 -0.20107097454E+04  0.20107097454E+04  0.50400001928E-02 0.  1.
    10030    2    1    2    0    0  0.00000000000E+00  0.00000000000E+00 -0.83258541729E+03  0.31888340735E+04  0.30782242075E+04 0.  0.
        3    1    3    3  502    0 -0.56843886018E+03 -0.63499808914E+03  0.91136800584E+03  0.12477728011E+04  0.10100000352E+00 0.  1.
       -3    1    3    3    0  502  0.56843886018E+03  0.63499808914E+03 -0.17439534231E+04  0.19410612724E+04  0.10100000352E+00 0. -1.
</event>
<event>
 5   0  0.1846850E-06  0.3241217E+04  0.7818609E-02  0.8178016E-01
       -1   -1    0    0    0  501  0.00000000000E+00  0.00000000000E+00  0.20490879043E+04  0.20490879043E+04  0.50400001928E-02 0.  1.
        1   -1    0    0  501    0  0.00000000000E+00  0.00000000000E+00 -0.12817274165E+04  0.12817274165E+04  0.50400001928E-02 0. -1.
    10030    2    1    2    0    0  0.00000000000E+00  0.00000000000E+00  0.76736048780E+03  0.33308153209E+04  0.32412171454E+04 0.  0.
        5    1    3    3  502    0 -0.10101066303E+04 -0.57432043822E+03 -0.77723419116E+03  0.13979536645E+04  0.46999998093E+01 0. -1.
       -5    1    3    3    0  502  0.10101066303E+04  0.57432043822E+03  0.15445946790E+04  0.19328616563E+04  0.46999998093E+01 0.  1.
</event>
<event>
 5   0  0.5347280E-06  0.3202975E+04  0.7818609E-02  0.8188032E-01
       -2   -1    0    0    0  501  0.00000000000E+00  0.00000000000E+00  0.12661497959E+04  0.12661497959E+04  0.25500000920E-02 0.  1.
        2   -1    0    0  501    0  0.00000000000E+00  0.00000000000E+00 -0.20256382492E+04  0.20256382492E+04  0.25500000920E-02 0. -1.
    10030    2    1    2    0    0  0.00000000000E+00  0.00000000000E+00 -0.75948845333E+03  0.32917880451E+04  0.32029745274E+04 0.  0.
        2    1    3    3  502    0 -0.10116856972E+04  0.81462661397E+03 -0.13425436853E+04  0.18680331949E+04  0.25500000920E-02 0. -1.
       -2    1    3    3    0  502  0.10116856972E+04 -0.81462661397E+03  0.58305523198E+03  0.14237548503E+04  0.25500000920E-02 0.  1.
</event>
<event>
 5   0  0.1886248E-06  0.4054912E+04  0.7818609E-02  0.7993560E-01
        1   -1    0    0  501    0  0.00000000000E+00  0.00000000000E+00  0.18026240192E+04  0.18026240192E+04  0.50400001928E-02 0. -1.
       -1   -1    0    0    0  501  0.00000000000E+00  0.00000000000E+00 -0.22803298424E+04  0.22803298424E+04  0.50400001928E-02 0.  1.
    10030    2    1    2    0    0  0.00000000000E+00  0.00000000000E+00 -0.47770582324E+03  0.40829538616E+04  0.40549117601E+04 0.  0.
        4    1    3    3  502    0 -0.15872745477E+04  0.11596873769E+04  0.26082526470E+03  0.19830145571E+04  0.12699999809E+01 0. -1.
       -4    1    3    3    0  502  0.15872745477E+04 -0.11596873769E+04 -0.73853108795E+03  0.20999393045E+04  0.12699999809E+01 0.  1.
</event>
<event>
 5   0  0.5131083E-06  0.2891093E+04  0.7818609E-02  0.8275532E-01
        2   -1    0    0  501    0  0.00000000000E+00  0.00000000000E+00  0.16070749182E+04  0.16070749182E+04  0.25500000920E-02 0. -1.
       -2   -1    0    0    0  501  0.00000000000E+00  0.00000000000E+00 -0.13002537070E+04  0.13002537070E+04  0.25500000920E-02 0.  1.
    10030    2    1    2    0    0  0.00000000000E+00  0.00000000000E+00  0.30682121117E+03  0.29073286252E+04  0.28910933017E+04 0.  0.
        3    1    3    3  502    0  0.55067529360E+03  0.88842899763E+03 -0.85072354417E+03  0.13476942983E+04  0.10100000352E+00 0.  1.
       -3    1    3    3    0  502 -0.55067529360E+03 -0.88842899763E+03  0.11575447553E+04  0.15596343269E+04  0.10100000352E+00 0. -1.
</event>
<event>
 5   0  0.5373060E-06  0.3118325E+04  0.7818609E-02  0.8210727E-01
       -2   -1    0    0    0  501  0.00000000000E+00  0.00000000000E+00  0.92322223463E+03  0.92322223464E+03  0.25500000920E-02 0. -1.
        2   -1    0    0  501    0  0.00000000000E+00  0.00000000000E+00 -0.26331563088E+04  0.26331563088E+04  0.25500000920E-02 0.  1.
    10030    2    1    2    0    0  0.00000000000E+00  0.00000000000E+00 -0.17099340742E+04  0.35563785435E+04  0.31183254812E+04 0.  0.
        5    1    3    3  502    0 -0.34847812964E+03  0.73969150514E+03 -0.23690059395E+04  0.25061507857E+04  0.46999998093E+01 0.  1.
       -5    1    3    3    0  502  0.34847812964E+03 -0.73969150514E+03  0.65907186524E+03  0.10502277578E+04  0.46999998093E+01 0. -1.
</event>
<event>
 5   0  0.5121624E-06  0.3010111E+04  0.7818609E-02  0.8240850E-01
       -2   -1    0    0    0  501  0.00000000000E+00  0.00000000000E+00  0.12685240683E+04  0.12685240683E+04  0.25500000920E-02 0. -1.
        2   -1    0    0  501    0  0.00000000000E+00  0.00000000000E+00 -0.17856908650E+04  0.17856908650E+04  0.25500000920E-02 0.  1.
    10030    2    1    2    0    0  0.00000000000E+00  0.00000000000E+00 -0.51716679672E+03  0.30542149332E+04  0.30101108556E+04 0.  0.
        4    1    3    3  502    0  0.11459457330E+04  0.79827029361E+03  0.31067447101E+03  0.14307156686E+04  0.12699999809E+01 0. -1.
       -4    1    3    3    0  502 -0.11459457330E+04 -0.79827029361E+03 -0.82784126772E+03  0.16234992646E+04  0.12699999809E+01 0.  1.
</event>
<event>
 5   0  0.1886248E-06  0.3234660E+04  0.7818609E-02  0.8179723E-01
        1   -1    0    0  501    0  0.00000000000E+00  0.00000000000E+00  0.16489607566E+04  0.16489607566E+04  0.50400001928E-02 0.  1.
       -1   -1    0    0    0  501  0.00000000000E+00  0.00000000000E+00 -0.15863057675E+04  0.15863057675E+04  0.50400001928E-02 0. -1.
    10030    2    1    2    0    0  0.00000000000E+00  0.00000000000E+00  0.62654989080E+02  0.32352665240E+04  0.32346597710E+04 0.  0.
        4    1    3    3  502    0 -0.87399139731E+03 -0.10218607974E+04 -0.86755900244E+03  0.16002251990E+04  0.12699999809E+01 0. -1.
       -4    1    3    3    0  502  0.87399139731E+03  0.10218607974E+04  0.93021399152E+03  0.16350413251E+04  0.12699999809E+01 0.  1.
</event>
<event>
 5   0  0.5108810E-06  0.3262145E+04  0.7818609E-02  0.8172595E-01
       -2   -1    0    0    0  501  0.00000000000E+00  0.00000000000E+00  0.10747334859E+04  0.10747334859E+04  0.25500000920E-02 0. -1.
        2   -1    0    0  501    0  0.00000000000E+00  0.00000000000E+00 -0.24754023132E+04  0.24754023132E+04  0.25500000920E-02 0.  1.
    10030    2    1    2    0    0  0.00000000000E+00  0.00000000000E+00 -0.14006688274E+04  0.35501357991E+04  0.32621451574E+04 0.  0.
        1    1    3    3  502    0  0.14955152524E+04 -0.37873948538E+03 -0.12407024183E+03  0.15477089174E+04  0.50400001928E-02 0. -1.
       -1    1    3    3    0  502 -0.14955152524E+04  0.37873948538E+03 -0.12765985855E+04  0.20024268817E+04  0.50400001928E-02 0.  1.
</event>
<event>
 5   0  0.1977015E-06  0.3227020E+04  0.7818609E-02  0.8181718E-01
       -1   -1    0    0    0  501  0.00000000000E+00  0.00000000000E+00  0.15666213622E+04  0.15666213622E+04  0.50400001928E-02 0. -1.
        1   -1    0    0  501    0  0.00000000000E+00  0.00000000000E+00 -0.16618018537E+04  0.16618018537E+04  0.50400001928E-02 0.  1.
    10030    2    1    2    0    0  0.00000000000E+00  0.00000000000E+00 -0.95180491503E+02  0.32284232158E+04  0.32270198535E+04 0.  0.
        1    1    3    3  502    0 -0.37924370497E+01  0.75618660863E+03  0.13783652520E+04  0.15721715357E+04  0.50400001928E-02 0. -1.
       -1    1    3    3    0  502  0.37924370497E+01 -0.75618660863E+03 -0.14735457435E+04  0.16562516801E+04  0.50400001928E-02 0.  1.
</event>
<event>
 5   0  0.5121624E-06  0.3378753E+04  0.7818609E-02  0.8143141E-01
       -2   -1    0    0    0  501  0.00000000000E+00  0.00000000000E+00  0.13801182878E+04  0.13801182878E+04  0.25500000920E-02 0. -1.
        2   -1    0    0  501    0  0.00000000000E+00  0.00000000000E+00 -0.20679332215E+04  0.20679332215E+04  0.25500000920E-02 0.  1.
    10030    2    1    2    0    0  0.00000000000E+00  0.00000000000E+00 -0.68781493370E+03  0.34480515093E+04  0.33787527030E+04 0.  0.
        4    1    3    3  502    0 -0.63623706608E+03 -0.28395335224E+03 -0.19144867931E+04  0.20373238339E+04  0.12699999809E+01 0.  1.
       -4    1    3    3    0  502  0.63623706608E+03  0.28395335224E+03  0.12266718594E+04  0.14107276754E+04  0.12699999809E+01 0. -1.
</event>
<event>
 5   0  0.1977015E-06  0.3287739E+04  0.7818609E-02  0.8166022E-01
        1   -1    0    0  501    0  0.00000000000E+00  0.00000000000E+00  0.18066241440E+04  0.18066241440E+04  0.50400001928E-02 0.  1.
       -1   -1    0    0    0  501  0.00000000000E+00  0.00000000000E+00 -0.14957770984E+04  0.14957770984E+04  0.50400001928E-02 0. -1.
    10030    2    1    2    0    0  0.00000000000E+00  0.00000000000E+00  0.31084704554E+03  0.33024012424E+04  0.32877390529E+04 0.  0.
        1    1    3    3  502    0 -0.10153210482E+04  0.52436391874E+03 -0.10315710108E+04  0.15394716953E+04  0.50400001928E-02 0. -1.
       -1    1    3    3    0  502  0.10153210482E+04 -0.52436391874E+03  0.13424180563E+04  0.17629295471E+04  0.50400001928E-02 0.  1.
</event>
<event>
 5   0  0.5373060E-06  0.2133436E+04  0.7818609E-02  0.8546656E-01
        2   -1    0    0  501    0  0.00000000000E+00  0.00000000000E+00  0.11662566463E+04  0.11662566463E+04  0.25500000920E-02 0. -1.
       -2   -1    0    0    0  501  0.00000000000E+00  0.00000000000E+00 -0.97567480113E+03  0.97567480113E+03  0.25500000920E-02 0.  1.
    10030    2    1    2    0    0  0.00000000000E+00  0.00000000000E+00  0.19058184518E+03  0.21419314474E+04  0.21334359343E+04 0.  0.
        5    1    3    3  502    0 -0.72741566974E+03 -0.53923890280E+03 -0.47082766122E+03  0.10205943991E+04  0.46999998093E+01 0.  1.
       -5    1    3    3    0  502  0.72741566974E+03  0.53923890280E+03  0.66140950641E+03  0.11213370484E+04  0.46999998093E+01 0. -1.
</event>
<event>
 5   0  0.5373060E-06  0.3132313E+04  0.7818609E-02  0.8206925E-01
        2   -1    0    0  501    0  0.00000000000E+00  0.00000000000E+00  0.15024909847E+04  0.15024909847E+04  0.25500000920E-02 0. -1.
       -2   -1    0    0    0  501  0.00000000000E+00  0.00000000000E+00 -0.16325196691E+04  0.16325196691E+04  0.25500000920E-02 0.  1.
    10030    2    1    2    0    0  0.00000000000E+00  0.00000000000E+00 -0.13002868442E+03  0.31350106538E+04  0.31323129379E+04 0.  0.
        5    1    3    3  502    0 -0.45034181171E+03 -0.39921904776E+03 -0.15121643323E+04  0.16275277735E+04  0.46999998093E+01 0.  1.
       -5    1    3    3    0  502  0.45034181171E+03  0.39921904776E+03  0.13821356479E+04  0.15074828804E+04  0.46999998093E+01 0. -1.
</event>
<event>
 5   0  0.5347280E-06  0.3141408E+04  0.7818609E-02  0.8204465E-01
        2   -1    0    0  501    0  0.00000000000E+00  0.00000000000E+00  0.11011782206E+04  0.11011782206E+04  0.25500000920E-02 0. -1.
       -2   -1    0    0    0  501  0.00000000000E+00  0.00000000000E+00 -0.22404286814E+04  0.22404286814E+04  0.25500000920E-02 0.  1.
    10030    2    1    2    0    0  0.00000000000E+00  0.00000000000E+00 -0.11392504608E+04  0.33416069021E+04  0.31414081358E+04 0.  0.
        2    1    3    3  502    0 -0.61488604932E+03  0.13532857862E+04 -0.29690817398E+02  0.14867241901E+04  0.25500000920E-02 0. -1.
       -2    1    3    3    0  502  0.61488604932E+03 -0.13532857862E+04 -0.11095596434E+04  0.18548827120E+04  0.25500000920E-02 0.  1.
</event>
<event>
 5   0  0.5347280E-06  0.3112275E+04  0.7818609E-02  0.8212377E-01
        2   -1    0    0  501    0  0.00000000000E+00  0.00000000000E+00  0.16645227726E+04  0.16645227726E+04  0.25500000920E-02 0. -1.
       -2   -1    0    0    0  501  0.00000000000E+00  0.00000000000E+00 -0.14548094083E+04  0.14548094083E+04  0.25500000920E-02 0.  1.
    10030    2    1    2    0    0  0.00000000000E+00  0.00000000000E+00  0.20971336425E+03  0.31193321809E+04  0.31122746601E+04 0.  0.
        2    1    3    3  502    0  0.15130932114E+04 -0.24656278208E+03 -0.16280530084E+03  0.15416711186E+04  0.25500000920E-02 0. -1.
       -2    1    3    3    0  502 -0.15130932114E+04  0.24656278208E+03  0.37251866510E+03  0.15776610624E+04  0.25500000920E-02 0.  1.
</event>
<event>
 5   0  0.5108810E-06  0.3234411E+04  0.7818609E-02  0.8179788E-01
       -2   -1    0    0    0  501  0.00000000000E+00  0.00000000000E+00  0.99727346171E+03  0.99727346171E+03  0.25500000920E-02 0.  1.
        2   -1    0    0  501    0  0.00000000000E+00  0.00000000000E+00 -0.26225042539E+04  0.26225042539E+04  0.25500000920E-02 0. -1.
    10030    2    1    2    0    0  0.00000000000E+00  0.00000000000E+00 -0.16252307922E+04  0.36197777157E+04  0.32344111648E+04 0.  0.
        1    1    3    3  502    0  0.91445298458E+03  0.78386332169E+03 -0.20204054852E+04  0.23521701241E+04  0.50400001928E-02 0. -1.
       -1    1    3    3    0  502 -0.91445298458E+03 -0.78386332169E+03  0.39517469298E+03  0.12676075915E+04  0.50400001928E-02 0.  1.
</event>
<event>
 5   0  0.1846850E-06  0.3165059E+04  0.7818609E-02  0.8198107E-01
        1   -1    0    0  501    0  0.00000000000E+00  0.00000000000E+00  0.14273564034E+04  0.14273564034E+04  0.50400001928E-02 0. -1.
       -1   -1    0    0    0  501  0.00000000000E+00  0.00000000000E+00 -0.17545716501E+04  0.17545716501E+04  0.50400001928E-02 0.  1.
    10030    2    1    2    0    0  0.00000000000E+00  0.00000000000E+00 -0.32721524673E+03  0.31819280535E+04  0.31650586598E+04 0.  0.
        5    1    3    3  502    0 -0.54797706920E+03 -0.11755458610E+04  0.74797219274E+03  0.14972212364E+04  0.46999998093E+01 0. -1.
       -5    1    3    3    0  502  0.54797706920E+03  0.11755458610E+04 -0.10751874395E+04  0.16847068171E+04  0.46999998093E+01 0.  1.
</event>
<event>
 5   0  0.1881144E-06  0.3166558E+04  0.7818609E-02  0.8197705E-01
       -1   -1    0    0    0  501  0.00000000000E+00  0.00000000000E+00  0.17917083455E+04  0.17917083455E+04  0.50400001928E-02 0. -1.
        1   -1    0    0  501    0  0.00000000000E+00  0.00000000000E+00 -0.13990964540E+04  0.13990964540E+04  0.50400001928E-02 0.  1.
    10030    2    1    2    0    0  0.00000000000E+00  0.00000000000E+00  0.39261189153E+03  0.31908047995E+04  0.31665582532E+04 0.  0.
        3    1    3    3  502    0 -0.14276147329E+04 -0.66900058633E+03  0.34277080647E+03  0.16134241371E+04  0.10100000352E+00 0. -1.
       -3    1    3    3    0  502  0.14276147329E+04  0.66900058633E+03  0.49841085063E+02  0.15773806624E+04  0.10100000352E+00 0.  1.
</event>
<event>
 5   0  0.5131083E-06  0.3200962E+04  0.7818609E-02  0.8188563E-01
        2   -1    0    0  501    0  0.00000000000E+00  0.00000000000E+00  0.22543963944E+04  0.22543963944E+04  0.25500000920E-02 0.  1.
       -2   -1    0    0    0  501  0.00000000000E+00  0.00000000000E+00 -0.11362418350E+04  0.11362418350E+04  0.25500000920E-02 0. -1.
    10030    2    1    2    0    0  0.00000000000E+00  0.00000000000E+00  0.11181545595E+04  0.33906382294E+04  0.32009620403E+04 0.  0.
        3    1    3    3  502    0 -0.40475008373E+03  0.49547490037E+03  0.21130536514E+04  0.22077848063E+04  0.10100000352E+00 0.  1.
       -3    1    3    3    0  502  0.40475008373E+03 -0.49547490037E+03 -0.99489909192E+03  0.11828534231E+04  0.10100000352E+00 0. -1.
</event>
<event>
 5   0  0.1977015E-06  0.3179055E+04  0.7818609E-02  0.8194371E-01
       -1   -1    0    0    0  501  0.00000000000E+00  0.00000000000E+00  0.19451892955E+04  0.19451892955E+04  0.50400001928E-02 0.  1.
        1   -1    0    0  501    0  0.00000000000E+00  0.00000000000E+00 -0.12988952108E+04  0.12988952108E+04  0.50400001928E-02 0. -1.
    10030    2    1    2    0    0  0.00000000000E+00  0.00000000000E+00  0.64629408466E+03  0.32440845063E+04  0.31790546142E+04 0.  0.
        1    1    3    3  502    0  0.16486363555E+03  0.11796183850E+04  0.13972548723E+04  0.18360285212E+04  0.50400001928E-02 0.  1.
       -1    1    3    3    0  502 -0.16486363555E+03 -0.11796183850E+04 -0.75096078765E+03  0.14080559851E+04  0.50400001928E-02 0. -1.
</event>
<event>
 5   0  0.5347280E-06  0.3207411E+04  0.7818609E-02  0.8186863E-01
       -2   -1    0    0    0  501  0.00000000000E+00  0.00000000000E+00  0.15046389439E+04  0.15046389439E+04  0.25500000920E-02 0.  1.
        2   -1    0    0  501    0  0.00000000000E+00  0.00000000000E+00 -0.17092942887E+04  0.17092942887E+04  0.25500000920E-02 0. -1.
    10030    2    1    2    0    0  0.00000000000E+00  0.00000000000E+00 -0.20465534481E+03  0.32139332327E+04  0.32074106401E+04 0.  0.
        2    1    3    3  502    0 -0.14141679685E+04  0.25384719559E+03  0.61155450620E+03  0.15615083592E+04  0.25500000920E-02 0. -1.
       -2    1    3    3    0  502  0.14141679685E+04 -0.25384719559E+03 -0.81620985101E+03  0.16524248735E+04  0.25500000920E-02 0.  1.
</event>
<event>
 5   0  0.1886248E-06  0.3068409E+04  0.7818609E-02  0.8224462E-01
        1   -1    0    0  501    0  0.00000000000E+00  0.00000000000E+00  0.12902294978E+04  0.12902294978E+04  0.50400001928E-02 0.  1.
       -1   -1    0    0    0  501  0.00000000000E+00  0.00000000000E+00 -0.18243137524E+04  0.18243137524E+04  0.50400001928E-02 0. -1.
    10030    2    1    2    0    0  0.00000000000E+00  0.00000000000E+00 -0.53408425458E+03  0.31145432503E+04  0.30684089797E+04 0.  0.
        4    1    3    3  502    0  0.82542841236E+03 -0.17084925607E+03 -0.15682128982E+04  0.17803973824E+04  0.12699999809E+01 0. -1.
       -4    1    3    3    0  502 -0.82542841236E+03  0.17084925607E+03  0.10341286436E+04  0.13341458679E+04  0.12699999809E+01 0.  1.
</event>
<event>
 5   0  0.1977015E-06  0.2787608E+04  0.7818609E-02  0.8307126E-01
        1   -1    0    0  501    0  0.00000000000E+00  0.00000000000E+00  0.20261422773E+04  0.20261422773E+04  0.50400001928E-02 0.  1.
       -1   -1    0    0    0  501  0.00000000000E+00  0.00000000000E+00 -0.95881206991E+03  0.95881206992E+03  0.50400001928E-02 0. -1.
    10030    2    1    2    0    0  0.00000000000E+00  0.00000000000E+00  0.10673302074E+04  0.29849543472E+04  0.27876080577E+04 0.  0.
        1    1    3    3  502    0 -0.77755728381E+03 -0.95812839865E+03  0.12276886644E+04  0.17406391972E+04  0.50400001928E-02 0.  1.
       -1    1    3    3    0  502  0.77755728381E+03  0.95812839865E+03 -0.16035845703E+03  0.12443151501E+04  0.50400001928E-02 0. -1.
</event>
<event>
 5   0  0.1969465E-06  0.3135448E+04  0.7818609E-02  0.8206076E-01
       -1   -1    0    0    0  501  0.00000000000E+00  0.00000000000E+00  0.29978894853E+04  0.29978894853E+04  0.50400001928E-02 0. -1.
        1   -1    0    0  501    0  0.00000000000E+00  0.00000000000E+00 -0.81982952909E+03  0.81982952910E+03  0.50400001928E-02 0.  1.
    10030    2    1    2    0    0  0.00000000000E+00  0.00000000000E+00  0.21780599562E+04  0.38177190144E+04  0.31354478628E+04 0.  0.
        2    1    3    3  502    0  0.74936828776E+02 -0.12645378426E+04 -0.35577582759E+02  0.12672557942E+04  0.25500000920E-02 0.  1.
       -2    1    3    3    0  502 -0.74936828776E+02  0.12645378426E+04  0.22136375390E+04  0.25504632202E+04  0.25500000920E-02 0. -1.
</event>
<event>
 5   0  0.1846850E-06  0.3189957E+04  0.7818609E-02  0.8191475E-01
        1   -1    0    0  501    0  0.00000000000E+00  0.00000000000E+00  0.27899852320E+04  0.27899852320E+04  0.50400001928E-02 0.  1.
       -1   -1    0    0    0  501  0.00000000000E+00  0.00000000000E+00 -0.91181696345E+03  0.91181696346E+03  0.50400001928E-02 0. -1.
    10030    2    1    2    0    0  0.00000000000E+00  0.00000000000E+00  0.18781682685E+04  0.37018021954E+04  0.31899566532E+04 0.  0.
        5    1    3    3  502    0 -0.11492336386E+04  0.25098950092E+03  0.21890405608E+04  0.24850863873E+04  0.46999998093E+01 0.  1.
       -5    1    3    3    0  502  0.11492336386E+04 -0.25098950092E+03 -0.31087229225E+03  0.12167158081E+04  0.46999998093E+01 0. -1.
</event>
<event>
 5   0  0.5121624E-06  0.3260516E+04  0.7818609E-02  0.8173015E-01
        2   -1    0    0  501    0  0.00000000000E+00  0.00000000000E+00  0.95595008395E+03  0.95595008395E+03  0.25500000920E-02 0. -1.
       -2   -1    0    0    0  501  0.00000000000E+00  0.00000000000E+00 -0.27802098669E+04  0.27802098669E+04  0.25500000920E-02 0.  1.
    10030    2    1    2    0    0  0.00000000000E+00  0.00000000000E+00 -0.18242597829E+04  0.37361599508E+04  0.32605164349E+04 0.  0.
        4    1    3    3  502    0  0.10593607177E+04  0.11019524109E+04 -0.26271217981E+03  0.15509879266E+04  0.12699999809E+01 0. -1.
       -4    1    3    3    0  502 -0.10593607177E+04 -0.11019524109E+04 -0.15615476031E+04  0.21851720243E+04  0.12699999809E+01 0.  1.
</event>
<event>
 5   0  0.5121624E-06  0.3151464E+04  0.7818609E-02  0.8201754E-01
       -2   -1    0    0    0  501  0.00000000000E+00  0.00000000000E+00  0.28324951181E+04  0.28324951181E+04  0.25500000920E-02 0. -1.
        2   -1    0    0  501    0  0.00000000000E+00  0.00000000000E+00 -0.87658829565E+03  0.87658829566E+03  0.25500000920E-02 0.  1.
    10030    2    1    2    0    0  0.00000000000E+00  0.00000000000E+00  0.19559068224E+04  0.37090834137E+04  0.31514644646E+04 0.  0.
        4    1    3    3  502    0 -0.84787096096E+03  0.13021786663E+04  0.12857090803E+04  0.20168301608E+04  0.12699999809E+01 0.  1.
       -4    1    3    3    0  502  0.84787096096E+03 -0.13021786663E+04  0.67019774213E+03  0.16922532529E+04  0.12699999809E+01 0. -1.
</event>
<event>
 5   0  0.1969465E-06  0.3122629E+04  0.7818609E-02  0.8209555E-01
       -1   -1    0    0    0  501  0.00000000000E+00  0.00000000000E+00  0.14656909658E+04  0.14656909658E+04  0.50400001928E-02 0.  1.
        1   -1    0    0  501    0  0.00000000000E+00  0.00000000000E+00 -0.16631768167E+04  0.16631768167E+04  0.50400001928E-02 0. -1.
    10030    2    1    2    0    0  0.00000000000E+00  0.00000000000E+00 -0.19748585088E+03  0.31288677825E+04  0.31226291709E+04 0.  0.
        2    1    3    3  502    0  0.36066638792E+03 -0.12991365336E+04  0.69014652349E+03  0.15146412778E+04  0.25500000920E-02 0.  1.
       -2    1    3    3    0  502 -0.36066638792E+03  0.12991365336E+04 -0.88763237437E+03  0.16142265047E+04  0.25500000920E-02 0. -1.
</event>
<event>
 5   0  0.5121624E-06  0.3251615E+04  0.7818609E-02  0.8175317E-01
        2   -1    0    0  501    0  0.00000000000E+00  0.00000000000E+00  0.21162975100E+04  0.21162975100E+04  0.25500000920E-02 0. -1.
       -2   -1    0    0    0  501  0.00000000000E+00  0.00000000000E+00 -0.12489977060E+04  0.12489977060E+04  0.25500000920E-02 0.  1.
    10030    2    1    2    0    0  0.00000000000E+00  0.00000000000E+00  0.86729980398E+03  0.33652952159E+04  0.32516154355E+04 0.  0.
        4    1    3    3  502    0 -0.58913063715E+03  0.14829726869E+04  0.75593055480E+03  0.17657053872E+04  0.12699999809E+01 0.  1.
       -4    1    3    3    0  502  0.58913063715E+03 -0.14829726869E+04  0.11136924918E+03  0.15995898288E+04  0.12699999809E+01 0. -1.
</event>
<event>
 5   0  0.5108810E-06  0.3207533E+04  0.7818609E-02  0.8186831E-01
        2   -1    0    0  501    0  0.00000000000E+00  0.00000000000E+00  0.15250319870E+04  0.15250319870E+04  0.25500000920E-02 0. -1.
       -2   -1    0    0    0  501  0.00000000000E+00  0.00000000000E+00 -0.16865658084E+04  0.16865658084E+04  0.25500000920E-02 0.  1.
    10030    2    1    2    0    0  0.00000000000E+00  0.00000000000E+00 -0.16153382134E+03  0.32115977954E+04  0.32075328875E+04 0.  0.
        1    1    3    3  502    0 -0.86523210160E+03 -0.72817765324E+03  0.10578626772E+04  0.15485292145E+04  0.50400001928E-02 0. -1.
       -1    1    3    3    0  502  0.86523210160E+03  0.72817765324E+03 -0.12193964985E+04  0.16630685809E+04  0.50400001928E-02 0.  1.
</event>
<event>
 5   0  0.5121624E-06  0.3171701E+04  0.7818609E-02  0.8196331E-01
       -2   -1    0    0    0  501  0.00000000000E+00  0.00000000000E+00  0.91722406772E+03  0.91722406772E+03  0.25500000920E-02 0.  1.
        2   -1    0    0  501    0  0.00000000000E+00  0.00000000000E+00 -0.27418842463E+04  0.27418842463E+04  0.25500000920E-02 0. -1.
    10030    2    1    2    0    0  0.00000000000E+00  0.00000000000E+00 -0.18246601786E+04  0.36591083140E+04  0.31717012606E+04 0.  0.
        4    1    3    3  502    0  0.14785816906E+04  0.33844231523E+02 -0.25203821448E+03  0.15002913457E+04  0.12699999809E+01 0.  1.
       -4    1    3    3    0  502 -0.14785816906E+04 -0.33844231523E+02 -0.15726219641E+04  0.21588169683E+04  0.12699999809E+01 0. -1.
</event>
<event>
 5   0  0.1846850E-06  0.3130677E+04  0.7818609E-02  0.8207369E-01
        1   -1    0    0  501    0  0.00000000000E+00  0.00000000000E+00  0.14641047860E+04  0.14641047860E+04  0.50400001928E-02 0.  1.
       -1   -1    0    0    0  501  0.00000000000E+00  0.00000000000E+00 -0.16735713826E+04  0.16735713826E+04  0.50400001928E-02 0. -1.
    10030    2    1    2    0    0  0.00000000000E+00  0.00000000000E+00 -0.20946659657E+03  0.31376761686E+04  0.31306765218E+04 0.  0.
        5    1    3    3  502    0  0.13093371250E+03  0.50579994241E+03 -0.15835948549E+04  0.16675646834E+04  0.46999998093E+01 0. -1.
       -5    1    3    3    0  502 -0.13093371250E+03 -0.50579994241E+03  0.13741282583E+04  0.14701114852E+04  0.46999998093E+01 0.  1.
</event>
<event>
 5   0  0.5373060E-06  0.3240381E+04  0.7818609E-02  0.8178233E-01
       -2   -1    0    0    0  501  0.00000000000E+00  0.00000000000E+00  0.11247598887E+04  0.11247598887E+04  0.25500000920E-02 0. -1.
        2   -1    0    0  501    0  0.00000000000E+00  0.00000000000E+00 -0.23338466457E+04  0.23338466457E+04  0.25500000920E-02 0.  1.
    10030    2    1    2    0    0  0.00000000000E+00  0.00000000000E+00 -0.12090867570E+04  0.34586065344E+04  0.32403808995E+04 0.  0.
        5    1    3    3  502    0  0.10678466166E+04 -0.12173881101E+04 -0.54944521948E+03  0.17100416213E+04  0.46999998093E+01 0.  1.
       -5    1    3    3    0  502 -0.10678466166E+04  0.12173881101E+04 -0.65964153752E+03  0.17485649131E+04  0.46999998093E+01 0. -1.
</event>
<event>
 5   0  0.1846850E-06  0.3156718E+04  0.7818609E-02  0.8200342E-01
        1   -1    0    0  501    0  0.00000000000E+00  0.00000000000E+00  0.18167648317E+04  0.18167648317E+04  0.50400001928E-02 0.  1.
       -1   -1    0    0    0  501  0.00000000000E+00  0.00000000000E+00 -0.13712382102E+04  0.13712382102E+04  0.50400001928E-02 0. -1.
    10030    2    1    2    0    0  0.00000000000E+00  0.00000000000E+00  0.44552662152E+03  0.31880030420E+04  0.31567181415E+04 0.  0.
        5    1    3    3  502    0 -0.36054147286E+02 -0.15779396038E+04  0.22134526300E+03  0.15938033474E+04  0.46999998093E+01 0.  1.
       -5    1    3    3    0  502  0.36054147286E+02  0.15779396038E+04  0.22418135852E+03  0.15941996946E+04  0.46999998093E+01 0. -1.
</event>
<event>
 5   0  0.1881144E-06  0.2779834E+04  0.7818609E-02  0.8309557E-01
        1   -1    0    0  501    0  0.00000000000E+00  0.00000000000E+00  0.11635898506E+04  0.11635898506E+04  0.50400001928E-02 0. -1.
       -1   -1    0    0    0  501  0.00000000000E+00  0.00000000000E+00 -0.16602660845E+04  0.16602660845E+04  0.50400001928E-02 0.  1.
    10030    2    1    2    0    0  0.00000000000E+00  0.00000000000E+00 -0.49667623394E+03  0.28238559351E+04  0.27798336391E+04 0.  0.
        3    1    3    3  502    0 -0.53482699467E+03 -0.54436429902E+03  0.93173682272E+03  0.12043695119E+04  0.10100000352E+00 0. -1.
       -3    1    3    3    0  502  0.53482699467E+03  0.54436429902E+03 -0.14284130567E+04  0.16194864232E+04  0.10100000352E+00 0.  1.
</event>
<event>
 5   0  0.5131083E-06  0.3183806E+04  0.7818609E-02  0.8193107E-01
        2   -1    0    0  501    0  0.00000000000E+00  0.00000000000E+00  0.16749025538E+04  0.16749025539E+04  0.25500000920E-02 0.  1.
       -2   -1    0    0    0  501  0.00000000000E+00  0.00000000000E+00 -0.15130163176E+04  0.15130163176E+04  0.25500000920E-02 0. -1.
    10030    2    1    2    0    0  0.00000000000E+00  0.00000000000E+00  0.16188623622E+03  0.31879188715E+04  0.31838058323E+04 0.  0.
        3    1    3    3  502    0  0.14177098772E+04  0.62281778638E+03  0.45067831513E+03  0.16127350200E+04  0.10100000352E+00 0.  1.
       -3    1    3    3    0  502 -0.14177098772E+04 -0.62281778638E+03 -0.28879207891E+03  0.15751838515E+04  0.10100000352E+00 0. -1.
</event>
<event>
 5   0  0.1977015E-06  0.2315903E+04  0.7818609E-02  0.8471677E-01
       -1   -1    0    0    0  501  0.00000000000E+00  0.00000000000E+00  0.21812990654E+04  0.21812990654E+04  0.50400001928E-02 0.  1.
        1   -1    0    0  501    0  0.00000000000E+00  0.00000000000E+00 -0.61470342935E+03  0.61470342937E+03  0.50400001928E-02 0. -1.
    10030    2    1    2    0    0  0.00000000000E+00  0.00000000000E+00  0.15665956360E+04  0.27960024948E+04  0.23159032933E+04 0.  0.
        1    1    3    3  502    0 -0.88879116827E+02  0.46191538151E+03 -0.49415832588E+03  0.68224465417E+03  0.50400001928E-02 0. -1.
       -1    1    3    3    0  502  0.88879116827E+02 -0.46191538151E+03  0.20607539619E+04  0.21137578406E+04  0.50400001928E-02 0.  1.
</event>
<event>
 5   0  0.1886248E-06  0.3166675E+04  0.7818609E-02  0.8197674E-01
       -1   -1    0    0    0  501  0.00000000000E+00  0.00000000000E+00  0.14242618770E+04  0.14242618770E+04  0.50400001928E-02 0. -1.
        1   -1    0    0  501    0  0.00000000000E+00  0.00000000000E+00 -0.17601798800E+04  0.17601798800E+04  0.50400001928E-02 0.  1.
    10030    2    1    2    0    0  0.00000000000E+00  0.00000000000E+00 -0.33591800296E+03  0.31844417570E+04  0.31666746595E+04 0.  0.
        4    1    3    3  502    0  0.15749758554E+04 -0.87714978672E+02 -0.30397403304E+02  0.15777098839E+04  0.12699999809E+01 0.  1.
       -4    1    3    3    0  502 -0.15749758554E+04  0.87714978672E+02 -0.30552059965E+03  0.16067318732E+04  0.12699999809E+01 0. -1.
</event>
<event>
 5   0  0.1846850E-06  0.3238692E+04  0.7818609E-02  0.8178673E-01
       -1   -1    0    0    0  501  0.00000000000E+00  0.00000000000E+00  0.14848217441E+04  0.14848217441E+04  0.50400001928E-02 0.  1.
        1   -1    0    0  501    0  0.00000000000E+00  0.00000000000E+00 -0.17660581727E+04  0.17660581727E+04  0.50400001928E-02 0. -1.
    10030    2    1    2    0    0  0.00000000000E+00  0.00000000000E+00 -0.28123642854E+03  0.32508799168E+04  0.32386920670E+04 0.  0.
        5    1    3    3  502    0 -0.48680335793E+03  0.52494242300E+03  0.13173344217E+04  0.14993112170E+04  0.46999998093E+01 0.  1.
       -5    1    3    3    0  502  0.48680335793E+03 -0.52494242300E+03 -0.15985708503E+04  0.17515686998E+04  0.46999998093E+01 0. -1.
</event>
<event>
 5   0  0.1977015E-06  0.3265841E+04  0.7818609E-02  0.8171642E-01
        1   -1    0    0  501    0  0.00000000000E+00  0.00000000000E+00  0.26168135143E+04  0.26168135143E+04  0.50400001928E-02 0. -1.
       -1   -1    0    0    0  501  0.00000000000E+00  0.00000000000E+00 -0.10189605260E+04  0.10189605260E+04  0.50400001928E-02 0.  1.
    10030    2    1    2    0    0  0.00000000000E+00  0.00000000000E+00  0.15978529882E+04  0.36357740403E+04  0.32658411933E+04 0.  0.
        1    1    3    3  502    0  0.46787467000E+03 -0.53854660575E+03  0.24341467943E+04  0.25365349928E+04  0.50400001928E-02 0. -1.
       -1    1    3    3    0  502 -0.46787467000E+03  0.53854660575E+03 -0.83629380609E+03  0.10992390475E+04  0.50400001928E-02 0.  1.
</event>
<event>
 5   0  0.1977015E-06  0.3238510E+04  0.7818609E-02  0.8178720E-01
       -1   -1    0    0    0  501  0.00000000000E+00  0.00000000000E+00  0.15456790737E+04  0.15456790737E+04  0.50400001928E-02 0.  1.
        1   -1    0    0  501    0  0.00000000000E+00  0.00000000000E+00 -0.16963331040E+04  0.16963331040E+04  0.50400001928E-02 0. -1.
    10030    2    1    2    0    0  0.00000000000E+00  0.00000000000E+00 -0.15065403033E+03  0.32420121778E+04  0.32385098925E+04 0.  0.
        1    1    3    3  502    0 -0.13035362648E+04 -0.83770649431E+03  0.39531715571E+03  0.15991355846E+04  0.50400001928E-02 0.  1.
       -1    1    3    3    0  502  0.13035362648E+04  0.83770649431E+03 -0.54597118604E+03  0.16428765932E+04  0.50400001928E-02 0. -1.
</event>
<event>
 5   0  0.5121624E-06  0.3299220E+04  0.7818609E-02  0.8163094E-01
       -2   -1    0    0    0  501  0.00000000000E+00  0.00000000000E+00  0.14082645022E+04  0.14082645022E+04  0.25500000920E-02 0. -1.
        2   -1    0    0  501    0  0.00000000000E+00  0.00000000000E+00 -0.19323172538E+04  0.19323172538E+04  0.25500000920E-02 0.  1.
    10030    2    1    2    0    0  0.00000000000E+00  0.00000000000E+00 -0.52405275163E+03  0.33405817559E+04  0.32992203900E+04 0.  0.
        4    1    3    3  502    0 -0.12343307840E+04 -0.81553386942E+03 -0.10009313826E+04  0.17862063772E+04  0.12699999809E+01 0.  1.
       -4    1    3    3    0  502  0.12343307840E+04  0.81553386942E+03  0.47687863092E+03  0.15543753787E+04  0.12699999809E+01 0. -1.
</event>
<event>
 5   0  0.1886248E-06  0.3214377E+04  0.7818609E-02  0.8185030E-01
        1   -1    0    0  501    0  0.00000000000E+00  0.00000000000E+00  0.99855564339E+03  0.99855564340E+03  0.50400001928E-02 0. -1.
       -1   -1    0    0    0  501  0.00000000000E+00  0.00000000000E+00 -0.25867916599E+04  0.25867916599E+04  0.50400001928E-02 0.  1.
    10030    2    1    2    0    0  0.00000000000E+00  0.00000000000E+00 -0.15882360165E+04  0.35853473033E+04  0.32143773334E+04 0.  0.
        4    1    3    3  502    0  0.97068012868E+02 -0.10957243954E+04 -0.21011094688E+04  0.23716443162E+04  0.12699999809E+01 0.  1.
       -4    1    3    3    0  502 -0.97068012868E+02  0.10957243954E+04  0.51287345229E+03  0.12137029871E+04  0.12699999809E+01 0. -1.
</event>
<event>
 5   0  0.1977015E-06  0.2262120E+04  0.7818609E-02  0.8493008E-01
       -1   -1    0    0    0  501  0.00000000000E+00  0.00000000000E+00  0.65889610930E+03  0.65889610932E+03  0.50400001928E-02 0.  1.
        1   -1    0    0  501    0  0.00000000000E+00  0.00000000000E+00 -0.19415756369E+04  0.19415756369E+04  0.50400001928E-02 0. -1.
    10030    2    1    2    0    0  0.00000000000E+00  0.00000000000E+00 -0.12826795276E+04  0.26004717462E+04  0.22621199200E+04 0.  0.
        1    1    3    3  502    0 -0.90231223941E+02 -0.72978128069E+03 -0.16292866439E+04  0.17875394707E+04  0.50400001928E-02 0. -1.
       -1    1    3    3    0  502  0.90231223941E+02  0.72978128069E+03  0.34660711631E+03  0.81293227548E+03  0.50400001928E-02 0.  1.
</event>
<event>
 5   0  0.1881144E-06  0.2955259E+04  0.7818609E-02  0.8256624E-01
        1   -1    0    0  501    0  0.00000000000E+00  0.00000000000E+00  0.21581432461E+04  0.21581432461E+04  0.50400001928E-02 0. -1.
       -1   -1    0    0    0  501  0.00000000000E+00  0.00000000000E+00 -0.10116978594E+04  0.10116978594E+04  0.50400001928E-02 0.  1.
    10030    2    1    2    0    0  0.00000000000E+00  0.00000000000E+00  0.11464453867E+04  0.31698411054E+04  0.29552589750E+04 0.  0.
        3    1    3    3  502    0 -0.90862759910E+03 -0.33425663982E+03  0.17705446614E+04  0.20179593711E+04  0.10100000352E+00 0. -1.
       -3    1    3    3    0  502  0.90862759910E+03  0.33425663982E+03 -0.62409927468E+03  0.11518817344E+04  0.10100000352E+00 0.  1.
</event>
<event>
 5   0  0.1881144E-06  0.2022577E+04  0.7818609E-02  0.8596137E-01
        1   -1    0    0  501    0  0.00000000000E+00  0.00000000000E+00  0.15975613339E+04  0.15975613339E+04  0.50400001928E-02 0.  1.
       -1   -1    0    0    0  501  0.00000000000E+00  0.00000000000E+00 -0.64016599161E+03  0.64016599163E+03  0.50400001928E-02 0. -1.
    10030    2    1    2    0    0  0.00000000000E+00  0.00000000000E+00  0.95739534231E+03  0.22377273256E+04  0.20225770052E+04 0.  0.
        3    1    3    3  502    0  0.30131716693E+03 -0.63239850105E+02 -0.58705334524E+03  0.66288985065E+03  0.10100000352E+00 0. -1.
       -3    1    3    3    0  502 -0.30131716693E+03  0.63239850105E+02  0.15444486875E+04  0.15748374749E+04  0.10100000352E+00 0.  1.
</event>
<event>
 5   0  0.5121624E-06  0.3214360E+04  0.7818609E-02  0.8185035E-01
        2   -1    0    0  501    0  0.00000000000E+00  0.00000000000E+00  0.97352350616E+03  0.97352350616E+03  0.25500000920E-02 0.  1.
       -2   -1    0    0    0  501  0.00000000000E+00  0.00000000000E+00 -0.26532762298E+04  0.26532762298E+04  0.25500000920E-02 0. -1.
    10030    2    1    2    0    0  0.00000000000E+00  0.00000000000E+00 -0.16797527237E+04  0.36267997360E+04  0.32143595182E+04 0.  0.
        4    1    3    3  502    0 -0.10832756483E+04 -0.37364709690E+03 -0.21113825665E+04  0.24022981160E+04  0.12699999809E+01 0. -1.
       -4    1    3    3    0  502  0.10832756483E+04  0.37364709690E+03  0.43162984283E+03  0.12245016200E+04  0.12699999809E+01 0.  1.
</event>
<event>
 5   0  0.1969465E-06  0.3220864E+04  0.7818609E-02  0.8183329E-01
       -1   -1    0    0    0  501  0.00000000000E+00  0.00000000000E+00  0.21857565755E+04  0.21857565755E+04  0.50400001928E-02 0.  1.
        1   -1    0    0  501    0  0.00000000000E+00  0.00000000000E+00 -0.11865415063E+04  0.11865415063E+04  0.50400001928E-02 0. -1.
    10030    2    1    2    0    0  0.00000000000E+00  0.00000000000E+00  0.99921506920E+03  0.33722980817E+04  0.32208637968E+04 0.  0.
        2    1    3    3  502    0  0.15877747421E+04 -0.26828164827E+03  0.52271851549E+03  0.16929968461E+04  0.25500000920E-02 0. -1.
       -2    1    3    3    0  502 -0.15877747421E+04  0.26828164827E+03  0.47649655371E+03  0.16793012357E+04  0.25500000920E-02 0.  1.
</event>
<event>
 5   0  0.1886248E-06  0.3158743E+04  0.7818609E-02  0.8199799E-01
        1   -1    0    0  501    0  0.00000000000E+00  0.00000000000E+00  0.16604272514E+04  0.16604272514E+04  0.50400001928E-02 0.  1.
       -1   -1    0    0    0  501  0.00000000000E+00  0.00000000000E+00 -0.15022727982E+04  0.15022727982E+04  0.50400001928E-02 0. -1.
    10030    2    1    2    0    0  0.00000000000E+00  0.00000000000E+00  0.15815445319E+03  0.31627000496E+04  0.31587432268E+04 0.  0.
        4    1    3    3  502    0  0.15062285626E+04  0.40372247282E+03 -0.17162964579E+03  0.15688131393E+04  0.12699999809E+01 0. -1.
       -4    1    3    3    0  502 -0.15062285626E+04 -0.40372247282E+03  0.32978409897E+03  0.15938869103E+04  0.12699999809E+01 0.  1.
</event>
<event>
 5   0  0.5121624E-06  0.2100268E+04  0.7818609E-02  0.8561125E-01
       -2   -1    0    0    0  501  0.00000000000E+00  0.00000000000E+00  0.12007748153E+04  0.12007748153E+04  0.25500000920E-02 0. -1.
        2   -1    0    0  501    0  0.00000000000E+00  0.00000000000E+00 -0.91839138408E+03  0.91839138409E+03  0.25500000920E-02 0.  1.
    10030    2    1    2    0    0  0.00000000000E+00  0.00000000000E+00  0.28238343124E+03  0.21191661994E+04  0.21002678349E+04 0.  0.
        4    1    3    3  502    0 -0.32071832695E+03  0.38977494603E+03 -0.78796068129E+03  0.93577155436E+03  0.12699999809E+01 0.  1.
       -4    1    3    3    0  502  0.32071832695E+03 -0.38977494603E+03  0.10703441125E+04  0.11833946450E+04  0.12699999809E+01 0. -1.
</event>
<event>
 5   0  0.5373060E-06  0.2469865E+04  0.7818609E-02  0.8413800E-01
        2   -1    0    0  501    0  0.00000000000E+00  0.00000000000E+00  0.66322626277E+03  0.66322626277E+03  0.25500000920E-02 0.  1.
       -2   -1    0    0    0  501  0.00000000000E+00  0.00000000000E+00 -0.22994546542E+04  0.22994546542E+04  0.25500000920E-02 0. -1.
    10030    2    1    2    0    0  0.00000000000E+00  0.00000000000E+00 -0.16362283914E+04  0.29626809170E+04  0.24698653540E+04 0.  0.
        5    1    3    3  502    0  0.67333593465E+03  0.41761050676E+03 -0.19543539595E+04  0.21088625620E+04  0.46999998093E+01 0. -1.
       -5    1    3    3    0  502 -0.67333593465E+03 -0.41761050676E+03  0.31812556809E+03  0.85381835499E+03  0.46999998093E+01 0.  1.
</event>
<event>
 5   0  0.1886248E-06  0.3158191E+04  0.7818609E-02  0.8199947E-01
       -1   -1    0    0    0  501  0.00000000000E+00  0.00000000000E+00  0.16571150308E+04  0.16571150308E+04  0.50400001928E-02 0.  1.
        1   -1    0    0  501    0  0.00000000000E+00  0.00000000000E+00 -0.15047489084E+04  0.15047489084E+04  0.50400001928E-02 0. -1.
    10030    2    1    2    0    0  0.00000000000E+00  0.00000000000E+00  0.15236612238E+03  0.31618639392E+04  0.31581906426E+04 0.  0.
        4    1    3    3  502    0  0.65105819284E+03 -0.14026385911E+04  0.39634968808E+03  0.15963603841E+04  0.12699999809E+01 0.  1.
       -4    1    3    3    0  502 -0.65105819284E+03  0.14026385911E+04 -0.24398356570E+03  0.15655035551E+04  0.12699999809E+01 0. -1.
</event>
<event>
 5   0  0.5121624E-06  0.3040018E+04  0.7818609E-02  0.8232395E-01
       -2   -1    0    0    0  501  0.00000000000E+00  0.00000000000E+00  0.13848045848E+04  0.13848045848E+04  0.25500000920E-02 0.  1.
        2   -1    0    0  501    0  0.00000000000E+00  0.00000000000E+00 -0.16684136900E+04  0.16684136900E+04  0.25500000920E-02 0. -1.
    10030    2    1    2    0    0  0.00000000000E+00  0.00000000000E+00 -0.28360910515E+03  0.30532182748E+04  0.30400177152E+04 0.  0.
        4    1    3    3  502    0 -0.28440208103E+03  0.10544206140E+04 -0.12036265909E+04  0.16252402771E+04  0.12699999809E+01 0. -1.
       -4    1    3    3    0  502  0.28440208103E+03 -0.10544206140E+04  0.92001748575E+03  0.14279779977E+04  0.12699999809E+01 0.  1.
</event>
<event>
 5   0  0.5131083E-06  0.3227252E+04  0.7818609E-02  0.8181657E-01
        2   -1    0    0  501    0  0.00000000000E+00  0.00000000000E+00  0.27124593130E+04  0.27124593130E+04  0.25500000920E-02 0. -1.
       -2   -1    0    0    0  501  0.00000000000E+00  0.00000000000E+00 -0.95993664840E+03  0.95993664840E+03  0.25500000920E-02 0.  1.
    10030    2    1    2    0    0  0.00000000000E+00  0.00000000000E+00  0.17525226646E+04  0.36723959614E+04  0.32272521450E+04 0.  0.
        3    1    3    3  502    0 -0.59759276540E+02 -0.13828702684E+04  0.18200513683E+04  0.22865888008E+04  0.10100000352E+00 0. -1.
       -3    1    3    3    0  502  0.59759276540E+02  0.13828702684E+04 -0.67528703745E+02  0.13858071606E+04  0.10100000352E+00 0.  1.
</event>
<event>
 5   0  0.1846850E-06  0.3164450E+04  0.7818609E-02  0.8198269E-01
        1   -1    0    0  501    0  0.00000000000E+00  0.00000000000E+00  0.29428233721E+04  0.29428233721E+04  0.50400001928E-02 0.  1.
       -1   -1    0    0    0  501  0.00000000000E+00  0.00000000000E+00 -0.85069210971E+03  0.85069210972E+03  0.50400001928E-02 0. -1.
    10030    2    1    2    0    0  0.00000000000E+00  0.00000000000E+00  0.20921312624E+04  0.37935154818E+04  0.31644504249E+04 0.  0.
        5    1    3    3  502    0 -0.10467974911E+04  0.10834405362E+04  0.46643283006E+03  0.15770891091E+04  0.46999998093E+01 0.  1.
       -5    1    3    3    0  502  0.10467974911E+04 -0.10834405362E+04  0.16256984323E+04  0.22164263728E+04  0.46999998093E+01 0. -1.
</event>
<event>
 5   0  0.5347280E-06  0.3303978E+04  0.7818609E-02  0.8161884E-01
       -2   -1    0    0    0  501  0.00000000000E+00  0.00000000000E+00  0.27644922596E+04  0.27644922596E+04  0.25500000920E-02 0. -1.
        2   -1    0    0  501    0  0.00000000000E+00  0.00000000000E+00 -0.98718557552E+03  0.98718557552E+03  0.25500000920E-02 0.  1.
    10030    2    1    2    0    0  0.00000000000E+00  0.00000000000E+00  0.17773066841E+04  0.37516778352E+04  0.33039775316E+04 0.  0.
        2    1    3    3  502    0  0.81029686748E+03  0.13231630442E+04  0.24458619729E+03  0.15707208100E+04  0.25500000920E-02 0.  1.
       -2    1    3    3    0  502 -0.81029686748E+03 -0.13231630442E+04  0.15327204868E+04  0.21809570252E+04  0.25500000920E-02 0. -1.
</event>
<event>
 5   0  0.1729500E-06  0.3172993E+04  0.7818609E-02  0.8195986E-01
        3   -1    0    0  501    0  0.00000000000E+00  0.00000000000E+00  0.12549045771E+04  0.12549045811E+04  0.10100000352E+00 0. -1.
       -3   -1    0    0    0  501  0.00000000000E+00  0.00000000000E+00 -0.20057070686E+04  0.20057070711E+04  0.10100000352E+00 0.  1.
    10030    2    1    2    0    0  0.00000000000E+00  0.00000000000E+00 -0.75080249151E+03  0.32606116522E+04  0.31729929035E+04 0.  0.
        2    1    3    3  502    0  0.90284248084E+03 -0.19074003565E+02  0.96502750738E+03  0.13216529245E+04  0.25500000920E-02 0. -1.
       -2    1    3    3    0  502 -0.90284248084E+03  0.19074003565E+02 -0.17158299989E+04  0.19389587278E+04  0.25500000920E-02 0.  1.
</event>
<event>
 5   0  0.5347280E-06  0.3183714E+04  0.7818609E-02  0.8193132E-01
        2   -1    0    0  501    0  0.00000000000E+00  0.00000000000E+00  0.19114576445E+04  0.19114576445E+04  0.25500000920E-02 0.  1.
       -2   -1    0    0    0  501  0.00000000000E+00  0.00000000000E+00 -0.13256945357E+04  0.13256945357E+04  0.25500000920E-02 0. -1.
    10030    2    1    2    0    0  0.00000000000E+00  0.00000000000E+00  0.58576310876E+03  0.32371521802E+04  0.31837141546E+04 0.  0.
        2    1    3    3  502    0  0.70319723968E+03  0.11915121486E+04  0.10933833862E+04  0.17634270009E+04  0.25500000920E-02 0. -1.
       -2    1    3    3    0  502 -0.70319723968E+03 -0.11915121486E+04 -0.50762027740E+03  0.14737251794E+04  0.25500000920E-02 0.  1.
</event>
<event>
 5   0  0.1881144E-06  0.3258009E+04  0.7818609E-02  0.8173663E-01
        1   -1    0    0  501    0  0.00000000000E+00  0.00000000000E+00  0.21879620224E+04  0.21879620224E+04  0.50400001928E-02 0.  1.
       -1   -1    0    0    0  501  0.00000000000E+00  0.00000000000E+00 -0.12128437577E+04  0.12128437577E+04  0.50400001928E-02 0. -1.
    10030    2    1    2    0    0  0.00000000000E+00  0.00000000000E+00  0.97511826466E+03  0.34008057801E+04  0.32580092578E+04 0.  0.
        3    1    3    3  502    0  0.16638289254E+03 -0.11869125363E+04 -0.66406969600E+03  0.13701945873E+04  0.10100000352E+00 0. -1.
       -3    1    3    3    0  502 -0.16638289254E+03  0.11869125363E+04  0.16391879607E+04  0.20306111928E+04  0.10100000352E+00 0.  1.
</event>
<event>
 5   0  0.5131083E-06  0.3088287E+04  0.7818609E-02  0.8218960E-01
       -2   -1    0    0    0  501  0.00000000000E+00  0.00000000000E+00  0.13834420200E+04  0.13834420200E+04  0.25500000920E-02 0. -1.
        2   -1    0    0  501    0  0.00000000000E+00  0.00000000000E+00 -0.17235122680E+04  0.17235122680E+04  0.25500000920E-02 0.  1.
    10030    2    1    2    0    0  0.00000000000E+00  0.00000000000E+00 -0.34007024799E+03  0.31069542879E+04  0.30882870938E+04 0.  0.
        3    1    3    3  502    0  0.24897781996E+03 -0.51125556928E+03 -0.16143335503E+04  0.17115621618E+04  0.10100000352E+00 0.  1.
       -3    1    3    3    0  502 -0.24897781996E+03  0.51125556928E+03  0.12742633023E+04  0.13953921261E+04  0.10100000352E+00 0. -1.
</event>
<event>
 5   0  0.1886248E-06  0.3194143E+04  0.7818609E-02  0.8190366E-01
       -1   -1    0    0    0  501  0.00000000000E+00  0.00000000000E+00  0.13833628134E+04  0.13833628134E+04  0.50400001928E-02 0. -1.
        1   -1    0    0  501    0  0.00000000000E+00  0.00000000000E+00 -0.18437954923E+04  0.18437954923E+04  0.50400001928E-02 0.  1.
    10030    2    1    2    0    0  0.00000000000E+00  0.00000000000E+00 -0.46043267897E+03  0.32271583057E+04  0.31941434655E+04 0.  0.
        4    1    3    3  502    0  0.52706853951E+03 -0.82281838400E+03  0.10460925229E+04  0.14314826292E+04  0.12699999809E+01 0. -1.
       -4    1    3    3    0  502 -0.52706853951E+03  0.82281838400E+03 -0.15065252019E+04  0.17956756765E+04  0.12699999809E+01 0.  1.
</event>
<event>
 5   0  0.1977015E-06  0.3148699E+04  0.7818609E-02  0.8202498E-01
       -1   -1    0    0    0  501  0.00000000000E+00  0.00000000000E+00  0.15856936460E+04  0.15856936461E+04  0.50400001928E-02 0. -1.
        1   -1    0    0  501    0  0.00000000000E+00  0.00000000000E+00 -0.15630869595E+04  0.15630869595E+04  0.50400001928E-02 0.  1.
    10030    2    1    2    0    0  0.00000000000E+00  0.00000000000E+00  0.22606686564E+02  0.31487806055E+04  0.31486994521E+04 0.  0.
        1    1    3    3  502    0 -0.81215963555E+03  0.13305140953E+04 -0.20939676836E+03  0.15728057852E+04  0.50400001928E-02 0. -1.
       -1    1    3    3    0  502  0.81215963555E+03 -0.13305140953E+04  0.23200345492E+03  0.15759748204E+04  0.50400001928E-02 0.  1.
</event>
<event>
 5   0  0.5347280E-06  0.3193789E+04  0.7818609E-02  0.8190460E-01
        2   -1    0    0  501    0  0.00000000000E+00  0.00000000000E+00  0.28165817871E+04  0.28165817871E+04  0.25500000920E-02 0.  1.
       -2   -1    0    0    0  501  0.00000000000E+00  0.00000000000E+00 -0.90537804834E+03  0.90537804834E+03  0.25500000920E-02 0. -1.
    10030    2    1    2    0    0  0.00000000000E+00  0.00000000000E+00  0.19112037388E+04  0.37219598355E+04  0.31937885474E+04 0.  0.
        2    1    3    3  502    0  0.54803237427E+03  0.23064064481E+03 -0.77156682663E+03  0.97408929686E+03  0.25500000920E-02 0. -1.
       -2    1    3    3    0  502 -0.54803237427E+03 -0.23064064481E+03  0.26827705654E+04  0.27478705386E+04  0.25500000920E-02 0.  1.
</event>
<event>
 5   0  0.1881144E-06  0.3189657E+04  0.7818609E-02  0.8191554E-01
       -1   -1    0    0    0  501  0.00000000000E+00  0.00000000000E+00  0.10966381162E+04  0.10966381162E+04  0.50400001928E-02 0. -1.
        1   -1    0    0  501    0  0.00000000000E+00  0.00000000000E+00 -0.23193414160E+04  0.23193414160E+04  0.50400001928E-02 0.  1.
    10030    2    1    2    0    0  0.00000000000E+00  0.00000000000E+00 -0.12227032998E+04  0.34159795321E+04  0.31896571610E+04 0.  0.
        3    1    3    3  502    0 -0.24980074376E+01 -0.15576583003E+04 -0.97794470471E+03  0.18392067519E+04  0.10100000352E+00 0.  1.
       -3    1    3    3    0  502  0.24980074376E+01  0.15576583003E+04 -0.24475859510E+03  0.15767727803E+04  0.10100000352E+00 0. -1.
</event>
<event>
 5   0  0.5121624E-06  0.3230399E+04  0.7818609E-02  0.8180835E-01
       -2   -1    0    0    0  501  0.00000000000E+00  0.00000000000E+00  0.11887299633E+04  0.11887299633E+04  0.25500000920E-02 0. -1.
        2   -1    0    0  501    0  0.00000000000E+00  0.00000000000E+00 -0.21946693856E+04  0.21946693856E+04  0.25500000920E-02 0.  1.
    10030    2    1    2    0    0  0.00000000000E+00  0.00000000000E+00 -0.10059394223E+04  0.33833993488E+04  0.32303988968E+04 0.  0.
        4    1    3    3  502    0  0.21154976840E+03  0.44183563338E+03  0.11090489686E+04  0.12124204135E+04  0.12699999809E+01 0. -1.
       -4    1    3    3    0  502 -0.21154976840E+03 -0.44183563338E+03 -0.21149883909E+04  0.21709789354E+04  0.12699999809E+01 0.  1.
</event>
<event>
 5   0  0.5131083E-06  0.3192999E+04  0.7818609E-02  0.8190668E-01
        2   -1    0    0  501    0  0.00000000000E+00  0.00000000000E+00  0.15160095086E+04  0.15160095086E+04  0.25500000920E-02 0. -1.
       -2   -1    0    0    0  501  0.00000000000E+00  0.00000000000E+00 -0.16812632591E+04  0.16812632591E+04  0.25500000920E-02 0.  1.
    10030    2    1    2    0    0  0.00000000000E+00  0.00000000000E+00 -0.16525375048E+03  0.31972727677E+04  0.31929992717E+04 0.  0.
        3    1    3    3  502    0  0.12125379809E+04 -0.71128414266E+03 -0.84036789123E+03  0.16378008699E+04  0.10100000352E+00 0.  1.
       -3    1    3    3    0  502 -0.12125379809E+04  0.71128414266E+03  0.67511414075E+03  0.15594718978E+04  0.10100000352E+00 0. -1.
</event>
<event>
 5   0  0.5373060E-06  0.2408711E+04  0.7818609E-02  0.8436250E-01
       -2   -1    0    0    0  501  0.00000000000E+00  0.00000000000E+00  0.87738605528E+03  0.87738605529E+03  0.25500000920E-02 0. -1.
        2   -1    0    0  501    0  0.00000000000E+00  0.00000000000E+00 -0.16531742539E+04  0.16531742539E+04  0.25500000920E-02 0.  1.
    10030    2    1    2    0    0  0.00000000000E+00  0.00000000000E+00 -0.77578819862E+03  0.25305603092E+04  0.24087108895E+04 0.  0.
        5    1    3    3  502    0 -0.10804559107E+03  0.10095445839E+04 -0.10684246055E+04  0.14739088656E+04  0.46999998093E+01 0.  1.
       -5    1    3    3    0  502  0.10804559107E+03 -0.10095445839E+04  0.29263640690E+03  0.10566514436E+04  0.46999998093E+01 0. -1.
</event>
<event>
 5   0  0.1886248E-06  0.3326105E+04  0.7818609E-02  0.8156285E-01
       -1   -1    0    0    0  501  0.00000000000E+00  0.00000000000E+00  0.80036350245E+03  0.80036350246E+03  0.50400001928E-02 0. -1.
        1   -1    0    0  501    0  0.00000000000E+00  0.00000000000E+00 -0.34556091064E+04  0.34556091064E+04  0.50400001928E-02 0.  1.
    10030    2    1    2    0    0  0.00000000000E+00  0.00000000000E+00 -0.26552456039E+04  0.42559726088E+04  0.33261048736E+04 0.  0.
        4    1    3    3  502    0  0.13276555440E+04  0.98373168889E+03 -0.10870625328E+04  0.19779039012E+04  0.12699999809E+01 0. -1.
       -4    1    3    3    0  502 -0.13276555440E+04 -0.98373168889E+03 -0.15681830711E+04  0.22780687076E+04  0.12699999809E+01 0.  1.
</event>
<event>
 5   0  0.1881144E-06  0.3217296E+04  0.7818609E-02  0.8184264E-01
        1   -1    0    0  501    0  0.00000000000E+00  0.00000000000E+00  0.20469173715E+04  0.20469173715E+04  0.50400001928E-02 0. -1.
       -1   -1    0    0    0  501  0.00000000000E+00  0.00000000000E+00 -0.12642176100E+04  0.12642176100E+04  0.50400001928E-02 0.  1.
    10030    2    1    2    0    0  0.00000000000E+00  0.00000000000E+00  0.78269976154E+03  0.33111349815E+04  0.32172963726E+04 0.  0.
        3    1    3    3  502    0  0.33817353512E+02  0.84779883476E+02  0.20442501751E+04  0.20462868886E+04  0.10100000352E+00 0. -1.
       -3    1    3    3    0  502 -0.33817353512E+02 -0.84779883476E+02 -0.12615504135E+04  0.12648480929E+04  0.10100000352E+00 0.  1.
</event>
<event>
 5   0  0.1846850E-06  0.3379208E+04  0.7818609E-02  0.8143028E-01
       -1   -1    0    0    0  501  0.00000000000E+00  0.00000000000E+00  0.11753530690E+04  0.11753530690E+04  0.50400001928E-02 0.  1.
        1   -1    0    0  501    0  0.00000000000E+00  0.00000000000E+00 -0.24288541904E+04  0.24288541905E+04  0.50400001928E-02 0. -1.
    10030    2    1    2    0    0  0.00000000000E+00  0.00000000000E+00 -0.12535011215E+04  0.36042072594E+04  0.33792077337E+04 0.  0.
        5    1    3    3  502    0  0.68771020291E+03  0.63497230519E+03  0.87353630195E+03  0.12803214098E+04  0.46999998093E+01 0.  1.
       -5    1    3    3    0  502 -0.68771020291E+03 -0.63497230519E+03 -0.21270374234E+04  0.23238858496E+04  0.46999998093E+01 0. -1.
</event>
<event>
 5   0  0.5121624E-06  0.3170589E+04  0.7818609E-02  0.8196628E-01
       -2   -1    0    0    0  501  0.00000000000E+00  0.00000000000E+00  0.13307508721E+04  0.13307508721E+04  0.25500000920E-02 0.  1.
        2   -1    0    0  501    0  0.00000000000E+00  0.00000000000E+00 -0.18885263160E+04  0.18885263160E+04  0.25500000920E-02 0. -1.
    10030    2    1    2    0    0  0.00000000000E+00  0.00000000000E+00 -0.55777544389E+03  0.32192771880E+04  0.31705886153E+04 0.  0.
        4    1    3    3  502    0 -0.68892185392E+03 -0.13357997568E+03  0.11644545895E+04  0.13595635457E+04  0.12699999809E+01 0.  1.
       -4    1    3    3    0  502  0.68892185392E+03  0.13357997568E+03 -0.17222300334E+04  0.18597136424E+04  0.12699999809E+01 0. -1.
</event>
<event>
 5   0  0.5121624E-06  0.3298957E+04  0.7818609E-02  0.8163161E-01
        2   -1    0    0  501    0  0.00000000000E+00  0.00000000000E+00  0.15871449219E+04  0.15871449219E+04  0.25500000920E-02 0. -1.
       -2   -1    0    0    0  501  0.00000000000E+00  0.00000000000E+00 -0.17142601835E+04  0.17142601835E+04  0.25500000920E-02 0.  1.
    10030    2    1    2    0    0  0.00000000000E+00  0.00000000000E+00 -0.12711526159E+03  0.33014051055E+04  0.32989570141E+04 0.  0.
        4    1    3    3  502    0 -0.37110106918E+03  0.10671944697E+04  0.11390652735E+04  0.16043975038E+04  0.12699999809E+01 0. -1.
       -4    1    3    3    0  502  0.37110106918E+03 -0.10671944697E+04 -0.12661805351E+04  0.16970076017E+04  0.12699999809E+01 0.  1.
</event>
<event>
 5   0  0.5373060E-06  0.3195614E+04  0.7818609E-02  0.8189976E-01
       -2   -1    0    0    0  501  0.00000000000E+00  0.00000000000E+00  0.22127656887E+04  0.22127656887E+04  0.25500000920E-02 0. -1.
        2   -1    0    0  501    0  0.00000000000E+00  0.00000000000E+00 -0.11537540522E+04  0.11537540522E+04  0.25500000920E-02 0.  1.
    10030    2    1    2    0    0  0.00000000000E+00  0.00000000000E+00  0.10590116365E+04  0.33665197409E+04  0.31956141068E+04 0.  0.
        5    1    3    3  502    0 -0.78371400335E+03 -0.12680247531E+04  0.11354827708E+04  0.18738830343E+04  0.46999998093E+01 0.  1.
       -5    1    3    3    0  502  0.78371400335E+03  0.12680247531E+04 -0.76471134367E+02  0.14926367066E+04  0.46999998093E+01 0. -1.
</event>
<event>
 5   0  0.5121624E-06  0.3157858E+04  0.7818609E-02  0.8200036E-01
        2   -1    0    0  501    0  0.00000000000E+00  0.00000000000E+00  0.94784469198E+03  0.94784469198E+03  0.25500000920E-02 0.  1.
       -2   -1    0    0    0  501  0.00000000000E+00  0.00000000000E+00 -0.26301956163E+04  0.26301956163E+04  0.25500000920E-02 0. -1.
    10030    2    1    2    0    0  0.00000000000E+00  0.00000000000E+00 -0.16823509243E+04  0.35780403083E+04  0.31578581056E+04 0.  0.
        4    1    3    3  502    0 -0.72473273109E+03  0.94137586873E+03  0.33720031056E+03  0.12349622343E+04  0.12699999809E+01 0.  1.
       -4    1    3    3    0  502  0.72473273109E+03 -0.94137586873E+03 -0.20195512349E+04  0.23430780740E+04  0.12699999809E+01 0. -1.
</event>
<event>
 5   0  0.5347280E-06  0.3217715E+04  0.7818609E-02  0.8184154E-01
        2   -1    0    0  501    0  0.00000000000E+00  0.00000000000E+00  0.15208896872E+04  0.15208896872E+04  0.25500000920E-02 0. -1.
       -2   -1    0    0    0  501  0.00000000000E+00  0.00000000000E+00 -0.17019135483E+04  0.17019135483E+04  0.25500000920E-02 0.  1.
    10030    2    1    2    0    0  0.00000000000E+00  0.00000000000E+00 -0.18102386104E+03  0.32228032355E+04  0.32177151920E+04 0.  0.
        2    1    3    3  502    0 -0.12210104643E+04  0.68975688815E+03 -0.88029647601E+03  0.16557635714E+04  0.25500000920E-02 0.  1.
       -2    1    3    3    0  502  0.12210104643E+04 -0.68975688815E+03  0.69927261497E+03  0.15670396641E+04  0.25500000920E-02 0. -1.
</event>
<event>
 5   0  0.5373060E-06  0.3182430E+04  0.7818609E-02  0.8193473E-01
       -2   -1    0    0    0  501  0.00000000000E+00  0.00000000000E+00  0.16384145215E+04  0.16384145215E+04  0.25500000920E-02 0.  1.
        2   -1    0    0  501    0  0.00000000000E+00  0.00000000000E+00 -0.15453751552E+04  0.15453751552E+04  0.25500000920E-02 0. -1.
    10030    2    1    2    0    0  0.00000000000E+00  0.00000000000E+00  0.93039366354E+02  0.31837896767E+04  0.31824299492E+04 0.  0.
        5    1    3    3  502    0 -0.34510631515E+03  0.34695170151E+03  0.15612568010E+04  0.16361597540E+04  0.46999998093E+01 0.  1.
       -5    1    3    3    0  502  0.34510631515E+03 -0.34695170151E+03 -0.14682174347E+04  0.15476299226E+04  0.46999998093E+01 0. -1.
</event>
<event>
 5   0  0.5373060E-06  0.3172191E+04  0.7818609E-02  0.8196200E-01
        2   -1    0    0  501    0  0.00000000000E+00  0.00000000000E+00  0.10422385083E+04  0.10422385083E+04  0.25500000920E-02 0. -1.
       -2   -1    0    0    0  501  0.00000000000E+00  0.00000000000E+00 -0.24137455728E+04  0.24137455728E+04  0.25500000920E-02 0.  1.
    10030    2    1    2    0    0  0.00000000000E+00  0.00000000000E+00 -0.13715070645E+04  0.34559840812E+04  0.31721907795E+04 0.  0.
        5    1    3    3  502    0  0.94709218483E+03 -0.10412412314E+04 -0.14822616098E+04  0.20440862209E+04  0.46999998093E+01 0. -1.
       -5    1    3    3    0  502 -0.94709218483E+03  0.10412412314E+04  0.11075454530E+03  0.14118978603E+04  0.46999998093E+01 0.  1.
</event>
<event>
 5   0  0.1969465E-06  0.3058231E+04  0.7818609E-02  0.8227295E-01
       -1   -1    0    0    0  501  0.00000000000E+00  0.00000000000E+00  0.87134223507E+03  0.87134223508E+03  0.50400001928E-02 0.  1.
        1   -1    0    0  501    0  0.00000000000E+00  0.00000000000E+00 -0.26834400379E+04  0.26834400379E+04  0.50400001928E-02 0. -1.
    10030    2    1    2    0    0  0.00000000000E+00  0.00000000000E+00 -0.18120978029E+04  0.35547822730E+04  0.30582312799E+04 0.  0.
        2    1    3    3  502    0  0.78543860999E+03  0.48303737197E+03 -0.23239230506E+04  0.25001714457E+04  0.25500000920E-02 0. -1.
       -2    1    3    3    0  502 -0.78543860999E+03 -0.48303737197E+03  0.51182524776E+03  0.10546108273E+04  0.25500000920E-02 0.  1.
</event>
<event>
 5   0  0.1969465E-06  0.3069327E+04  0.7818609E-02  0.8224207E-01
        1   -1    0    0  501    0  0.00000000000E+00  0.00000000000E+00  0.31279682283E+04  0.31279682283E+04  0.50400001928E-02 0.  1.
       -1   -1    0    0    0  501  0.00000000000E+00  0.00000000000E+00 -0.75294638467E+03  0.75294638469E+03  0.50400001928E-02 0. -1.
    10030    2    1    2    0    0  0.00000000000E+00  0.00000000000E+00  0.23750218437E+04  0.38809146130E+04  0.30693272024E+04 0.  0.
        2    1    3    3  502    0  0.85901576918E+03  0.49015770974E+03  0.26712671410E+04  0.28484786836E+04  0.25500000920E-02 0. -1.
       -2    1    3    3    0  502 -0.85901576918E+03 -0.49015770974E+03 -0.29624529738E+03  0.10324359294E+04  0.25500000920E-02 0.  1.
</event>
<event>
 5   0  0.1729500E-06  0.3253686E+04  0.7818609E-02  0.8174781E-01
       -4   -1    0    0    0  501  0.00000000000E+00  0.00000000000E+00  0.13868161561E+04  0.13868167376E+04  0.12699999809E+01 0. -1.
        4   -1    0    0  501    0  0.00000000000E+00  0.00000000000E+00 -0.19084124657E+04  0.19084128883E+04  0.12699999809E+01 0.  1.
    10030    2    1    2    0    0  0.00000000000E+00  0.00000000000E+00 -0.52159630959E+03  0.32952296259E+04  0.32536864596E+04 0.  0.
        1    1    3    3  502    0 -0.61129272346E+03  0.11006383935E+04  0.78266516934E+03  0.14824467728E+04  0.50400001928E-02 0. -1.
       -1    1    3    3    0  502  0.61129272346E+03 -0.11006383935E+04 -0.13042614789E+04  0.18127828531E+04  0.50400001928E-02 0.  1.
</event>
<event>
 5   0  0.1846850E-06  0.3258085E+04  0.7818609E-02  0.8173643E-01
       -1   -1    0    0    0  501  0.00000000000E+00  0.00000000000E+00  0.16711277835E+04  0.16711277835E+04  0.50400001928E-02 0.  1.
        1   -1    0    0  501    0  0.00000000000E+00  0.00000000000E+00 -0.15880166155E+04  0.15880166155E+04  0.50400001928E-02 0. -1.
    10030    2    1    2    0    0  0.00000000000E+00  0.00000000000E+00  0.83111167957E+02  0.32591443990E+04  0.32580845212E+04 0.  0.
        5    1    3    3  502    0  0.79287452296E+03  0.30705385222E+03 -0.13484375618E+04  0.15941261009E+04  0.46999998093E+01 0. -1.
       -5    1    3    3    0  502 -0.79287452296E+03 -0.30705385222E+03  0.14315487298E+04  0.16650182981E+04  0.46999998093E+01 0.  1.
</event>
<event>
 5   0  0.5131083E-06  0.3232757E+04  0.7818609E-02  0.8180219E-01
        2   -1    0    0  501    0  0.00000000000E+00  0.00000000000E+00  0.30531989673E+04  0.30531989673E+04  0.25500000920E-02 0. -1.
       -2   -1    0    0    0  501  0.00000000000E+00  0.00000000000E+00 -0.85571878672E+03  0.85571878672E+03  0.25500000920E-02 0.  1.
    10030    2    1    2    0    0  0.00000000000E+00  0.00000000000E+00  0.21974801806E+04  0.39089177540E+04  0.32327571613E+04 0.  0.
        3    1    3    3  502    0 -0.29205636280E+02  0.58334198855E+03  0.29211393730E+04  0.29789588938E+04  0.10100000352E+00 0. -1.
       -3    1    3    3    0  502  0.29205636280E+02 -0.58334198855E+03 -0.72365919235E+03  0.92995886020E+03  0.10100000352E+00 0.  1.
</event>
<event>
 5   0  0.1881144E-06  0.3245489E+04  0.7818609E-02  0.8176906E-01
       -1   -1    0    0    0  501  0.00000000000E+00  0.00000000000E+00  0.11349500207E+04  0.11349500207E+04  0.50400001928E-02 0.  1.
        1   -1    0    0  501    0  0.00000000000E+00  0.00000000000E+00 -0.23201894380E+04  0.23201894380E+04  0.50400001928E-02 0. -1.
    10030    2    1    2    0    0  0.00000000000E+00  0.00000000000E+00 -0.11852394173E+04  0.34551394587E+04  0.32454885923E+04 0.  0.
        3    1    3    3  502    0 -0.53508905777E+03 -0.14832769784E+04 -0.10006095040E+04  0.18675251763E+04  0.10100000352E+00 0. -1.
       -3    1    3    3    0  502  0.53508905777E+03  0.14832769784E+04 -0.18462991326E+03  0.15876142824E+04  0.10100000352E+00 0.  1.
</event>
<event>
 5   0  0.1969465E-06  0.3179500E+04  0.7818609E-02  0.8194252E-01
        1   -1    0    0  501    0  0.00000000000E+00  0.00000000000E+00  0.96345604960E+03  0.96345604961E+03  0.50400001928E-02 0. -1.
       -1   -1    0    0    0  501  0.00000000000E+00  0.00000000000E+00 -0.26231656000E+04  0.26231656000E+04  0.50400001928E-02 0.  1.
    10030    2    1    2    0    0  0.00000000000E+00  0.00000000000E+00 -0.16597095504E+04  0.35866216496E+04  0.31794998138E+04 0.  0.
        2    1    3    3  502    0 -0.15415530439E+02 -0.48386545004E+03 -0.25379938804E+04  0.25837523777E+04  0.25500000920E-02 0.  1.
       -2    1    3    3    0  502  0.15415530439E+02  0.48386545004E+03  0.87828432997E+03  0.10028692719E+04  0.25500000920E-02 0. -1.
</event>
<event>
 5   0  0.1846850E-06  0.3254654E+04  0.7818609E-02  0.8174530E-01
        1   -1    0    0  501    0  0.00000000000E+00  0.00000000000E+00  0.18023773922E+04  0.18023773922E+04  0.50400001928E-02 0.  1.
       -1   -1    0    0    0  501  0.00000000000E+00  0.00000000000E+00 -0.14692779640E+04  0.14692779640E+04  0.50400001928E-02 0. -1.
    10030    2    1    2    0    0  0.00000000000E+00  0.00000000000E+00  0.33309942820E+03  0.32716553563E+04  0.32546541354E+04 0.  0.
        5    1    3    3  502    0 -0.51490012056E+03 -0.95206172897E+03  0.13880630099E+04  0.17601945005E+04  0.46999998093E+01 0.  1.
       -5    1    3    3    0  502  0.51490012056E+03  0.95206172897E+03 -0.10549635817E+04  0.15114608558E+04  0.46999998093E+01 0. -1.
</event>
<event>
 5   0  0.5347280E-06  0.2014482E+04  0.7818609E-02  0.8599880E-01
       -2   -1    0    0    0  501  0.00000000000E+00  0.00000000000E+00  0.69501381315E+03  0.69501381316E+03  0.25500000920E-02 0. -1.
        2   -1    0    0  501    0  0.00000000000E+00  0.00000000000E+00 -0.14597331503E+04  0.14597331503E+04  0.25500000920E-02 0.  1.
    10030    2    1    2    0    0  0.00000000000E+00  0.00000000000E+00 -0.76471933719E+03  0.21547469635E+04  0.20144822690E+04 0.  0.
        2    1    3    3  502    0 -0.21798835318E+03  0.44969566915E+03  0.55305421392E+03  0.74539525120E+03  0.25500000920E-02 0. -1.
       -2    1    3    3    0  502  0.21798835318E+03 -0.44969566915E+03 -0.13177735511E+04  0.14093517123E+04  0.25500000920E-02 0.  1.
</event>
<event>
 5   0  0.5121624E-06  0.3172692E+04  0.7818609E-02  0.8196066E-01
        2   -1    0    0  501    0  0.00000000000E+00  0.00000000000E+00  0.30188579697E+04  0.30188579697E+04  0.25500000920E-02 0. -1.
       -2   -1    0    0    0  501  0.00000000000E+00  0.00000000000E+00 -0.83359148534E+03  0.83359148535E+03  0.25500000920E-02 0.  1.
    10030    2    1    2    0    0  0.00000000000E+00  0.00000000000E+00  0.21852664843E+04  0.38524494550E+04  0.31726924206E+04 0.  0.
        4    1    3    3  502    0  0.94413571871E+03  0.12671623071E+02 -0.45521231324E+03  0.10482235870E+04  0.12699999809E+01 0.  1.
       -4    1    3    3    0  502 -0.94413571871E+03 -0.12671623071E+02  0.26404787976E+04  0.28042258680E+04  0.12699999809E+01 0. -1.
</event>
<event>
 5   0  0.1881144E-06  0.3091429E+04  0.7818609E-02  0.8218094E-01
       -1   -1    0    0    0  501  0.00000000000E+00  0.00000000000E+00  0.13773565901E+04  0.13773565901E+04  0.50400001928E-02 0. -1.
        1   -1    0    0  501    0  0.00000000000E+00  0.00000000000E+00 -0.17346517320E+04  0.17346517320E+04  0.50400001928E-02 0.  1.
    10030    2    1    2    0    0  0.00000000000E+00  0.00000000000E+00 -0.35729514184E+03  0.31120083221E+04  0.30914294393E+04 0.  0.
        3    1    3    3  502    0 -0.54567109022E+03  0.12800222945E+04 -0.85619559879E+03  0.16337946403E+04  0.10100000352E+00 0. -1.
       -3    1    3    3    0  502  0.54567109022E+03 -0.12800222945E+04  0.49890045695E+03  0.14782136818E+04  0.10100000352E+00 0.  1.
</event>
<event>
 5   0  0.5347280E-06  0.3188525E+04  0.7818609E-02  0.8191854E-01
       -2   -1    0    0    0  501  0.00000000000E+00  0.00000000000E+00  0.14633671892E+04  0.14633671892E+04  0.25500000920E-02 0.  1.
        2   -1    0    0  501    0  0.00000000000E+00  0.00000000000E+00 -0.17368664708E+04  0.17368664708E+04  0.25500000920E-02 0. -1.
    10030    2    1    2    0    0  0.00000000000E+00  0.00000000000E+00 -0.27349928158E+03  0.32002336600E+04  0.31885253051E+04 0.  0.
        2    1    3    3  502    0  0.66598092051E+03 -0.42869313615E+03  0.12519368002E+04  0.14814365134E+04  0.25500000920E-02 0.  1.
       -2    1    3    3    0  502 -0.66598092051E+03  0.42869313615E+03 -0.15254360818E+04  0.17187971466E+04  0.25500000920E-02 0. -1.
</event>
<event>
 5   0  0.1846850E-06  0.3201502E+04  0.7818609E-02  0.8188421E-01
       -1   -1    0    0    0  501  0.00000000000E+00  0.00000000000E+00  0.13298637956E+04  0.13298637956E+04  0.50400001928E-02 0.  1.
        1   -1    0    0  501    0  0.00000000000E+00  0.00000000000E+00 -0.19268171735E+04  0.19268171735E+04  0.50400001928E-02 0. -1.
    10030    2    1    2    0    0  0.00000000000E+00  0.00000000000E+00 -0.59695337789E+03  0.32566809692E+04  0.32015023973E+04 0.  0.
        5    1    3    3  502    0  0.51192746320E+03  0.61153295532E+03  0.11133710393E+04  0.13695471676E+04  0.46999998093E+01 0.  1.
       -5    1    3    3    0  502 -0.51192746320E+03 -0.61153295532E+03 -0.17103244172E+04  0.18871338016E+04  0.46999998093E+01 0. -1.
</event>
<event>
 5   0  0.1886248E-06  0.3240204E+04  0.7818609E-02  0.8178279E-01
       -1   -1    0    0    0  501  0.00000000000E+00  0.00000000000E+00  0.91738940710E+03  0.91738940711E+03  0.50400001928E-02 0. -1.
        1   -1    0    0  501    0  0.00000000000E+00  0.00000000000E+00 -0.28610864754E+04  0.28610864754E+04  0.50400001928E-02 0.  1.
    10030    2    1    2    0    0  0.00000000000E+00  0.00000000000E+00 -0.19436970683E+04  0.37784758826E+04  0.32402039599E+04 0.  0.
        4    1    3    3  502    0 -0.13101961551E+03 -0.74153291596E+03  0.70091460256E+03  0.10287468581E+04  0.12699999809E+01 0. -1.
       -4    1    3    3    0  502  0.13101961551E+03  0.74153291596E+03 -0.26446116709E+04  0.27497290244E+04  0.12699999809E+01 0.  1.
</event>
<event>
 5   0  0.1969465E-06  0.3215600E+04  0.7818609E-02  0.8184709E-01
       -1   -1    0    0    0  501  0.00000000000E+00  0.00000000000E+00  0.11000245495E+04  0.11000245495E+04  0.50400001928E-02 0. -1.
        1   -1    0    0  501    0  0.00000000000E+00  0.00000000000E+00 -0.23499670470E+04  0.23499670470E+04  0.50400001928E-02 0.  1.
    10030    2    1    2    0    0  0.00000000000E+00  0.00000000000E+00 -0.12499424974E+04  0.34499915965E+04  0.32156003746E+04 0.  0.
        2    1    3    3  502    0  0.80257556721E+03  0.96149792747E+03  0.45669090753E+03  0.13331062938E+04  0.25500000920E-02 0. -1.
       -2    1    3    3    0  502 -0.80257556721E+03 -0.96149792747E+03 -0.17066334050E+04  0.21168853027E+04  0.25500000920E-02 0.  1.
</event>
<event>
 5   0  0.1846850E-06  0.2907352E+04  0.7818609E-02  0.8270694E-01
       -1   -1    0    0    0  501  0.00000000000E+00  0.00000000000E+00  0.10469243523E+04  0.10469243523E+04  0.50400001928E-02 0.  1.
        1   -1    0    0  501    0  0.00000000000E+00  0.00000000000E+00 -0.20184583541E+04  0.20184583541E+04  0.50400001928E-02 0. -1.
    10030    2    1    2    0    0  0.00000000000E+00  0.00000000000E+00 -0.97153400180E+03  0.30653827064E+04  0.29073515130E+04 0.  0.
        5    1    3    3  502    0 -0.10070963383E+04 -0.87200981158E+03  0.12767141085E+03  0.13382698626E+04  0.46999998093E+01 0.  1.
       -5    1    3    3    0  502  0.10070963383E+04  0.87200981158E+03 -0.10992054127E+04  0.17271128438E+04  0.46999998093E+01 0. -1.
</event>
<event>
 5   0  0.1977015E-06  0.3200639E+04  0.7818609E-02  0.8188649E-01
        1   -1    0    0  501    0  0.00000000000E+00  0.00000000000E+00  0.15369351220E+04  0.15369351220E+04  0.50400001928E-02 0.  1.
       -1   -1    0    0    0  501  0.00000000000E+00  0.00000000000E+00 -0.16663175621E+04  0.16663175621E+04  0.50400001928E-02 0. -1.
    10030    2    1    2    0    0  0.00000000000E+00  0.00000000000E+00 -0.12938244006E+03  0.32032526841E+04  0.32006386773E+04 0.  0.
        1    1    3    3  502    0  0.11438851955E+04 -0.15729880464E+03 -0.11736601477E+04  0.16464186578E+04  0.50400001928E-02 0. -1.
       -1    1    3    3    0  502 -0.11438851955E+04  0.15729880464E+03  0.10442777077E+04  0.15568340262E+04  0.50400001928E-02 0.  1.
</event>
<event>
 5   0  0.5131083E-06  0.3335936E+04  0.7818609E-02  0.8153811E-01
       -2   -1    0    0    0  501  0.00000000000E+00  0.00000000000E+00  0.16757229314E+04  0.16757229314E+04  0.25500000920E-02 0. -1.
        2   -1    0    0  501    0  0.00000000000E+00  0.00000000000E+00 -0.16602494019E+04  0.16602494019E+04  0.25500000920E-02 0.  1.
    10030    2    1    2    0    0  0.00000000000E+00  0.00000000000E+00  0.15473529490E+02  0.33359723333E+04  0.33359364470E+04 0.  0.
        3    1    3    3  502    0 -0.26303477551E+03  0.21815569390E+02 -0.16392341308E+04  0.16603468788E+04  0.10100000352E+00 0.  1.
       -3    1    3    3    0  502  0.26303477551E+03 -0.21815569390E+02  0.16547076603E+04  0.16756254544E+04  0.10100000352E+00 0. -1.
</event>
<event>
 5   0  0.5131083E-06  0.2439485E+04  0.7818609E-02  0.8424867E-01
       -2   -1    0    0    0  501  0.00000000000E+00  0.00000000000E+00  0.73434506828E+03  0.73434506828E+03  0.25500000920E-02 0. -1.
        2   -1    0    0  501    0  0.00000000000E+00  0.00000000000E+00 -0.20259849540E+04  0.20259849541E+04  0.25500000920E-02 0.  1.
    10030    2    1    2    0    0  0.00000000000E+00  0.00000000000E+00 -0.12916398858E+04  0.27603300223E+04  0.24394852403E+04 0.  0.
        3    1    3    3  502    0 -0.86487982167E+03  0.15787222616E+03  0.31085543253E+03  0.93250836772E+03  0.10100000352E+00 0. -1.
       -3    1    3    3    0  502  0.86487982167E+03 -0.15787222616E+03 -0.16024953183E+04  0.18278216546E+04  0.10100000352E+00 0.  1.
</event>
<event>
 5   0  0.1846850E-06  0.2279651E+04  0.7818609E-02  0.8485988E-01
        1   -1    0    0  501    0  0.00000000000E+00  0.00000000000E+00  0.75682707055E+03  0.75682707057E+03  0.50400001928E-02 0.  1.
       -1   -1    0    0    0  501  0.00000000000E+00  0.00000000000E+00 -0.17166440073E+04  0.17166440073E+04  0.50400001928E-02 0. -1.
    10030    2    1    2    0    0  0.00000000000E+00  0.00000000000E+00 -0.95981693671E+03  0.24734710778E+04  0.22796514253E+04 0.  0.
        5    1    3    3  502    0  0.15183313192E+03  0.66915234161E+03  0.50761763084E+03  0.85353143197E+03  0.46999998093E+01 0.  1.
       -5    1    3    3    0  502 -0.15183313192E+03 -0.66915234161E+03 -0.14674345675E+04  0.16199396459E+04  0.46999998093E+01 0. -1.
</event>
<event>
 5   0  0.1881144E-06  0.3218433E+04  0.7818609E-02  0.8183966E-01
        1   -1    0    0  501    0  0.00000000000E+00  0.00000000000E+00  0.96735517749E+03  0.96735517751E+03  0.50400001928E-02 0.  1.
       -1   -1    0    0    0  501  0.00000000000E+00  0.00000000000E+00 -0.26769666369E+04  0.26769666369E+04  0.50400001928E-02 0. -1.
    10030    2    1    2    0    0  0.00000000000E+00  0.00000000000E+00 -0.17096114594E+04  0.36443218144E+04  0.32184328709E+04 0.  0.
        3    1    3    3  502    0 -0.12552101919E+04  0.89365848228E+03 -0.13803321171E+04  0.20686940017E+04  0.10100000352E+00 0. -1.
       -3    1    3    3    0  502  0.12552101919E+04 -0.89365848228E+03 -0.32927934228E+03  0.15756278127E+04  0.10100000352E+00 0.  1.
</event>
<event>
 5   0  0.1881144E-06  0.3136892E+04  0.7818609E-02  0.8205686E-01
        1   -1    0    0  501    0  0.00000000000E+00  0.00000000000E+00  0.28174234098E+04  0.28174234098E+04  0.50400001928E-02 0.  1.
       -1   -1    0    0    0  501  0.00000000000E+00  0.00000000000E+00 -0.87314613287E+03  0.87314613289E+03  0.50400001928E-02 0. -1.
    10030    2    1    2    0    0  0.00000000000E+00  0.00000000000E+00  0.19442772770E+04  0.36905695427E+04  0.31368916813E+04 0.  0.
        3    1    3    3  502    0  0.69119080595E+03 -0.92784488670E+03 -0.27372514290E+03  0.11889349554E+04  0.10100000352E+00 0. -1.
       -3    1    3    3    0  502 -0.69119080595E+03  0.92784488670E+03  0.22180024198E+04  0.25016345874E+04  0.10100000352E+00 0.  1.
</event>
<event>
 5   0  0.5347280E-06  0.2032756E+04  0.7818609E-02  0.8591458E-01
       -2   -1    0    0    0  501  0.00000000000E+00  0.00000000000E+00  0.11128885648E+04  0.11128885648E+04  0.25500000920E-02 0.  1.
        2   -1    0    0  501    0  0.00000000000E+00  0.00000000000E+00 -0.92823676435E+03  0.92823676436E+03  0.25500000920E-02 0. -1.
    10030    2    1    2    0    0  0.00000000000E+00  0.00000000000E+00  0.18465180046E+03  0.20411253292E+04  0.20327558442E+04 0.  0.
        2    1    3    3  502    0  0.10084482880E+04 -0.72095733546E+02  0.19695827820E+03  0.10300283043E+04  0.25500000920E-02 0.  1.
       -2    1    3    3    0  502 -0.10084482880E+04  0.72095733546E+02 -0.12306477744E+02  0.10110970249E+04  0.25500000920E-02 0. -1.
</event>
<event>
 5   0  0.5347280E-06  0.3085245E+04  0.7818609E-02  0.8219799E-01
       -2   -1    0    0    0  501  0.00000000000E+00  0.00000000000E+00  0.89792047861E+03  0.89792047861E+03  0.25500000920E-02 0.  1.
        2   -1    0    0  501    0  0.00000000000E+00  0.00000000000E+00 -0.26502169160E+04  0.26502169160E+04  0.25500000920E-02 0. -1.
    10030    2    1    2    0    0  0.00000000000E+00  0.00000000000E+00 -0.17522964373E+04  0.35481373946E+04  0.30852449119E+04 0.  0.
        2    1    3    3  502    0  0.40956126177E+03  0.21864988072E+03  0.81566745071E+03  0.93854226737E+03  0.25500000920E-02 0.  1.
       -2    1    3    3    0  502 -0.40956126177E+03 -0.21864988072E+03 -0.25679638881E+04  0.26095951272E+04  0.25500000920E-02 0. -1.
</event>
<event>
 5   0  0.1886248E-06  0.2946047E+04  0.7818609E-02  0.8259308E-01
        1   -1    0    0  501    0  0.00000000000E+00  0.00000000000E+00  0.19383713203E+04  0.19383713203E+04  0.50400001928E-02 0.  1.
       -1   -1    0    0    0  501  0.00000000000E+00  0.00000000000E+00 -0.11193921790E+04  0.11193921790E+04  0.50400001928E-02 0. -1.
    10030    2    1    2    0    0  0.00000000000E+00  0.00000000000E+00  0.81897914124E+03  0.30577634993E+04  0.29460466364E+04 0.  0.
        4    1    3    3  502    0 -0.53530842625E+03 -0.24678568689E+03 -0.99164134593E+03  0.11536084510E+04  0.12699999809E+01 0. -1.
       -4    1    3    3    0  502  0.53530842625E+03  0.24678568689E+03  0.18106204872E+04  0.19041550483E+04  0.12699999809E+01 0.  1.
</event>
<event>
 5   0  0.5108810E-06  0.3159429E+04  0.7818609E-02  0.8199615E-01
       -2   -1    0    0    0  501  0.00000000000E+00  0.00000000000E+00  0.86952207871E+03  0.86952207871E+03  0.25500000920E-02 0. -1.
        2   -1    0    0  501    0  0.00000000000E+00  0.00000000000E+00 -0.28699648864E+04  0.28699648864E+04  0.25500000920E-02 0.  1.
    10030    2    1    2    0    0  0.00000000000E+00  0.00000000000E+00 -0.20004428077E+04  0.37394869652E+04  0.31594289572E+04 0.  0.
        1    1    3    3  502    0  0.33904149789E+03 -0.13110772928E+04 -0.19629622377E+04  0.23847627873E+04  0.50400001928E-02 0.  1.
       -1    1    3    3    0  502 -0.33904149789E+03  0.13110772928E+04 -0.37480570081E+02  0.13547241779E+04  0.50400001928E-02 0. -1.
</event>
<event>
 5   0  0.5373060E-06  0.2503467E+04  0.7818609E-02  0.8401751E-01
        2   -1    0    0  501    0  0.00000000000E+00  0.00000000000E+00  0.13937568122E+04  0.13937568122E+04  0.25500000920E-02 0. -1.
       -2   -1    0    0    0  501  0.00000000000E+00  0.00000000000E+00 -0.11241823946E+04  0.11241823946E+04  0.25500000920E-02 0.  1.
    10030    2    1    2    0    0  0.00000000000E+00  0.00000000000E+00  0.26957441757E+03  0.25179392069E+04  0.25034670924E+04 0.  0.
        5    1    3    3  502    0  0.11260707406E+04 -0.33331345184E+03 -0.30093953254E+03  0.12123200329E+04  0.46999998093E+01 0.  1.
       -5    1    3    3    0  502 -0.11260707406E+04  0.33331345184E+03  0.57051395011E+03  0.13056191739E+04  0.46999998093E+01 0. -1.
</event>
<event>
 5   0  0.5373060E-06  0.3228994E+04  0.7818609E-02  0.8181202E-01
       -2   -1    0    0    0  501  0.00000000000E+00  0.00000000000E+00  0.11321549728E+04  0.11321549728E+04  0.25500000920E-02 0. -1.
        2   -1    0    0  501    0  0.00000000000E+00  0.00000000000E+00 -0.23023349093E+04  0.23023349093E+04  0.25500000920E-02 0.  1.
    10030    2    1    2    0    0  0.00000000000E+00  0.00000000000E+00 -0.11701799365E+04  0.34344898820E+04  0.32289935996E+04 0.  0.
        5    1    3    3  502    0 -0.35259883760E+03  0.60773757008E+03  0.96100170464E+03  0.11904693447E+04  0.46999998093E+01 0. -1.
       -5    1    3    3    0  502  0.35259883760E+03 -0.60773757008E+03 -0.21311816411E+04  0.22440205373E+04  0.46999998093E+01 0.  1.
</event>
<event>
 5   0  0.5347280E-06  0.3341921E+04  0.7818609E-02  0.8152310E-01
       -2   -1    0    0    0  501  0.00000000000E+00  0.00000000000E+00  0.13890652153E+04  0.13890652153E+04  0.25500000920E-02 0.  1.
        2   -1    0    0  501    0  0.00000000000E+00  0.00000000000E+00 -0.20100628365E+04  0.20100628365E+04  0.25500000920E-02 0. -1.
    10030    2    1    2    0    0  0.00000000000E+00  0.00000000000E+00 -0.62099762126E+03  0.33991280518E+04  0.33419206254E+04 0.  0.
        2    1    3    3  502    0 -0.11035789422E+04 -0.49463187923E+02 -0.15856645089E+04  0.19325281429E+04  0.25500000920E-02 0. -1.
       -2    1    3    3    0  502  0.11035789422E+04  0.49463187923E+02  0.96466688760E+03  0.14665999088E+04  0.25500000920E-02 0.  1.
</event>
<event>
 5   0  0.1846850E-06  0.3172428E+04  0.7818609E-02  0.8196137E-01
       -1   -1    0    0    0  501  0.00000000000E+00  0.00000000000E+00  0.28561062361E+04  0.28561062361E+04  0.50400001928E-02 0. -1.
        1   -1    0    0  501    0  0.00000000000E+00  0.00000000000E+00 -0.88094567420E+03  0.88094567422E+03  0.50400001928E-02 0.  1.
    10030    2    1    2    0    0  0.00000000000E+00  0.00000000000E+00  0.19751605619E+04  0.37370519103E+04  0.31724277352E+04 0.  0.
        5    1    3    3  502    0 -0.54056405363E+03  0.20035550256E+03 -0.75315980840E+03  0.94848490261E+03  0.46999998093E+01 0.  1.
       -5    1    3    3    0  502  0.54056405363E+03 -0.20035550256E+03  0.27283203703E+04  0.27885670077E+04  0.46999998093E+01 0. -1.
</event>
<event>
 5   0  0.5131083E-06  0.3185406E+04  0.7818609E-02  0.8192682E-01
       -2   -1    0    0    0  501  0.00000000000E+00  0.00000000000E+00  0.13328365522E+04  0.13328365522E+04  0.25500000920E-02 0. -1.
        2   -1    0    0  501    0  0.00000000000E+00  0.00000000000E+00 -0.19032363912E+04  0.19032363912E+04  0.25500000920E-02 0.  1.
    10030    2    1    2    0    0  0.00000000000E+00  0.00000000000E+00 -0.57039983900E+03  0.32360729434E+04  0.31854061151E+04 0.  0.
        3    1    3    3  502    0  0.51678154387E+03 -0.14991399177E+04 -0.43663248876E+03  0.16447284266E+04  0.10100000352E+00 0.  1.
       -3    1    3    3    0  502 -0.51678154387E+03  0.14991399177E+04 -0.13376735024E+03  0.15913445168E+04  0.10100000352E+00 0. -1.
</event>
<event>
 5   0  0.1881144E-06  0.2965890E+04  0.7818609E-02  0.8253539E-01
        1   -1    0    0  501    0  0.00000000000E+00  0.00000000000E+00  0.12418796901E+04  0.12418796901E+04  0.50400001928E-02 0. -1.
       -1   -1    0    0    0  501  0.00000000000E+00  0.00000000000E+00 -0.17708045539E+04  0.17708045539E+04  0.50400001928E-02 0.  1.
    10030    2    1    2    0    0  0.00000000000E+00  0.00000000000E+00 -0.52892486385E+03  0.30126842440E+04  0.29658902276E+04 0.  0.
        3    1    3    3  502    0  0.11326326677E+03  0.71660832715E+03  0.10492995096E+04  0.12756902183E+04  0.10100000352E+00 0. -1.
       -3    1    3    3    0  502 -0.11326326677E+03 -0.71660832715E+03 -0.15782243734E+04  0.17369940257E+04  0.10100000352E+00 0.  1.
</event>
<event>
 5   0  0.5121624E-06  0.2956706E+04  0.7818609E-02  0.8256203E-01
       -2   -1    0    0    0  501  0.00000000000E+00  0.00000000000E+00  0.95002687737E+03  0.95002687737E+03  0.25500000920E-02 0.  1.
        2   -1    0    0  501    0  0.00000000000E+00  0.00000000000E+00 -0.23004896830E+04  0.23004896830E+04  0.25500000920E-02 0. -1.
    10030    2    1    2    0    0  0.00000000000E+00  0.00000000000E+00 -0.13504628056E+04  0.32505165604E+04  0.29567056194E+04 0.  0.
        4    1    3    3  502    0  0.79047661361E+03 -0.48568704153E+03 -0.19405975656E+04  0.21509685501E+04  0.12699999809E+01 0. -1.
       -4    1    3    3    0  502 -0.79047661361E+03  0.48568704153E+03  0.59013476000E+03  0.10995480102E+04  0.12699999809E+01 0.  1.
</event>
<event>
 5   0  0.1969465E-06  0.3205792E+04  0.7818609E-02  0.8187289E-01
        1   -1    0    0  501    0  0.00000000000E+00  0.00000000000E+00  0.12146506235E+04  0.12146506235E+04  0.50400001928E-02 0.  1.
       -1   -1    0    0    0  501  0.00000000000E+00  0.00000000000E+00 -0.21152379414E+04  0.21152379415E+04  0.50400001928E-02 0. -1.
    10030    2    1    2    0    0  0.00000000000E+00  0.00000000000E+00 -0.90058731796E+03  0.33298885650E+04  0.32057916866E+04 0.  0.
        2    1    3    3  502    0 -0.73788111416E+03  0.13049848152E+04 -0.10395465361E+04  0.18243110775E+04  0.25500000920E-02 0.  1.
       -2    1    3    3    0  502  0.73788111416E+03 -0.13049848152E+04  0.13895921818E+03  0.15055774875E+04  0.25500000920E-02 0. -1.
</event>
<event>
 5   0  0.1977015E-06  0.3237106E+04  0.7818609E-02  0.8179086E-01
        1   -1    0    0  501    0  0.00000000000E+00  0.00000000000E+00  0.21633847163E+04  0.21633847163E+04  0.50400001928E-02 0.  1.
       -1   -1    0    0    0  501  0.00000000000E+00  0.00000000000E+00 -0.12109328583E+04  0.12109328583E+04  0.50400001928E-02 0. -1.
    10030    2    1    2    0    0  0.00000000000E+00  0.00000000000E+00  0.95245185797E+03  0.33743175747E+04  0.32371058915E+04 0.  0.
        1    1    3    3  502    0 -0.74765519294E+03 -0.14195549605E+04  0.25365963721E+03  0.16243361059E+04  0.50400001928E-02 0. -1.
       -1    1    3    3    0  502  0.74765519294E+03  0.14195549605E+04  0.69879222076E+03  0.17499814688E+04  0.50400001928E-02 0.  1.
</event>
<event>
 5   0  0.5373060E-06  0.3139787E+04  0.7818609E-02  0.8204903E-01
        2   -1    0    0  501    0  0.00000000000E+00  0.00000000000E+00  0.15256882387E+04  0.15256882387E+04  0.25500000920E-02 0.  1.
       -2   -1    0    0    0  501  0.00000000000E+00  0.00000000000E+00 -0.16153794536E+04  0.16153794536E+04  0.25500000920E-02 0. -1.
    10030    2    1    2    0    0  0.00000000000E+00  0.00000000000E+00 -0.89691214894E+02  0.31410676924E+04  0.31397868931E+04 0.  0.
        5    1    3    3  502    0  0.50495980786E+02 -0.64733728436E+03 -0.14747459610E+04  0.16113637526E+04  0.46999998093E+01 0. -1.
       -5    1    3    3    0  502 -0.50495980786E+02  0.64733728436E+03  0.13850547461E+04  0.15297039398E+04  0.46999998093E+01 0.  1.
</event>
<event>
 5   0  0.1846850E-06  0.2690074E+04  0.7818609E-02  0.8338233E-01
       -1   -1    0    0    0  501  0.00000000000E+00  0.00000000000E+00  0.14792257372E+04  0.14792257372E+04  0.50400001928E-02 0. -1.
        1   -1    0    0  501    0  0.00000000000E+00  0.00000000000E+00 -0.12230212814E+04  0.12230212814E+04  0.50400001928E-02 0.  1.
    10030    2    1    2    0    0  0.00000000000E+00  0.00000000000E+00  0.25620445585E+03  0.27022470186E+04  0.26900740188E+04 0.  0.
        5    1    3    3  502    0 -0.24848395255E+02 -0.11190988995E+04 -0.62099520574E+03  0.12801003574E+04  0.46999998093E+01 0.  1.
       -5    1    3    3    0  502  0.24848395255E+02  0.11190988995E+04  0.87719966159E+03  0.14221466612E+04  0.46999998093E+01 0. -1.
</event>
<event>
 5   0  0.5131083E-06  0.3220156E+04  0.7818609E-02  0.8183514E-01
        2   -1    0    0  501    0  0.00000000000E+00  0.00000000000E+00  0.19227518840E+04  0.19227518840E+04  0.25500000920E-02 0.  1.
       -2   -1    0    0    0  501  0.00000000000E+00  0.00000000000E+00 -0.13482500752E+04  0.13482500752E+04  0.25500000920E-02 0. -1.
    10030    2    1    2    0    0  0.00000000000E+00  0.00000000000E+00  0.57450180879E+03  0.32710019591E+04  0.32201555069E+04 0.  0.
        3    1    3    3  502    0  0.15943818129E+04 -0.15574601850E+03  0.12333318522E+03  0.16067113220E+04  0.10100000352E+00 0.  1.
       -3    1    3    3    0  502 -0.15943818129E+04  0.15574601850E+03  0.45116862356E+03  0.16642906371E+04  0.10100000352E+00 0. -1.
</event>
<event>
 5   0  0.5108810E-06  0.3221517E+04  0.7818609E-02  0.8183158E-01
       -2   -1    0    0    0  501  0.00000000000E+00  0.00000000000E+00  0.11159258376E+04  0.11159258376E+04  0.25500000920E-02 0.  1.
        2   -1    0    0  501    0  0.00000000000E+00  0.00000000000E+00 -0.23250142025E+04  0.23250142025E+04  0.25500000920E-02 0. -1.
    10030    2    1    2    0    0  0.00000000000E+00  0.00000000000E+00 -0.12090883650E+04  0.34409400401E+04  0.32215172955E+04 0.  0.
        1    1    3    3  502    0 -0.27095228070E+03  0.15510300208E+04 -0.24164682462E+03  0.15929540018E+04  0.50400001928E-02 0. -1.
       -1    1    3    3    0  502  0.27095228070E+03 -0.15510300208E+04 -0.96744154035E+03  0.18479860383E+04  0.50400001928E-02 0.  1.
</event>
<event>
 5   0  0.1969465E-06  0.2680789E+04  0.7818609E-02  0.8341265E-01
       -1   -1    0    0    0  501  0.00000000000E+00  0.00000000000E+00  0.13139024326E+04  0.13139024326E+04  0.50400001928E-02 0. -1.
        1   -1    0    0  501    0  0.00000000000E+00  0.00000000000E+00 -0.13674206814E+04  0.13674206814E+04  0.50400001928E-02 0.  1.
    10030    2    1    2    0    0  0.00000000000E+00  0.00000000000E+00 -0.53518248752E+02  0.26813231140E+04  0.26807889583E+04 0.  0.
        2    1    3    3  502    0 -0.15696383342E+03  0.68953554841E+03 -0.11656520874E+04  0.13633934525E+04  0.25500000920E-02 0.  1.
       -2    1    3    3    0  502  0.15696383342E+03 -0.68953554841E+03  0.11121338387E+04  0.13179296615E+04  0.25500000920E-02 0. -1.
</event>
<event>
 5   0  0.1969465E-06  0.3169780E+04  0.7818609E-02  0.8196844E-01
        1   -1    0    0  501    0  0.00000000000E+00  0.00000000000E+00  0.15257428968E+04  0.15257428968E+04  0.50400001928E-02 0. -1.
       -1   -1    0    0    0  501  0.00000000000E+00  0.00000000000E+00 -0.16463298876E+04  0.16463298876E+04  0.50400001928E-02 0.  1.
    10030    2    1    2    0    0  0.00000000000E+00  0.00000000000E+00 -0.12058699077E+03  0.31720727845E+04  0.31697798863E+04 0.  0.
        2    1    3    3  502    0  0.83940421289E+03  0.80142163281E+03 -0.11404259450E+04  0.16270978465E+04  0.25500000920E-02 0.  1.
       -2    1    3    3    0  502 -0.83940421289E+03 -0.80142163281E+03  0.10198389543E+04  0.15449749379E+04  0.25500000920E-02 0. -1.
</event>
<event>
 5   0  0.5131083E-06  0.3223419E+04  0.7818609E-02  0.8182659E-01
        2   -1    0    0  501    0  0.00000000000E+00  0.00000000000E+00  0.16680804780E+04  0.16680804780E+04  0.25500000920E-02 0.  1.
       -2   -1    0    0    0  501  0.00000000000E+00  0.00000000000E+00 -0.15572439312E+04  0.15572439312E+04  0.25500000920E-02 0. -1.
    10030    2    1    2    0    0  0.00000000000E+00  0.00000000000E+00  0.11083654682E+03  0.32253244092E+04  0.32234194274E+04 0.  0.
        3    1    3    3  502    0 -0.14235601799E+04 -0.39444053437E+03  0.70039309645E+03  0.16348264192E+04  0.10100000352E+00 0.  1.
       -3    1    3    3    0  502  0.14235601799E+04  0.39444053437E+03 -0.58955654964E+03  0.15904979901E+04  0.10100000352E+00 0. -1.
</event>
<event>
 5   0  0.5131083E-06  0.3212931E+04  0.7818609E-02  0.8185410E-01
       -2   -1    0    0    0  501  0.00000000000E+00  0.00000000000E+00  0.11352445487E+04  0.11352445487E+04  0.25500000920E-02 0.  1.
        2   -1    0    0  501    0  0.00000000000E+00  0.00000000000E+00 -0.22732822132E+04  0.22732822132E+04  0.25500000920E-02 0. -1.
    10030    2    1    2    0    0  0.00000000000E+00  0.00000000000E+00 -0.11380376645E+04  0.34085267619E+04  0.32129308989E+04 0.  0.
        3    1    3    3  502    0  0.13399507213E+04  0.12538273565E+03 -0.14996586238E+04  0.20149850530E+04  0.10100000352E+00 0. -1.
       -3    1    3    3    0  502 -0.13399507213E+04 -0.12538273565E+03  0.36162095930E+03  0.13935417089E+04  0.10100000352E+00 0.  1.
</event>
<event>
 5   0  0.1886248E-06  0.2953204E+04  0.7818609E-02  0.8257221E-01
       -1   -1    0    0    0  501  0.00000000000E+00  0.00000000000E+00  0.21034632819E+04  0.21034632820E+04  0.50400001928E-02 0.  1.
        1   -1    0    0  501    0  0.00000000000E+00  0.00000000000E+00 -0.10365541345E+04  0.10365541345E+04  0.50400001928E-02 0. -1.
    10030    2    1    2    0    0  0.00000000000E+00  0.00000000000E+00  0.10669091475E+04  0.31400174164E+04  0.29532040645E+04 0.  0.
        4    1    3    3  502    0  0.65282001595E+03 -0.60685835351E+03 -0.71825821694E+03  0.11447041162E+04  0.12699999809E+01 0. -1.
       -4    1    3    3    0  502 -0.65282001595E+03  0.60685835351E+03  0.17851673644E+04  0.19953133003E+04  0.12699999809E+01 0.  1.
</event>
<event>
 5   0  0.1886248E-06  0.2215599E+04  0.7818609E-02  0.8511963E-01
       -1   -1    0    0    0  501  0.00000000000E+00  0.00000000000E+00  0.96742219967E+03  0.96742219968E+03  0.50400001928E-02 0.  1.
        1   -1    0    0  501    0  0.00000000000E+00  0.00000000000E+00 -0.12685463123E+04  0.12685463123E+04  0.50400001928E-02 0. -1.
    10030    2    1    2    0    0  0.00000000000E+00  0.00000000000E+00 -0.30112411262E+03  0.22359685120E+04  0.22155991188E+04 0.  0.
        4    1    3    3  502    0  0.82478825811E+03 -0.25265883643E+03  0.55088638875E+03  0.10235182385E+04  0.12699999809E+01 0. -1.
       -4    1    3    3    0  502 -0.82478825811E+03  0.25265883643E+03 -0.85201050137E+03  0.12124502735E+04  0.12699999809E+01 0.  1.
</event>
<event>
 5   0  0.1977015E-06  0.3083420E+04  0.7818609E-02  0.8220303E-01
        1   -1    0    0  501    0  0.00000000000E+00  0.00000000000E+00  0.22697052672E+04  0.22697052672E+04  0.50400001928E-02 0.  1.
       -1   -1    0    0    0  501  0.00000000000E+00  0.00000000000E+00 -0.10472148730E+04  0.10472148730E+04  0.50400001928E-02 0. -1.
    10030    2    1    2    0    0  0.00000000000E+00  0.00000000000E+00  0.12224903942E+04  0.33169201402E+04  0.30834196037E+04 0.  0.
        1    1    3    3  502    0  0.13150959127E+04 -0.56964530437E+03  0.12225161697E+04  0.18837512621E+04  0.50400001928E-02 0.  1.
       -1    1    3    3    0  502 -0.13150959127E+04  0.56964530437E+03 -0.25775515849E-01  0.14331688781E+04  0.50400001928E-02 0. -1.
</event>
<event>
 5   0  0.1977015E-06  0.3207429E+04  0.7818609E-02  0.8186858E-01
        1   -1    0    0  501    0  0.00000000000E+00  0.00000000000E+00  0.23668399912E+04  0.23668399912E+04  0.50400001928E-02 0.  1.
       -1   -1    0    0    0  501  0.00000000000E+00  0.00000000000E+00 -0.10866385664E+04  0.10866385664E+04  0.50400001928E-02 0. -1.
    10030    2    1    2    0    0  0.00000000000E+00  0.00000000000E+00  0.12802014248E+04  0.34534785576E+04  0.32074286368E+04 0.  0.
        1    1    3    3  502    0 -0.99358185608E+03  0.55765617490E+03 -0.57506574747E+03  0.12762781547E+04  0.50400001928E-02 0. -1.
       -1    1    3    3    0  502  0.99358185608E+03 -0.55765617490E+03  0.18552671723E+04  0.21772004029E+04  0.50400001928E-02 0.  1.
</event>
<event>
 5   0  0.1969465E-06  0.3261470E+04  0.7818609E-02  0.8172769E-01
       -1   -1    0    0    0  501  0.00000000000E+00  0.00000000000E+00  0.16308561112E+04  0.16308561112E+04  0.50400001928E-02 0. -1.
        1   -1    0    0  501    0  0.00000000000E+00  0.00000000000E+00 -0.16306133978E+04  0.16306133978E+04  0.50400001928E-02 0.  1.
    10030    2    1    2    0    0  0.00000000000E+00  0.00000000000E+00  0.24271342309E+00  0.32614695091E+04  0.32614695000E+04 0.  0.
        2    1    3    3  502    0  0.61318936384E+03 -0.21091164992E+03 -0.14961443006E+04  0.16306234048E+04  0.25500000920E-02 0.  1.
       -2    1    3    3    0  502 -0.61318936384E+03  0.21091164992E+03  0.14963870140E+04  0.16308461043E+04  0.25500000920E-02 0. -1.
</event>
<event>
 5   0  0.1846850E-06  0.2400030E+04  0.7818609E-02  0.8439492E-01
       -1   -1    0    0    0  501  0.00000000000E+00  0.00000000000E+00  0.10516004608E+04  0.10516004608E+04  0.50400001928E-02 0. -1.
        1   -1    0    0  501    0  0.00000000000E+00  0.00000000000E+00 -0.13693760309E+04  0.13693760309E+04  0.50400001928E-02 0.  1.
    10030    2    1    2    0    0  0.00000000000E+00  0.00000000000E+00 -0.31777557009E+03  0.24209764918E+04  0.24000303874E+04 0.  0.
        5    1    3    3  502    0 -0.55446468769E+03  0.91531118839E+03 -0.70657078154E+03  0.12823767078E+04  0.46999998093E+01 0.  1.
       -5    1    3    3    0  502  0.55446468769E+03 -0.91531118839E+03  0.38879521145E+03  0.11385997839E+04  0.46999998093E+01 0. -1.
</event>
<event>
 5   0  0.1969465E-06  0.3219421E+04  0.7818609E-02  0.8183707E-01
       -1   -1    0    0    0  501  0.00000000000E+00  0.00000000000E+00  0.20326818933E+04  0.20326818933E+04  0.50400001928E-02 0. -1.
        1   -1    0    0  501    0  0.00000000000E+00  0.00000000000E+00 -0.12747532100E+04  0.12747532100E+04  0.50400001928E-02 0.  1.
    10030    2    1    2    0    0  0.00000000000E+00  0.00000000000E+00  0.75792868330E+03  0.33074351033E+04  0.32194209221E+04 0.  0.
        2    1    3    3  502    0 -0.21480434710E+03 -0.49847327261E+03 -0.11779031158E+04  0.12969472855E+04  0.25500000920E-02 0.  1.
       -2    1    3    3    0  502  0.21480434710E+03  0.49847327261E+03  0.19358317991E+04  0.20104878178E+04  0.25500000920E-02 0. -1.
</event>
<event>
 5   0  0.5108810E-06  0.3166483E+04  0.7818609E-02  0.8197725E-01
       -2   -1    0    0    0  501  0.00000000000E+00  0.00000000000E+00  0.11778413975E+04  0.11778413975E+04  0.25500000920E-02 0.  1.
        2   -1    0    0  501    0  0.00000000000E+00  0.00000000000E+00 -0.21281759025E+04  0.21281759025E+04  0.25500000920E-02 0. -1.
    10030    2    1    2    0    0  0.00000000000E+00  0.00000000000E+00 -0.95033450501E+03  0.33060173001E+04  0.31664830202E+04 0.  0.
        1    1    3    3  502    0  0.83414950243E+03  0.12045616268E+04  0.15116756902E+03  0.14729649483E+04  0.50400001928E-02 0.  1.
       -1    1    3    3    0  502 -0.83414950243E+03 -0.12045616268E+04 -0.11015020740E+04  0.18330523517E+04  0.50400001928E-02 0. -1.
</event>
<event>
 5   0  0.5108810E-06  0.3205506E+04  0.7818609E-02  0.8187365E-01
        2   -1    0    0  501    0  0.00000000000E+00  0.00000000000E+00  0.19217881967E+04  0.19217881967E+04  0.25500000920E-02 0. -1.
       -2   -1    0    0    0  501  0.00000000000E+00  0.00000000000E+00 -0.13366804982E+04  0.13366804982E+04  0.25500000920E-02 0.  1.
    10030    2    1    2    0    0  0.00000000000E+00  0.00000000000E+00  0.58510769851E+03  0.32584686949E+04  0.32055057661E+04 0.  0.
        1    1    3    3  502    0  0.12460947926E+04  0.85182344690E+03 -0.25529555552E+03  0.15308596401E+04  0.50400001928E-02 0.  1.
       -1    1    3    3    0  502 -0.12460947926E+04 -0.85182344690E+03  0.84040325404E+03  0.17276090548E+04  0.50400001928E-02 0. -1.
</event>
<event>
 5   0  0.5347280E-06  0.3184366E+04  0.7818609E-02  0.8192958E-01
        2   -1    0    0  501    0  0.00000000000E+00  0.00000000000E+00  0.14870028629E+04  0.14870028630E+04  0.25500000920E-02 0.  1.
       -2   -1    0    0    0  501  0.00000000000E+00  0.00000000000E+00 -0.17048028719E+04  0.17048028719E+04  0.25500000920E-02 0. -1.
    10030    2    1    2    0    0  0.00000000000E+00  0.00000000000E+00 -0.21780000894E+03  0.31918057348E+04  0.31843660287E+04 0.  0.
        2    1    3    3  502    0 -0.50818122183E+03 -0.12584254845E+04  0.72560978541E+03  0.15389582239E+04  0.25500000920E-02 0.  1.
       -2    1    3    3    0  502  0.50818122183E+03  0.12584254845E+04 -0.94340979435E+03  0.16528475109E+04  0.25500000920E-02 0. -1.
</event>
<event>
 5   0  0.1886248E-06  0.3221064E+04  0.7818609E-02  0.8183276E-01
        1   -1    0    0  501    0  0.00000000000E+00  0.00000000000E+00  0.10145387745E+04  0.10145387745E+04  0.50400001928E-02 0.  1.
       -1   -1    0    0    0  501  0.00000000000E+00  0.00000000000E+00 -0.25566428903E+04  0.25566428903E+04  0.50400001928E-02 0. -1.
    10030    2    1    2    0    0  0.00000000000E+00  0.00000000000E+00 -0.15421041158E+04  0.35711816649E+04  0.32210640136E+04 0.  0.
        4    1    3    3  502    0 -0.54036916069E+03 -0.14892238734E+04 -0.10924308795E+04  0.19243683156E+04  0.12699999809E+01 0. -1.
       -4    1    3    3    0  502  0.54036916069E+03  0.14892238734E+04 -0.44967323636E+03  0.16468133492E+04  0.12699999809E+01 0.  1.
</event>
<event>
 5   0  0.1886248E-06  0.3276682E+04  0.7818609E-02  0.8168854E-01
       -1   -1    0    0    0  501  0.00000000000E+00  0.00000000000E+00  0.12171778674E+04  0.12171778674E+04  0.50400001928E-02 0.  1.
        1   -1    0    0  501    0  0.00000000000E+00  0.00000000000E+00 -0.22052335590E+04  0.22052335590E+04  0.50400001928E-02 0. -1.
    10030    2    1    2    0    0  0.00000000000E+00  0.00000000000E+00 -0.98805569156E+03  0.34224114264E+04  0.32766821515E+04 0.  0.
        4    1    3    3  502    0 -0.15622662502E+04  0.45549535383E+03 -0.69222503150E+03  0.17684255600E+04  0.12699999809E+01 0. -1.
       -4    1    3    3    0  502  0.15622662502E+04 -0.45549535383E+03 -0.29583066007E+03  0.16539858664E+04  0.12699999809E+01 0.  1.
</event>
<event>
 5   0  0.1977015E-06  0.3188883E+04  0.7818609E-02  0.8191759E-01
        1   -1    0    0  501    0  0.00000000000E+00  0.00000000000E+00  0.17829378792E+04  0.17829378792E+04  0.50400001928E-02 0. -1.
       -1   -1    0    0    0  501  0.00000000000E+00  0.00000000000E+00 -0.14258738349E+04  0.14258738349E+04  0.50400001928E-02 0.  1.
    10030    2    1    2    0    0  0.00000000000E+00  0.00000000000E+00  0.35706404424E+03  0.32088117141E+04  0.31888834856E+04 0.  0.
        1    1    3    3  502    0 -0.13529329406E+04  0.62762821143E+03 -0.38881748434E+03  0.15412734182E+04  0.50400001928E-02 0.  1.
       -1    1    3    3    0  502  0.13529329406E+04 -0.62762821143E+03  0.74588152858E+03  0.16675382959E+04  0.50400001928E-02 0. -1.
</event>
<event>
 5   0  0.1969465E-06  0.3050334E+04  0.7818609E-02  0.8229502E-01
        1   -1    0    0  501    0  0.00000000000E+00  0.00000000000E+00  0.95220359556E+03  0.95220359557E+03  0.50400001928E-02 0.  1.
       -1   -1    0    0    0  501  0.00000000000E+00  0.00000000000E+00 -0.24428955599E+04  0.24428955599E+04  0.50400001928E-02 0. -1.
    10030    2    1    2    0    0  0.00000000000E+00  0.00000000000E+00 -0.14906919643E+04  0.33950991554E+04  0.30503337101E+04 0.  0.
        2    1    3    3  502    0  0.73567261916E+03  0.90743979242E+03  0.34602800885E+03  0.12183581421E+04  0.25500000920E-02 0.  1.
       -2    1    3    3    0  502 -0.73567261916E+03 -0.90743979242E+03 -0.18367199732E+04  0.21767410134E+04  0.25500000920E-02 0. -1.
</event>
<event>
 5   0  0.1969465E-06  0.3244944E+04  0.7818609E-02  0.8177047E-01
        1   -1    0    0  501    0  0.00000000000E+00  0.00000000000E+00  0.14413549115E+04  0.14413549115E+04  0.50400001928E-02 0.  1.
       -1   -1    0    0    0  501  0.00000000000E+00  0.00000000000E+00 -0.18263479764E+04  0.18263479764E+04  0.50400001928E-02 0. -1.
    10030    2    1    2    0    0  0.00000000000E+00  0.00000000000E+00 -0.38499306490E+03  0.32677028880E+04  0.32449441450E+04 0.  0.
        2    1    3    3  502    0  0.54038180590E+03  0.63877823303E+03  0.12073485424E+04  0.14689249913E+04  0.25500000920E-02 0.  1.
       -2    1    3    3    0  502 -0.54038180590E+03 -0.63877823303E+03 -0.15923416073E+04  0.17987778967E+04  0.25500000920E-02 0. -1.
</event>
<event>
 5   0  0.5131083E-06  0.3225774E+04  0.7818609E-02  0.8182043E-01
       -2   -1    0    0    0  501  0.00000000000E+00  0.00000000000E+00  0.92567530149E+03  0.92567530149E+03  0.25500000920E-02 0. -1.
        2   -1    0    0  501    0  0.00000000000E+00  0.00000000000E+00 -0.28102776350E+04  0.28102776350E+04  0.25500000920E-02 0.  1.
    10030    2    1    2    0    0  0.00000000000E+00  0.00000000000E+00 -0.18846023335E+04  0.37359529365E+04  0.32257740758E+04 0.  0.
        3    1    3    3  502    0  0.60480710237E+03  0.55196936975E+03  0.66705493298E+03  0.10561364069E+04  0.10100000352E+00 0. -1.
       -3    1    3    3    0  502 -0.60480710237E+03 -0.55196936975E+03 -0.25516572665E+04  0.26798165296E+04  0.10100000352E+00 0.  1.
</event>
<event>
 5   0  0.5108810E-06  0.2811969E+04  0.7818609E-02  0.8299562E-01
        2   -1    0    0  501    0  0.00000000000E+00  0.00000000000E+00  0.18702333668E+04  0.18702333668E+04  0.25500000920E-02 0. -1.
       -2   -1    0    0    0  501  0.00000000000E+00  0.00000000000E+00 -0.10569764067E+04  0.10569764067E+04  0.25500000920E-02 0.  1.
    10030    2    1    2    0    0  0.00000000000E+00  0.00000000000E+00  0.81325696014E+03  0.29272097735E+04  0.28119690921E+04 0.  0.
        1    1    3    3  502    0 -0.79800097890E+03 -0.83651732762E+02  0.16084961327E+04  0.17975157812E+04  0.50400001928E-02 0. -1.
       -1    1    3    3    0  502  0.79800097890E+03  0.83651732762E+02 -0.79523917253E+03  0.11296939923E+04  0.50400001928E-02 0.  1.
</event>
<event>
 5   0  0.5131083E-06  0.3160808E+04  0.7818609E-02  0.8199245E-01
        2   -1    0    0  501    0  0.00000000000E+00  0.00000000000E+00  0.17907273579E+04  0.17907273579E+04  0.25500000920E-02 0. -1.
       -2   -1    0    0    0  501  0.00000000000E+00  0.00000000000E+00 -0.13947834668E+04  0.13947834668E+04  0.25500000920E-02 0.  1.
    10030    2    1    2    0    0  0.00000000000E+00  0.00000000000E+00  0.39594389114E+03  0.31855108247E+04  0.31608080690E+04 0.  0.
        3    1    3    3  502    0 -0.19745268241E+03 -0.11136491657E+04 -0.91450046497E+03  0.14544803666E+04  0.10100000352E+00 0.  1.
       -3    1    3    3    0  502  0.19745268241E+03  0.11136491657E+04  0.13104443561E+04  0.17310304581E+04  0.10100000352E+00 0. -1.
</event>
<event>
 5   0  0.1977015E-06  0.2198783E+04  0.7818609E-02  0.8518935E-01
        1   -1    0    0  501    0  0.00000000000E+00  0.00000000000E+00  0.13779349879E+04  0.13779349879E+04  0.50400001928E-02 0.  1.
       -1   -1    0    0    0  501  0.00000000000E+00  0.00000000000E+00 -0.87715421216E+03  0.87715421217E+03  0.50400001928E-02 0. -1.
    10030    2    1    2    0    0  0.00000000000E+00  0.00000000000E+00  0.50078077577E+03  0.22550892001E+04  0.21987828258E+04 0.  0.
        1    1    3    3  502    0  0.88023695422E+03  0.60151462335E+03  0.52563678240E+03  0.11886677268E+04  0.50400001928E-02 0.  1.
       -1    1    3    3    0  502 -0.88023695422E+03 -0.60151462335E+03 -0.24856006628E+02  0.10664214733E+04  0.50400001928E-02 0. -1.
</event>
<event>
 5   0  0.5347280E-06  0.3146648E+04  0.7818609E-02  0.8203051E-01
       -2   -1    0    0    0  501  0.00000000000E+00  0.00000000000E+00  0.19262356503E+04  0.19262356503E+04  0.25500000920E-02 0.  1.
        2   -1    0    0  501    0  0.00000000000E+00  0.00000000000E+00 -0.12850700796E+04  0.12850700796E+04  0.25500000920E-02 0. -1.
    10030    2    1    2    0    0  0.00000000000E+00  0.00000000000E+00  0.64116557076E+03  0.32113057299E+04  0.31466476133E+04 0.  0.
        2    1    3    3  502    0 -0.58065387098E+03 -0.40143545715E+03  0.17555471063E+04  0.18921561740E+04  0.25500000920E-02 0.  1.
       -2    1    3    3    0  502  0.58065387098E+03  0.40143545715E+03 -0.11143815356E+04  0.13191495560E+04  0.25500000920E-02 0. -1.
</event>
<event>
 5   0  0.5347280E-06  0.3165416E+04  0.7818609E-02  0.8198011E-01
        2   -1    0    0  501    0  0.00000000000E+00  0.00000000000E+00  0.86653587505E+03  0.86653587505E+03  0.25500000920E-02 0.  1.
       -2   -1    0    0    0  501  0.00000000000E+00  0.00000000000E+00 -0.28907807359E+04  0.28907807359E+04  0.25500000920E-02 0. -1.
    10030    2    1    2    0    0  0.00000000000E+00  0.00000000000E+00 -0.20242448609E+04  0.37573166110E+04  0.31654163799E+04 0.  0.
        2    1    3    3  502    0 -0.95746012670E+03  0.12591881362E+04 -0.10735777591E+04  0.19117672090E+04  0.25500000920E-02 0.  1.
       -2    1    3    3    0  502  0.95746012670E+03 -0.12591881362E+04 -0.95066710177E+03  0.18455494020E+04  0.25500000920E-02 0. -1.
</event>
<event>
 5   0  0.1977015E-06  0.3190778E+04  0.7818609E-02  0.8191257E-01
        1   -1    0    0  501    0  0.00000000000E+00  0.00000000000E+00  0.19992514650E+04  0.19992514651E+04  0.50400001928E-02 0. -1.
       -1   -1    0    0    0  501  0.00000000000E+00  0.00000000000E+00 -0.12731095592E+04  0.12731095592E+04  0.50400001928E-02 0.  1.
    10030    2    1    2    0    0  0.00000000000E+00  0.00000000000E+00  0.72614190581E+03  0.32723610243E+04  0.31907780565E+04 0.  0.
        1    1    3    3  502    0  0.30632300588E+03 -0.84231511510E+03  0.17166415543E+04  0.19365398945E+04  0.50400001928E-02 0. -1.
       -1    1    3    3    0  502 -0.30632300588E+03  0.84231511510E+03 -0.99049964850E+03  0.13358211298E+04  0.50400001928E-02 0.  1.
</event>
<event>
 5   0  0.1886248E-06  0.2174880E+04  0.7818609E-02  0.8528957E-01
       -1   -1    0    0    0  501  0.00000000000E+00  0.00000000000E+00  0.98971289876E+03  0.98971289877E+03  0.50400001928E-02 0. -1.
        1   -1    0    0  501    0  0.00000000000E+00  0.00000000000E+00 -0.11948171049E+04  0.11948171049E+04  0.50400001928E-02 0.  1.
    10030    2    1    2    0    0  0.00000000000E+00  0.00000000000E+00 -0.20510420612E+03  0.21845300037E+04  0.21748801350E+04 0.  0.
        4    1    3    3  502    0 -0.15123596365E+03  0.15211413194E+03 -0.11733559958E+04  0.11928021343E+04  0.12699999809E+01 0.  1.
       -4    1    3    3    0  502  0.15123596365E+03 -0.15211413194E+03  0.96825178965E+03  0.99172786938E+03  0.12699999809E+01 0. -1.
</event>
<event>
 5   0  0.1846850E-06  0.3239866E+04  0.7818609E-02  0.8178367E-01
       -1   -1    0    0    0  501  0.00000000000E+00  0.00000000000E+00  0.15186409661E+04  0.15186409661E+04  0.50400001928E-02 0. -1.
        1   -1    0    0  501    0  0.00000000000E+00  0.00000000000E+00 -0.17279816138E+04  0.17279816138E+04  0.50400001928E-02 0.  1.
    10030    2    1    2    0    0  0.00000000000E+00  0.00000000000E+00 -0.20934064769E+03  0.32466225800E+04  0.32398664587E+04 0.  0.
        5    1    3    3  502    0 -0.12244584522E+04  0.99623280612E+03  0.25993352701E+03  0.15998018107E+04  0.46999998093E+01 0. -1.
       -5    1    3    3    0  502  0.12244584522E+04 -0.99623280612E+03 -0.46927417471E+03  0.16468207693E+04  0.46999998093E+01 0.  1.
</event>
<event>
 5   0  0.5121624E-06  0.3438301E+04  0.7818609E-02  0.8128569E-01
       -2   -1    0    0    0  501  0.00000000000E+00  0.00000000000E+00  0.30876901921E+04  0.30876901921E+04  0.25500000920E-02 0. -1.
        2   -1    0    0  501    0  0.00000000000E+00  0.00000000000E+00 -0.95718107348E+03  0.95718107349E+03  0.25500000920E-02 0.  1.
    10030    2    1    2    0    0  0.00000000000E+00  0.00000000000E+00  0.21305091186E+04  0.40448712656E+04  0.34383010995E+04 0.  0.
        4    1    3    3  502    0  0.66668106530E+02  0.14387067618E+03 -0.94855932023E+03  0.96172231169E+03  0.12699999809E+01 0.  1.
       -4    1    3    3    0  502 -0.66668106530E+02 -0.14387067618E+03  0.30790684389E+04  0.30831489539E+04  0.12699999809E+01 0. -1.
</event>
<event>
 5   0  0.1846850E-06  0.3138204E+04  0.7818609E-02  0.8205331E-01
        1   -1    0    0  501    0  0.00000000000E+00  0.00000000000E+00  0.19302018962E+04  0.19302018962E+04  0.50400001928E-02 0. -1.
       -1   -1    0    0    0  501  0.00000000000E+00  0.00000000000E+00 -0.12755564486E+04  0.12755564486E+04  0.50400001928E-02 0.  1.
    10030    2    1    2    0    0  0.00000000000E+00  0.00000000000E+00  0.65464544766E+03  0.32057583448E+04  0.31382042482E+04 0.  0.
        5    1    3    3  502    0 -0.95984165269E+03 -0.18054411803E+03  0.15818332869E+04  0.18590618103E+04  0.46999998093E+01 0. -1.
       -5    1    3    3    0  502  0.95984165269E+03  0.18054411803E+03 -0.92718783928E+03  0.13466965345E+04  0.46999998093E+01 0.  1.
</event>
<event>
 5   0  0.5108810E-06  0.3137996E+04  0.7818609E-02  0.8205387E-01
       -2   -1    0    0    0  501  0.00000000000E+00  0.00000000000E+00  0.15954127452E+04  0.15954127452E+04  0.25500000920E-02 0.  1.
        2   -1    0    0  501    0  0.00000000000E+00  0.00000000000E+00 -0.15430205336E+04  0.15430205336E+04  0.25500000920E-02 0. -1.
    10030    2    1    2    0    0  0.00000000000E+00  0.00000000000E+00  0.52392211658E+02  0.31384332788E+04  0.31379959372E+04 0.  0.
        1    1    3    3  502    0 -0.13806812982E+04  0.38710756016E+02 -0.71820276653E+03  0.15567898328E+04  0.50400001928E-02 0. -1.
       -1    1    3    3    0  502  0.13806812982E+04 -0.38710756016E+02  0.77059497819E+03  0.15816434460E+04  0.50400001928E-02 0.  1.
</event>
<event>
 5   0  0.1846850E-06  0.3119349E+04  0.7818609E-02  0.8210448E-01
        1   -1    0    0  501    0  0.00000000000E+00  0.00000000000E+00  0.17133761504E+04  0.17133761504E+04  0.50400001928E-02 0.  1.
       -1   -1    0    0    0  501  0.00000000000E+00  0.00000000000E+00 -0.14197608235E+04  0.14197608235E+04  0.50400001928E-02 0. -1.
    10030    2    1    2    0    0  0.00000000000E+00  0.00000000000E+00  0.29361532687E+03  0.31331369739E+04  0.31193488643E+04 0.  0.
        5    1    3    3  502    0 -0.11724023252E+03 -0.13550100412E+04 -0.61995697230E+03  0.14947127555E+04  0.46999998093E+01 0. -1.
       -5    1    3    3    0  502  0.11724023252E+03  0.13550100412E+04  0.91357229917E+03  0.16384242185E+04  0.46999998093E+01 0.  1.
</event>
<event>
 5   0  0.1881144E-06  0.2041779E+04  0.7818609E-02  0.8587333E-01
       -1   -1    0    0    0  501  0.00000000000E+00  0.00000000000E+00  0.52369250673E+03  0.52369250676E+03  0.50400001928E-02 0.  1.
        1   -1    0    0  501    0  0.00000000000E+00  0.00000000000E+00 -0.19901287850E+04  0.19901287850E+04  0.50400001928E-02 0. -1.
    10030    2    1    2    0    0  0.00000000000E+00  0.00000000000E+00 -0.14664362783E+04  0.25138212918E+04  0.20417791577E+04 0.  0.
        3    1    3    3  502    0  0.75159933128E+03 -0.47079643326E+03 -0.13557491727E+04  0.16200637845E+04  0.10100000352E+00 0.  1.
       -3    1    3    3    0  502 -0.75159933128E+03  0.47079643326E+03 -0.11068710563E+03  0.89375750733E+03  0.10100000352E+00 0. -1.
</event>
<event>
 5   0  0.1881144E-06  0.3208209E+04  0.7818609E-02  0.8186652E-01
       -1   -1    0    0    0  501  0.00000000000E+00  0.00000000000E+00  0.28189656785E+04  0.28189656785E+04  0.50400001928E-02 0.  1.
        1   -1    0    0  501    0  0.00000000000E+00  0.00000000000E+00 -0.91279991791E+03  0.91279991793E+03  0.50400001928E-02 0. -1.
    10030    2    1    2    0    0  0.00000000000E+00  0.00000000000E+00  0.19061657606E+04  0.37317655964E+04  0.32082092450E+04 0.  0.
        3    1    3    3  502    0  0.15035948242E+04  0.25698686991E+03  0.15303734205E+04  0.21607596958E+04  0.10100000352E+00 0.  1.
       -3    1    3    3    0  502 -0.15035948242E+04 -0.25698686991E+03  0.37579234005E+03  0.15710059006E+04  0.10100000352E+00 0. -1.
</event>
<event>
 5   0  0.1846850E-06  0.3302509E+04  0.7818609E-02  0.8162257E-01
        1   -1    0    0  501    0  0.00000000000E+00  0.00000000000E+00  0.22507388143E+04  0.22507388143E+04  0.50400001928E-02 0.  1.
       -1   -1    0    0    0  501  0.00000000000E+00  0.00000000000E+00 -0.12114431943E+04  0.12114431943E+04  0.50400001928E-02 0. -1.
    10030    2    1    2    0    0  0.00000000000E+00  0.00000000000E+00  0.10392956200E+04  0.34621820086E+04  0.33025094814E+04 0.  0.
        5    1    3    3  502    0  0.10736328889E+04  0.10587345846E+04 -0.18595687482E+03  0.15192789573E+04  0.46999998093E+01 0. -1.
       -5    1    3    3    0  502 -0.10736328889E+04 -0.10587345846E+04  0.12252524948E+04  0.19429030513E+04  0.46999998093E+01 0.  1.
</event>
<event>
 5   0  0.5121624E-06  0.3200124E+04  0.7818609E-02  0.8188785E-01
        2   -1    0    0  501    0  0.00000000000E+00  0.00000000000E+00  0.14465645959E+04  0.14465645959E+04  0.25500000920E-02 0.  1.
       -2   -1    0    0    0  501  0.00000000000E+00  0.00000000000E+00 -0.17698467730E+04  0.17698467730E+04  0.25500000920E-02 0. -1.
    10030    2    1    2    0    0  0.00000000000E+00  0.00000000000E+00 -0.32328217713E+03  0.32164113689E+04  0.32001235489E+04 0.  0.
        4    1    3    3  502    0  0.79557138625E+03  0.71831195604E+03 -0.13556649380E+04  0.17282172704E+04  0.12699999809E+01 0. -1.
       -4    1    3    3    0  502 -0.79557138625E+03 -0.71831195604E+03  0.10323827609E+04  0.14881940985E+04  0.12699999809E+01 0.  1.
</event>
<event>
 5   0  0.5131083E-06  0.3099024E+04  0.7818609E-02  0.8216006E-01
       -2   -1    0    0    0  501  0.00000000000E+00  0.00000000000E+00  0.21289454690E+04  0.21289454690E+04  0.25500000920E-02 0. -1.
        2   -1    0    0  501    0  0.00000000000E+00  0.00000000000E+00 -0.11277823654E+04  0.11277823654E+04  0.25500000920E-02 0.  1.
    10030    2    1    2    0    0  0.00000000000E+00  0.00000000000E+00  0.10011631036E+04  0.32567278344E+04  0.30990238184E+04 0.  0.
        3    1    3    3  502    0 -0.29184699518E+03 -0.13365111306E+03 -0.10924589804E+04  0.11386412616E+04  0.10100000352E+00 0.  1.
       -3    1    3    3    0  502  0.29184699518E+03  0.13365111306E+03  0.20936220840E+04  0.21180865727E+04  0.10100000352E+00 0. -1.
</event>
<event>
 5   0  0.5347280E-06  0.3135853E+04  0.7818609E-02  0.8205967E-01
       -2   -1    0    0    0  501  0.00000000000E+00  0.00000000000E+00  0.12511490639E+04  0.12511490639E+04  0.25500000920E-02 0. -1.
        2   -1    0    0  501    0  0.00000000000E+00  0.00000000000E+00 -0.19649091517E+04  0.19649091517E+04  0.25500000920E-02 0.  1.
    10030    2    1    2    0    0  0.00000000000E+00  0.00000000000E+00 -0.71376008776E+03  0.32160582156E+04  0.31358534697E+04 0.  0.
        2    1    3    3  502    0  0.31811518477E+03  0.15102948118E+04 -0.73764112082E+02  0.15451954031E+04  0.25500000920E-02 0. -1.
       -2    1    3    3    0  502 -0.31811518477E+03 -0.15102948118E+04 -0.63999597568E+03  0.16708628125E+04  0.25500000920E-02 0.  1.
</event>
<event>
 5   0  0.5108810E-06  0.2136081E+04  0.7818609E-02  0.8545514E-01
        2   -1    0    0  501    0  0.00000000000E+00  0.00000000000E+00  0.15223814709E+04  0.15223814709E+04  0.25500000920E-02 0.  1.
       -2   -1    0    0    0  501  0.00000000000E+00  0.00000000000E+00 -0.74929355338E+03  0.74929355339E+03  0.25500000920E-02 0. -1.
    10030    2    1    2    0    0  0.00000000000E+00  0.00000000000E+00  0.77308791756E+03  0.22716750243E+04  0.21360811052E+04 0.  0.
        1    1    3    3  502    0  0.27738476658E+03  0.83435118994E+03 -0.25826611457E+03  0.91639816829E+03  0.50400001928E-02 0. -1.
       -1    1    3    3    0  502 -0.27738476658E+03 -0.83435118994E+03  0.10313540321E+04  0.13552768560E+04  0.50400001928E-02 0.  1.
</event>
<event>
 5   0  0.5373060E-06  0.3015918E+04  0.7818609E-02  0.8239200E-01
       -2   -1    0    0    0  501  0.00000000000E+00  0.00000000000E+00  0.16184845313E+04  0.16184845313E+04  0.25500000920E-02 0. -1.
        2   -1    0    0  501    0  0.00000000000E+00  0.00000000000E+00 -0.14049814962E+04  0.14049814962E+04  0.25500000920E-02 0.  1.
    10030    2    1    2    0    0  0.00000000000E+00  0.00000000000E+00  0.21350303510E+03  0.30234660276E+04  0.30159183135E+04 0.  0.
        5    1    3    3  502    0 -0.62805324230E+03 -0.31455996761E+03 -0.12309491144E+04  0.14172708494E+04  0.46999998093E+01 0.  1.
       -5    1    3    3    0  502  0.62805324230E+03  0.31455996761E+03  0.14444521495E+04  0.16061951782E+04  0.46999998093E+01 0. -1.
</event>
<event>
 5   0  0.5131083E-06  0.2657206E+04  0.7818609E-02  0.8349025E-01
        2   -1    0    0  501    0  0.00000000000E+00  0.00000000000E+00  0.22664771541E+04  0.22664771541E+04  0.25500000920E-02 0.  1.
       -2   -1    0    0    0  501  0.00000000000E+00  0.00000000000E+00 -0.77882382308E+03  0.77882382308E+03  0.25500000920E-02 0. -1.
    10030    2    1    2    0    0  0.00000000000E+00  0.00000000000E+00  0.14876533310E+04  0.30453009771E+04  0.26572063541E+04 0.  0.
        3    1    3    3  502    0  0.16704617948E+03 -0.37927945444E+03 -0.70284943343E+03  0.81593790628E+03  0.10100000352E+00 0. -1.
       -3    1    3    3    0  502 -0.16704617948E+03  0.37927945444E+03  0.21905027644E+04  0.22293630709E+04  0.10100000352E+00 0.  1.
</event>
<event>
 5   0  0.1977015E-06  0.3164732E+04  0.7818609E-02  0.8198194E-01
       -1   -1    0    0    0  501  0.00000000000E+00  0.00000000000E+00  0.22219619120E+04  0.22219619120E+04  0.50400001928E-02 0. -1.
        1   -1    0    0  501    0  0.00000000000E+00  0.00000000000E+00 -0.11268788254E+04  0.11268788254E+04  0.50400001928E-02 0.  1.
    10030    2    1    2    0    0  0.00000000000E+00  0.00000000000E+00  0.10950830866E+04  0.33488407374E+04  0.31647317924E+04 0.  0.
        1    1    3    3  502    0  0.83228995296E+03  0.57720608802E+03  0.18340007951E+04  0.20950972174E+04  0.50400001928E-02 0. -1.
       -1    1    3    3    0  502 -0.83228995296E+03 -0.57720608802E+03 -0.73891770857E+03  0.12537435200E+04  0.50400001928E-02 0.  1.
</event>
<event>
 5   0  0.1881144E-06  0.2655738E+04  0.7818609E-02  0.8349511E-01
        1   -1    0    0  501    0  0.00000000000E+00  0.00000000000E+00  0.18220678409E+04  0.18220678409E+04  0.50400001928E-02 0. -1.
       -1   -1    0    0    0  501  0.00000000000E+00  0.00000000000E+00 -0.96771168865E+03  0.96771168866E+03  0.50400001928E-02 0.  1.
    10030    2    1    2    0    0  0.00000000000E+00  0.00000000000E+00  0.85435615221E+03  0.27897795295E+04  0.26557382003E+04 0.  0.
        3    1    3    3  502    0 -0.49346778308E+03  0.12300127474E+04  0.34058878620E+03  0.13683722239E+04  0.10100000352E+00 0.  1.
       -3    1    3    3    0  502  0.49346778308E+03 -0.12300127474E+04  0.51376736601E+03  0.14214073056E+04  0.10100000352E+00 0. -1.
</event>
<event>
 5   0  0.1846850E-06  0.2947385E+04  0.7818609E-02  0.8258917E-01
       -1   -1    0    0    0  501  0.00000000000E+00  0.00000000000E+00  0.16900169078E+04  0.16900169078E+04  0.50400001928E-02 0.  1.
        1   -1    0    0  501    0  0.00000000000E+00  0.00000000000E+00 -0.12850583174E+04  0.12850583175E+04  0.50400001928E-02 0. -1.
    10030    2    1    2    0    0  0.00000000000E+00  0.00000000000E+00  0.40495859037E+03  0.29750752253E+04  0.29473854747E+04 0.  0.
        5    1    3    3  502    0 -0.12334195649E+04 -0.65893274152E+03 -0.26689684397E+03  0.14236474972E+04  0.46999998093E+01 0. -1.
       -5    1    3    3    0  502  0.12334195649E+04  0.65893274152E+03  0.67185543434E+03  0.15514277281E+04  0.46999998093E+01 0.  1.
</event>
<event>
 5   0  0.1881144E-06  0.3203709E+04  0.7818609E-02  0.8187838E-01
        1   -1    0    0  501    0  0.00000000000E+00  0.00000000000E+00  0.17160291059E+04  0.17160291059E+04  0.50400001928E-02 0. -1.
       -1   -1    0    0    0  501  0.00000000000E+00  0.00000000000E+00 -0.14952762683E+04  0.14952762683E+04  0.50400001928E-02 0.  1.
    10030    2    1    2    0    0  0.00000000000E+00  0.00000000000E+00  0.22075283756E+03  0.32113053742E+04  0.32037088493E+04 0.  0.
        3    1    3    3  502    0 -0.91407897116E+03  0.18548251363E+03  0.14157675319E+04  0.16953884047E+04  0.10100000352E+00 0. -1.
       -3    1    3    3    0  502  0.91407897116E+03 -0.18548251363E+03 -0.11950146943E+04  0.15159169694E+04  0.10100000352E+00 0.  1.
</event>
<event>
 5   0  0.5347280E-06  0.2865937E+04  0.7818609E-02  0.8283085E-01
        2   -1    0    0  501    0  0.00000000000E+00  0.00000000000E+00  0.19369583756E+04  0.19369583756E+04  0.25500000920E-02 0. -1.
       -2   -1    0    0    0  501  0.00000000000E+00  0.00000000000E+00 -0.10601148218E+04  0.10601148218E+04  0.25500000920E-02 0.  1.
    10030    2    1    2    0    0  0.00000000000E+00  0.00000000000E+00  0.87684355380E+03  0.29970731973E+04  0.28659366937E+04 0.  0.
        2    1    3    3  502    0 -0.41869274588E+03  0.10297821119E+04 -0.50718971845E+03  0.12218822464E+04  0.25500000920E-02 0.  1.
       -2    1    3    3    0  502  0.41869274588E+03 -0.10297821119E+04  0.13840332723E+04  0.17751909509E+04  0.25500000920E-02 0. -1.
</event>
<event>
 5   0  0.5131083E-06  0.3223292E+04  0.7818609E-02  0.8182693E-01
       -2   -1    0    0    0  501  0.00000000000E+00  0.00000000000E+00  0.14011211700E+04  0.14011211700E+04  0.25500000920E-02 0. -1.
        2   -1    0    0  501    0  0.00000000000E+00  0.00000000000E+00 -0.18538030611E+04  0.18538030611E+04  0.25500000920E-02 0.  1.
    10030    2    1    2    0    0  0.00000000000E+00  0.00000000000E+00 -0.45268189106E+03  0.32549242311E+04  0.32232919284E+04 0.  0.
        3    1    3    3  502    0 -0.60270303464E+03  0.13364038215E+04 -0.90237071777E+03  0.17214816423E+04  0.10100000352E+00 0.  1.
       -3    1    3    3    0  502  0.60270303464E+03 -0.13364038215E+04  0.44968882671E+03  0.15334425888E+04  0.10100000352E+00 0. -1.
</event>
<event>
 5   0  0.1881144E-06  0.3184557E+04  0.7818609E-02  0.8192907E-01
        1   -1    0    0  501    0  0.00000000000E+00  0.00000000000E+00  0.16021203034E+04  0.16021203034E+04  0.50400001928E-02 0.  1.
       -1   -1    0    0    0  501  0.00000000000E+00  0.00000000000E+00 -0.15824974520E+04  0.15824974520E+04  0.50400001928E-02 0. -1.
    10030    2    1    2    0    0  0.00000000000E+00  0.00000000000E+00  0.19622851467E+02  0.31846177554E+04  0.31845572992E+04 0.  0.
        3    1    3    3  502    0 -0.56463873165E+03  0.85896104405E+03 -0.12062381047E+04  0.15848158719E+04  0.10100000352E+00 0. -1.
       -3    1    3    3    0  502  0.56463873165E+03 -0.85896104405E+03  0.12258609561E+04  0.15998018835E+04  0.10100000352E+00 0.  1.
</event>
<event>
 5   0  0.1969465E-06  0.2559771E+04  0.7818609E-02  0.8381996E-01
        1   -1    0    0  501    0  0.00000000000E+00  0.00000000000E+00  0.11156584399E+04  0.11156584399E+04  0.50400001928E-02 0. -1.
       -1   -1    0    0    0  501  0.00000000000E+00  0.00000000000E+00 -0.14682873363E+04  0.14682873363E+04  0.50400001928E-02 0.  1.
    10030    2    1    2    0    0  0.00000000000E+00  0.00000000000E+00 -0.35262889637E+03  0.25839457762E+04  0.25597712077E+04 0.  0.
        2    1    3    3  502    0  0.91334111138E+03 -0.71830041475E+03  0.36537215223E+03  0.12180493755E+04  0.25500000920E-02 0. -1.
       -2    1    3    3    0  502 -0.91334111138E+03  0.71830041475E+03 -0.71800104860E+03  0.13658964007E+04  0.25500000920E-02 0.  1.
</event>
<event>
 5   0  0.5347280E-06  0.3193150E+04  0.7818609E-02  0.8190629E-01
       -2   -1    0    0    0  501  0.00000000000E+00  0.00000000000E+00  0.13930574835E+04  0.13930574835E+04  0.25500000920E-02 0.  1.
        2   -1    0    0  501    0  0.00000000000E+00  0.00000000000E+00 -0.18298246858E+04  0.18298246858E+04  0.25500000920E-02 0. -1.
    10030    2    1    2    0    0  0.00000000000E+00  0.00000000000E+00 -0.43676720229E+03  0.32228821693E+04  0.31931495249E+04 0.  0.
        2    1    3    3  502    0  0.26005245151E+03  0.15036076571E+04 -0.69242451451E+03  0.16756834344E+04  0.25500000920E-02 0. -1.
       -2    1    3    3    0  502 -0.26005245151E+03 -0.15036076571E+04  0.25565731222E+03  0.15471987349E+04  0.25500000920E-02 0.  1.
</event>
<event>
 5   0  0.1886248E-06  0.3161653E+04  0.7818609E-02  0.8199019E-01
        1   -1    0    0  501    0  0.00000000000E+00  0.00000000000E+00  0.14085995895E+04  0.14085995895E+04  0.50400001928E-02 0. -1.
       -1   -1    0    0    0  501  0.00000000000E+00  0.00000000000E+00 -0.17741111013E+04  0.17741111013E+04  0.50400001928E-02 0.  1.
    10030    2    1    2    0    0  0.00000000000E+00  0.00000000000E+00 -0.36551151180E+03  0.31827106909E+04  0.31616528393E+04 0.  0.
        4    1    3    3  502    0 -0.12370997756E+04 -0.49480612519E+03  0.67365231294E+03  0.14930030167E+04  0.12699999809E+01 0. -1.
       -4    1    3    3    0  502  0.12370997756E+04  0.49480612519E+03 -0.10391638247E+04  0.16897076741E+04  0.12699999809E+01 0.  1.
</event>
<event>
 5   0  0.5108810E-06  0.3163499E+04  0.7818609E-02  0.8198524E-01
        2   -1    0    0  501    0  0.00000000000E+00  0.00000000000E+00  0.14169032201E+04  0.14169032201E+04  0.25500000920E-02 0.  1.
       -2   -1    0    0    0  501  0.00000000000E+00  0.00000000000E+00 -0.17657748626E+04  0.17657748626E+04  0.25500000920E-02 0. -1.
    10030    2    1    2    0    0  0.00000000000E+00  0.00000000000E+00 -0.34887164245E+03  0.31826780827E+04  0.31634993844E+04 0.  0.
        1    1    3    3  502    0 -0.87229422099E+03 -0.21112622840E+02 -0.15017480438E+04  0.17368333650E+04  0.50400001928E-02 0. -1.
       -1    1    3    3    0  502  0.87229422099E+03  0.21112622840E+02  0.11528764014E+04  0.14458447177E+04  0.50400001928E-02 0.  1.
</event>
<event>
 5   0  0.1886248E-06  0.3227908E+04  0.7818609E-02  0.8181485E-01
        1   -1    0    0  501    0  0.00000000000E+00  0.00000000000E+00  0.21059066531E+04  0.21059066531E+04  0.50400001928E-02 0.  1.
       -1   -1    0    0    0  501  0.00000000000E+00  0.00000000000E+00 -0.12369245216E+04  0.12369245216E+04  0.50400001928E-02 0. -1.
    10030    2    1    2    0    0  0.00000000000E+00  0.00000000000E+00  0.86898213157E+03  0.33428311747E+04  0.32279080405E+04 0.  0.
        4    1    3    3  502    0 -0.79837067254E+03  0.86416238963E+03  0.15786676775E+04  0.19688488046E+04  0.12699999809E+01 0.  1.
       -4    1    3    3    0  502  0.79837067254E+03 -0.86416238963E+03 -0.70968554595E+03  0.13739823701E+04  0.12699999809E+01 0. -1.
</event>
<event>
 5   0  0.1881144E-06  0.3151616E+04  0.7818609E-02  0.8201713E-01
        1   -1    0    0  501    0  0.00000000000E+00  0.00000000000E+00  0.29156988518E+04  0.29156988518E+04  0.50400001928E-02 0.  1.
       -1   -1    0    0    0  501  0.00000000000E+00  0.00000000000E+00 -0.85165544559E+03  0.85165544560E+03  0.50400001928E-02 0. -1.
    10030    2    1    2    0    0  0.00000000000E+00  0.00000000000E+00  0.20640434062E+04  0.37673542974E+04  0.31516159695E+04 0.  0.
        3    1    3    3  502    0  0.58627455287E+03 -0.12141874930E+04  0.57077324273E+02  0.13495284179E+04  0.10100000352E+00 0. -1.
       -3    1    3    3    0  502 -0.58627455287E+03  0.12141874930E+04  0.20069660819E+04  0.24178258795E+04  0.10100000352E+00 0.  1.
</event>
<event>
 5   0  0.1969465E-06  0.3210445E+04  0.7818609E-02  0.8186064E-01
       -1   -1    0    0    0  501  0.00000000000E+00  0.00000000000E+00  0.19680862455E+04  0.19680862455E+04  0.50400001928E-02 0. -1.
        1   -1    0    0  501    0  0.00000000000E+00  0.00000000000E+00 -0.13092611101E+04  0.13092611101E+04  0.50400001928E-02 0.  1.
    10030    2    1    2    0    0  0.00000000000E+00  0.00000000000E+00  0.65882513546E+03  0.32773473556E+04  0.32104446935E+04 0.  0.
        2    1    3    3  502    0  0.69267336069E+03  0.12670549197E+04 -0.38627805636E+03  0.14948027599E+04  0.25500000920E-02 0.  1.
       -2    1    3    3    0  502 -0.69267336069E+03 -0.12670549197E+04  0.10451031918E+04  0.17825445957E+04  0.25500000920E-02 0. -1.
</event>
<event>
 5   0  0.5108810E-06  0.3034814E+04  0.7818609E-02  0.8233859E-01
       -2   -1    0    0    0  501  0.00000000000E+00  0.00000000000E+00  0.15125545635E+04  0.15125545635E+04  0.25500000920E-02 0.  1.
        2   -1    0    0  501    0  0.00000000000E+00  0.00000000000E+00 -0.15222751575E+04  0.15222751575E+04  0.25500000920E-02 0. -1.
    10030    2    1    2    0    0  0.00000000000E+00  0.00000000000E+00 -0.97205939269E+01  0.30348297210E+04  0.30348141534E+04 0.  0.
        1    1    3    3  502    0 -0.63724550181E+03 -0.64883897625E+03  0.12098271225E+04  0.15135242030E+04  0.50400001928E-02 0.  1.
       -1    1    3    3    0  502  0.63724550181E+03  0.64883897625E+03 -0.12195477164E+04  0.15213055181E+04  0.50400001928E-02 0. -1.
</event>
<event>
 5   0  0.5373060E-06  0.3194501E+04  0.7818609E-02  0.8190271E-01
        2   -1    0    0  501    0  0.00000000000E+00  0.00000000000E+00  0.22395961238E+04  0.22395961238E+04  0.25500000920E-02 0.  1.
       -2   -1    0    0    0  501  0.00000000000E+00  0.00000000000E+00 -0.11391379817E+04  0.11391379817E+04  0.25500000920E-02 0. -1.
    10030    2    1    2    0    0  0.00000000000E+00  0.00000000000E+00  0.11004581421E+04  0.33787341055E+04  0.31945009052E+04 0.  0.
        5    1    3    3  502    0 -0.29519501507E+02 -0.10654132780E+02 -0.11388045392E+04  0.11392465844E+04  0.46999998093E+01 0. -1.
       -5    1    3    3    0  502  0.29519501507E+02  0.10654132780E+02  0.22392626813E+04  0.22394875212E+04  0.46999998093E+01 0.  1.
</event>
<event>
 5   0  0.1846850E-06  0.3159429E+04  0.7818609E-02  0.8199615E-01
        1   -1    0    0  501    0  0.00000000000E+00  0.00000000000E+00  0.20380837437E+04  0.20380837437E+04  0.50400001928E-02 0.  1.
       -1   -1    0    0    0  501  0.00000000000E+00  0.00000000000E+00 -0.12244334113E+04  0.12244334113E+04  0.50400001928E-02 0. -1.
    10030    2    1    2    0    0  0.00000000000E+00  0.00000000000E+00  0.81365033240E+03  0.32625171550E+04  0.31594289552E+04 0.  0.
        5    1    3    3  502    0  0.28392531244E+03 -0.10939193771E+04 -0.73291003753E+03  0.13470161097E+04  0.46999998093E+01 0.  1.
       -5    1    3    3    0  502 -0.28392531244E+03  0.10939193771E+04  0.15465603699E+04  0.19155010453E+04  0.46999998093E+01 0. -1.
</event>
<event>
 5   0  0.5121624E-06  0.3112443E+04  0.7818609E-02  0.8212331E-01
        2   -1    0    0  501    0  0.00000000000E+00  0.00000000000E+00  0.19536163988E+04  0.19536163988E+04  0.25500000920E-02 0. -1.
       -2   -1    0    0    0  501  0.00000000000E+00  0.00000000000E+00 -0.12396627786E+04  0.12396627786E+04  0.25500000920E-02 0.  1.
    10030    2    1    2    0    0  0.00000000000E+00  0.00000000000E+00  0.71395362013E+03  0.31932791774E+04  0.31124431132E+04 0.  0.
        4    1    3    3  502    0  0.49775094103E+03  0.12730173037E+04  0.11202715418E+04  0.17672970874E+04  0.12699999809E+01 0.  1.
       -4    1    3    3    0  502 -0.49775094103E+03 -0.12730173037E+04 -0.40631792164E+03  0.14259820900E+04  0.12699999809E+01 0. -1.
</event>
<event>
 5   0  0.1977015E-06  0.3227612E+04  0.7818609E-02  0.8181563E-01
        1   -1    0    0  501    0  0.00000000000E+00  0.00000000000E+00  0.26208456358E+04  0.26208456358E+04  0.50400001928E-02 0. -1.
       -1   -1    0    0    0  501  0.00000000000E+00  0.00000000000E+00 -0.99371326684E+03  0.99371326685E+03  0.50400001928E-02 0.  1.
    10030    2    1    2    0    0  0.00000000000E+00  0.00000000000E+00  0.16271323690E+04  0.36145589027E+04  0.32276115496E+04 0.  0.
        1    1    3    3  502    0 -0.12689094750E+04  0.79400874689E+03  0.13810843304E+03  0.15032149165E+04  0.50400001928E-02 0.  1.
       -1    1    3    3    0  502  0.12689094750E+04 -0.79400874689E+03  0.14890239360E+04  0.21113439862E+04  0.50400001928E-02 0. -1.
</event>
<event>
 5   0  0.1846850E-06  0.3218115E+04  0.7818609E-02  0.8184049E-01
       -1   -1    0    0    0  501  0.00000000000E+00  0.00000000000E+00  0.12423747451E+04  0.12423747452E+04  0.50400001928E-02 0. -1.
        1   -1    0    0  501    0  0.00000000000E+00  0.00000000000E+00 -0.20839650088E+04  0.20839650088E+04  0.50400001928E-02 0.  1.
    10030    2    1    2    0    0  0.00000000000E+00  0.00000000000E+00 -0.84159026366E+03  0.33263397540E+04  0.32181146634E+04 0.  0.
        5    1    3    3  502    0  0.88402626480E+03 -0.72838059543E+03 -0.15888439545E+04  0.19586954665E+04  0.46999998093E+01 0.  1.
       -5    1    3    3    0  502 -0.88402626480E+03  0.72838059543E+03  0.74725369084E+03  0.13676442875E+04  0.46999998093E+01 0. -1.
</event>
<event>
 5   0  0.1969465E-06  0.3100357E+04  0.7818609E-02  0.8215640E-01
       -1   -1    0    0    0  501  0.00000000000E+00  0.00000000000E+00  0.14727970330E+04  0.14727970330E+04  0.50400001928E-02 0. -1.
        1   -1    0    0  501    0  0.00000000000E+00  0.00000000000E+00 -0.16316259442E+04  0.16316259442E+04  0.50400001928E-02 0.  1.
    10030    2    1    2    0    0  0.00000000000E+00  0.00000000000E+00 -0.15882891112E+03  0.31044229772E+04  0.31003573017E+04 0.  0.
        2    1    3    3  502    0 -0.13713466924E+04  0.60392439050E+03  0.31826808208E+03  0.15318652005E+04  0.25500000920E-02 0. -1.
       -2    1    3    3    0  502  0.13713466924E+04 -0.60392439050E+03 -0.47709699320E+03  0.15725577767E+04  0.25500000920E-02 0.  1.
</event>
<event>
 5   0  0.1969465E-06  0.3245636E+04  0.7818609E-02  0.8176868E-01
        1   -1    0    0  501    0  0.00000000000E+00  0.00000000000E+00  0.27036771805E+04  0.27036771805E+04  0.50400001928E-02 0.  1.
       -1   -1    0    0    0  501  0.00000000000E+00  0.00000000000E+00 -0.97405796714E+03  0.97405796716E+03  0.50400001928E-02 0. -1.
    10030    2    1    2    0    0  0.00000000000E+00  0.00000000000E+00  0.17296192134E+04  0.36777351477E+04  0.32456360229E+04 0.  0.
        2    1    3    3  502    0 -0.73101165865E+03  0.61251406153E+03  0.23526200428E+04  0.25385768821E+04  0.25500000920E-02 0.  1.
       -2    1    3    3    0  502  0.73101165865E+03 -0.61251406153E+03 -0.62300082938E+03  0.11391582656E+04  0.25500000920E-02 0. -1.
</event>
<event>
 5   0  0.1846850E-06  0.2666453E+04  0.7818609E-02  0.8345973E-01
        1   -1    0    0  501    0  0.00000000000E+00  0.00000000000E+00  0.15030328891E+04  0.15030328891E+04  0.50400001928E-02 0.  1.
       -1   -1    0    0    0  501  0.00000000000E+00  0.00000000000E+00 -0.11826040654E+04  0.11826040654E+04  0.50400001928E-02 0. -1.
    10030    2    1    2    0    0  0.00000000000E+00  0.00000000000E+00  0.32042882370E+03  0.26856369544E+04  0.26664529285E+04 0.  0.
        5    1    3    3  502    0  0.61679964240E+03 -0.11712740516E+04  0.49858901477E+00  0.13237624566E+04  0.46999998093E+01 0. -1.
       -5    1    3    3    0  502 -0.61679964240E+03  0.11712740516E+04  0.31993023468E+03  0.13618744979E+04  0.46999998093E+01 0.  1.
</event>
<event>
 5   0  0.1846850E-06  0.3271951E+04  0.7818609E-02  0.8170069E-01
        1   -1    0    0  501    0  0.00000000000E+00  0.00000000000E+00  0.85733550838E+03  0.85733550839E+03  0.50400001928E-02 0. -1.
       -1   -1    0    0    0  501  0.00000000000E+00  0.00000000000E+00 -0.31217838483E+04  0.31217838483E+04  0.50400001928E-02 0.  1.
    10030    2    1    2    0    0  0.00000000000E+00  0.00000000000E+00 -0.22644483399E+04  0.39791193567E+04  0.32719511871E+04 0.  0.
        5    1    3    3  502    0 -0.10127546059E+03 -0.74231153765E+03 -0.29008938202E+04  0.29960791351E+04  0.46999998093E+01 0.  1.
       -5    1    3    3    0  502  0.10127546059E+03  0.74231153765E+03  0.63644548028E+03  0.98304022156E+03  0.46999998093E+01 0. -1.
</event>
<event>
 5   0  0.1969465E-06  0.3106009E+04  0.7818609E-02  0.8214091E-01
       -1   -1    0    0    0  501  0.00000000000E+00  0.00000000000E+00  0.16767242554E+04  0.16767242554E+04  0.50400001928E-02 0. -1.
        1   -1    0    0  501    0  0.00000000000E+00  0.00000000000E+00 -0.14384139685E+04  0.14384139685E+04  0.50400001928E-02 0.  1.
    10030    2    1    2    0    0  0.00000000000E+00  0.00000000000E+00  0.23831028692E+03  0.31151382238E+04  0.31060093948E+04 0.  0.
        2    1    3    3  502    0  0.13484453027E+04 -0.28068859491E+03  0.83871257885E+03  0.16126157669E+04  0.25500000920E-02 0. -1.
       -2    1    3    3    0  502 -0.13484453027E+04  0.28068859491E+03 -0.60040229193E+03  0.15025224570E+04  0.25500000920E-02 0.  1.
</event>
<event>
 5   0  0.1969465E-06  0.2268169E+04  0.7818609E-02  0.8490579E-01
        1   -1    0    0  501    0  0.00000000000E+00  0.00000000000E+00  0.69464248141E+03  0.69464248143E+03  0.50400001928E-02 0. -1.
       -1   -1    0    0    0  501  0.00000000000E+00  0.00000000000E+00 -0.18515238057E+04  0.18515238057E+04  0.50400001928E-02 0.  1.
    10030    2    1    2    0    0  0.00000000000E+00  0.00000000000E+00 -0.11568813243E+04  0.25461662871E+04  0.22681685041E+04 0.  0.
        2    1    3    3  502    0 -0.33022400938E+03 -0.10480748244E+04 -0.89323626924E+03  0.14161143197E+04  0.25500000920E-02 0. -1.
       -2    1    3    3    0  502  0.33022400938E+03  0.10480748244E+04 -0.26364505501E+03  0.11300519674E+04  0.25500000920E-02 0.  1.
</event>
<event>
 5   0  0.1729500E-06  0.3269311E+04  0.7818609E-02  0.8170748E-01
       -4   -1    0    0    0  501  0.00000000000E+00  0.00000000000E+00  0.18874560058E+04  0.18874564331E+04  0.12699999809E+01 0.  1.
        4   -1    0    0  501    0  0.00000000000E+00  0.00000000000E+00 -0.14157134054E+04  0.14157139750E+04  0.12699999809E+01 0. -1.
    10030    2    1    2    0    0  0.00000000000E+00  0.00000000000E+00  0.47174260044E+03  0.33031704081E+04  0.32693108852E+04 0.  0.
        4    1    3    3  502    0  0.12345259015E+04 -0.10706048619E+04  0.19243969208E+03  0.16453825147E+04  0.12699999809E+01 0.  1.
       -4    1    3    3    0  502 -0.12345259015E+04  0.10706048619E+04  0.27930290836E+03  0.16577878933E+04  0.12699999809E+01 0. -1.
</event>
<event>
 5   0  0.5108810E-06  0.3038584E+04  0.7818609E-02  0.8232798E-01
       -2   -1    0    0    0  501  0.00000000000E+00  0.00000000000E+00  0.12819760446E+04  0.12819760447E+04  0.25500000920E-02 0.  1.
        2   -1    0    0  501    0  0.00000000000E+00  0.00000000000E+00 -0.18005391562E+04  0.18005391562E+04  0.25500000920E-02 0. -1.
    10030    2    1    2    0    0  0.00000000000E+00  0.00000000000E+00 -0.51856311159E+03  0.30825152009E+04  0.30385839240E+04 0.  0.
        1    1    3    3  502    0  0.65341372932E+03  0.10940867368E+04  0.57988587922E+03  0.14000867552E+04  0.50400001928E-02 0.  1.
       -1    1    3    3    0  502 -0.65341372932E+03 -0.10940867368E+04 -0.10984489908E+04  0.16824284456E+04  0.50400001928E-02 0. -1.
</event>
<event>
 5   0  0.1846850E-06  0.3217633E+04  0.7818609E-02  0.8184176E-01
       -1   -1    0    0    0  501  0.00000000000E+00  0.00000000000E+00  0.10359237067E+04  0.10359237067E+04  0.50400001928E-02 0. -1.
        1   -1    0    0  501    0  0.00000000000E+00  0.00000000000E+00 -0.24985340437E+04  0.24985340437E+04  0.50400001928E-02 0.  1.
    10030    2    1    2    0    0  0.00000000000E+00  0.00000000000E+00 -0.14626103370E+04  0.35344577504E+04  0.32176330729E+04 0.  0.
        5    1    3    3  502    0  0.48394236768E+03  0.73889456498E+02 -0.24147217834E+04  0.24638513040E+04  0.46999998093E+01 0.  1.
       -5    1    3    3    0  502 -0.48394236768E+03 -0.73889456498E+02  0.95211144632E+03  0.10706064465E+04  0.46999998093E+01 0. -1.
</event>
<event>
 5   0  0.1969465E-06  0.2830135E+04  0.7818609E-02  0.8293973E-01
        1   -1    0    0  501    0  0.00000000000E+00  0.00000000000E+00  0.17021556960E+04  0.17021556960E+04  0.50400001928E-02 0. -1.
       -1   -1    0    0    0  501  0.00000000000E+00  0.00000000000E+00 -0.11764001923E+04  0.11764001923E+04  0.50400001928E-02 0.  1.
    10030    2    1    2    0    0  0.00000000000E+00  0.00000000000E+00  0.52575550370E+03  0.28785558883E+04  0.28301351827E+04 0.  0.
        2    1    3    3  502    0 -0.30305163801E+03  0.79614594018E+03  0.14121333157E+04  0.16491843908E+04  0.25500000920E-02 0. -1.
       -2    1    3    3    0  502  0.30305163801E+03 -0.79614594018E+03 -0.88637781202E+03  0.12293714976E+04  0.25500000920E-02 0.  1.
</event>
<event>
 5   0  0.1977015E-06  0.3163252E+04  0.7818609E-02  0.8198590E-01
        1   -1    0    0  501    0  0.00000000000E+00  0.00000000000E+00  0.27642637937E+04  0.27642637937E+04  0.50400001928E-02 0.  1.
       -1   -1    0    0    0  501  0.00000000000E+00  0.00000000000E+00 -0.90495725289E+03  0.90495725291E+03  0.50400001928E-02 0. -1.
    10030    2    1    2    0    0  0.00000000000E+00  0.00000000000E+00  0.18593065408E+04  0.36692210466E+04  0.31632518515E+04 0.  0.
        1    1    3    3  502    0  0.85984201432E+03 -0.71744762096E+03 -0.36590546845E+03  0.11781112809E+04  0.50400001928E-02 0. -1.
       -1    1    3    3    0  502 -0.85984201432E+03  0.71744762096E+03  0.22252120092E+04  0.24911097656E+04  0.50400001928E-02 0.  1.
</event>
<event>
 5   0  0.5373060E-06  0.3027356E+04  0.7818609E-02  0.8235962E-01
       -2   -1    0    0    0  501  0.00000000000E+00  0.00000000000E+00  0.14355099315E+04  0.14355099315E+04  0.25500000920E-02 0. -1.
        2   -1    0    0  501    0  0.00000000000E+00  0.00000000000E+00 -0.15961029013E+04  0.15961029013E+04  0.25500000920E-02 0.  1.
    10030    2    1    2    0    0  0.00000000000E+00  0.00000000000E+00 -0.16059296988E+03  0.30316128328E+04  0.30273563163E+04 0.  0.
        5    1    3    3  502    0  0.10183722556E+04 -0.44889156657E+02  0.10402506227E+04  0.14564479172E+04  0.46999998093E+01 0. -1.
       -5    1    3    3    0  502 -0.10183722556E+04  0.44889156657E+02 -0.12008435926E+04  0.15751649156E+04  0.46999998093E+01 0.  1.
</event>
<event>
 5   0  0.5373060E-06  0.3202484E+04  0.7818609E-02  0.8188161E-01
       -2   -1    0    0    0  501  0.00000000000E+00  0.00000000000E+00  0.20883727155E+04  0.20883727155E+04  0.25500000920E-02 0. -1.
        2   -1    0    0  501    0  0.00000000000E+00  0.00000000000E+00 -0.12277386764E+04  0.12277386764E+04  0.25500000920E-02 0.  1.
    10030    2    1    2    0    0  0.00000000000E+00  0.00000000000E+00  0.86063403903E+03  0.33161113919E+04  0.32024840069E+04 0.  0.
        5    1    3    3  502    0  0.63861327026E+03 -0.12478281337E+04 -0.37112916774E+03  0.14500554850E+04  0.46999998093E+01 0.  1.
       -5    1    3    3    0  502 -0.63861327026E+03  0.12478281337E+04  0.12317632068E+04  0.18660559070E+04  0.46999998093E+01 0. -1.
</event>
<event>
 5   0  0.5121624E-06  0.3215451E+04  0.7818609E-02  0.8184749E-01
        2   -1    0    0  501    0  0.00000000000E+00  0.00000000000E+00  0.28305062336E+04  0.28305062336E+04  0.25500000920E-02 0.  1.
       -2   -1    0    0    0  501  0.00000000000E+00  0.00000000000E+00 -0.91318665496E+03  0.91318665497E+03  0.25500000920E-02 0. -1.
    10030    2    1    2    0    0  0.00000000000E+00  0.00000000000E+00  0.19173195786E+04  0.37436928885E+04  0.32154505248E+04 0.  0.
        4    1    3    3  502    0 -0.49209945926E+03  0.13458853877E+04  0.18072369148E+04  0.23064423326E+04  0.12699999809E+01 0.  1.
       -4    1    3    3    0  502  0.49209945926E+03 -0.13458853877E+04  0.11008266384E+03  0.14372505559E+04  0.12699999809E+01 0. -1.
</event>
<event>
 5   0  0.1846850E-06  0.3135131E+04  0.7818609E-02  0.8206162E-01
        1   -1    0    0  501    0  0.00000000000E+00  0.00000000000E+00  0.12914229242E+04  0.12914229242E+04  0.50400001928E-02 0. -1.
       -1   -1    0    0    0  501  0.00000000000E+00  0.00000000000E+00 -0.19027554860E+04  0.19027554860E+04  0.50400001928E-02 0.  1.
    10030    2    1    2    0    0  0.00000000000E+00  0.00000000000E+00 -0.61133256181E+03  0.31941784101E+04  0.31351312915E+04 0.  0.
        5    1    3    3  502    0 -0.66169723606E+03 -0.77005838561E+03  0.91115035785E+03  0.13642031425E+04  0.46999998093E+01 0. -1.
       -5    1    3    3    0  502  0.66169723606E+03  0.77005838561E+03 -0.15224829197E+04  0.18299752676E+04  0.46999998093E+01 0.  1.
</event>
<event>
 5   0  0.5347280E-06  0.3069853E+04  0.7818609E-02  0.8224060E-01
       -2   -1    0    0    0  501  0.00000000000E+00  0.00000000000E+00  0.98611312499E+03  0.98611312499E+03  0.25500000920E-02 0. -1.
        2   -1    0    0  501    0  0.00000000000E+00  0.00000000000E+00 -0.23891778190E+04  0.23891778190E+04  0.25500000920E-02 0.  1.
    10030    2    1    2    0    0  0.00000000000E+00  0.00000000000E+00 -0.14030646940E+04  0.33752909440E+04  0.30698531595E+04 0.  0.
        2    1    3    3  502    0  0.14537347118E+03  0.28498722881E+03 -0.23521127941E+04  0.23737703686E+04  0.25500000920E-02 0.  1.
       -2    1    3    3    0  502 -0.14537347118E+03 -0.28498722881E+03  0.94904810007E+03  0.10015205754E+04  0.25500000920E-02 0. -1.
</event>
<event>
 5   0  0.1969465E-06  0.3045728E+04  0.7818609E-02  0.8230792E-01
       -1   -1    0    0    0  501  0.00000000000E+00  0.00000000000E+00  0.13754230595E+04  0.13754230595E+04  0.50400001928E-02 0. -1.
        1   -1    0    0  501    0  0.00000000000E+00  0.00000000000E+00 -0.16861104784E+04  0.16861104784E+04  0.50400001928E-02 0.  1.
    10030    2    1    2    0    0  0.00000000000E+00  0.00000000000E+00 -0.31068741891E+03  0.30615335379E+04  0.30457283088E+04 0.  0.
        2    1    3    3  502    0 -0.60703357052E+03 -0.13840632377E+04 -0.34338244842E+03  0.15498491241E+04  0.25500000920E-02 0. -1.
       -2    1    3    3    0  502  0.60703357052E+03  0.13840632377E+04  0.32695029517E+02  0.15116844137E+04  0.25500000920E-02 0.  1.
</event>
<event>
 5   0  0.5347280E-06  0.3171276E+04  0.7818609E-02  0.8196444E-01
        2   -1    0    0  501    0  0.00000000000E+00  0.00000000000E+00  0.14777373117E+04  0.14777373117E+04  0.25500000920E-02 0. -1.
       -2   -1    0    0    0  501  0.00000000000E+00  0.00000000000E+00 -0.17014177941E+04  0.17014177941E+04  0.25500000920E-02 0.  1.
    10030    2    1    2    0    0  0.00000000000E+00  0.00000000000E+00 -0.22368048233E+03  0.31791551058E+04  0.31712764352E+04 0.  0.
        2    1    3    3  502    0  0.14366606467E+04  0.67087058776E+03 -0.98116902566E+02  0.15886119998E+04  0.25500000920E-02 0. -1.
       -2    1    3    3    0  502 -0.14366606467E+04 -0.67087058776E+03 -0.12556357976E+03  0.15905431060E+04  0.25500000920E-02 0.  1.
</event>
<event>
 5   0  0.1846850E-06  0.3195963E+04  0.7818609E-02  0.8189884E-01
       -1   -1    0    0    0  501  0.00000000000E+00  0.00000000000E+00  0.14840293972E+04  0.14840293972E+04  0.50400001928E-02 0.  1.
        1   -1    0    0  501    0  0.00000000000E+00  0.00000000000E+00 -0.17206834778E+04  0.17206834778E+04  0.50400001928E-02 0. -1.
    10030    2    1    2    0    0  0.00000000000E+00  0.00000000000E+00 -0.23665408066E+03  0.32047128750E+04  0.31959629937E+04 0.  0.
        5    1    3    3  502    0 -0.14693533108E+04  0.25114949679E+03 -0.69561804646E+03  0.16449868627E+04  0.46999998093E+01 0. -1.
       -5    1    3    3    0  502  0.14693533108E+04 -0.25114949679E+03  0.45896396580E+03  0.15597260124E+04  0.46999998093E+01 0.  1.
</event>
<event>
 5   0  0.5121624E-06  0.3350246E+04  0.7818609E-02  0.8150227E-01
       -2   -1    0    0    0  501  0.00000000000E+00  0.00000000000E+00  0.21024586480E+04  0.21024586480E+04  0.25500000920E-02 0. -1.
        2   -1    0    0  501    0  0.00000000000E+00  0.00000000000E+00 -0.13346452661E+04  0.13346452661E+04  0.25500000920E-02 0.  1.
    10030    2    1    2    0    0  0.00000000000E+00  0.00000000000E+00  0.76781338192E+03  0.34371039141E+04  0.33502456517E+04 0.  0.
        4    1    3    3  502    0 -0.12269486389E+04  0.11262308242E+04  0.56810550583E+03  0.17597000627E+04  0.12699999809E+01 0. -1.
       -4    1    3    3    0  502  0.12269486389E+04 -0.11262308242E+04  0.19970787609E+03  0.16774038514E+04  0.12699999809E+01 0.  1.
</event>
<event>
 5   0  0.1977015E-06  0.1992369E+04  0.7818609E-02  0.8610197E-01
       -1   -1    0    0    0  501  0.00000000000E+00  0.00000000000E+00  0.83757112575E+03  0.83757112577E+03  0.50400001928E-02 0. -1.
        1   -1    0    0  501    0  0.00000000000E+00  0.00000000000E+00 -0.11848353145E+04  0.11848353146E+04  0.50400001928E-02 0.  1.
    10030    2    1    2    0    0  0.00000000000E+00  0.00000000000E+00 -0.34726418879E+03  0.20224064403E+04  0.19923692913E+04 0.  0.
        1    1    3    3  502    0  0.42055704428E+03 -0.42897529729E+03  0.63301549214E+03  0.87269504782E+03  0.50400001928E-02 0. -1.
       -1    1    3    3    0  502 -0.42055704428E+03  0.42897529729E+03 -0.98027968093E+03  0.11497113925E+04  0.50400001928E-02 0.  1.
</event>
<event>
 5   0  0.1846850E-06  0.3230036E+04  0.7818609E-02  0.8180929E-01
        1   -1    0    0  501    0  0.00000000000E+00  0.00000000000E+00  0.17533229907E+04  0.17533229907E+04  0.50400001928E-02 0. -1.
       -1   -1    0    0    0  501  0.00000000000E+00  0.00000000000E+00 -0.14876227919E+04  0.14876227919E+04  0.50400001928E-02 0.  1.
    10030    2    1    2    0    0  0.00000000000E+00  0.00000000000E+00  0.26570019876E+03  0.32409457826E+04  0.32300360633E+04 0.  0.
        5    1    3    3  502    0  0.81600601844E+03  0.10402011581E+04 -0.79784785772E+03  0.15441721295E+04  0.46999998093E+01 0.  1.
       -5    1    3    3    0  502 -0.81600601844E+03 -0.10402011581E+04  0.10635480565E+04  0.16967736531E+04  0.46999998093E+01 0. -1.
</event>
<event>
 5   0  0.1977015E-06  0.3176678E+04  0.7818609E-02  0.8195004E-01
       -1   -1    0    0    0  501  0.00000000000E+00  0.00000000000E+00  0.12873367694E+04  0.12873367694E+04  0.50400001928E-02 0. -1.
        1   -1    0    0  501    0  0.00000000000E+00  0.00000000000E+00 -0.19597211275E+04  0.19597211275E+04  0.50400001928E-02 0.  1.
    10030    2    1    2    0    0  0.00000000000E+00  0.00000000000E+00 -0.67238435813E+03  0.32470578970E+04  0.31766781803E+04 0.  0.
        1    1    3    3  502    0 -0.38891123682E+03 -0.14994966680E+04 -0.69479073867E+03  0.16977857280E+04  0.50400001928E-02 0.  1.
       -1    1    3    3    0  502  0.38891123682E+03  0.14994966680E+04  0.22406380547E+02  0.15492721690E+04  0.50400001928E-02 0. -1.
</event>
<event>
 5   0  0.5347280E-06  0.3153792E+04  0.7818609E-02  0.8201128E-01
        2   -1    0    0  501    0  0.00000000000E+00  0.00000000000E+00  0.16575697956E+04  0.16575697956E+04  0.25500000920E-02 0. -1.
       -2   -1    0    0    0  501  0.00000000000E+00  0.00000000000E+00 -0.15001488171E+04  0.15001488171E+04  0.25500000920E-02 0.  1.
    10030    2    1    2    0    0  0.00000000000E+00  0.00000000000E+00  0.15742097851E+03  0.31577186128E+04  0.31537922368E+04 0.  0.
        2    1    3    3  502    0 -0.39648106227E+03  0.63643247076E+03 -0.13102288049E+04  0.15096168533E+04  0.25500000920E-02 0.  1.
       -2    1    3    3    0  502  0.39648106227E+03 -0.63643247076E+03  0.14676497834E+04  0.16481017594E+04  0.25500000920E-02 0. -1.
</event>
<event>
 5   0  0.5108810E-06  0.2432958E+04  0.7818609E-02  0.8427267E-01
       -2   -1    0    0    0  501  0.00000000000E+00  0.00000000000E+00  0.86820341679E+03  0.86820341680E+03  0.25500000920E-02 0.  1.
        2   -1    0    0  501    0  0.00000000000E+00  0.00000000000E+00 -0.17044630862E+04  0.17044630862E+04  0.25500000920E-02 0. -1.
    10030    2    1    2    0    0  0.00000000000E+00  0.00000000000E+00 -0.83625966937E+03  0.25726665030E+04  0.24329576036E+04 0.  0.
        1    1    3    3  502    0 -0.33498789007E+03 -0.70310681629E+03  0.57000657875E+03  0.96513397072E+03  0.50400001928E-02 0.  1.
       -1    1    3    3    0  502  0.33498789007E+03  0.70310681629E+03 -0.14062662481E+04  0.16075325322E+04  0.50400001928E-02 0. -1.
</event>
<event>
 5   0  0.1846850E-06  0.3201942E+04  0.7818609E-02  0.8188304E-01
        1   -1    0    0  501    0  0.00000000000E+00  0.00000000000E+00  0.15449612961E+04  0.15449612961E+04  0.50400001928E-02 0.  1.
       -1   -1    0    0    0  501  0.00000000000E+00  0.00000000000E+00 -0.16590112831E+04  0.16590112831E+04  0.50400001928E-02 0. -1.
    10030    2    1    2    0    0  0.00000000000E+00  0.00000000000E+00 -0.11404998700E+03  0.32039725793E+04  0.32019420496E+04 0.  0.
        5    1    3    3  502    0 -0.15528966837E+04  0.35022328562E+03  0.11320541179E+03  0.15959266949E+04  0.46999998093E+01 0.  1.
       -5    1    3    3    0  502  0.15528966837E+04 -0.35022328562E+03 -0.22725539879E+03  0.16080458844E+04  0.46999998093E+01 0. -1.
</event>
<event>
 5   0  0.5373060E-06  0.3131054E+04  0.7818609E-02  0.8207267E-01
        2   -1    0    0  501    0  0.00000000000E+00  0.00000000000E+00  0.17461230203E+04  0.17461230203E+04  0.25500000920E-02 0. -1.
       -2   -1    0    0    0  501  0.00000000000E+00  0.00000000000E+00 -0.14036094841E+04  0.14036094841E+04  0.25500000920E-02 0.  1.
    10030    2    1    2    0    0  0.00000000000E+00  0.00000000000E+00  0.34251353628E+03  0.31497325044E+04  0.31310540281E+04 0.  0.
        5    1    3    3  502    0 -0.43525703391E+03 -0.79373660226E+03 -0.11136201015E+04  0.14351439997E+04  0.46999998093E+01 0.  1.
       -5    1    3    3    0  502  0.43525703391E+03  0.79373660226E+03  0.14561336378E+04  0.17145885047E+04  0.46999998093E+01 0. -1.
</event>
<event>
 5   0  0.5373060E-06  0.1982289E+04  0.7818609E-02  0.8614946E-01
        2   -1    0    0  501    0  0.00000000000E+00  0.00000000000E+00  0.16122147247E+04  0.16122147247E+04  0.25500000920E-02 0. -1.
       -2   -1    0    0    0  501  0.00000000000E+00  0.00000000000E+00 -0.60932800644E+03  0.60932800644E+03  0.25500000920E-02 0.  1.
    10030    2    1    2    0    0  0.00000000000E+00  0.00000000000E+00  0.10028867183E+04  0.22215427312E+04  0.19822891658E+04 0.  0.
        5    1    3    3  502    0 -0.32919445627E+03  0.10294726999E+03  0.15427730334E+04  0.15808661718E+04  0.46999998093E+01 0. -1.
       -5    1    3    3    0  502  0.32919445627E+03 -0.10294726999E+03 -0.53988631515E+03  0.64067655937E+03  0.46999998093E+01 0.  1.
</event>
<event>
 5   0  0.5373060E-06  0.3006582E+04  0.7818609E-02  0.8241854E-01
       -2   -1    0    0    0  501  0.00000000000E+00  0.00000000000E+00  0.15956780824E+04  0.15956780824E+04  0.25500000920E-02 0.  1.
        2   -1    0    0  501    0  0.00000000000E+00  0.00000000000E+00 -0.14162532325E+04  0.14162532325E+04  0.25500000920E-02 0. -1.
    10030    2    1    2    0    0  0.00000000000E+00  0.00000000000E+00  0.17942484984E+03  0.30119313149E+04  0.30065822737E+04 0.  0.
        5    1    3    3  502    0 -0.49633742758E+03 -0.13346672363E+04  0.57241475771E+03  0.15347208927E+04  0.46999998093E+01 0.  1.
       -5    1    3    3    0  502  0.49633742758E+03  0.13346672363E+04 -0.39298990787E+03  0.14772104222E+04  0.46999998093E+01 0. -1.
</event>
<event>
 5   0  0.1977015E-06  0.3223145E+04  0.7818609E-02  0.8182731E-01
        1   -1    0    0  501    0  0.00000000000E+00  0.00000000000E+00  0.21659958677E+04  0.21659958677E+04  0.50400001928E-02 0.  1.
       -1   -1    0    0    0  501  0.00000000000E+00  0.00000000000E+00 -0.11990630211E+04  0.11990630211E+04  0.50400001928E-02 0. -1.
    10030    2    1    2    0    0  0.00000000000E+00  0.00000000000E+00  0.96693284657E+03  0.33650588889E+04  0.32231447680E+04 0.  0.
        1    1    3    3  502    0  0.19464054918E+03  0.17627785856E+03 -0.11765758491E+04  0.12055245976E+04  0.50400001928E-02 0. -1.
       -1    1    3    3    0  502 -0.19464054918E+03 -0.17627785856E+03  0.21435086956E+04  0.21595342912E+04  0.50400001928E-02 0.  1.
</event>
<event>
 5   0  0.5121624E-06  0.2770773E+04  0.7818609E-02  0.8312400E-01
        2   -1    0    0  501    0  0.00000000000E+00  0.00000000000E+00  0.23393294323E+04  0.23393294323E+04  0.25500000920E-02 0. -1.
       -2   -1    0    0    0  501  0.00000000000E+00  0.00000000000E+00 -0.82044708436E+03  0.82044708437E+03  0.25500000920E-02 0.  1.
    10030    2    1    2    0    0  0.00000000000E+00  0.00000000000E+00  0.15188823480E+04  0.31597765167E+04  0.27707731860E+04 0.  0.
        4    1    3    3  502    0  0.44140374260E+03  0.12734118817E+04  0.11252207249E+04  0.17557159158E+04  0.12699999809E+01 0.  1.
       -4    1    3    3    0  502 -0.44140374260E+03 -0.12734118817E+04  0.39366162308E+03  0.14040606009E+04  0.12699999809E+01 0. -1.
</event>
<event>
 5   0  0.1977015E-06  0.3309253E+04  0.7818609E-02  0.8160545E-01
        1   -1    0    0  501    0  0.00000000000E+00  0.00000000000E+00  0.26495436186E+04  0.26495436186E+04  0.50400001928E-02 0.  1.
       -1   -1    0    0    0  501  0.00000000000E+00  0.00000000000E+00 -0.10333058161E+04  0.10333058161E+04  0.50400001928E-02 0. -1.
    10030    2    1    2    0    0  0.00000000000E+00  0.00000000000E+00  0.16162378026E+04  0.36828494347E+04  0.33092529858E+04 0.  0.
        1    1    3    3  502    0 -0.17776224767E+03 -0.88979844970E+02  0.26362058922E+04  0.26436902874E+04  0.50400001928E-02 0.  1.
       -1    1    3    3    0  502  0.17776224767E+03  0.88979844970E+02 -0.10199680896E+04  0.10391591473E+04  0.50400001928E-02 0. -1.
</event>
<event>
 5   0  0.1881144E-06  0.3161248E+04  0.7818609E-02  0.8199127E-01
       -1   -1    0    0    0  501  0.00000000000E+00  0.00000000000E+00  0.13234284163E+04  0.13234284163E+04  0.50400001928E-02 0.  1.
        1   -1    0    0  501    0  0.00000000000E+00  0.00000000000E+00 -0.18878034694E+04  0.18878034694E+04  0.50400001928E-02 0. -1.
    10030    2    1    2    0    0  0.00000000000E+00  0.00000000000E+00 -0.56437505308E+03  0.32112318857E+04  0.31612483331E+04 0.  0.
        3    1    3    3  502    0  0.33205053018E+03  0.62573201371E+02  0.12863119439E+04  0.13299516485E+04  0.10100000352E+00 0.  1.
       -3    1    3    3    0  502 -0.33205053018E+03 -0.62573201371E+02 -0.18506869970E+04  0.18812802372E+04  0.10100000352E+00 0. -1.
</event>
<event>
 5   0  0.1969465E-06  0.3201723E+04  0.7818609E-02  0.8188362E-01
       -1   -1    0    0    0  501  0.00000000000E+00  0.00000000000E+00  0.17516521704E+04  0.17516521704E+04  0.50400001928E-02 0. -1.
        1   -1    0    0  501    0  0.00000000000E+00  0.00000000000E+00 -0.14630515325E+04  0.14630515325E+04  0.50400001928E-02 0.  1.
    10030    2    1    2    0    0  0.00000000000E+00  0.00000000000E+00  0.28860063793E+03  0.32147037029E+04  0.32017229063E+04 0.  0.
        2    1    3    3  502    0  0.78560494537E+03 -0.64178370452E+03 -0.10991454277E+04  0.14957212724E+04  0.25500000920E-02 0.  1.
       -2    1    3    3    0  502 -0.78560494537E+03  0.64178370452E+03  0.13877460656E+04  0.17189824304E+04  0.25500000920E-02 0. -1.
</event>
<event>
 5   0  0.5121624E-06  0.2302056E+04  0.7818609E-02  0.8477111E-01
        2   -1    0    0  501    0  0.00000000000E+00  0.00000000000E+00  0.21671294330E+04  0.21671294330E+04  0.25500000920E-02 0.  1.
       -2   -1    0    0    0  501  0.00000000000E+00  0.00000000000E+00 -0.61134598251E+03  0.61134598252E+03  0.25500000920E-02 0. -1.
    10030    2    1    2    0    0  0.00000000000E+00  0.00000000000E+00  0.15557834505E+04  0.27784754155E+04  0.23020563611E+04 0.  0.
        4    1    3    3  502    0  0.11473027906E+04 -0.40416231861E+01  0.66632694557E+03  0.13267679674E+04  0.12699999809E+01 0. -1.
       -4    1    3    3    0  502 -0.11473027906E+04  0.40416231861E+01  0.88945650492E+03  0.14517074481E+04  0.12699999809E+01 0.  1.
</event>
<event>
 5   0  0.1886248E-06  0.3276068E+04  0.7818609E-02  0.8169012E-01
       -1   -1    0    0    0  501  0.00000000000E+00  0.00000000000E+00  0.19568629104E+04  0.19568629104E+04  0.50400001928E-02 0.  1.
        1   -1    0    0  501    0  0.00000000000E+00  0.00000000000E+00 -0.13711513151E+04  0.13711513151E+04  0.50400001928E-02 0. -1.
    10030    2    1    2    0    0  0.00000000000E+00  0.00000000000E+00  0.58571159532E+03  0.33280142255E+04  0.32760678583E+04 0.  0.
        4    1    3    3  502    0  0.13003133763E+04  0.86479615311E+03 -0.20941943622E+03  0.15756095253E+04  0.12699999809E+01 0. -1.
       -4    1    3    3    0  502 -0.13003133763E+04 -0.86479615311E+03  0.79513103154E+03  0.17524047002E+04  0.12699999809E+01 0.  1.
</event>
<event>
 5   0  0.1881144E-06  0.3181484E+04  0.7818609E-02  0.8193724E-01
        1   -1    0    0  501    0  0.00000000000E+00  0.00000000000E+00  0.21270530893E+04  0.21270530893E+04  0.50400001928E-02 0.  1.
       -1   -1    0    0    0  501  0.00000000000E+00  0.00000000000E+00 -0.11896555937E+04  0.11896555937E+04  0.50400001928E-02 0. -1.
    10030    2    1    2    0    0  0.00000000000E+00  0.00000000000E+00  0.93739749559E+03  0.33167086829E+04  0.31814843112E+04 0.  0.
        3    1    3    3  502    0  0.10614158439E+04  0.86309438792E+03  0.13149426660E+04  0.18975272702E+04  0.10100000352E+00 0.  1.
       -3    1    3    3    0  502 -0.10614158439E+04 -0.86309438792E+03 -0.37754517044E+03  0.14191814127E+04  0.10100000352E+00 0. -1.
</event>
<event>
 5   0  0.5108810E-06  0.2012279E+04  0.7818609E-02  0.8600901E-01
       -2   -1    0    0    0  501  0.00000000000E+00  0.00000000000E+00  0.54822286786E+03  0.54822286787E+03  0.25500000920E-02 0.  1.
        2   -1    0    0  501    0  0.00000000000E+00  0.00000000000E+00 -0.18465422459E+04  0.18465422459E+04  0.25500000920E-02 0. -1.
    10030    2    1    2    0    0  0.00000000000E+00  0.00000000000E+00 -0.12983193781E+04  0.23947651138E+04  0.20122789923E+04 0.  0.
        1    1    3    3  502    0  0.92823139802E+03  0.35514261462E+03 -0.46259127913E+03  0.10962346904E+04  0.50400001928E-02 0.  1.
       -1    1    3    3    0  502 -0.92823139802E+03 -0.35514261462E+03 -0.83572809893E+03  0.12985304233E+04  0.50400001928E-02 0. -1.
</event>
<event>
 5   0  0.5373060E-06  0.3082026E+04  0.7818609E-02  0.8220688E-01
        2   -1    0    0  501    0  0.00000000000E+00  0.00000000000E+00  0.12144310418E+04  0.12144310418E+04  0.25500000920E-02 0.  1.
       -2   -1    0    0    0  501  0.00000000000E+00  0.00000000000E+00 -0.19554189958E+04  0.19554189958E+04  0.25500000920E-02 0. -1.
    10030    2    1    2    0    0  0.00000000000E+00  0.00000000000E+00 -0.74098795400E+03  0.31698500376E+04  0.30820262998E+04 0.  0.
        5    1    3    3  502    0  0.78148629113E+03  0.90426553698E+03 -0.13709840179E+04  0.18188007730E+04  0.46999998093E+01 0.  1.
       -5    1    3    3    0  502 -0.78148629113E+03 -0.90426553698E+03  0.62999606393E+03  0.13510492645E+04  0.46999998093E+01 0. -1.
</event>
<event>
 5   0  0.1886248E-06  0.3109941E+04  0.7818609E-02  0.8213015E-01
        1   -1    0    0  501    0  0.00000000000E+00  0.00000000000E+00  0.29989015826E+04  0.29989015826E+04  0.50400001928E-02 0.  1.
       -1   -1    0    0    0  501  0.00000000000E+00  0.00000000000E+00 -0.80627280182E+03  0.80627280184E+03  0.50400001928E-02 0. -1.
    10030    2    1    2    0    0  0.00000000000E+00  0.00000000000E+00  0.21926287808E+04  0.38051743844E+04  0.31099406949E+04 0.  0.
        4    1    3    3  502    0 -0.49202181042E+03  0.13978227482E+04  0.16727324486E+04  0.22347325019E+04  0.12699999809E+01 0.  1.
       -4    1    3    3    0  502  0.49202181042E+03 -0.13978227482E+04  0.51989633213E+03  0.15704418825E+04  0.12699999809E+01 0. -1.
</event>
<event>
 5   0  0.5121624E-06  0.3627511E+04  0.7818609E-02  0.8084219E-01
        2   -1    0    0  501    0  0.00000000000E+00  0.00000000000E+00  0.21847858169E+04  0.21847858169E+04  0.25500000920E-02 0. -1.
       -2   -1    0    0    0  501  0.00000000000E+00  0.00000000000E+00 -0.15057352435E+04  0.15057352435E+04  0.25500000920E-02 0.  1.
    10030    2    1    2    0    0  0.00000000000E+00  0.00000000000E+00  0.67905057339E+03  0.36905210604E+04  0.36275109946E+04 0.  0.
        4    1    3    3  502    0 -0.15036817112E+04 -0.10132554200E+04  0.29445962375E+03  0.18369685129E+04  0.12699999809E+01 0. -1.
       -4    1    3    3    0  502  0.15036817112E+04  0.10132554200E+04  0.38459094964E+03  0.18535525474E+04  0.12699999809E+01 0.  1.
</event>
<event>
 5   0  0.5347280E-06  0.3007657E+04  0.7818609E-02  0.8241548E-01
        2   -1    0    0  501    0  0.00000000000E+00  0.00000000000E+00  0.18197546531E+04  0.18197546531E+04  0.25500000920E-02 0.  1.
       -2   -1    0    0    0  501  0.00000000000E+00  0.00000000000E+00 -0.12427497362E+04  0.12427497362E+04  0.25500000920E-02 0. -1.
    10030    2    1    2    0    0  0.00000000000E+00  0.00000000000E+00  0.57700491693E+03  0.30625043893E+04  0.30076566394E+04 0.  0.
        2    1    3    3  502    0  0.80523085410E+03  0.12461696629E+04  0.53825908857E+03  0.15783087161E+04  0.25500000920E-02 0.  1.
       -2    1    3    3    0  502 -0.80523085410E+03 -0.12461696629E+04  0.38745828358E+02  0.14841956732E+04  0.25500000920E-02 0. -1.
</event>
<event>
 5   0  0.1977015E-06  0.3342241E+04  0.7818609E-02  0.8152230E-01
        1   -1    0    0  501    0  0.00000000000E+00  0.00000000000E+00  0.18000769091E+04  0.18000769091E+04  0.50400001928E-02 0.  1.
       -1   -1    0    0    0  501  0.00000000000E+00  0.00000000000E+00 -0.15514026206E+04  0.15514026206E+04  0.50400001928E-02 0. -1.
    10030    2    1    2    0    0  0.00000000000E+00  0.00000000000E+00  0.24867428854E+03  0.33514795297E+04  0.33422411846E+04 0.  0.
        1    1    3    3  502    0 -0.52040670235E+03  0.11482981047E+04  0.12242886448E+04  0.17573543635E+04  0.50400001928E-02 0.  1.
       -1    1    3    3    0  502  0.52040670235E+03 -0.11482981047E+04 -0.97561435624E+03  0.15941251661E+04  0.50400001928E-02 0. -1.
</event>
<event>
 5   0  0.5347280E-06  0.2571398E+04  0.7818609E-02  0.8377982E-01
       -2   -1    0    0    0  501  0.00000000000E+00  0.00000000000E+00  0.12768184206E+04  0.12768184206E+04  0.25500000920E-02 0. -1.
        2   -1    0    0  501    0  0.00000000000E+00  0.00000000000E+00 -0.12946415101E+04  0.12946415101E+04  0.25500000920E-02 0.  1.
    10030    2    1    2    0    0  0.00000000000E+00  0.00000000000E+00 -0.17823089582E+02  0.25714599307E+04  0.25713981630E+04 0.  0.
        2    1    3    3  502    0  0.70259120778E+03 -0.10666691793E+04  0.13807696773E+03  0.12847111708E+04  0.25500000920E-02 0. -1.
       -2    1    3    3    0  502 -0.70259120778E+03  0.10666691793E+04 -0.15590005731E+03  0.12867487599E+04  0.25500000920E-02 0.  1.
</event>
<event>
 5   0  0.1969465E-06  0.2054678E+04  0.7818609E-02  0.8581475E-01
        1   -1    0    0  501    0  0.00000000000E+00  0.00000000000E+00  0.12359439104E+04  0.12359439104E+04  0.50400001928E-02 0. -1.
       -1   -1    0    0    0  501  0.00000000000E+00  0.00000000000E+00 -0.85394274528E+03  0.85394274530E+03  0.50400001928E-02 0.  1.
    10030    2    1    2    0    0  0.00000000000E+00  0.00000000000E+00  0.38200116508E+03  0.20898866557E+04  0.20546779172E+04 0.  0.
        2    1    3    3  502    0  0.96990912908E+03 -0.20284755544E+03  0.46685729956E+03  0.10953659606E+04  0.25500000920E-02 0.  1.
       -2    1    3    3    0  502 -0.96990912908E+03  0.20284755544E+03 -0.84856134475E+02  0.99452069510E+03  0.25500000920E-02 0. -1.
</event>
<event>
 5   0  0.1886248E-06  0.3200226E+04  0.7818609E-02  0.8188758E-01
       -1   -1    0    0    0  501  0.00000000000E+00  0.00000000000E+00  0.14891043223E+04  0.14891043223E+04  0.50400001928E-02 0.  1.
        1   -1    0    0  501    0  0.00000000000E+00  0.00000000000E+00 -0.17193968310E+04  0.17193968310E+04  0.50400001928E-02 0. -1.
    10030    2    1    2    0    0  0.00000000000E+00  0.00000000000E+00 -0.23029250870E+03  0.32085011532E+04  0.32002257750E+04 0.  0.
        4    1    3    3  502    0 -0.29243037685E+03  0.12471335721E+04  0.84624000903E+03  0.15352463769E+04  0.12699999809E+01 0.  1.
       -4    1    3    3    0  502  0.29243037685E+03 -0.12471335721E+04 -0.10765325177E+04  0.16732547763E+04  0.12699999809E+01 0. -1.
</event>
<event>
 5   0  0.5108810E-06  0.3210110E+04  0.7818609E-02  0.8186152E-01
       -2   -1    0    0    0  501  0.00000000000E+00  0.00000000000E+00  0.11719082743E+04  0.11719082743E+04  0.25500000920E-02 0.  1.
        2   -1    0    0  501    0  0.00000000000E+00  0.00000000000E+00 -0.21982968104E+04  0.21982968104E+04  0.25500000920E-02 0. -1.
    10030    2    1    2    0    0  0.00000000000E+00  0.00000000000E+00 -0.10263885361E+04  0.33702050847E+04  0.32101104165E+04 0.  0.
        1    1    3    3  502    0  0.55559532594E+02  0.11487002366E+04 -0.16886773741E+04  0.20430933334E+04  0.50400001928E-02 0. -1.
       -1    1    3    3    0  502 -0.55559532594E+02 -0.11487002366E+04  0.66228883806E+03  0.13271117512E+04  0.50400001928E-02 0.  1.
</event>
<event>
 5   0  0.5347280E-06  0.3090757E+04  0.7818609E-02  0.8218279E-01
        2   -1    0    0  501    0  0.00000000000E+00  0.00000000000E+00  0.22006429282E+04  0.22006429282E+04  0.25500000920E-02 0.  1.
       -2   -1    0    0    0  501  0.00000000000E+00  0.00000000000E+00 -0.10852259061E+04  0.10852259061E+04  0.25500000920E-02 0. -1.
    10030    2    1    2    0    0  0.00000000000E+00  0.00000000000E+00  0.11154170221E+04  0.32858688343E+04  0.30907570049E+04 0.  0.
        2    1    3    3  502    0  0.12807803656E+04 -0.24161348231E+03 -0.32501984622E+03  0.13432845269E+04  0.25500000920E-02 0. -1.
       -2    1    3    3    0  502 -0.12807803656E+04  0.24161348231E+03  0.14404368683E+04  0.19425843074E+04  0.25500000920E-02 0.  1.
</event>
<event>
 5   0  0.1977015E-06  0.3163239E+04  0.7818609E-02  0.8198594E-01
       -1   -1    0    0    0  501  0.00000000000E+00  0.00000000000E+00  0.78645997744E+03  0.78645997746E+03  0.50400001928E-02 0.  1.
        1   -1    0    0  501    0  0.00000000000E+00  0.00000000000E+00 -0.31807335091E+04  0.31807335091E+04  0.50400001928E-02 0. -1.
    10030    2    1    2    0    0  0.00000000000E+00  0.00000000000E+00 -0.23942735316E+04  0.39671934865E+04  0.31632385960E+04 0.  0.
        1    1    3    3  502    0  0.48728170143E+03  0.70532678665E+03  0.46980085589E+03  0.97756952527E+03  0.50400001928E-02 0.  1.
       -1    1    3    3    0  502 -0.48728170143E+03 -0.70532678665E+03 -0.28640743875E+04  0.29896239613E+04  0.50400001928E-02 0. -1.
</event>
<event>
 5   0  0.1969465E-06  0.2082458E+04  0.7818609E-02  0.8569010E-01
       -1   -1    0    0    0  501  0.00000000000E+00  0.00000000000E+00  0.70023927493E+03  0.70023927495E+03  0.50400001928E-02 0.  1.
        1   -1    0    0  501    0  0.00000000000E+00  0.00000000000E+00 -0.15482682662E+04  0.15482682662E+04  0.50400001928E-02 0. -1.
    10030    2    1    2    0    0  0.00000000000E+00  0.00000000000E+00 -0.84802899125E+03  0.22485075411E+04  0.20824584012E+04 0.  0.
        2    1    3    3  502    0  0.37847681548E+03 -0.81805833406E+03  0.13879073589E+03  0.91199068316E+03  0.25500000920E-02 0.  1.
       -2    1    3    3    0  502 -0.37847681548E+03  0.81805833406E+03 -0.98681972714E+03  0.13365168580E+04  0.25500000920E-02 0. -1.
</event>
<event>
 5   0  0.5108810E-06  0.2295745E+04  0.7818609E-02  0.8479601E-01
        2   -1    0    0  501    0  0.00000000000E+00  0.00000000000E+00  0.15002664821E+04  0.15002664821E+04  0.25500000920E-02 0.  1.
       -2   -1    0    0    0  501  0.00000000000E+00  0.00000000000E+00 -0.87825162713E+03  0.87825162714E+03  0.25500000920E-02 0. -1.
    10030    2    1    2    0    0  0.00000000000E+00  0.00000000000E+00  0.62201485494E+03  0.23785181092E+04  0.22957451766E+04 0.  0.
        1    1    3    3  502    0 -0.46864997542E+02 -0.11307319403E+04  0.11209451277E+03  0.11372406204E+04  0.50400001928E-02 0.  1.
       -1    1    3    3    0  502  0.46864997542E+02  0.11307319403E+04  0.50992034217E+03  0.12412774888E+04  0.50400001928E-02 0. -1.
</event>
<event>
 5   0  0.1969465E-06  0.3139229E+04  0.7818609E-02  0.8205054E-01
        1   -1    0    0  501    0  0.00000000000E+00  0.00000000000E+00  0.16404589587E+04  0.16404589587E+04  0.50400001928E-02 0.  1.
       -1   -1    0    0    0  501  0.00000000000E+00  0.00000000000E+00 -0.15018291065E+04  0.15018291065E+04  0.50400001928E-02 0. -1.
    10030    2    1    2    0    0  0.00000000000E+00  0.00000000000E+00  0.13862985222E+03  0.31422880652E+04  0.31392285754E+04 0.  0.
        2    1    3    3  502    0  0.75458071814E+03 -0.12127861992E+04 -0.58204700912E+03  0.15424075810E+04  0.25500000920E-02 0.  1.
       -2    1    3    3    0  502 -0.75458071814E+03  0.12127861992E+04  0.72067686135E+03  0.15998804842E+04  0.25500000920E-02 0. -1.
</event>
<event>
 5   0  0.1881144E-06  0.3229166E+04  0.7818609E-02  0.8181157E-01
        1   -1    0    0  501    0  0.00000000000E+00  0.00000000000E+00  0.25459127627E+04  0.25459127627E+04  0.50400001928E-02 0. -1.
       -1   -1    0    0    0  501  0.00000000000E+00  0.00000000000E+00 -0.10239461335E+04  0.10239461335E+04  0.50400001928E-02 0.  1.
    10030    2    1    2    0    0  0.00000000000E+00  0.00000000000E+00  0.15219666291E+04  0.35698588962E+04  0.32291655452E+04 0.  0.
        3    1    3    3  502    0 -0.54065324082E+03  0.65150670533E+03 -0.75887936108E+03  0.11369541806E+04  0.10100000352E+00 0.  1.
       -3    1    3    3    0  502  0.54065324082E+03 -0.65150670533E+03  0.22808459902E+04  0.24329047156E+04  0.10100000352E+00 0. -1.
</event>
<event>
 5   0  0.5121624E-06  0.2910418E+04  0.7818609E-02  0.8269785E-01
       -2   -1    0    0    0  501  0.00000000000E+00  0.00000000000E+00  0.10458111762E+04  0.10458111762E+04  0.25500000920E-02 0. -1.
        2   -1    0    0  501    0  0.00000000000E+00  0.00000000000E+00 -0.20248710817E+04  0.20248710817E+04  0.25500000920E-02 0.  1.
    10030    2    1    2    0    0  0.00000000000E+00  0.00000000000E+00 -0.97905990546E+03  0.30706822579E+04  0.29104177072E+04 0.  0.
        4    1    3    3  502    0  0.79030282782E+03  0.12205088237E+04 -0.55114838336E+03  0.15549876211E+04  0.12699999809E+01 0. -1.
       -4    1    3    3    0  502 -0.79030282782E+03 -0.12205088237E+04 -0.42791152209E+03  0.15156946368E+04  0.12699999809E+01 0.  1.
</event>
<event>
 5   0  0.5121624E-06  0.3215408E+04  0.7818609E-02  0.8184760E-01
        2   -1    0    0  501    0  0.00000000000E+00  0.00000000000E+00  0.26257958945E+04  0.26257958945E+04  0.25500000920E-02 0. -1.
       -2   -1    0    0    0  501  0.00000000000E+00  0.00000000000E+00 -0.98435381029E+03  0.98435381029E+03  0.25500000920E-02 0.  1.
    10030    2    1    2    0    0  0.00000000000E+00  0.00000000000E+00  0.16414420842E+04  0.36101497048E+04  0.32154080262E+04 0.  0.
        4    1    3    3  502    0 -0.29418151493E+03  0.61385221693E+03  0.24560141983E+04  0.25486005303E+04  0.12699999809E+01 0. -1.
       -4    1    3    3    0  502  0.29418151493E+03 -0.61385221693E+03 -0.81457211407E+03  0.10615491745E+04  0.12699999809E+01 0.  1.
</event>
<event>
 5   0  0.5121624E-06  0.2079271E+04  0.7818609E-02  0.8570430E-01
       -2   -1    0    0    0  501  0.00000000000E+00  0.00000000000E+00  0.70734167288E+03  0.70734167289E+03  0.25500000920E-02 0. -1.
        2   -1    0    0  501    0  0.00000000000E+00  0.00000000000E+00 -0.15280332810E+04  0.15280332810E+04  0.25500000920E-02 0.  1.
    10030    2    1    2    0    0  0.00000000000E+00  0.00000000000E+00 -0.82069160809E+03  0.22353749539E+04  0.20792706579E+04 0.  0.
        4    1    3    3  502    0 -0.72321998303E+03  0.19692845044E+03 -0.11848576676E+04  0.14020403931E+04  0.12699999809E+01 0.  1.
       -4    1    3    3    0  502  0.72321998303E+03 -0.19692845044E+03  0.36416605948E+03  0.83333456080E+03  0.12699999809E+01 0. -1.
</event>
<event>
 5   0  0.5131083E-06  0.2634085E+04  0.7818609E-02  0.8356715E-01
       -2   -1    0    0    0  501  0.00000000000E+00  0.00000000000E+00  0.14521579759E+04  0.14521579759E+04  0.25500000920E-02 0. -1.
        2   -1    0    0  501    0  0.00000000000E+00  0.00000000000E+00 -0.11944991708E+04  0.11944991708E+04  0.25500000920E-02 0.  1.
    10030    2    1    2    0    0  0.00000000000E+00  0.00000000000E+00  0.25765880509E+03  0.26466571467E+04  0.26340854185E+04 0.  0.
        3    1    3    3  502    0  0.22394031632E+03  0.19466143232E+03 -0.11604780695E+04  0.11978112115E+04  0.10100000352E+00 0.  1.
       -3    1    3    3    0  502 -0.22394031632E+03 -0.19466143232E+03  0.14181368746E+04  0.14488459351E+04  0.10100000352E+00 0. -1.
</event>
<event>
 5   0  0.1977015E-06  0.3255345E+04  0.7818609E-02  0.8174352E-01
        1   -1    0    0  501    0  0.00000000000E+00  0.00000000000E+00  0.24702987305E+04  0.24702987305E+04  0.50400001928E-02 0.  1.
       -1   -1    0    0    0  501  0.00000000000E+00  0.00000000000E+00 -0.10724685262E+04  0.10724685262E+04  0.50400001928E-02 0. -1.
    10030    2    1    2    0    0  0.00000000000E+00  0.00000000000E+00  0.13978302043E+04  0.35427672567E+04  0.32553449210E+04 0.  0.
        1    1    3    3  502    0  0.11607953581E+04  0.11408948471E+04  0.71544580158E+03  0.17779059622E+04  0.50400001928E-02 0. -1.
       -1    1    3    3    0  502 -0.11607953581E+04 -0.11408948471E+04  0.68238440269E+03  0.17648612944E+04  0.50400001928E-02 0.  1.
</event>
<event>
 5   0  0.5347280E-06  0.3223450E+04  0.7818609E-02  0.8182651E-01
       -2   -1    0    0    0  501  0.00000000000E+00  0.00000000000E+00  0.14389044498E+04  0.14389044498E+04  0.25500000920E-02 0.  1.
        2   -1    0    0  501    0  0.00000000000E+00  0.00000000000E+00 -0.18053027321E+04  0.18053027321E+04  0.25500000920E-02 0. -1.
    10030    2    1    2    0    0  0.00000000000E+00  0.00000000000E+00 -0.36639828227E+03  0.32442071818E+04  0.32234504087E+04 0.  0.
        2    1    3    3  502    0 -0.15209901509E+04 -0.13642664186E+03 -0.70191571866E+03  0.16806870452E+04  0.25500000920E-02 0. -1.
       -2    1    3    3    0  502  0.15209901509E+04  0.13642664186E+03  0.33551743639E+03  0.15635201367E+04  0.25500000920E-02 0.  1.
</event>
<event>
 5   0  0.5108810E-06  0.2099812E+04  0.7818609E-02  0.8561326E-01
       -2   -1    0    0    0  501  0.00000000000E+00  0.00000000000E+00  0.77241855865E+03  0.77241855865E+03  0.25500000920E-02 0. -1.
        2   -1    0    0  501    0  0.00000000000E+00  0.00000000000E+00 -0.14270791950E+04  0.14270791950E+04  0.25500000920E-02 0.  1.
    10030    2    1    2    0    0  0.00000000000E+00  0.00000000000E+00 -0.65466063639E+03  0.21994977537E+04  0.20998118534E+04 0.  0.
        1    1    3    3  502    0 -0.69326764861E+03  0.33963679616E+03 -0.10726792893E+04  0.13215952647E+04  0.50400001928E-02 0.  1.
       -1    1    3    3    0  502  0.69326764861E+03 -0.33963679616E+03  0.41801865295E+03  0.87790248898E+03  0.50400001928E-02 0. -1.
</event>
<event>
 5   0  0.1969465E-06  0.3100018E+04  0.7818609E-02  0.8215733E-01
        1   -1    0    0  501    0  0.00000000000E+00  0.00000000000E+00  0.87279892104E+03  0.87279892105E+03  0.50400001928E-02 0.  1.
       -1   -1    0    0    0  501  0.00000000000E+00  0.00000000000E+00 -0.27526705659E+04  0.27526705660E+04  0.50400001928E-02 0. -1.
    10030    2    1    2    0    0  0.00000000000E+00  0.00000000000E+00 -0.18798716449E+04  0.36254694870E+04  0.31000179999E+04 0.  0.
        2    1    3    3  502    0  0.36909017591E+03 -0.86922827360E+03 -0.23773941709E+04  0.25580829528E+04  0.25500000920E-02 0. -1.
       -2    1    3    3    0  502 -0.36909017591E+03  0.86922827360E+03  0.49752252597E+03  0.10673865342E+04  0.25500000920E-02 0.  1.
</event>
<event>
 5   0  0.1969465E-06  0.3188805E+04  0.7818609E-02  0.8191780E-01
       -1   -1    0    0    0  501  0.00000000000E+00  0.00000000000E+00  0.29620066025E+04  0.29620066025E+04  0.50400001928E-02 0. -1.
        1   -1    0    0  501    0  0.00000000000E+00  0.00000000000E+00 -0.85824243902E+03  0.85824243903E+03  0.50400001928E-02 0.  1.
    10030    2    1    2    0    0  0.00000000000E+00  0.00000000000E+00  0.21037641635E+04  0.38202490415E+04  0.31888052753E+04 0.  0.
        2    1    3    3  502    0 -0.26912992355E+03  0.82684871356E+03 -0.54917061347E+03  0.10284444922E+04  0.25500000920E-02 0.  1.
       -2    1    3    3    0  502  0.26912992355E+03 -0.82684871356E+03  0.26529347769E+04  0.27918045493E+04  0.25500000920E-02 0. -1.
</event>
<event>
 5   0  0.5121624E-06  0.3234434E+04  0.7818609E-02  0.8179782E-01
       -2   -1    0    0    0  501  0.00000000000E+00  0.00000000000E+00  0.17098602749E+04  0.17098602749E+04  0.25500000920E-02 0.  1.
        2   -1    0    0  501    0  0.00000000000E+00  0.00000000000E+00 -0.15295934572E+04  0.15295934572E+04  0.25500000920E-02 0. -1.
    10030    2    1    2    0    0  0.00000000000E+00  0.00000000000E+00  0.18026681771E+03  0.32394537321E+04  0.32344341633E+04 0.  0.
        4    1    3    3  502    0 -0.14689679189E+04  0.58952294658E+03  0.42228859273E+03  0.16382104015E+04  0.12699999809E+01 0. -1.
       -4    1    3    3    0  502  0.14689679189E+04 -0.58952294658E+03 -0.24202177503E+03  0.16012433306E+04  0.12699999809E+01 0.  1.
</event>
<event>
 5   0  0.5121624E-06  0.2685876E+04  0.7818609E-02  0.8339602E-01
       -2   -1    0    0    0  501  0.00000000000E+00  0.00000000000E+00  0.80630082075E+03  0.80630082076E+03  0.25500000920E-02 0.  1.
        2   -1    0    0  501    0  0.00000000000E+00  0.00000000000E+00 -0.22367371349E+04  0.22367371349E+04  0.25500000920E-02 0. -1.
    10030    2    1    2    0    0  0.00000000000E+00  0.00000000000E+00 -0.14304363142E+04  0.30430379557E+04  0.26858763841E+04 0.  0.
        4    1    3    3  502    0  0.44052424361E+03  0.12299174400E+04 -0.36285872170E+03  0.13558859035E+04  0.12699999809E+01 0.  1.
       -4    1    3    3    0  502 -0.44052424361E+03 -0.12299174400E+04 -0.10675775925E+04  0.16871520522E+04  0.12699999809E+01 0. -1.
</event>
<event>
 5   0  0.5121624E-06  0.3204437E+04  0.7818609E-02  0.8187646E-01
       -2   -1    0    0    0  501  0.00000000000E+00  0.00000000000E+00  0.12307693941E+04  0.12307693941E+04  0.25500000920E-02 0. -1.
        2   -1    0    0  501    0  0.00000000000E+00  0.00000000000E+00 -0.20857716934E+04  0.20857716934E+04  0.25500000920E-02 0.  1.
    10030    2    1    2    0    0  0.00000000000E+00  0.00000000000E+00 -0.85500229925E+03  0.33165410875E+04  0.32044369011E+04 0.  0.
        4    1    3    3  502    0  0.11029058689E+04  0.71268222076E+03  0.52264862243E+03  0.14133225035E+04  0.12699999809E+01 0. -1.
       -4    1    3    3    0  502 -0.11029058689E+04 -0.71268222076E+03 -0.13776509217E+04  0.19032185840E+04  0.12699999809E+01 0.  1.
</event>
<event>
 5   0  0.1881144E-06  0.3087062E+04  0.7818609E-02  0.8219298E-01
       -1   -1    0    0    0  501  0.00000000000E+00  0.00000000000E+00  0.26263854588E+04  0.26263854588E+04  0.50400001928E-02 0. -1.
        1   -1    0    0  501    0  0.00000000000E+00  0.00000000000E+00 -0.90713577958E+03  0.90713577959E+03  0.50400001928E-02 0.  1.
    10030    2    1    2    0    0  0.00000000000E+00  0.00000000000E+00  0.17192496792E+04  0.35335212384E+04  0.30870621767E+04 0.  0.
        3    1    3    3  502    0  0.90004267307E+03 -0.73944661850E+03 -0.29957338501E+03  0.12027478282E+04  0.10100000352E+00 0.  1.
       -3    1    3    3    0  502 -0.90004267307E+03  0.73944661850E+03  0.20188230642E+04  0.23307734102E+04  0.10100000352E+00 0. -1.
</event>
<event>
 5   0  0.1846850E-06  0.3176077E+04  0.7818609E-02  0.8195164E-01
       -1   -1    0    0    0  501  0.00000000000E+00  0.00000000000E+00  0.21619419831E+04  0.21619419831E+04  0.50400001928E-02 0. -1.
        1   -1    0    0  501    0  0.00000000000E+00  0.00000000000E+00 -0.11664818179E+04  0.11664818180E+04  0.50400001928E-02 0.  1.
    10030    2    1    2    0    0  0.00000000000E+00  0.00000000000E+00  0.99546016513E+03  0.33284238010E+04  0.31760768346E+04 0.  0.
        5    1    3    3  502    0  0.34460040661E+03  0.14754791692E+04 -0.52915089104E+00  0.15151932513E+04  0.46999998093E+01 0.  1.
       -5    1    3    3    0  502 -0.34460040661E+03 -0.14754791692E+04  0.99598931602E+03  0.18132305497E+04  0.46999998093E+01 0. -1.
</event>
<event>
 5   0  0.5347280E-06  0.3045334E+04  0.7818609E-02  0.8230903E-01
        2   -1    0    0  501    0  0.00000000000E+00  0.00000000000E+00  0.22319184115E+04  0.22319184115E+04  0.25500000920E-02 0.  1.
       -2   -1    0    0    0  501  0.00000000000E+00  0.00000000000E+00 -0.10387990510E+04  0.10387990510E+04  0.25500000920E-02 0. -1.
    10030    2    1    2    0    0  0.00000000000E+00  0.00000000000E+00  0.11931193606E+04  0.32707174625E+04  0.30453339572E+04 0.  0.
        2    1    3    3  502    0  0.50884303378E+03 -0.14088071361E+04  0.89040668059E+03  0.17425506698E+04  0.25500000920E-02 0.  1.
       -2    1    3    3    0  502 -0.50884303378E+03  0.14088071361E+04  0.30271267997E+03  0.15281667928E+04  0.25500000920E-02 0. -1.
</event>
<event>
 5   0  0.1969465E-06  0.3381930E+04  0.7818609E-02  0.8142355E-01
        1   -1    0    0  501    0  0.00000000000E+00  0.00000000000E+00  0.22623229530E+04  0.22623229531E+04  0.50400001928E-02 0.  1.
       -1   -1    0    0    0  501  0.00000000000E+00  0.00000000000E+00 -0.12639058450E+04  0.12639058450E+04  0.50400001928E-02 0. -1.
    10030    2    1    2    0    0  0.00000000000E+00  0.00000000000E+00  0.99841710801E+03  0.35262287981E+04  0.33819303386E+04 0.  0.
        2    1    3    3  502    0 -0.72321480084E+03  0.95077153284E+03  0.17470846768E+04  0.21164382873E+04  0.25500000920E-02 0.  1.
       -2    1    3    3    0  502  0.72321480084E+03 -0.95077153284E+03 -0.74866756883E+03  0.14097905108E+04  0.25500000920E-02 0. -1.
</event>
<event>
 5   0  0.1969465E-06  0.2065488E+04  0.7818609E-02  0.8576600E-01
       -1   -1    0    0    0  501  0.00000000000E+00  0.00000000000E+00  0.13265378589E+04  0.13265378589E+04  0.50400001928E-02 0.  1.
        1   -1    0    0  501    0  0.00000000000E+00  0.00000000000E+00 -0.80401788791E+03  0.80401788793E+03  0.50400001928E-02 0. -1.
    10030    2    1    2    0    0  0.00000000000E+00  0.00000000000E+00  0.52251997098E+03  0.21305557468E+04  0.20654879981E+04 0.  0.
        2    1    3    3  502    0 -0.80352225339E+03 -0.19498353279E+03  0.89953709178E+03  0.12218156855E+04  0.25500000920E-02 0.  1.
       -2    1    3    3    0  502  0.80352225339E+03  0.19498353279E+03 -0.37701712080E+03  0.90874006136E+03  0.25500000920E-02 0. -1.
</event>
<event>
 5   0  0.1977015E-06  0.3192255E+04  0.7818609E-02  0.8190866E-01
        1   -1    0    0  501    0  0.00000000000E+00  0.00000000000E+00  0.16366751888E+04  0.16366751888E+04  0.50400001928E-02 0.  1.
       -1   -1    0    0    0  501  0.00000000000E+00  0.00000000000E+00 -0.15565843540E+04  0.15565843540E+04  0.50400001928E-02 0. -1.
    10030    2    1    2    0    0  0.00000000000E+00  0.00000000000E+00  0.80090834792E+02  0.31932595429E+04  0.31922549971E+04 0.  0.
        1    1    3    3  502    0  0.15888185029E+04  0.70167169837E+02  0.17556987481E+03  0.16000288897E+04  0.50400001928E-02 0. -1.
       -1    1    3    3    0  502 -0.15888185029E+04 -0.70167169837E+02 -0.95479040014E+02  0.15932306531E+04  0.50400001928E-02 0.  1.
</event>
<event>
 5   0  0.5347280E-06  0.3187856E+04  0.7818609E-02  0.8192032E-01
       -2   -1    0    0    0  501  0.00000000000E+00  0.00000000000E+00  0.11240497482E+04  0.11240497482E+04  0.25500000920E-02 0. -1.
        2   -1    0    0  501    0  0.00000000000E+00  0.00000000000E+00 -0.22602253340E+04  0.22602253340E+04  0.25500000920E-02 0.  1.
    10030    2    1    2    0    0  0.00000000000E+00  0.00000000000E+00 -0.11361755858E+04  0.33842750822E+04  0.31878555285E+04 0.  0.
        2    1    3    3  502    0  0.41425364397E+03 -0.89283892320E+03 -0.18990660398E+04  0.21389762148E+04  0.25500000920E-02 0.  1.
       -2    1    3    3    0  502 -0.41425364397E+03  0.89283892320E+03  0.76289045396E+03  0.12452988674E+04  0.25500000920E-02 0. -1.
</event>
<event>
 5   0  0.5121624E-06  0.2262840E+04  0.7818609E-02  0.8492719E-01
        2   -1    0    0  501    0  0.00000000000E+00  0.00000000000E+00  0.12834578990E+04  0.12834578990E+04  0.25500000920E-02 0.  1.
       -2   -1    0    0    0  501  0.00000000000E+00  0.00000000000E+00 -0.99739231024E+03  0.99739231024E+03  0.25500000920E-02 0. -1.
    10030    2    1    2    0    0  0.00000000000E+00  0.00000000000E+00  0.28606558873E+03  0.22808502092E+04  0.22628398432E+04 0.  0.
        4    1    3    3  502    0  0.10788598275E+04 -0.33948471789E+03  0.11244285333E+03  0.11365884960E+04  0.12699999809E+01 0. -1.
       -4    1    3    3    0  502 -0.10788598275E+04  0.33948471789E+03  0.17362273540E+03  0.11442617132E+04  0.12699999809E+01 0.  1.
</event>
<event>
 5   0  0.1977015E-06  0.3301837E+04  0.7818609E-02  0.8162428E-01
        1   -1    0    0  501    0  0.00000000000E+00  0.00000000000E+00  0.25360850177E+04  0.25360850178E+04  0.50400001928E-02 0. -1.
       -1   -1    0    0    0  501  0.00000000000E+00  0.00000000000E+00 -0.10747003048E+04  0.10747003048E+04  0.50400001928E-02 0.  1.
    10030    2    1    2    0    0  0.00000000000E+00  0.00000000000E+00  0.14613847129E+04  0.36107853226E+04  0.33018366657E+04 0.  0.
        1    1    3    3  502    0 -0.44596014406E+03  0.15789164847E+04  0.53001839531E+03  0.17241743576E+04  0.50400001928E-02 0. -1.
       -1    1    3    3    0  502  0.44596014406E+03 -0.15789164847E+04  0.93136631760E+03  0.18866109650E+04  0.50400001928E-02 0.  1.
</event>
<event>
 5   0  0.5108810E-06  0.3230990E+04  0.7818609E-02  0.8180680E-01
        2   -1    0    0  501    0  0.00000000000E+00  0.00000000000E+00  0.24935816861E+04  0.24935816861E+04  0.25500000920E-02 0. -1.
       -2   -1    0    0    0  501  0.00000000000E+00  0.00000000000E+00 -0.10466167540E+04  0.10466167541E+04  0.25500000920E-02 0.  1.
    10030    2    1    2    0    0  0.00000000000E+00  0.00000000000E+00  0.14469649321E+04  0.35401984402E+04  0.32309901704E+04 0.  0.
        1    1    3    3  502    0  0.14505927834E+04 -0.57507970138E+03  0.11817006587E+04  0.19573841046E+04  0.50400001928E-02 0. -1.
       -1    1    3    3    0  502 -0.14505927834E+04  0.57507970138E+03  0.26526427335E+03  0.15828143356E+04  0.50400001928E-02 0.  1.
</event>
<event>
 5   0  0.1969465E-06  0.3419504E+04  0.7818609E-02  0.8133136E-01
       -1   -1    0    0    0  501  0.00000000000E+00  0.00000000000E+00  0.18329108354E+04  0.18329108354E+04  0.50400001928E-02 0. -1.
        1   -1    0    0  501    0  0.00000000000E+00  0.00000000000E+00 -0.15948682925E+04  0.15948682925E+04  0.50400001928E-02 0.  1.
    10030    2    1    2    0    0  0.00000000000E+00  0.00000000000E+00  0.23804254292E+03  0.34277791279E+04  0.34195036917E+04 0.  0.
        2    1    3    3  502    0 -0.20151866633E+03  0.13195674638E+04  0.11899621887E+04  0.17882611876E+04  0.25500000920E-02 0. -1.
       -2    1    3    3    0  502  0.20151866633E+03 -0.13195674638E+04 -0.95191964581E+03  0.16395179403E+04  0.25500000920E-02 0.  1.
</event>
<event>
 5   0  0.1977015E-06  0.3203513E+04  0.7818609E-02  0.8187890E-01
       -1   -1    0    0    0  501  0.00000000000E+00  0.00000000000E+00  0.22971754741E+04  0.22971754741E+04  0.50400001928E-02 0. -1.
        1   -1    0    0  501    0  0.00000000000E+00  0.00000000000E+00 -0.11168601015E+04  0.11168601015E+04  0.50400001928E-02 0.  1.
    10030    2    1    2    0    0  0.00000000000E+00  0.00000000000E+00  0.11803153726E+04  0.34140355756E+04  0.32035128426E+04 0.  0.
        1    1    3    3  502    0 -0.14611938026E+04  0.60572726988E+03  0.32132925822E+03  0.16140772430E+04  0.50400001928E-02 0.  1.
       -1    1    3    3    0  502  0.14611938026E+04 -0.60572726988E+03  0.85898611435E+03  0.17999583326E+04  0.50400001928E-02 0. -1.
</event>
<event>
 5   0  0.1881144E-06  0.3231913E+04  0.7818609E-02  0.8180439E-01
        1   -1    0    0  501    0  0.00000000000E+00  0.00000000000E+00  0.15531781197E+04  0.15531781197E+04  0.50400001928E-02 0.  1.
       -1   -1    0    0    0  501  0.00000000000E+00  0.00000000000E+00 -0.16812725721E+04  0.16812725721E+04  0.50400001928E-02 0. -1.
    10030    2    1    2    0    0  0.00000000000E+00  0.00000000000E+00 -0.12809445245E+03  0.32344506918E+04  0.32319132243E+04 0.  0.
        3    1    3    3  502    0 -0.10329405200E+04 -0.15690143836E+03  0.11696945982E+04  0.15683652771E+04  0.10100000352E+00 0.  1.
       -3    1    3    3    0  502  0.10329405200E+04  0.15690143836E+03 -0.12977890506E+04  0.16660854148E+04  0.10100000352E+00 0. -1.
</event>
<event>
 5   0  0.1977015E-06  0.3143770E+04  0.7818609E-02  0.8203827E-01
       -1   -1    0    0    0  501  0.00000000000E+00  0.00000000000E+00  0.13792849846E+04  0.13792849846E+04  0.50400001928E-02 0. -1.
        1   -1    0    0  501    0  0.00000000000E+00  0.00000000000E+00 -0.17913796972E+04  0.17913796972E+04  0.50400001928E-02 0.  1.
    10030    2    1    2    0    0  0.00000000000E+00  0.00000000000E+00 -0.41209471254E+03  0.31706646818E+04  0.31437704230E+04 0.  0.
        1    1    3    3  502    0 -0.32065716883E+01  0.15497363725E+04 -0.47122249643E+03  0.16197974402E+04  0.50400001928E-02 0. -1.
       -1    1    3    3    0  502  0.32065716883E+01 -0.15497363725E+04  0.59127783887E+02  0.15508672416E+04  0.50400001928E-02 0.  1.
</event>
<event>
 5   0  0.1977015E-06  0.2830912E+04  0.7818609E-02  0.8293735E-01
       -1   -1    0    0    0  501  0.00000000000E+00  0.00000000000E+00  0.11162772361E+04  0.11162772361E+04  0.50400001928E-02 0. -1.
        1   -1    0    0  501    0  0.00000000000E+00  0.00000000000E+00 -0.17948185343E+04  0.17948185343E+04  0.50400001928E-02 0.  1.
    10030    2    1    2    0    0  0.00000000000E+00  0.00000000000E+00 -0.67854129822E+03  0.29110957704E+04  0.28309115654E+04 0.  0.
        1    1    3    3  502    0 -0.20764266296E+03  0.97998686486E+03  0.68906689851E+03  0.12158548110E+04  0.50400001928E-02 0. -1.
       -1    1    3    3    0  502  0.20764266296E+03 -0.97998686486E+03 -0.13676081967E+04  0.16952409594E+04  0.50400001928E-02 0.  1.
</event>
<event>
 5   0  0.1969465E-06  0.3224369E+04  0.7818609E-02  0.8182411E-01
        1   -1    0    0  501    0  0.00000000000E+00  0.00000000000E+00  0.21422375826E+04  0.21422375826E+04  0.50400001928E-02 0.  1.
       -1   -1    0    0    0  501  0.00000000000E+00  0.00000000000E+00 -0.12132824283E+04  0.12132824283E+04  0.50400001928E-02 0. -1.
    10030    2    1    2    0    0  0.00000000000E+00  0.00000000000E+00  0.92895515431E+03  0.33555200109E+04  0.32243692197E+04 0.  0.
        2    1    3    3  502    0 -0.67471466852E+03 -0.14641607708E+04  0.45249536800E+03  0.16744428043E+04  0.25500000920E-02 0. -1.
       -2    1    3    3    0  502  0.67471466852E+03  0.14641607708E+04  0.47645978630E+03  0.16810772066E+04  0.25500000920E-02 0.  1.
</event>
<event>
 5   0  0.1977015E-06  0.3136813E+04  0.7818609E-02  0.8205707E-01
        1   -1    0    0  501    0  0.00000000000E+00  0.00000000000E+00  0.15818343705E+04  0.15818343705E+04  0.50400001928E-02 0.  1.
       -1   -1    0    0    0  501  0.00000000000E+00  0.00000000000E+00 -0.15550929751E+04  0.15550929752E+04  0.50400001928E-02 0. -1.
    10030    2    1    2    0    0  0.00000000000E+00  0.00000000000E+00  0.26741395381E+02  0.31369273457E+04  0.31368133623E+04 0.  0.
        1    1    3    3  502    0  0.19198929040E+03 -0.11647554445E+03  0.15656748522E+04  0.15816966153E+04  0.50400001928E-02 0.  1.
       -1    1    3    3    0  502 -0.19198929040E+03  0.11647554445E+03 -0.15389334568E+04  0.15552307304E+04  0.50400001928E-02 0. -1.
</event>
<event>
 5   0  0.5347280E-06  0.3305477E+04  0.7818609E-02  0.8161503E-01
        2   -1    0    0  501    0  0.00000000000E+00  0.00000000000E+00  0.23702264948E+04  0.23702264948E+04  0.25500000920E-02 0.  1.
       -2   -1    0    0    0  501  0.00000000000E+00  0.00000000000E+00 -0.11524401240E+04  0.11524401240E+04  0.25500000920E-02 0. -1.
    10030    2    1    2    0    0  0.00000000000E+00  0.00000000000E+00  0.12177863709E+04  0.35226666188E+04  0.33054767375E+04 0.  0.
        2    1    3    3  502    0  0.14802301443E+04  0.42551804427E+02  0.13910460668E+04  0.20317236761E+04  0.25500000920E-02 0.  1.
       -2    1    3    3    0  502 -0.14802301443E+04 -0.42551804427E+02 -0.17325969596E+03  0.14909429427E+04  0.25500000920E-02 0. -1.
</event>
<event>
 5   0  0.1969465E-06  0.2906332E+04  0.7818609E-02  0.8270996E-01
        1   -1    0    0  501    0  0.00000000000E+00  0.00000000000E+00  0.19961645968E+04  0.19961645968E+04  0.50400001928E-02 0.  1.
       -1   -1    0    0    0  501  0.00000000000E+00  0.00000000000E+00 -0.10578747375E+04  0.10578747375E+04  0.50400001928E-02 0. -1.
    10030    2    1    2    0    0  0.00000000000E+00  0.00000000000E+00  0.93828985935E+03  0.30540393344E+04  0.29063324647E+04 0.  0.
        2    1    3    3  502    0 -0.47285808857E+03  0.51881882780E+03  0.18061794210E+04  0.19377956158E+04  0.25500000920E-02 0.  1.
       -2    1    3    3    0  502  0.47285808857E+03 -0.51881882780E+03 -0.86788956161E+03  0.11162437185E+04  0.25500000920E-02 0. -1.
</event>
<event>
 5   0  0.1846850E-06  0.3198663E+04  0.7818609E-02  0.8189170E-01
        1   -1    0    0  501    0  0.00000000000E+00  0.00000000000E+00  0.16478354505E+04  0.16478354505E+04  0.50400001928E-02 0. -1.
       -1   -1    0    0    0  501  0.00000000000E+00  0.00000000000E+00 -0.15522554707E+04  0.15522554707E+04  0.50400001928E-02 0.  1.
    10030    2    1    2    0    0  0.00000000000E+00  0.00000000000E+00  0.95579979815E+02  0.32000909213E+04  0.31986632164E+04 0.  0.
        5    1    3    3  502    0  0.14681239090E+04  0.62432997551E+03  0.16037364741E+03  0.16034080975E+04  0.46999998093E+01 0.  1.
       -5    1    3    3    0  502 -0.14681239090E+04 -0.62432997551E+03 -0.64793667600E+02  0.15966828238E+04  0.46999998093E+01 0. -1.
</event>
<event>
 5   0  0.5108810E-06  0.3173291E+04  0.7818609E-02  0.8195907E-01
        2   -1    0    0  501    0  0.00000000000E+00  0.00000000000E+00  0.18033193146E+04  0.18033193146E+04  0.25500000920E-02 0. -1.
       -2   -1    0    0    0  501  0.00000000000E+00  0.00000000000E+00 -0.13960058562E+04  0.13960058563E+04  0.25500000920E-02 0.  1.
    10030    2    1    2    0    0  0.00000000000E+00  0.00000000000E+00  0.40731345835E+03  0.31993251709E+04  0.31732912403E+04 0.  0.
        1    1    3    3  502    0 -0.10869148488E+04 -0.11301577989E+04 -0.40827635238E+02  0.15685367177E+04  0.50400001928E-02 0.  1.
       -1    1    3    3    0  502  0.10869148488E+04  0.11301577989E+04  0.44814109359E+03  0.16307884531E+04  0.50400001928E-02 0. -1.
</event>
<event>
 5   0  0.5108810E-06  0.3202392E+04  0.7818609E-02  0.8188186E-01
       -2   -1    0    0    0  501  0.00000000000E+00  0.00000000000E+00  0.14858323372E+04  0.14858323372E+04  0.25500000920E-02 0.  1.
        2   -1    0    0  501    0  0.00000000000E+00  0.00000000000E+00 -0.17255167900E+04  0.17255167900E+04  0.25500000920E-02 0. -1.
    10030    2    1    2    0    0  0.00000000000E+00  0.00000000000E+00 -0.23968445281E+03  0.32113491273E+04  0.32023920091E+04 0.  0.
        1    1    3    3  502    0 -0.99759427237E+03  0.48932384439E+03 -0.12759747598E+04  0.16919644632E+04  0.50400001928E-02 0. -1.
       -1    1    3    3    0  502  0.99759427237E+03 -0.48932384439E+03  0.10362903070E+04  0.15193846641E+04  0.50400001928E-02 0.  1.
</event>
<event>
 5   0  0.5347280E-06  0.3189949E+04  0.7818609E-02  0.8191477E-01
        2   -1    0    0  501    0  0.00000000000E+00  0.00000000000E+00  0.23695464527E+04  0.23695464527E+04  0.25500000920E-02 0. -1.
       -2   -1    0    0    0  501  0.00000000000E+00  0.00000000000E+00 -0.10735996194E+04  0.10735996194E+04  0.25500000920E-02 0.  1.
    10030    2    1    2    0    0  0.00000000000E+00  0.00000000000E+00  0.12959468333E+04  0.34431460721E+04  0.31899493224E+04 0.  0.
        2    1    3    3  502    0 -0.12059086905E+04 -0.53690297385E+03  0.16142769432E+04  0.20852747115E+04  0.25500000920E-02 0. -1.
       -2    1    3    3    0  502  0.12059086905E+04  0.53690297385E+03 -0.31833010995E+03  0.13578713606E+04  0.25500000920E-02 0.  1.
</event>
<event>
 5   0  0.5373060E-06  0.3114596E+04  0.7818609E-02  0.8211743E-01
       -2   -1    0    0    0  501  0.00000000000E+00  0.00000000000E+00  0.16445934291E+04  0.16445934291E+04  0.25500000920E-02 0. -1.
        2   -1    0    0  501    0  0.00000000000E+00  0.00000000000E+00 -0.14746365075E+04  0.14746365075E+04  0.25500000920E-02 0.  1.
    10030    2    1    2    0    0  0.00000000000E+00  0.00000000000E+00  0.16995692157E+03  0.31192299365E+04  0.31145962887E+04 0.  0.
        5    1    3    3  502    0 -0.90164251575E+03  0.10608564798E+04  0.78371244807E+03  0.15976867616E+04  0.46999998093E+01 0. -1.
       -5    1    3    3    0  502  0.90164251575E+03 -0.10608564798E+04 -0.61375552650E+03  0.15215431749E+04  0.46999998093E+01 0.  1.
</event>
<event>
 5   0  0.1886248E-06  0.3187955E+04  0.7818609E-02  0.8192005E-01
       -1   -1    0    0    0  501  0.00000000000E+00  0.00000000000E+00  0.12798091959E+04  0.12798091959E+04  0.50400001928E-02 0.  1.
        1   -1    0    0  501    0  0.00000000000E+00  0.00000000000E+00 -0.19852681056E+04  0.19852681056E+04  0.50400001928E-02 0. -1.
    10030    2    1    2    0    0  0.00000000000E+00  0.00000000000E+00 -0.70545890973E+03  0.32650773015E+04  0.31879550674E+04 0.  0.
        4    1    3    3  502    0  0.97290348265E+03 -0.11985143208E+04  0.54101635936E+02  0.15446379393E+04  0.12699999809E+01 0. -1.
       -4    1    3    3    0  502 -0.97290348265E+03  0.11985143208E+04 -0.75956054566E+03  0.17204393622E+04  0.12699999809E+01 0.  1.
</event>
<event>
 5   0  0.5108810E-06  0.3300040E+04  0.7818609E-02  0.8162885E-01
       -2   -1    0    0    0  501  0.00000000000E+00  0.00000000000E+00  0.12089479336E+04  0.12089479336E+04  0.25500000920E-02 0.  1.
        2   -1    0    0  501    0  0.00000000000E+00  0.00000000000E+00 -0.22520130407E+04  0.22520130407E+04  0.25500000920E-02 0. -1.
    10030    2    1    2    0    0  0.00000000000E+00  0.00000000000E+00 -0.10430651071E+04  0.34609609743E+04  0.33000403100E+04 0.  0.
        1    1    3    3  502    0 -0.14973897517E+04 -0.61000125944E+03 -0.17641309833E+03  0.16264683170E+04  0.50400001928E-02 0.  1.
       -1    1    3    3    0  502  0.14973897517E+04  0.61000125944E+03 -0.86665200873E+03  0.18344926572E+04  0.50400001928E-02 0. -1.
</event>
<event>
 5   0  0.1977015E-06  0.2042295E+04  0.7818609E-02  0.8587098E-01
        1   -1    0    0  501    0  0.00000000000E+00  0.00000000000E+00  0.21370615711E+04  0.21370615711E+04  0.50400001928E-02 0. -1.
       -1   -1    0    0    0  501  0.00000000000E+00  0.00000000000E+00 -0.48793252369E+03  0.48793252371E+03  0.50400001928E-02 0.  1.
    10030    2    1    2    0    0  0.00000000000E+00  0.00000000000E+00  0.16491290474E+04  0.26249940948E+04  0.20422946366E+04 0.  0.
        1    1    3    3  502    0  0.71028081041E+03 -0.43152663094E+03  0.15871673388E+04  0.17915954410E+04  0.50400001928E-02 0. -1.
       -1    1    3    3    0  502 -0.71028081041E+03  0.43152663094E+03  0.61961708631E+02  0.83339865383E+03  0.50400001928E-02 0.  1.
</event>
<event>
 5   0  0.1969465E-06  0.3158068E+04  0.7818609E-02  0.8199980E-01
        1   -1    0    0  501    0  0.00000000000E+00  0.00000000000E+00  0.22667516615E+04  0.22667516615E+04  0.50400001928E-02 0. -1.
       -1   -1    0    0    0  501  0.00000000000E+00  0.00000000000E+00 -0.10999655105E+04  0.10999655105E+04  0.50400001928E-02 0.  1.
    10030    2    1    2    0    0  0.00000000000E+00  0.00000000000E+00  0.11667861510E+04  0.33667171720E+04  0.31580681743E+04 0.  0.
        2    1    3    3  502    0 -0.13250413655E+04  0.82190412681E+03  0.84902953940E+03  0.17754188724E+04  0.25500000920E-02 0. -1.
       -2    1    3    3    0  502  0.13250413655E+04 -0.82190412681E+03  0.31775661162E+03  0.15912982995E+04  0.25500000920E-02 0.  1.
</event>
<event>
 5   0  0.1977015E-06  0.2497819E+04  0.7818609E-02  0.8403763E-01
       -1   -1    0    0    0  501  0.00000000000E+00  0.00000000000E+00  0.76576362522E+03  0.76576362524E+03  0.50400001928E-02 0. -1.
        1   -1    0    0  501    0  0.00000000000E+00  0.00000000000E+00 -0.20368890242E+04  0.20368890242E+04  0.50400001928E-02 0.  1.
    10030    2    1    2    0    0  0.00000000000E+00  0.00000000000E+00 -0.12711253989E+04  0.28026526494E+04  0.24978194677E+04 0.  0.
        1    1    3    3  502    0 -0.50475284334E+03  0.39917960476E+03 -0.18365413760E+04  0.19460226144E+04  0.50400001928E-02 0.  1.
       -1    1    3    3    0  502  0.50475284334E+03 -0.39917960476E+03  0.56541597711E+03  0.85663003503E+03  0.50400001928E-02 0. -1.
</event>
<event>
 5   0  0.1846850E-06  0.3102674E+04  0.7818609E-02  0.8215005E-01
       -1   -1    0    0    0  501  0.00000000000E+00  0.00000000000E+00  0.25344008071E+04  0.25344008071E+04  0.50400001928E-02 0. -1.
        1   -1    0    0  501    0  0.00000000000E+00  0.00000000000E+00 -0.94959167595E+03  0.94959167596E+03  0.50400001928E-02 0.  1.
    10030    2    1    2    0    0  0.00000000000E+00  0.00000000000E+00  0.15848091312E+04  0.34839924831E+04  0.31026736277E+04 0.  0.
        5    1    3    3  502    0 -0.11343702732E+04  0.10560684633E+04  0.86812587554E+03  0.17764405821E+04  0.46999998093E+01 0. -1.
       -5    1    3    3    0  502  0.11343702732E+04 -0.10560684633E+04  0.71668325563E+03  0.17075519010E+04  0.46999998093E+01 0.  1.
</event>
<event>
 5   0  0.1969465E-06  0.3100454E+04  0.7818609E-02  0.8215613E-01
        1   -1    0    0  501    0  0.00000000000E+00  0.00000000000E+00  0.19011210593E+04  0.19011210593E+04  0.50400001928E-02 0. -1.
       -1   -1    0    0    0  501  0.00000000000E+00  0.00000000000E+00 -0.12640982840E+04  0.12640982840E+04  0.50400001928E-02 0.  1.
    10030    2    1    2    0    0  0.00000000000E+00  0.00000000000E+00  0.63702277529E+03  0.31652193433E+04  0.31004540756E+04 0.  0.
        2    1    3    3  502    0 -0.15276392711E+04 -0.16255226370E+03  0.53045070918E+03  0.16252639588E+04  0.25500000920E-02 0.  1.
       -2    1    3    3    0  502  0.15276392711E+04  0.16255226370E+03  0.10657206611E+03  0.15399553845E+04  0.25500000920E-02 0. -1.
</event>
<event>
 5   0  0.5108810E-06  0.3163330E+04  0.7818609E-02  0.8198569E-01
        2   -1    0    0  501    0  0.00000000000E+00  0.00000000000E+00  0.21338285840E+04  0.21338285840E+04  0.25500000920E-02 0. -1.
       -2   -1    0    0    0  501  0.00000000000E+00  0.00000000000E+00 -0.11723830298E+04  0.11723830298E+04  0.25500000920E-02 0.  1.
    10030    2    1    2    0    0  0.00000000000E+00  0.00000000000E+00  0.96144555421E+03  0.33062116139E+04  0.31633301570E+04 0.  0.
        1    1    3    3  502    0  0.50676984498E+03  0.85138755608E+03  0.17692873931E+04  0.20278200921E+04  0.50400001928E-02 0. -1.
       -1    1    3    3    0  502 -0.50676984498E+03 -0.85138755608E+03 -0.80784183887E+03  0.12783915218E+04  0.50400001928E-02 0.  1.
</event>
<event>
 5   0  0.5131083E-06  0.3236900E+04  0.7818609E-02  0.8179139E-01
        2   -1    0    0  501    0  0.00000000000E+00  0.00000000000E+00  0.18296558680E+04  0.18296558680E+04  0.25500000920E-02 0. -1.
       -2   -1    0    0    0  501  0.00000000000E+00  0.00000000000E+00 -0.14316247491E+04  0.14316247491E+04  0.25500000920E-02 0.  1.
    10030    2    1    2    0    0  0.00000000000E+00  0.00000000000E+00  0.39803111885E+03  0.32612806171E+04  0.32369001362E+04 0.  0.
        3    1    3    3  502    0 -0.11158421423E+04  0.45312661148E+01  0.13801321001E+04  0.17747926197E+04  0.10100000352E+00 0. -1.
       -3    1    3    3    0  502  0.11158421423E+04 -0.45312661148E+01 -0.98210098127E+03  0.14864879974E+04  0.10100000352E+00 0.  1.
</event>
<event>
 5   0  0.1977015E-06  0.3290795E+04  0.7818609E-02  0.8165242E-01
       -1   -1    0    0    0  501  0.00000000000E+00  0.00000000000E+00  0.10761890123E+04  0.10761890123E+04  0.50400001928E-02 0. -1.
        1   -1    0    0  501    0  0.00000000000E+00  0.00000000000E+00 -0.25156663699E+04  0.25156663699E+04  0.50400001928E-02 0.  1.
    10030    2    1    2    0    0  0.00000000000E+00  0.00000000000E+00 -0.14394773576E+04  0.35918553822E+04  0.32907947404E+04 0.  0.
        1    1    3    3  502    0 -0.48989387369E+03 -0.94614259220E+03 -0.20883027483E+04  0.23443954830E+04  0.50400001928E-02 0.  1.
       -1    1    3    3    0  502  0.48989387369E+03  0.94614259220E+03  0.64882539070E+03  0.12474598991E+04  0.50400001928E-02 0. -1.
</event>
<event>
 5   0  0.1969465E-06  0.3207900E+04  0.7818609E-02  0.8186734E-01
       -1   -1    0    0    0  501  0.00000000000E+00  0.00000000000E+00  0.13278644478E+04  0.13278644478E+04  0.50400001928E-02 0.  1.
        1   -1    0    0  501    0  0.00000000000E+00  0.00000000000E+00 -0.19374382679E+04  0.19374382679E+04  0.50400001928E-02 0. -1.
    10030    2    1    2    0    0  0.00000000000E+00  0.00000000000E+00 -0.60957382011E+03  0.32653027157E+04  0.32078998711E+04 0.  0.
        2    1    3    3  502    0 -0.50961249013E+02 -0.23844968308E+03  0.13088884930E+04  0.13314069203E+04  0.25500000920E-02 0.  1.
       -2    1    3    3    0  502  0.50961249013E+02  0.23844968308E+03 -0.19184623132E+04  0.19338957953E+04  0.25500000920E-02 0. -1.
</event>
<event>
 5   0  0.1977015E-06  0.2321585E+04  0.7818609E-02  0.8469459E-01
       -1   -1    0    0    0  501  0.00000000000E+00  0.00000000000E+00  0.81356055105E+03  0.81356055106E+03  0.50400001928E-02 0. -1.
        1   -1    0    0  501    0  0.00000000000E+00  0.00000000000E+00 -0.16562245725E+04  0.16562245725E+04  0.50400001928E-02 0.  1.
    10030    2    1    2    0    0  0.00000000000E+00  0.00000000000E+00 -0.84266402148E+03  0.24697851236E+04  0.23215847828E+04 0.  0.
        1    1    3    3  502    0  0.30482403887E+03 -0.34441217161E+03  0.71249021394E+03  0.84804465898E+03  0.50400001928E-02 0. -1.
       -1    1    3    3    0  502 -0.30482403887E+03  0.34441217161E+03 -0.15551542354E+04  0.16217404646E+04  0.50400001928E-02 0.  1.
</event>
<event>
 5   0  0.1969465E-06  0.3211199E+04  0.7818609E-02  0.8185866E-01
        1   -1    0    0  501    0  0.00000000000E+00  0.00000000000E+00  0.18215133217E+04  0.18215133217E+04  0.50400001928E-02 0.  1.
       -1   -1    0    0    0  501  0.00000000000E+00  0.00000000000E+00 -0.14152787462E+04  0.14152787462E+04  0.50400001928E-02 0. -1.
    10030    2    1    2    0    0  0.00000000000E+00  0.00000000000E+00  0.40623457550E+03  0.32367920678E+04  0.32111985862E+04 0.  0.
        2    1    3    3  502    0 -0.14032875472E+03 -0.13732842064E+04  0.10296204285E+04  0.17221265626E+04  0.25500000920E-02 0.  1.
       -2    1    3    3    0  502  0.14032875472E+03  0.13732842064E+04 -0.62338585295E+03  0.15146655052E+04  0.25500000920E-02 0. -1.
</event>
<event>
 5   0  0.1881144E-06  0.3273909E+04  0.7818609E-02  0.8169566E-01
       -1   -1    0    0    0  501  0.00000000000E+00  0.00000000000E+00  0.13806891446E+04  0.13806891446E+04  0.50400001928E-02 0.  1.
        1   -1    0    0  501    0  0.00000000000E+00  0.00000000000E+00 -0.19407847615E+04  0.19407847615E+04  0.50400001928E-02 0. -1.
    10030    2    1    2    0    0  0.00000000000E+00  0.00000000000E+00 -0.56009561687E+03  0.33214739061E+04  0.32739092548E+04 0.  0.
        3    1    3    3  502    0 -0.10979560230E+04 -0.11555978985E+04 -0.65789189558E+03  0.17244522864E+04  0.10100000352E+00 0.  1.
       -3    1    3    3    0  502  0.10979560230E+04  0.11555978985E+04  0.97796278711E+02  0.15970216197E+04  0.10100000352E+00 0. -1.
</event>
<event>
 5   0  0.5108810E-06  0.3290898E+04  0.7818609E-02  0.8165215E-01
       -2   -1    0    0    0  501  0.00000000000E+00  0.00000000000E+00  0.15971731649E+04  0.15971731649E+04  0.25500000920E-02 0.  1.
        2   -1    0    0  501    0  0.00000000000E+00  0.00000000000E+00 -0.16951834995E+04  0.16951834995E+04  0.25500000920E-02 0. -1.
    10030    2    1    2    0    0  0.00000000000E+00  0.00000000000E+00 -0.98010334514E+02  0.32923566644E+04  0.32908975037E+04 0.  0.
        1    1    3    3  502    0 -0.14696815243E+04 -0.27679192455E+03 -0.73554849718E+03  0.16666160758E+04  0.50400001928E-02 0. -1.
       -1    1    3    3    0  502  0.14696815243E+04  0.27679192455E+03  0.63753816267E+03  0.16257405886E+04  0.50400001928E-02 0.  1.
</event>
<event>
 5   0  0.1846850E-06  0.3239163E+04  0.7818609E-02  0.8178550E-01
        1   -1    0    0  501    0  0.00000000000E+00  0.00000000000E+00  0.16475909939E+04  0.16475909939E+04  0.50400001928E-02 0.  1.
       -1   -1    0    0    0  501  0.00000000000E+00  0.00000000000E+00 -0.15920480429E+04  0.15920480429E+04  0.50400001928E-02 0. -1.
    10030    2    1    2    0    0  0.00000000000E+00  0.00000000000E+00  0.55542951083E+02  0.32396390368E+04  0.32391628655E+04 0.  0.
        5    1    3    3  502    0  0.93239400056E+02  0.10541879281E+04 -0.11983843410E+04  0.15987973268E+04  0.46999998093E+01 0. -1.
       -5    1    3    3    0  502 -0.93239400056E+02 -0.10541879281E+04  0.12539272921E+04  0.16408417100E+04  0.46999998093E+01 0.  1.
</event>
<event>
 5   0  0.5347280E-06  0.3127496E+04  0.7818609E-02  0.8208232E-01
       -2   -1    0    0    0  501  0.00000000000E+00  0.00000000000E+00  0.21996819312E+04  0.21996819312E+04  0.25500000920E-02 0. -1.
        2   -1    0    0  501    0  0.00000000000E+00  0.00000000000E+00 -0.11116646040E+04  0.11116646040E+04  0.25500000920E-02 0.  1.
    10030    2    1    2    0    0  0.00000000000E+00  0.00000000000E+00  0.10880173273E+04  0.33113465352E+04  0.31274964703E+04 0.  0.
        2    1    3    3  502    0  0.27144204550E+03 -0.45198931113E+03  0.21027378530E+04  0.21678287755E+04  0.25500000920E-02 0. -1.
       -2    1    3    3    0  502 -0.27144204550E+03  0.45198931113E+03 -0.10147205257E+04  0.11435177597E+04  0.25500000920E-02 0.  1.
</event>
<event>
 5   0  0.1969465E-06  0.3047578E+04  0.7818609E-02  0.8230274E-01
       -1   -1    0    0    0  501  0.00000000000E+00  0.00000000000E+00  0.11332780804E+04  0.11332780804E+04  0.50400001928E-02 0. -1.
        1   -1    0    0  501    0  0.00000000000E+00  0.00000000000E+00 -0.20488641919E+04  0.20488641919E+04  0.50400001928E-02 0.  1.
    10030    2    1    2    0    0  0.00000000000E+00  0.00000000000E+00 -0.91558611155E+03  0.31821422723E+04  0.30475779750E+04 0.  0.
        2    1    3    3  502    0 -0.10023243290E+04  0.71998438742E+03  0.47548559347E+03  0.13225422973E+04  0.25500000920E-02 0.  1.
       -2    1    3    3    0  502  0.10023243290E+04 -0.71998438742E+03 -0.13910717050E+04  0.18595999750E+04  0.25500000920E-02 0. -1.
</event>
<event>
 5   0  0.5131083E-06  0.2770831E+04  0.7818609E-02  0.8312382E-01
       -2   -1    0    0    0  501  0.00000000000E+00  0.00000000000E+00  0.10506895696E+04  0.10506895696E+04  0.25500000920E-02 0. -1.
        2   -1    0    0  501    0  0.00000000000E+00  0.00000000000E+00 -0.18267781268E+04  0.18267781268E+04  0.25500000920E-02 0.  1.
    10030    2    1    2    0    0  0.00000000000E+00  0.00000000000E+00 -0.77608855725E+03  0.28774676964E+04  0.27708314447E+04 0.  0.
        3    1    3    3  502    0  0.42054695340E+03 -0.86716298460E+02  0.97984121993E+03  0.10697982440E+04  0.10100000352E+00 0. -1.
       -3    1    3    3    0  502 -0.42054695340E+03  0.86716298460E+02 -0.17559297772E+04  0.18076694524E+04  0.10100000352E+00 0.  1.
</event>
<event>
 5   0  0.1977015E-06  0.3138537E+04  0.7818609E-02  0.8205241E-01
       -1   -1    0    0    0  501  0.00000000000E+00  0.00000000000E+00  0.86940230479E+03  0.86940230480E+03  0.50400001928E-02 0. -1.
        1   -1    0    0  501    0  0.00000000000E+00  0.00000000000E+00 -0.28325248093E+04  0.28325248093E+04  0.50400001928E-02 0.  1.
    10030    2    1    2    0    0  0.00000000000E+00  0.00000000000E+00 -0.19631225045E+04  0.37019271141E+04  0.31385369825E+04 0.  0.
        1    1    3    3  502    0  0.10800549417E+04 -0.36537568713E+03  0.29022190628E+03  0.11765401926E+04  0.50400001928E-02 0. -1.
       -1    1    3    3    0  502 -0.10800549417E+04  0.36537568713E+03 -0.22533444108E+04  0.25253869215E+04  0.50400001928E-02 0.  1.
</event>
<event>
 5   0  0.5131083E-06  0.3167840E+04  0.7818609E-02  0.8197363E-01
        2   -1    0    0  501    0  0.00000000000E+00  0.00000000000E+00  0.15905857685E+04  0.15905857685E+04  0.25500000920E-02 0. -1.
       -2   -1    0    0    0  501  0.00000000000E+00  0.00000000000E+00 -0.15772820986E+04  0.15772820986E+04  0.25500000920E-02 0.  1.
    10030    2    1    2    0    0  0.00000000000E+00  0.00000000000E+00  0.13303669937E+02  0.31678678671E+04  0.31678399321E+04 0.  0.
        3    1    3    3  502    0 -0.40871559582E+03 -0.27635107828E+03 -0.14984807325E+04  0.15776130301E+04  0.10100000352E+00 0.  1.
       -3    1    3    3    0  502  0.40871559582E+03  0.27635107828E+03  0.15117844025E+04  0.15902548370E+04  0.10100000352E+00 0. -1.
</event>
<event>
 5   0  0.1881144E-06  0.3098317E+04  0.7818609E-02  0.8216200E-01
       -1   -1    0    0    0  501  0.00000000000E+00  0.00000000000E+00  0.29271752919E+04  0.29271752919E+04  0.50400001928E-02 0. -1.
        1   -1    0    0  501    0  0.00000000000E+00  0.00000000000E+00 -0.81986599032E+03  0.81986599033E+03  0.50400001928E-02 0.  1.
    10030    2    1    2    0    0  0.00000000000E+00  0.00000000000E+00  0.21073093016E+04  0.37470412823E+04  0.30983166201E+04 0.  0.
        3    1    3    3  502    0 -0.83413338842E+03  0.21658162748E+02  0.26321819213E+04  0.27612731235E+04  0.10100000352E+00 0. -1.
       -3    1    3    3    0  502  0.83413338842E+03 -0.21658162748E+02 -0.52487261969E+03  0.98576815874E+03  0.10100000352E+00 0.  1.
</event>
<event>
 5   0  0.1846850E-06  0.3198725E+04  0.7818609E-02  0.8189154E-01
       -1   -1    0    0    0  501  0.00000000000E+00  0.00000000000E+00  0.97490995962E+03  0.97490995964E+03  0.50400001928E-02 0. -1.
        1   -1    0    0  501    0  0.00000000000E+00  0.00000000000E+00 -0.26237913559E+04  0.26237913559E+04  0.50400001928E-02 0.  1.
    10030    2    1    2    0    0  0.00000000000E+00  0.00000000000E+00 -0.16488813963E+04  0.35987013156E+04  0.31987249490E+04 0.  0.
        5    1    3    3  502    0 -0.10235284526E+03  0.23863433994E+02  0.97101306836E+03  0.97669546806E+03  0.46999998093E+01 0. -1.
       -5    1    3    3    0  502  0.10235284526E+03 -0.23863433994E+02 -0.26198944647E+04  0.26220058475E+04  0.46999998093E+01 0.  1.
</event>
<event>
 5   0  0.1881144E-06  0.3156524E+04  0.7818609E-02  0.8200394E-01
        1   -1    0    0  501    0  0.00000000000E+00  0.00000000000E+00  0.18173061651E+04  0.18173061651E+04  0.50400001928E-02 0. -1.
       -1   -1    0    0    0  501  0.00000000000E+00  0.00000000000E+00 -0.13706612137E+04  0.13706612138E+04  0.50400001928E-02 0.  1.
    10030    2    1    2    0    0  0.00000000000E+00  0.00000000000E+00  0.44664495131E+03  0.31879673788E+04  0.31565240845E+04 0.  0.
        3    1    3    3  502    0  0.51850520760E+03  0.13931900471E+04 -0.31213319725E+03  0.15189645488E+04  0.10100000352E+00 0.  1.
       -3    1    3    3    0  502 -0.51850520760E+03 -0.13931900471E+04  0.75877814856E+03  0.16690028300E+04  0.10100000352E+00 0. -1.
</event>
<event>
 5   0  0.5373060E-06  0.3213948E+04  0.7818609E-02  0.8185143E-01
        2   -1    0    0  501    0  0.00000000000E+00  0.00000000000E+00  0.29099699903E+04  0.29099699903E+04  0.25500000920E-02 0. -1.
       -2   -1    0    0    0  501  0.00000000000E+00  0.00000000000E+00 -0.88741990219E+03  0.88741990220E+03  0.25500000920E-02 0.  1.
    10030    2    1    2    0    0  0.00000000000E+00  0.00000000000E+00  0.20225500881E+04  0.37973898925E+04  0.32139479051E+04 0.  0.
        5    1    3    3  502    0  0.99529220004E+03 -0.25201370445E+03  0.24719046857E+04  0.26766494608E+04  0.46999998093E+01 0. -1.
       -5    1    3    3    0  502 -0.99529220004E+03  0.25201370445E+03 -0.44935459767E+03  0.11207404316E+04  0.46999998093E+01 0.  1.
</event>
<event>
 5   0  0.5108810E-06  0.3157007E+04  0.7818609E-02  0.8200265E-01
       -2   -1    0    0    0  501  0.00000000000E+00  0.00000000000E+00  0.19579314734E+04  0.19579314734E+04  0.25500000920E-02 0. -1.
        2   -1    0    0  501    0  0.00000000000E+00  0.00000000000E+00 -0.12726045907E+04  0.12726045907E+04  0.25500000920E-02 0.  1.
    10030    2    1    2    0    0  0.00000000000E+00  0.00000000000E+00  0.68532688276E+03  0.32305360641E+04  0.31570065450E+04 0.  0.
        1    1    3    3  502    0  0.37741993443E+03 -0.10916508581E+04 -0.75827829162E+03  0.13817139249E+04  0.50400001928E-02 0.  1.
       -1    1    3    3    0  502 -0.37741993443E+03  0.10916508581E+04  0.14436051744E+04  0.18488221392E+04  0.50400001928E-02 0. -1.
</event>
<event>
 5   0  0.5108810E-06  0.3248705E+04  0.7818609E-02  0.8176072E-01
        2   -1    0    0  501    0  0.00000000000E+00  0.00000000000E+00  0.22951567680E+04  0.22951567680E+04  0.25500000920E-02 0.  1.
       -2   -1    0    0    0  501  0.00000000000E+00  0.00000000000E+00 -0.11496035879E+04  0.11496035879E+04  0.25500000920E-02 0. -1.
    10030    2    1    2    0    0  0.00000000000E+00  0.00000000000E+00  0.11455531801E+04  0.34447603559E+04  0.32487046374E+04 0.  0.
        1    1    3    3  502    0  0.97047968539E+03  0.51032503764E+03  0.18435409181E+04  0.21449721631E+04  0.50400001928E-02 0.  1.
       -1    1    3    3    0  502 -0.97047968539E+03 -0.51032503764E+03 -0.69798773798E+03  0.12997881928E+04  0.50400001928E-02 0. -1.
</event>
<event>
 5   0  0.1969465E-06  0.3196586E+04  0.7818609E-02  0.8189720E-01
       -1   -1    0    0    0  501  0.00000000000E+00  0.00000000000E+00  0.13204978515E+04  0.13204978515E+04  0.50400001928E-02 0. -1.
        1   -1    0    0  501    0  0.00000000000E+00  0.00000000000E+00 -0.19345277839E+04  0.19345277839E+04  0.50400001928E-02 0.  1.
    10030    2    1    2    0    0  0.00000000000E+00  0.00000000000E+00 -0.61402993246E+03  0.32550256354E+04  0.31965855423E+04 0.  0.
        2    1    3    3  502    0 -0.53345879191E+03  0.25365391209E+03 -0.18192996211E+04  0.19127910761E+04  0.25500000920E-02 0.  1.
       -2    1    3    3    0  502  0.53345879191E+03 -0.25365391209E+03  0.12052696886E+04  0.13422345593E+04  0.25500000920E-02 0. -1.
</event>
<event>
 5   0  0.5373060E-06  0.2838090E+04  0.7818609E-02  0.8291540E-01
       -2   -1    0    0    0  501  0.00000000000E+00  0.00000000000E+00  0.16292583228E+04  0.16292583228E+04  0.25500000920E-02 0.  1.
        2   -1    0    0  501    0  0.00000000000E+00  0.00000000000E+00 -0.12359539074E+04  0.12359539074E+04  0.25500000920E-02 0. -1.
    10030    2    1    2    0    0  0.00000000000E+00  0.00000000000E+00  0.39330441541E+03  0.28652122303E+04  0.28380896324E+04 0.  0.
        5    1    3    3  502    0 -0.13896407660E+04  0.27866264073E+03  0.12589838755E+03  0.14228938189E+04  0.46999998093E+01 0.  1.
       -5    1    3    3    0  502  0.13896407660E+04 -0.27866264073E+03  0.26740602785E+03  0.14423184113E+04  0.46999998093E+01 0. -1.
</event>
<event>
 5   0  0.5347280E-06  0.2886365E+04  0.7818609E-02  0.8276946E-01
        2   -1    0    0  501    0  0.00000000000E+00  0.00000000000E+00  0.10086562131E+04  0.10086562131E+04  0.25500000920E-02 0.  1.
       -2   -1    0    0    0  501  0.00000000000E+00  0.00000000000E+00 -0.20649013680E+04  0.20649013680E+04  0.25500000920E-02 0. -1.
    10030    2    1    2    0    0  0.00000000000E+00  0.00000000000E+00 -0.10562451549E+04  0.30735575811E+04  0.28863649071E+04 0.  0.
        2    1    3    3  502    0  0.28404228983E+03 -0.12538478922E+04  0.17011733152E+03  0.12968247629E+04  0.25500000920E-02 0.  1.
       -2    1    3    3    0  502 -0.28404228983E+03  0.12538478922E+04 -0.12263624864E+04  0.17767328182E+04  0.25500000920E-02 0. -1.
</event>
<event>
 5   0  0.1846850E-06  0.3181549E+04  0.7818609E-02  0.8193707E-01
        1   -1    0    0  501    0  0.00000000000E+00  0.00000000000E+00  0.14260401374E+04  0.14260401374E+04  0.50400001928E-02 0.  1.
       -1   -1    0    0    0  501  0.00000000000E+00  0.00000000000E+00 -0.17745387696E+04  0.17745387696E+04  0.50400001928E-02 0. -1.
    10030    2    1    2    0    0  0.00000000000E+00  0.00000000000E+00 -0.34849863222E+03  0.32005789071E+04  0.31815490007E+04 0.  0.
        5    1    3    3  502    0  0.10371078042E+04  0.11713538581E+04  0.11535969796E+03  0.15687550505E+04  0.46999998093E+01 0.  1.
       -5    1    3    3    0  502 -0.10371078042E+04 -0.11713538581E+04 -0.46385833017E+03  0.16318238566E+04  0.46999998093E+01 0. -1.
</event>
<event>
 5   0  0.1886248E-06  0.3203752E+04  0.7818609E-02  0.8187827E-01
       -1   -1    0    0    0  501  0.00000000000E+00  0.00000000000E+00  0.10653928130E+04  0.10653928130E+04  0.50400001928E-02 0. -1.
        1   -1    0    0  501    0  0.00000000000E+00  0.00000000000E+00 -0.24085079658E+04  0.24085079658E+04  0.50400001928E-02 0.  1.
    10030    2    1    2    0    0  0.00000000000E+00  0.00000000000E+00 -0.13431151528E+04  0.34739007788E+04  0.32037522231E+04 0.  0.
        4    1    3    3  502    0 -0.11539176181E+03  0.53801642768E+03  0.95970057144E+03  0.11062566316E+04  0.12699999809E+01 0. -1.
       -4    1    3    3    0  502  0.11539176181E+03 -0.53801642768E+03 -0.23028157242E+04  0.23676441472E+04  0.12699999809E+01 0.  1.
</event>
<event>
 5   0  0.1881144E-06  0.3154885E+04  0.7818609E-02  0.8200835E-01
        1   -1    0    0  501    0  0.00000000000E+00  0.00000000000E+00  0.24773954621E+04  0.24773954621E+04  0.50400001928E-02 0.  1.
       -1   -1    0    0    0  501  0.00000000000E+00  0.00000000000E+00 -0.10044115367E+04  0.10044115367E+04  0.50400001928E-02 0. -1.
    10030    2    1    2    0    0  0.00000000000E+00  0.00000000000E+00  0.14729839254E+04  0.34818069988E+04  0.31548848366E+04 0.  0.
        3    1    3    3  502    0  0.11363478235E+04 -0.12941937767E+03  0.19354813257E+04  0.22481378346E+04  0.10100000352E+00 0.  1.
       -3    1    3    3    0  502 -0.11363478235E+04  0.12941937767E+03 -0.46249740029E+03  0.12336691642E+04  0.10100000352E+00 0. -1.
</event>
<event>
 5   0  0.1846850E-06  0.3213408E+04  0.7818609E-02  0.8185285E-01
        1   -1    0    0  501    0  0.00000000000E+00  0.00000000000E+00  0.21053427641E+04  0.21053427641E+04  0.50400001928E-02 0. -1.
       -1   -1    0    0    0  501  0.00000000000E+00  0.00000000000E+00 -0.12261649435E+04  0.12261649436E+04  0.50400001928E-02 0.  1.
    10030    2    1    2    0    0  0.00000000000E+00  0.00000000000E+00  0.87917782057E+03  0.33315077077E+04  0.32134078431E+04 0.  0.
        5    1    3    3  502    0  0.15030977788E+04  0.29094994391E+03  0.94486135345E+03  0.17990941803E+04  0.46999998093E+01 0. -1.
       -5    1    3    3    0  502 -0.15030977788E+04 -0.29094994391E+03 -0.65683532884E+02  0.15324135274E+04  0.46999998093E+01 0.  1.
</event>
<event>
 5   0  0.5347280E-06  0.2208532E+04  0.7818609E-02  0.8514885E-01
        2   -1    0    0  501    0  0.00000000000E+00  0.00000000000E+00  0.13913157821E+04  0.13913157821E+04  0.25500000920E-02 0. -1.
       -2   -1    0    0    0  501  0.00000000000E+00  0.00000000000E+00 -0.87643903116E+03  0.87643903117E+03  0.25500000920E-02 0.  1.
    10030    2    1    2    0    0  0.00000000000E+00  0.00000000000E+00  0.51487675096E+03  0.22677548133E+04  0.22085320520E+04 0.  0.
        2    1    3    3  502    0 -0.14883323506E+03  0.91473898502E+03 -0.35908261101E+03  0.99390093275E+03  0.25500000920E-02 0.  1.
       -2    1    3    3    0  502  0.14883323506E+03 -0.91473898502E+03  0.87395936198E+03  0.12738538805E+04  0.25500000920E-02 0. -1.
</event>
<event>
 5   0  0.5347280E-06  0.3187117E+04  0.7818609E-02  0.8192228E-01
       -2   -1    0    0    0  501  0.00000000000E+00  0.00000000000E+00  0.14140858138E+04  0.14140858138E+04  0.25500000920E-02 0.  1.
        2   -1    0    0  501    0  0.00000000000E+00  0.00000000000E+00 -0.17958090190E+04  0.17958090190E+04  0.25500000920E-02 0. -1.
    10030    2    1    2    0    0  0.00000000000E+00  0.00000000000E+00 -0.38172320521E+03  0.32098948328E+04  0.31871166016E+04 0.  0.
        2    1    3    3  502    0  0.27442929288E+03 -0.15697454591E+04 -0.19486682678E+03  0.16054237208E+04  0.25500000920E-02 0.  1.
       -2    1    3    3    0  502 -0.27442929288E+03  0.15697454591E+04 -0.18685637843E+03  0.16044711120E+04  0.25500000920E-02 0. -1.
</event>
<event>
 5   0  0.1886248E-06  0.3159174E+04  0.7818609E-02  0.8199683E-01
        1   -1    0    0  501    0  0.00000000000E+00  0.00000000000E+00  0.16048918072E+04  0.16048918072E+04  0.50400001928E-02 0. -1.
       -1   -1    0    0    0  501  0.00000000000E+00  0.00000000000E+00 -0.15546810647E+04  0.15546810647E+04  0.50400001928E-02 0.  1.
    10030    2    1    2    0    0  0.00000000000E+00  0.00000000000E+00  0.50210742493E+02  0.31595728719E+04  0.31591738816E+04 0.  0.
        4    1    3    3  502    0 -0.66502202563E+03  0.13148225471E+04  0.59445810102E+03  0.15888343752E+04  0.12699999809E+01 0.  1.
       -4    1    3    3    0  502  0.66502202563E+03 -0.13148225471E+04 -0.54424735853E+03  0.15707384967E+04  0.12699999809E+01 0. -1.
</event>
<event>
 5   0  0.1977015E-06  0.3224744E+04  0.7818609E-02  0.8182313E-01
       -1   -1    0    0    0  501  0.00000000000E+00  0.00000000000E+00  0.16818150260E+04  0.16818150260E+04  0.50400001928E-02 0. -1.
        1   -1    0    0  501    0  0.00000000000E+00  0.00000000000E+00 -0.15457961011E+04  0.15457961011E+04  0.50400001928E-02 0.  1.
    10030    2    1    2    0    0  0.00000000000E+00  0.00000000000E+00  0.13601892496E+03  0.32276111271E+04  0.32247437790E+04 0.  0.
        1    1    3    3  502    0 -0.76483014319E+02 -0.34838605744E+02 -0.15436022930E+04  0.15458885532E+04  0.50400001928E-02 0.  1.
       -1    1    3    3    0  502  0.76483014319E+02  0.34838605744E+02  0.16796212179E+04  0.16817225739E+04  0.50400001928E-02 0. -1.
</event>
<event>
 5   0  0.1977015E-06  0.3191326E+04  0.7818609E-02  0.8191112E-01
        1   -1    0    0  501    0  0.00000000000E+00  0.00000000000E+00  0.25611073159E+04  0.25611073159E+04  0.50400001928E-02 0. -1.
       -1   -1    0    0    0  501  0.00000000000E+00  0.00000000000E+00 -0.99415603706E+03  0.99415603707E+03  0.50400001928E-02 0.  1.
    10030    2    1    2    0    0  0.00000000000E+00  0.00000000000E+00  0.15669512789E+04  0.35552633530E+04  0.31913259312E+04 0.  0.
        1    1    3    3  502    0  0.48336470786E+03 -0.14601718012E+04  0.12566437585E+04  0.19861763934E+04  0.50400001928E-02 0. -1.
       -1    1    3    3    0  502 -0.48336470786E+03  0.14601718012E+04  0.31030752034E+03  0.15690869596E+04  0.50400001928E-02 0.  1.
</event>
<event>
 5   0  0.1846850E-06  0.3012418E+04  0.7818609E-02  0.8240194E-01
       -1   -1    0    0    0  501  0.00000000000E+00  0.00000000000E+00  0.14402432578E+04  0.14402432578E+04  0.50400001928E-02 0. -1.
        1   -1    0    0  501    0  0.00000000000E+00  0.00000000000E+00 -0.15751961980E+04  0.15751961980E+04  0.50400001928E-02 0.  1.
    10030    2    1    2    0    0  0.00000000000E+00  0.00000000000E+00 -0.13495294014E+03  0.30154394558E+04  0.30124181011E+04 0.  0.
        5    1    3    3  502    0 -0.42853517650E+02  0.13578016640E+04 -0.71865319838E+03  0.15368624832E+04  0.46999998093E+01 0. -1.
       -5    1    3    3    0  502  0.42853517650E+02 -0.13578016640E+04  0.58370025825E+03  0.14785769727E+04  0.46999998093E+01 0.  1.
</event>
<event>
 5   0  0.5121624E-06  0.3169733E+04  0.7818609E-02  0.8196857E-01
        2   -1    0    0  501    0  0.00000000000E+00  0.00000000000E+00  0.14594195250E+04  0.14594195250E+04  0.25500000920E-02 0. -1.
       -2   -1    0    0    0  501  0.00000000000E+00  0.00000000000E+00 -0.17210965532E+04  0.17210965532E+04  0.25500000920E-02 0.  1.
    10030    2    1    2    0    0  0.00000000000E+00  0.00000000000E+00 -0.26167702819E+03  0.31805160782E+04  0.31697330577E+04 0.  0.
        4    1    3    3  502    0 -0.56734015273E+03 -0.23703200800E+03 -0.15965408695E+04  0.17108487317E+04  0.12699999809E+01 0.  1.
       -4    1    3    3    0  502  0.56734015273E+03  0.23703200800E+03  0.13348638413E+04  0.14696673466E+04  0.12699999809E+01 0. -1.
</event>
<event>
 5   0  0.5131083E-06  0.3187597E+04  0.7818609E-02  0.8192101E-01
       -2   -1    0    0    0  501  0.00000000000E+00  0.00000000000E+00  0.15256743218E+04  0.15256743218E+04  0.25500000920E-02 0.  1.
        2   -1    0    0  501    0  0.00000000000E+00  0.00000000000E+00 -0.16649642345E+04  0.16649642346E+04  0.25500000920E-02 0. -1.
    10030    2    1    2    0    0  0.00000000000E+00  0.00000000000E+00 -0.13928991274E+03  0.31906385564E+04  0.31875966993E+04 0.  0.
        3    1    3    3  502    0 -0.47965359327E+03 -0.63882022328E+02  0.14503708355E+04  0.15289617566E+04  0.10100000352E+00 0.  1.
       -3    1    3    3    0  502  0.47965359327E+03  0.63882022328E+02 -0.15896607482E+04  0.16616767998E+04  0.10100000352E+00 0. -1.
</event>
<event>
 5   0  0.5108810E-06  0.3291291E+04  0.7818609E-02  0.8165115E-01
       -2   -1    0    0    0  501  0.00000000000E+00  0.00000000000E+00  0.20123278035E+04  0.20123278035E+04  0.25500000920E-02 0.  1.
        2   -1    0    0  501    0  0.00000000000E+00  0.00000000000E+00 -0.13457792146E+04  0.13457792146E+04  0.25500000920E-02 0. -1.
    10030    2    1    2    0    0  0.00000000000E+00  0.00000000000E+00  0.66654858891E+03  0.33581070181E+04  0.32912908902E+04 0.  0.
        1    1    3    3  502    0  0.13355938245E+04  0.29856863891E+03  0.12657170187E+04  0.18641334898E+04  0.50400001928E-02 0.  1.
       -1    1    3    3    0  502 -0.13355938245E+04 -0.29856863891E+03 -0.59916842984E+03  0.14939735284E+04  0.50400001928E-02 0. -1.
</event>
<event>
 5   0  0.5131083E-06  0.3199801E+04  0.7818609E-02  0.8188870E-01
       -2   -1    0    0    0  501  0.00000000000E+00  0.00000000000E+00  0.11283286622E+04  0.11283286622E+04  0.25500000920E-02 0.  1.
        2   -1    0    0  501    0  0.00000000000E+00  0.00000000000E+00 -0.22685600119E+04  0.22685600119E+04  0.25500000920E-02 0. -1.
    10030    2    1    2    0    0  0.00000000000E+00  0.00000000000E+00 -0.11402313497E+04  0.33968886741E+04  0.31998007959E+04 0.  0.
        3    1    3    3  502    0  0.12019226568E+04  0.61796334843E+03  0.33888668274E+03  0.13933201236E+04  0.10100000352E+00 0.  1.
       -3    1    3    3    0  502 -0.12019226568E+04 -0.61796334843E+03 -0.14791180324E+04  0.20035685506E+04  0.10100000352E+00 0. -1.
</event>
<event>
 5   0  0.5373060E-06  0.2055214E+04  0.7818609E-02  0.8581232E-01
       -2   -1    0    0    0  501  0.00000000000E+00  0.00000000000E+00  0.68067810443E+03  0.68067810444E+03  0.25500000920E-02 0. -1.
        2   -1    0    0  501    0  0.00000000000E+00  0.00000000000E+00 -0.15513597399E+04  0.15513597400E+04  0.25500000920E-02 0.  1.
    10030    2    1    2    0    0  0.00000000000E+00  0.00000000000E+00 -0.87068163552E+03  0.22320378444E+04  0.20552144483E+04 0.  0.
        5    1    3    3  502    0 -0.74972551226E+03  0.70202098944E+03 -0.47024136894E+03  0.11296330592E+04  0.46999998093E+01 0. -1.
       -5    1    3    3    0  502  0.74972551226E+03 -0.70202098944E+03 -0.40044026658E+03  0.11024047852E+04  0.46999998093E+01 0.  1.
</event>
<event>
 5   0  0.5373060E-06  0.3189233E+04  0.7818609E-02  0.8191667E-01
       -2   -1    0    0    0  501  0.00000000000E+00  0.00000000000E+00  0.12113995202E+04  0.12113995202E+04  0.25500000920E-02 0. -1.
        2   -1    0    0  501    0  0.00000000000E+00  0.00000000000E+00 -0.20990611259E+04  0.20990611259E+04  0.25500000920E-02 0.  1.
    10030    2    1    2    0    0  0.00000000000E+00  0.00000000000E+00 -0.88766160573E+03  0.33104606461E+04  0.31892329114E+04 0.  0.
        5    1    3    3  502    0  0.12724126560E+04  0.81303117714E+03  0.88220642240E+02  0.15125669023E+04  0.46999998093E+01 0. -1.
       -5    1    3    3    0  502 -0.12724126560E+04 -0.81303117714E+03 -0.97588224797E+03  0.17978937438E+04  0.46999998093E+01 0.  1.
</event>
<event>
 5   0  0.1881144E-06  0.3303125E+04  0.7818609E-02  0.8162101E-01
       -1   -1    0    0    0  501  0.00000000000E+00  0.00000000000E+00  0.24849108862E+04  0.24849108862E+04  0.50400001928E-02 0.  1.
        1   -1    0    0  501    0  0.00000000000E+00  0.00000000000E+00 -0.10976884757E+04  0.10976884757E+04  0.50400001928E-02 0. -1.
    10030    2    1    2    0    0  0.00000000000E+00  0.00000000000E+00  0.13872224105E+04  0.35825993619E+04  0.33031246074E+04 0.  0.
        3    1    3    3  502    0  0.93221188196E+02  0.14006819791E+04  0.16373195958E+04  0.21567140899E+04  0.10100000352E+00 0.  1.
       -3    1    3    3    0  502 -0.93221188196E+02 -0.14006819791E+04 -0.25009718531E+03  0.14258852720E+04  0.10100000352E+00 0. -1.
</event>
<event>
 5   0  0.5108810E-06  0.3248071E+04  0.7818609E-02  0.8176236E-01
       -2   -1    0    0    0  501  0.00000000000E+00  0.00000000000E+00  0.11238741201E+04  0.11238741201E+04  0.25500000920E-02 0.  1.
        2   -1    0    0  501    0  0.00000000000E+00  0.00000000000E+00 -0.23467850632E+04  0.23467850632E+04  0.25500000920E-02 0. -1.
    10030    2    1    2    0    0  0.00000000000E+00  0.00000000000E+00 -0.12229109431E+04  0.34706591833E+04  0.32480708108E+04 0.  0.
        1    1    3    3  502    0  0.11054462802E+04  0.92371963250E+03  0.18974321308E+03  0.14530216532E+04  0.50400001928E-02 0.  1.
       -1    1    3    3    0  502 -0.11054462802E+04 -0.92371963250E+03 -0.14126541562E+04  0.20176375301E+04  0.50400001928E-02 0. -1.
</event>
<event>
 5   0  0.1881144E-06  0.3175958E+04  0.7818609E-02  0.8195196E-01
       -1   -1    0    0    0  501  0.00000000000E+00  0.00000000000E+00  0.12000026343E+04  0.12000026343E+04  0.50400001928E-02 0. -1.
        1   -1    0    0  501    0  0.00000000000E+00  0.00000000000E+00 -0.21013929685E+04  0.21013929685E+04  0.50400001928E-02 0.  1.
    10030    2    1    2    0    0  0.00000000000E+00  0.00000000000E+00 -0.90139033421E+03  0.33013956029E+04  0.31759578700E+04 0.  0.
        3    1    3    3  502    0  0.15602176484E+04 -0.12935697092E+03 -0.17436757401E+03  0.15752512172E+04  0.10100000352E+00 0. -1.
       -3    1    3    3    0  502 -0.15602176484E+04  0.12935697092E+03 -0.72702276019E+03  0.17261443857E+04  0.10100000352E+00 0.  1.
</event>
<event>
 5   0  0.1969465E-06  0.3191757E+04  0.7818609E-02  0.8190997E-01
       -1   -1    0    0    0  501  0.00000000000E+00  0.00000000000E+00  0.10324581378E+04  0.10324581379E+04  0.50400001928E-02 0. -1.
        1   -1    0    0  501    0  0.00000000000E+00  0.00000000000E+00 -0.24667621599E+04  0.24667621599E+04  0.50400001928E-02 0.  1.
    10030    2    1    2    0    0  0.00000000000E+00  0.00000000000E+00 -0.14343040220E+04  0.34992202978E+04  0.31917573004E+04 0.  0.
        2    1    3    3  502    0 -0.83886634211E+03  0.97600896412E+03  0.31743675140E+03  0.13255400142E+04  0.25500000920E-02 0. -1.
       -2    1    3    3    0  502  0.83886634211E+03 -0.97600896412E+03 -0.17517407734E+04  0.21736802836E+04  0.25500000920E-02 0.  1.
</event>
<event>
 5   0  0.1886248E-06  0.3268565E+04  0.7818609E-02  0.8170940E-01
       -1   -1    0    0    0  501  0.00000000000E+00  0.00000000000E+00  0.17979526411E+04  0.17979526411E+04  0.50400001928E-02 0.  1.
        1   -1    0    0  501    0  0.00000000000E+00  0.00000000000E+00 -0.14855111314E+04  0.14855111314E+04  0.50400001928E-02 0. -1.
    10030    2    1    2    0    0  0.00000000000E+00  0.00000000000E+00  0.31244150970E+03  0.32834637725E+04  0.32685646159E+04 0.  0.
        4    1    3    3  502    0 -0.18089837860E+03  0.87919511301E+03 -0.12157164152E+04  0.15111837364E+04  0.12699999809E+01 0. -1.
       -4    1    3    3    0  502  0.18089837860E+03 -0.87919511301E+03  0.15281579249E+04  0.17722800361E+04  0.12699999809E+01 0.  1.
</event>
<event>
 5   0  0.5121624E-06  0.3151702E+04  0.7818609E-02  0.8201690E-01
       -2   -1    0    0    0  501  0.00000000000E+00  0.00000000000E+00  0.11718760839E+04  0.11718760839E+04  0.25500000920E-02 0. -1.
        2   -1    0    0  501    0  0.00000000000E+00  0.00000000000E+00 -0.21190865379E+04  0.21190865379E+04  0.25500000920E-02 0.  1.
    10030    2    1    2    0    0  0.00000000000E+00  0.00000000000E+00 -0.94721045404E+03  0.32909626219E+04  0.31517022915E+04 0.  0.
        4    1    3    3  502    0 -0.53471581355E+03  0.14368311607E+04 -0.92941966226E+02  0.15359181644E+04  0.12699999809E+01 0. -1.
       -4    1    3    3    0  502  0.53471581355E+03 -0.14368311607E+04 -0.85426848781E+03  0.17550444575E+04  0.12699999809E+01 0.  1.
</event>
<event>
 5   0  0.1846850E-06  0.3266091E+04  0.7818609E-02  0.8171578E-01
        1   -1    0    0  501    0  0.00000000000E+00  0.00000000000E+00  0.19546592622E+04  0.19546592623E+04  0.50400001928E-02 0.  1.
       -1   -1    0    0    0  501  0.00000000000E+00  0.00000000000E+00 -0.13643490645E+04  0.13643490645E+04  0.50400001928E-02 0. -1.
    10030    2    1    2    0    0  0.00000000000E+00  0.00000000000E+00  0.59031019773E+03  0.33190083268E+04  0.32660909577E+04 0.  0.
        5    1    3    3  502    0 -0.16245778553E+04  0.36302113018E+02  0.45978106817E+03  0.16887841106E+04  0.46999998093E+01 0.  1.
       -5    1    3    3    0  502  0.16245778553E+04 -0.36302113018E+02  0.13052912956E+03  0.16302242162E+04  0.46999998093E+01 0. -1.
</event>
<event>
 5   0  0.1846850E-06  0.3167453E+04  0.7818609E-02  0.8197466E-01
       -1   -1    0    0    0  501  0.00000000000E+00  0.00000000000E+00  0.12080141159E+04  0.12080141159E+04  0.50400001928E-02 0.  1.
        1   -1    0    0  501    0  0.00000000000E+00  0.00000000000E+00 -0.20762910930E+04  0.20762910930E+04  0.50400001928E-02 0. -1.
    10030    2    1    2    0    0  0.00000000000E+00  0.00000000000E+00 -0.86827697710E+03  0.32843052089E+04  0.31674525721E+04 0.  0.
        5    1    3    3  502    0 -0.58621316048E+03 -0.11466309966E+04 -0.13899694807E+04  0.18948471598E+04  0.46999998093E+01 0. -1.
       -5    1    3    3    0  502  0.58621316048E+03  0.11466309966E+04  0.52169250362E+03  0.13894580491E+04  0.46999998093E+01 0.  1.
</event>
<event>
 5   0  0.1846850E-06  0.3205828E+04  0.7818609E-02  0.8187280E-01
       -1   -1    0    0    0  501  0.00000000000E+00  0.00000000000E+00  0.12677953331E+04  0.12677953331E+04  0.50400001928E-02 0. -1.
        1   -1    0    0  501    0  0.00000000000E+00  0.00000000000E+00 -0.20266154190E+04  0.20266154190E+04  0.50400001928E-02 0.  1.
    10030    2    1    2    0    0  0.00000000000E+00  0.00000000000E+00 -0.75882008585E+03  0.32944107521E+04  0.32058281739E+04 0.  0.
        5    1    3    3  502    0 -0.37622997465E+03 -0.10964490666E+04 -0.15170507836E+04  0.19092445416E+04  0.46999998093E+01 0.  1.
       -5    1    3    3    0  502  0.37622997465E+03  0.10964490666E+04  0.75823069778E+03  0.13851662105E+04  0.46999998093E+01 0. -1.
</event>
<event>
 5   0  0.5373060E-06  0.2899115E+04  0.7818609E-02  0.8273141E-01
       -2   -1    0    0    0  501  0.00000000000E+00  0.00000000000E+00  0.15448945366E+04  0.15448945366E+04  0.25500000920E-02 0.  1.
        2   -1    0    0  501    0  0.00000000000E+00  0.00000000000E+00 -0.13601038889E+04  0.13601038889E+04  0.25500000920E-02 0. -1.
    10030    2    1    2    0    0  0.00000000000E+00  0.00000000000E+00  0.18479064772E+03  0.29049984255E+04  0.28991150837E+04 0.  0.
        5    1    3    3  502    0 -0.98018705751E+03  0.51668358414E+03  0.10288861845E+04  0.15120705885E+04  0.46999998093E+01 0.  1.
       -5    1    3    3    0  502  0.98018705751E+03 -0.51668358414E+03 -0.84409553683E+03  0.13929278370E+04  0.46999998093E+01 0. -1.
</event>
<event>
 5   0  0.5108810E-06  0.3097194E+04  0.7818609E-02  0.8216508E-01
        2   -1    0    0  501    0  0.00000000000E+00  0.00000000000E+00  0.13430654616E+04  0.13430654616E+04  0.25500000920E-02 0. -1.
       -2   -1    0    0    0  501  0.00000000000E+00  0.00000000000E+00 -0.17855814220E+04  0.17855814220E+04  0.25500000920E-02 0.  1.
    10030    2    1    2    0    0  0.00000000000E+00  0.00000000000E+00 -0.44251596035E+03  0.31286468836E+04  0.30971940442E+04 0.  0.
        1    1    3    3  502    0  0.15218723292E+04 -0.24802863417E+02 -0.50953684130E+03  0.16050976173E+04  0.50400001928E-02 0. -1.
       -1    1    3    3    0  502 -0.15218723292E+04  0.24802863417E+02  0.67020880953E+02  0.15235492663E+04  0.50400001928E-02 0.  1.
</event>
<event>
 5   0  0.1969465E-06  0.3154256E+04  0.7818609E-02  0.8201004E-01
        1   -1    0    0  501    0  0.00000000000E+00  0.00000000000E+00  0.23588941102E+04  0.23588941102E+04  0.50400001928E-02 0. -1.
       -1   -1    0    0    0  501  0.00000000000E+00  0.00000000000E+00 -0.10544488401E+04  0.10544488401E+04  0.50400001928E-02 0.  1.
    10030    2    1    2    0    0  0.00000000000E+00  0.00000000000E+00  0.13044452701E+04  0.34133429504E+04  0.31542562727E+04 0.  0.
        2    1    3    3  502    0 -0.96931070272E+03 -0.13456844236E+03  0.19906061642E+04  0.22181489592E+04  0.25500000920E-02 0. -1.
       -2    1    3    3    0  502  0.96931070272E+03  0.13456844236E+03 -0.68616089406E+03  0.11951939912E+04  0.25500000920E-02 0.  1.
</event>
<event>
 5   0  0.5373060E-06  0.1968550E+04  0.7818609E-02  0.8621467E-01
        2   -1    0    0  501    0  0.00000000000E+00  0.00000000000E+00  0.95814339298E+03  0.95814339299E+03  0.25500000920E-02 0.  1.
       -2   -1    0    0    0  501  0.00000000000E+00  0.00000000000E+00 -0.10111191481E+04  0.10111191481E+04  0.25500000920E-02 0. -1.
    10030    2    1    2    0    0  0.00000000000E+00  0.00000000000E+00 -0.52975755131E+02  0.19692625411E+04  0.19685498534E+04 0.  0.
        5    1    3    3  502    0  0.21086229853E+03  0.96029232805E+03  0.19905383192E+02  0.98338323076E+03  0.46999998093E+01 0. -1.
       -5    1    3    3    0  502 -0.21086229853E+03 -0.96029232805E+03 -0.72881138323E+02  0.98587931035E+03  0.46999998093E+01 0.  1.
</event>
<event>
 5   0  0.5108810E-06  0.3079336E+04  0.7818609E-02  0.8221432E-01
       -2   -1    0    0    0  501  0.00000000000E+00  0.00000000000E+00  0.10444321992E+04  0.10444321992E+04  0.25500000920E-02 0.  1.
        2   -1    0    0  501    0  0.00000000000E+00  0.00000000000E+00 -0.22697283122E+04  0.22697283122E+04  0.25500000920E-02 0. -1.
    10030    2    1    2    0    0  0.00000000000E+00  0.00000000000E+00 -0.12252961130E+04  0.33141605114E+04  0.30793358588E+04 0.  0.
        1    1    3    3  502    0  0.35390961743E+03 -0.81729493872E+03  0.73905440857E+03  0.11573350651E+04  0.50400001928E-02 0.  1.
       -1    1    3    3    0  502 -0.35390961743E+03  0.81729493872E+03 -0.19643505216E+04  0.21568254463E+04  0.50400001928E-02 0. -1.
</event>
<event>
 5   0  0.5108810E-06  0.3253963E+04  0.7818609E-02  0.8174709E-01
        2   -1    0    0  501    0  0.00000000000E+00  0.00000000000E+00  0.22856002815E+04  0.22856002815E+04  0.25500000920E-02 0.  1.
       -2   -1    0    0    0  501  0.00000000000E+00  0.00000000000E+00 -0.11581504809E+04  0.11581504809E+04  0.25500000920E-02 0. -1.
    10030    2    1    2    0    0  0.00000000000E+00  0.00000000000E+00  0.11274498006E+04  0.34437507624E+04  0.32539631621E+04 0.  0.
        1    1    3    3  502    0  0.21470360126E+03  0.11001096537E+04  0.18117994283E+04  0.21304825873E+04  0.50400001928E-02 0.  1.
       -1    1    3    3    0  502 -0.21470360126E+03 -0.11001096537E+04 -0.68434962776E+03  0.13132681750E+04  0.50400001928E-02 0. -1.
</event>
<event>
 5   0  0.5131083E-06  0.3188151E+04  0.7818609E-02  0.8191954E-01
       -2   -1    0    0    0  501  0.00000000000E+00  0.00000000000E+00  0.11684190073E+04  0.11684190073E+04  0.25500000920E-02 0.  1.
        2   -1    0    0  501    0  0.00000000000E+00  0.00000000000E+00 -0.21747987118E+04  0.21747987118E+04  0.25500000920E-02 0. -1.
    10030    2    1    2    0    0  0.00000000000E+00  0.00000000000E+00 -0.10063797045E+04  0.33432177191E+04  0.31881506563E+04 0.  0.
        3    1    3    3  502    0  0.10753427947E+04 -0.82316661977E+03  0.37860901837E+03  0.14061686276E+04  0.10100000352E+00 0.  1.
       -3    1    3    3    0  502 -0.10753427947E+04  0.82316661977E+03 -0.13849887229E+04  0.19370490915E+04  0.10100000352E+00 0. -1.
</event>
<event>
 5   0  0.1886248E-06  0.3176473E+04  0.7818609E-02  0.8195058E-01
       -1   -1    0    0    0  501  0.00000000000E+00  0.00000000000E+00  0.29169706972E+04  0.29169706972E+04  0.50400001928E-02 0. -1.
        1   -1    0    0  501    0  0.00000000000E+00  0.00000000000E+00 -0.86476551420E+03  0.86476551422E+03  0.50400001928E-02 0.  1.
    10030    2    1    2    0    0  0.00000000000E+00  0.00000000000E+00  0.20522051830E+04  0.37817362114E+04  0.31764733053E+04 0.  0.
        4    1    3    3  502    0 -0.13369740094E+04 -0.61771771764E+03  0.31833414470E+03  0.15067889437E+04  0.12699999809E+01 0.  1.
       -4    1    3    3    0  502  0.13369740094E+04  0.61771771764E+03  0.17338710383E+04  0.22749472677E+04  0.12699999809E+01 0. -1.
</event>
<event>
 5   0  0.1886248E-06  0.3274428E+04  0.7818609E-02  0.8169433E-01
       -1   -1    0    0    0  501  0.00000000000E+00  0.00000000000E+00  0.14401109785E+04  0.14401109785E+04  0.50400001928E-02 0.  1.
        1   -1    0    0  501    0  0.00000000000E+00  0.00000000000E+00 -0.18612936692E+04  0.18612936692E+04  0.50400001928E-02 0. -1.
    10030    2    1    2    0    0  0.00000000000E+00  0.00000000000E+00 -0.42118269066E+03  0.33014046477E+04  0.32744278567E+04 0.  0.
        4    1    3    3  502    0 -0.86646467798E+03  0.66870183291E+03  0.10170378937E+04  0.14940852953E+04  0.12699999809E+01 0.  1.
       -4    1    3    3    0  502  0.86646467798E+03 -0.66870183291E+03 -0.14382205843E+04  0.18073193524E+04  0.12699999809E+01 0. -1.
</event>
<event>
 5   0  0.1977015E-06  0.3115540E+04  0.7818609E-02  0.8211486E-01
       -1   -1    0    0    0  501  0.00000000000E+00  0.00000000000E+00  0.10149404860E+04  0.10149404860E+04  0.50400001928E-02 0. -1.
        1   -1    0    0  501    0  0.00000000000E+00  0.00000000000E+00 -0.23909262994E+04  0.23909262994E+04  0.50400001928E-02 0.  1.
    10030    2    1    2    0    0  0.00000000000E+00  0.00000000000E+00 -0.13759858134E+04  0.34058667854E+04  0.31155403386E+04 0.  0.
        1    1    3    3  502    0 -0.14744229527E+04 -0.39274106623E+02 -0.12358772407E+04  0.19242811783E+04  0.50400001928E-02 0.  1.
       -1    1    3    3    0  502  0.14744229527E+04  0.39274106623E+02 -0.14010857263E+03  0.14815856071E+04  0.50400001928E-02 0. -1.
</event>
<event>
 5   0  0.5373060E-06  0.2084568E+04  0.7818609E-02  0.8568072E-01
       -2   -1    0    0    0  501  0.00000000000E+00  0.00000000000E+00  0.82410306330E+03  0.82410306331E+03  0.25500000920E-02 0. -1.
        2   -1    0    0  501    0  0.00000000000E+00  0.00000000000E+00 -0.13182279994E+04  0.13182279994E+04  0.25500000920E-02 0.  1.
    10030    2    1    2    0    0  0.00000000000E+00  0.00000000000E+00 -0.49412493614E+03  0.21423310627E+04  0.20845678041E+04 0.  0.
        5    1    3    3  502    0  0.53099005459E+03 -0.17443409195E+03  0.65706295488E+03  0.86263057399E+03  0.46999998093E+01 0. -1.
       -5    1    3    3    0  502 -0.53099005459E+03  0.17443409195E+03 -0.11511878910E+04  0.12797004888E+04  0.46999998093E+01 0.  1.
</event>
<event>
 5   0  0.1881144E-06  0.3049181E+04  0.7818609E-02  0.8229825E-01
       -1   -1    0    0    0  501  0.00000000000E+00  0.00000000000E+00  0.13622673997E+04  0.13622673997E+04  0.50400001928E-02 0.  1.
        1   -1    0    0  501    0  0.00000000000E+00  0.00000000000E+00 -0.17062557410E+04  0.17062557410E+04  0.50400001928E-02 0. -1.
    10030    2    1    2    0    0  0.00000000000E+00  0.00000000000E+00 -0.34398834127E+03  0.30685231408E+04  0.30491812485E+04 0.  0.
        3    1    3    3  502    0 -0.97626655174E+03 -0.68142827333E+03  0.78637847361E+03  0.14268258428E+04  0.10100000352E+00 0.  1.
       -3    1    3    3    0  502  0.97626655174E+03  0.68142827333E+03 -0.11303668149E+04  0.16416972980E+04  0.10100000352E+00 0. -1.
</event>
<event>
 5   0  0.5373060E-06  0.3043613E+04  0.7818609E-02  0.8231385E-01
       -2   -1    0    0    0  501  0.00000000000E+00  0.00000000000E+00  0.10270162710E+04  0.10270162710E+04  0.25500000920E-02 0. -1.
        2   -1    0    0  501    0  0.00000000000E+00  0.00000000000E+00 -0.22549741817E+04  0.22549741817E+04  0.25500000920E-02 0.  1.
    10030    2    1    2    0    0  0.00000000000E+00  0.00000000000E+00 -0.12279579106E+04  0.32819904527E+04  0.30436130998E+04 0.  0.
        5    1    3    3  502    0 -0.22731442110E+03  0.33693607083E+03  0.96739759592E+03  0.10493226198E+04  0.46999998093E+01 0. -1.
       -5    1    3    3    0  502  0.22731442110E+03 -0.33693607083E+03 -0.21953555066E+04  0.22326678329E+04  0.46999998093E+01 0.  1.
</event>
<event>
 5   0  0.5108810E-06  0.3219497E+04  0.7818609E-02  0.8183687E-01
        2   -1    0    0  501    0  0.00000000000E+00  0.00000000000E+00  0.12327358631E+04  0.12327358631E+04  0.25500000920E-02 0.  1.
       -2   -1    0    0    0  501  0.00000000000E+00  0.00000000000E+00 -0.21020638339E+04  0.21020638339E+04  0.25500000920E-02 0. -1.
    10030    2    1    2    0    0  0.00000000000E+00  0.00000000000E+00 -0.86932797076E+03  0.33347996971E+04  0.32194965288E+04 0.  0.
        1    1    3    3  502    0  0.55200107986E+03  0.72815608966E+03 -0.18074099233E+04  0.20252523581E+04  0.50400001928E-02 0. -1.
       -1    1    3    3    0  502 -0.55200107986E+03 -0.72815608966E+03  0.93808195259E+03  0.13095473389E+04  0.50400001928E-02 0.  1.
</event>
<event>
 5   0  0.5121624E-06  0.3243360E+04  0.7818609E-02  0.8177459E-01
       -2   -1    0    0    0  501  0.00000000000E+00  0.00000000000E+00  0.14670130556E+04  0.14670130556E+04  0.25500000920E-02 0. -1.
        2   -1    0    0  501    0  0.00000000000E+00  0.00000000000E+00 -0.17926529689E+04  0.17926529689E+04  0.25500000920E-02 0.  1.
    10030    2    1    2    0    0  0.00000000000E+00  0.00000000000E+00 -0.32563991330E+03  0.32596660244E+04  0.32433595603E+04 0.  0.
        4    1    3    3  502    0  0.51994847963E+03  0.99143419339E+02 -0.17033892824E+04  0.17837355464E+04  0.12699999809E+01 0.  1.
       -4    1    3    3    0  502 -0.51994847963E+03 -0.99143419339E+02  0.13777493691E+04  0.14759304780E+04  0.12699999809E+01 0. -1.
</event>
<event>
 5   0  0.5373060E-06  0.2904442E+04  0.7818609E-02  0.8271557E-01
        2   -1    0    0  501    0  0.00000000000E+00  0.00000000000E+00  0.21025849898E+04  0.21025849898E+04  0.25500000920E-02 0. -1.
       -2   -1    0    0    0  501  0.00000000000E+00  0.00000000000E+00 -0.10030254115E+04  0.10030254115E+04  0.25500000920E-02 0.  1.
    10030    2    1    2    0    0  0.00000000000E+00  0.00000000000E+00  0.10995595783E+04  0.31056104013E+04  0.29044422353E+04 0.  0.
        5    1    3    3  502    0  0.14536125571E+03  0.43702605442E+03  0.20224153258E+04  0.20742004500E+04  0.46999998093E+01 0. -1.
       -5    1    3    3    0  502 -0.14536125571E+03 -0.43702605442E+03 -0.92285574748E+03  0.10314099513E+04  0.46999998093E+01 0.  1.
</event>
<event>
 5   0  0.1886248E-06  0.3187915E+04  0.7818609E-02  0.8192016E-01
        1   -1    0    0  501    0  0.00000000000E+00  0.00000000000E+00  0.19395742752E+04  0.19395742752E+04  0.50400001928E-02 0.  1.
       -1   -1    0    0    0  501  0.00000000000E+00  0.00000000000E+00 -0.13099268952E+04  0.13099268952E+04  0.50400001928E-02 0. -1.
    10030    2    1    2    0    0  0.00000000000E+00  0.00000000000E+00  0.62964738006E+03  0.32495011704E+04  0.31879149978E+04 0.  0.
        4    1    3    3  502    0 -0.10990906339E+04 -0.11051814982E+04  0.65484328534E+03  0.16906352968E+04  0.12699999809E+01 0. -1.
       -4    1    3    3    0  502  0.10990906339E+04  0.11051814982E+04 -0.25195905288E+02  0.15588658736E+04  0.12699999809E+01 0.  1.
</event>
<event>
 5   0  0.5108810E-06  0.3214117E+04  0.7818609E-02  0.8185099E-01
        2   -1    0    0  501    0  0.00000000000E+00  0.00000000000E+00  0.18343512740E+04  0.18343512740E+04  0.25500000920E-02 0. -1.
       -2   -1    0    0    0  501  0.00000000000E+00  0.00000000000E+00 -0.14079291609E+04  0.14079291609E+04  0.25500000920E-02 0.  1.
    10030    2    1    2    0    0  0.00000000000E+00  0.00000000000E+00  0.42642211312E+03  0.32422804349E+04  0.32141167683E+04 0.  0.
        1    1    3    3  502    0 -0.13942532215E+04 -0.79683804807E+03  0.27493322198E+03  0.16292578670E+04  0.50400001928E-02 0.  1.
       -1    1    3    3    0  502  0.13942532215E+04  0.79683804807E+03  0.15148889114E+03  0.16130225679E+04  0.50400001928E-02 0. -1.
</event>
<event>
 5   0  0.1886248E-06  0.3395395E+04  0.7818609E-02  0.8139037E-01
       -1   -1    0    0    0  501  0.00000000000E+00  0.00000000000E+00  0.11201172136E+04  0.11201172136E+04  0.50400001928E-02 0. -1.
        1   -1    0    0  501    0  0.00000000000E+00  0.00000000000E+00 -0.25731034201E+04  0.25731034201E+04  0.50400001928E-02 0.  1.
    10030    2    1    2    0    0  0.00000000000E+00  0.00000000000E+00 -0.14529862066E+04  0.36932206337E+04  0.33953953721E+04 0.  0.
        4    1    3    3  502    0 -0.57448945158E+03 -0.14496587434E+03 -0.24569926523E+04  0.25274231424E+04  0.12699999809E+01 0.  1.
       -4    1    3    3    0  502  0.57448945158E+03  0.14496587434E+03  0.10040064457E+04  0.11657974913E+04  0.12699999809E+01 0. -1.
</event>
<event>
 5   0  0.1969465E-06  0.3199701E+04  0.7818609E-02  0.8188896E-01
        1   -1    0    0  501    0  0.00000000000E+00  0.00000000000E+00  0.21834351029E+04  0.21834351029E+04  0.50400001928E-02 0. -1.
       -1   -1    0    0    0  501  0.00000000000E+00  0.00000000000E+00 -0.11722456317E+04  0.11722456317E+04  0.50400001928E-02 0.  1.
    10030    2    1    2    0    0  0.00000000000E+00  0.00000000000E+00  0.10111894712E+04  0.33556807346E+04  0.31997013995E+04 0.  0.
        2    1    3    3  502    0 -0.13026533969E+04  0.41008173744E+03  0.13795545698E+04  0.19411964648E+04  0.25500000920E-02 0. -1.
       -2    1    3    3    0  502  0.13026533969E+04 -0.41008173744E+03 -0.36836509852E+03  0.14144842699E+04  0.25500000920E-02 0.  1.
</event>
<event>
 5   0  0.1969465E-06  0.3068255E+04  0.7818609E-02  0.8224504E-01
        1   -1    0    0  501    0  0.00000000000E+00  0.00000000000E+00  0.12388435402E+04  0.12388435402E+04  0.50400001928E-02 0.  1.
       -1   -1    0    0    0  501  0.00000000000E+00  0.00000000000E+00 -0.18997935587E+04  0.18997935587E+04  0.50400001928E-02 0. -1.
    10030    2    1    2    0    0  0.00000000000E+00  0.00000000000E+00 -0.66095001855E+03  0.31386370989E+04  0.30682548642E+04 0.  0.
        2    1    3    3  502    0 -0.10924122872E+04 -0.58093596022E+03  0.59735690770E+03  0.13739310282E+04  0.25500000920E-02 0.  1.
       -2    1    3    3    0  502  0.10924122872E+04  0.58093596022E+03 -0.12583069263E+04  0.17647060707E+04  0.25500000920E-02 0. -1.
</event>
<event>
 5   0  0.1977015E-06  0.3126556E+04  0.7818609E-02  0.8208487E-01
        1   -1    0    0  501    0  0.00000000000E+00  0.00000000000E+00  0.14501234570E+04  0.14501234570E+04  0.50400001928E-02 0. -1.
       -1   -1    0    0    0  501  0.00000000000E+00  0.00000000000E+00 -0.16852618567E+04  0.16852618567E+04  0.50400001928E-02 0.  1.
    10030    2    1    2    0    0  0.00000000000E+00  0.00000000000E+00 -0.23513839976E+03  0.31353853137E+04  0.31265557725E+04 0.  0.
        1    1    3    3  502    0 -0.31402067331E+03 -0.13738614484E+04 -0.79603987684E+03  0.16185746038E+04  0.50400001928E-02 0.  1.
       -1    1    3    3    0  502  0.31402067331E+03  0.13738614484E+04  0.56090147707E+03  0.15168107099E+04  0.50400001928E-02 0. -1.
</event>
<event>
 5   0  0.1886248E-06  0.3174420E+04  0.7818609E-02  0.8195606E-01
       -1   -1    0    0    0  501  0.00000000000E+00  0.00000000000E+00  0.13030263055E+04  0.13030263055E+04  0.50400001928E-02 0. -1.
        1   -1    0    0  501    0  0.00000000000E+00  0.00000000000E+00 -0.19333723033E+04  0.19333723033E+04  0.50400001928E-02 0.  1.
    10030    2    1    2    0    0  0.00000000000E+00  0.00000000000E+00 -0.63034599777E+03  0.32363986088E+04  0.31744196128E+04 0.  0.
        4    1    3    3  502    0 -0.84730174914E+03 -0.35601211046E+03  0.10041439090E+04  0.13612389503E+04  0.12699999809E+01 0. -1.
       -4    1    3    3    0  502  0.84730174914E+03  0.35601211046E+03 -0.16344899068E+04  0.18751596586E+04  0.12699999809E+01 0.  1.
</event>
<event>
 5   0  0.5121624E-06  0.2378379E+04  0.7818609E-02  0.8447643E-01
        2   -1    0    0  501    0  0.00000000000E+00  0.00000000000E+00  0.15272448889E+04  0.15272448889E+04  0.25500000920E-02 0. -1.
       -2   -1    0    0    0  501  0.00000000000E+00  0.00000000000E+00 -0.92596251495E+03  0.92596251496E+03  0.25500000920E-02 0.  1.
    10030    2    1    2    0    0  0.00000000000E+00  0.00000000000E+00  0.60128237399E+03  0.24532074039E+04  0.23783788750E+04 0.  0.
        4    1    3    3  502    0  0.31361853115E+03 -0.84327858503E+03  0.11027277767E+04  0.14231955303E+04  0.12699999809E+01 0. -1.
       -4    1    3    3    0  502 -0.31361853115E+03  0.84327858503E+03 -0.50144540268E+03  0.10300118736E+04  0.12699999809E+01 0.  1.
</event>
<event>
 5   0  0.5121624E-06  0.3220875E+04  0.7818609E-02  0.8183326E-01
       -2   -1    0    0    0  501  0.00000000000E+00  0.00000000000E+00  0.12613178618E+04  0.12613178618E+04  0.25500000920E-02 0. -1.
        2   -1    0    0  501    0  0.00000000000E+00  0.00000000000E+00 -0.20561899949E+04  0.20561899949E+04  0.25500000920E-02 0.  1.
    10030    2    1    2    0    0  0.00000000000E+00  0.00000000000E+00 -0.79487213306E+03  0.33175078566E+04  0.32208751406E+04 0.  0.
        4    1    3    3  502    0  0.81626948291E+03  0.75414962585E+03  0.80306652282E+03  0.13711145028E+04  0.12699999809E+01 0. -1.
       -4    1    3    3    0  502 -0.81626948291E+03 -0.75414962585E+03 -0.15979386559E+04  0.19463933538E+04  0.12699999809E+01 0.  1.
</event>
<event>
 5   0  0.1846850E-06  0.3031636E+04  0.7818609E-02  0.8234754E-01
       -1   -1    0    0    0  501  0.00000000000E+00  0.00000000000E+00  0.14526637189E+04  0.14526637189E+04  0.50400001928E-02 0. -1.
        1   -1    0    0  501    0  0.00000000000E+00  0.00000000000E+00 -0.15817179697E+04  0.15817179697E+04  0.50400001928E-02 0.  1.
    10030    2    1    2    0    0  0.00000000000E+00  0.00000000000E+00 -0.12905425083E+03  0.30343816886E+04  0.30316360653E+04 0.  0.
        5    1    3    3  502    0 -0.11658239464E+04 -0.61806538274E+02  0.90315594695E+03  0.14760346462E+04  0.46999998093E+01 0. -1.
       -5    1    3    3    0  502  0.11658239464E+04  0.61806538274E+02 -0.10322101978E+04  0.15583470424E+04  0.46999998093E+01 0.  1.
</event>
<event>
 5   0  0.5347280E-06  0.3195992E+04  0.7818609E-02  0.8189877E-01
        2   -1    0    0  501    0  0.00000000000E+00  0.00000000000E+00  0.13792626801E+04  0.13792626801E+04  0.25500000920E-02 0.  1.
       -2   -1    0    0    0  501  0.00000000000E+00  0.00000000000E+00 -0.18514171416E+04  0.18514171416E+04  0.25500000920E-02 0. -1.
    10030    2    1    2    0    0  0.00000000000E+00  0.00000000000E+00 -0.47215446147E+03  0.32306798217E+04  0.31959915950E+04 0.  0.
        2    1    3    3  502    0  0.65625923180E+03  0.42491627342E+03  0.11727353300E+04  0.14094460518E+04  0.25500000920E-02 0.  1.
       -2    1    3    3    0  502 -0.65625923180E+03 -0.42491627342E+03 -0.16448897914E+04  0.18212337699E+04  0.25500000920E-02 0. -1.
</event>
<event>
 5   0  0.1846850E-06  0.2004407E+04  0.7818609E-02  0.8604563E-01
        1   -1    0    0  501    0  0.00000000000E+00  0.00000000000E+00  0.14789077788E+04  0.14789077788E+04  0.50400001928E-02 0.  1.
       -1   -1    0    0    0  501  0.00000000000E+00  0.00000000000E+00 -0.67915817241E+03  0.67915817243E+03  0.50400001928E-02 0. -1.
    10030    2    1    2    0    0  0.00000000000E+00  0.00000000000E+00  0.79974960636E+03  0.21580659512E+04  0.20044074478E+04 0.  0.
        5    1    3    3  502    0  0.32211324086E+03  0.63634696616E+03  0.11579046923E+04  0.13599484430E+04  0.46999998093E+01 0.  1.
       -5    1    3    3    0  502 -0.32211324086E+03 -0.63634696616E+03 -0.35815508594E+03  0.79811750817E+03  0.46999998093E+01 0. -1.
</event>
<event>
 5   0  0.5108810E-06  0.3108968E+04  0.7818609E-02  0.8213281E-01
       -2   -1    0    0    0  501  0.00000000000E+00  0.00000000000E+00  0.99202061765E+03  0.99202061766E+03  0.25500000920E-02 0. -1.
        2   -1    0    0  501    0  0.00000000000E+00  0.00000000000E+00 -0.24358564840E+04  0.24358564840E+04  0.25500000920E-02 0.  1.
    10030    2    1    2    0    0  0.00000000000E+00  0.00000000000E+00 -0.14438358663E+04  0.34278771016E+04  0.31089675802E+04 0.  0.
        1    1    3    3  502    0  0.88936861616E+03 -0.86462575569E+03  0.31113617794E+03  0.12788119307E+04  0.50400001928E-02 0. -1.
       -1    1    3    3    0  502 -0.88936861616E+03  0.86462575569E+03 -0.17549720443E+04  0.21490651709E+04  0.50400001928E-02 0.  1.
</event>
<event>
 5   0  0.5121624E-06  0.2231405E+04  0.7818609E-02  0.8505469E-01
        2   -1    0    0  501    0  0.00000000000E+00  0.00000000000E+00  0.14598149575E+04  0.14598149575E+04  0.25500000920E-02 0.  1.
       -2   -1    0    0    0  501  0.00000000000E+00  0.00000000000E+00 -0.85270519093E+03  0.85270519093E+03  0.25500000920E-02 0. -1.
    10030    2    1    2    0    0  0.00000000000E+00  0.00000000000E+00  0.60710976662E+03  0.23125201485E+04  0.22314047523E+04 0.  0.
        4    1    3    3  502    0 -0.73553730835E+03  0.61827873836E+03 -0.28407248696E+03  0.10019892819E+04  0.12699999809E+01 0. -1.
       -4    1    3    3    0  502  0.73553730835E+03 -0.61827873836E+03  0.89118225358E+03  0.13105308666E+04  0.12699999809E+01 0.  1.
</event>
<event>
 5   0  0.1846850E-06  0.3257275E+04  0.7818609E-02  0.8173853E-01
       -1   -1    0    0    0  501  0.00000000000E+00  0.00000000000E+00  0.14471040280E+04  0.14471040280E+04  0.50400001928E-02 0.  1.
        1   -1    0    0  501    0  0.00000000000E+00  0.00000000000E+00 -0.18329433332E+04  0.18329433332E+04  0.50400001928E-02 0. -1.
    10030    2    1    2    0    0  0.00000000000E+00  0.00000000000E+00 -0.38583930523E+03  0.32800473612E+04  0.32572747385E+04 0.  0.
        5    1    3    3  502    0  0.63365558936E+03 -0.62965928691E+03  0.11783819365E+04  0.14787144085E+04  0.46999998093E+01 0.  1.
       -5    1    3    3    0  502 -0.63365558936E+03  0.62965928691E+03 -0.15642212417E+04  0.18013329527E+04  0.46999998093E+01 0. -1.
</event>
<event>
 5   0  0.5121624E-06  0.3006748E+04  0.7818609E-02  0.8241807E-01
        2   -1    0    0  501    0  0.00000000000E+00  0.00000000000E+00  0.19178626576E+04  0.19178626576E+04  0.25500000920E-02 0.  1.
       -2   -1    0    0    0  501  0.00000000000E+00  0.00000000000E+00 -0.11784646284E+04  0.11784646284E+04  0.25500000920E-02 0. -1.
    10030    2    1    2    0    0  0.00000000000E+00  0.00000000000E+00  0.73939802914E+03  0.30963272860E+04  0.30067479469E+04 0.  0.
        4    1    3    3  502    0 -0.99197349682E+03  0.11064514535E+04  0.13512891794E+03  0.14921486772E+04  0.12699999809E+01 0. -1.
       -4    1    3    3    0  502  0.99197349682E+03 -0.11064514535E+04  0.60426911121E+03  0.16041786088E+04  0.12699999809E+01 0.  1.
</event>
<event>
 5   0  0.5373060E-06  0.3204862E+04  0.7818609E-02  0.8187534E-01
       -2   -1    0    0    0  501  0.00000000000E+00  0.00000000000E+00  0.10628001426E+04  0.10628001426E+04  0.25500000920E-02 0. -1.
        2   -1    0    0  501    0  0.00000000000E+00  0.00000000000E+00 -0.24160560970E+04  0.24160560970E+04  0.25500000920E-02 0.  1.
    10030    2    1    2    0    0  0.00000000000E+00  0.00000000000E+00 -0.13532559544E+04  0.34788562396E+04  0.32048617845E+04 0.  0.
        5    1    3    3  502    0 -0.71847882509E+03 -0.54733163197E+03 -0.21134124239E+04  0.22983293718E+04  0.46999998093E+01 0.  1.
       -5    1    3    3    0  502  0.71847882509E+03  0.54733163197E+03  0.76015646957E+03  0.11805268678E+04  0.46999998093E+01 0. -1.
</event>
<event>
 5   0  0.5108810E-06  0.3124982E+04  0.7818609E-02  0.8208915E-01
       -2   -1    0    0    0  501  0.00000000000E+00  0.00000000000E+00  0.15399040134E+04  0.15399040134E+04  0.25500000920E-02 0.  1.
        2   -1    0    0  501    0  0.00000000000E+00  0.00000000000E+00 -0.15854091413E+04  0.15854091413E+04  0.25500000920E-02 0. -1.
    10030    2    1    2    0    0  0.00000000000E+00  0.00000000000E+00 -0.45505127850E+02  0.31253131547E+04  0.31249818556E+04 0.  0.
        1    1    3    3  502    0  0.66914418403E+03  0.13226788220E+04 -0.51691494974E+03  0.15698516715E+04  0.50400001928E-02 0. -1.
       -1    1    3    3    0  502 -0.66914418403E+03 -0.13226788220E+04  0.47140982189E+03  0.15554614831E+04  0.50400001928E-02 0.  1.
</event>
<event>
 5   0  0.1886248E-06  0.3225590E+04  0.7818609E-02  0.8182092E-01
       -1   -1    0    0    0  501  0.00000000000E+00  0.00000000000E+00  0.16315894479E+04  0.16315894480E+04  0.50400001928E-02 0.  1.
        1   -1    0    0  501    0  0.00000000000E+00  0.00000000000E+00 -0.15942165937E+04  0.15942165937E+04  0.50400001928E-02 0. -1.
    10030    2    1    2    0    0  0.00000000000E+00  0.00000000000E+00  0.37372854254E+02  0.32258060417E+04  0.32255895412E+04 0.  0.
        4    1    3    3  502    0 -0.92989731027E+03  0.10172806875E+04  0.85632031572E+03  0.16226075005E+04  0.12699999809E+01 0.  1.
       -4    1    3    3    0  502  0.92989731027E+03 -0.10172806875E+04 -0.81894746146E+03  0.16031985411E+04  0.12699999809E+01 0. -1.
</event>
<event>
 5   0  0.5108810E-06  0.2678204E+04  0.7818609E-02  0.8342112E-01
        2   -1    0    0  501    0  0.00000000000E+00  0.00000000000E+00  0.15844317938E+04  0.15844317938E+04  0.25500000920E-02 0. -1.
       -2   -1    0    0    0  501  0.00000000000E+00  0.00000000000E+00 -0.11317587621E+04  0.11317587621E+04  0.25500000920E-02 0.  1.
    10030    2    1    2    0    0  0.00000000000E+00  0.00000000000E+00  0.45267303175E+03  0.27161905559E+04  0.26782042981E+04 0.  0.
        1    1    3    3  502    0 -0.25859627962E+03 -0.27134650735E+03 -0.10774686732E+04  0.11408066026E+04  0.50400001928E-02 0.  1.
       -1    1    3    3    0  502  0.25859627962E+03  0.27134650735E+03  0.15301417049E+04  0.15753839532E+04  0.50400001928E-02 0. -1.
</event>
<event>
 5   0  0.1969465E-06  0.3227340E+04  0.7818609E-02  0.8181634E-01
        1   -1    0    0  501    0  0.00000000000E+00  0.00000000000E+00  0.19555484622E+04  0.19555484622E+04  0.50400001928E-02 0.  1.
       -1   -1    0    0    0  501  0.00000000000E+00  0.00000000000E+00 -0.13315601273E+04  0.13315601273E+04  0.50400001928E-02 0. -1.
    10030    2    1    2    0    0  0.00000000000E+00  0.00000000000E+00  0.62398833494E+03  0.32871085896E+04  0.32273396842E+04 0.  0.
        2    1    3    3  502    0 -0.93208360738E+02 -0.97617419035E+01 -0.13287859212E+04  0.13320867519E+04  0.25500000920E-02 0. -1.
       -2    1    3    3    0  502  0.93208360738E+02  0.97617419035E+01  0.19527742562E+04  0.19550218377E+04  0.25500000920E-02 0.  1.
</event>
<event>
 5   0  0.5131083E-06  0.3201204E+04  0.7818609E-02  0.8188499E-01
        2   -1    0    0  501    0  0.00000000000E+00  0.00000000000E+00  0.10632531647E+04  0.10632531647E+04  0.25500000920E-02 0.  1.
       -2   -1    0    0    0  501  0.00000000000E+00  0.00000000000E+00 -0.24095167649E+04  0.24095167649E+04  0.25500000920E-02 0. -1.
    10030    2    1    2    0    0  0.00000000000E+00  0.00000000000E+00 -0.13462636002E+04  0.34727699296E+04  0.32012037272E+04 0.  0.
        3    1    3    3  502    0  0.23370869676E+03 -0.15399848423E+04 -0.10728351700E+04  0.18913350792E+04  0.10100000352E+00 0. -1.
       -3    1    3    3    0  502 -0.23370869676E+03  0.15399848423E+04 -0.27342843020E+03  0.15814348504E+04  0.10100000352E+00 0.  1.
</event>
<event>
 5   0  0.1886248E-06  0.3159744E+04  0.7818609E-02  0.8199530E-01
       -1   -1    0    0    0  501  0.00000000000E+00  0.00000000000E+00  0.12643540412E+04  0.12643540412E+04  0.50400001928E-02 0. -1.
        1   -1    0    0  501    0  0.00000000000E+00  0.00000000000E+00 -0.19741276862E+04  0.19741276862E+04  0.50400001928E-02 0.  1.
    10030    2    1    2    0    0  0.00000000000E+00  0.00000000000E+00 -0.70977364499E+03  0.32384817274E+04  0.31597444946E+04 0.  0.
        4    1    3    3  502    0  0.13838971607E+04 -0.27056307204E+03  0.37534105738E+03  0.14591978103E+04  0.12699999809E+01 0. -1.
       -4    1    3    3    0  502 -0.13838971607E+04  0.27056307204E+03 -0.10851147024E+04  0.17792839171E+04  0.12699999809E+01 0.  1.
</event>
<event>
 5   0  0.1977015E-06  0.3180671E+04  0.7818609E-02  0.8193941E-01
       -1   -1    0    0    0  501  0.00000000000E+00  0.00000000000E+00  0.16384824086E+04  0.16384824086E+04  0.50400001928E-02 0.  1.
        1   -1    0    0  501    0  0.00000000000E+00  0.00000000000E+00 -0.15436035725E+04  0.15436035725E+04  0.50400001928E-02 0. -1.
    10030    2    1    2    0    0  0.00000000000E+00  0.00000000000E+00  0.94878836053E+02  0.31820859811E+04  0.31806711867E+04 0.  0.
        1    1    3    3  502    0  0.77942457222E+03 -0.88768184936E+03  0.11126597444E+04  0.16228041891E+04  0.50400001928E-02 0.  1.
       -1    1    3    3    0  502 -0.77942457222E+03  0.88768184936E+03 -0.10177809083E+04  0.15592817920E+04  0.50400001928E-02 0. -1.
</event>
<event>
 5   0  0.5108810E-06  0.2754038E+04  0.7818609E-02  0.8317682E-01
       -2   -1    0    0    0  501  0.00000000000E+00  0.00000000000E+00  0.77801690827E+03  0.77801690827E+03  0.25500000920E-02 0.  1.
        2   -1    0    0  501    0  0.00000000000E+00  0.00000000000E+00 -0.24371975705E+04  0.24371975705E+04  0.25500000920E-02 0. -1.
    10030    2    1    2    0    0  0.00000000000E+00  0.00000000000E+00 -0.16591806623E+04  0.32152144788E+04  0.27540377039E+04 0.  0.
        1    1    3    3  502    0  0.30096738869E+03 -0.31908493713E+03  0.69427777640E+03  0.82122968589E+03  0.50400001928E-02 0.  1.
       -1    1    3    3    0  502 -0.30096738869E+03  0.31908493713E+03 -0.23534584387E+04  0.23939847929E+04  0.50400001928E-02 0. -1.
</event>
<event>
 5   0  0.5121624E-06  0.2693895E+04  0.7818609E-02  0.8336988E-01
       -2   -1    0    0    0  501  0.00000000000E+00  0.00000000000E+00  0.91026240646E+03  0.91026240646E+03  0.25500000920E-02 0. -1.
        2   -1    0    0  501    0  0.00000000000E+00  0.00000000000E+00 -0.19931264950E+04  0.19931264950E+04  0.25500000920E-02 0.  1.
    10030    2    1    2    0    0  0.00000000000E+00  0.00000000000E+00 -0.10828640885E+04  0.29033889014E+04  0.26938954098E+04 0.  0.
        4    1    3    3  502    0 -0.95200893384E+03  0.47881932234E+03 -0.14293160338E+04  0.17828446065E+04  0.12699999809E+01 0.  1.
       -4    1    3    3    0  502  0.95200893384E+03 -0.47881932234E+03  0.34645194530E+03  0.11205442949E+04  0.12699999809E+01 0. -1.
</event>
<event>
 5   0  0.1846850E-06  0.3217866E+04  0.7818609E-02  0.8184115E-01
       -1   -1    0    0    0  501  0.00000000000E+00  0.00000000000E+00  0.14974258112E+04  0.14974258112E+04  0.50400001928E-02 0.  1.
        1   -1    0    0  501    0  0.00000000000E+00  0.00000000000E+00 -0.17287441889E+04  0.17287441889E+04  0.50400001928E-02 0. -1.
    10030    2    1    2    0    0  0.00000000000E+00  0.00000000000E+00 -0.23131837774E+03  0.32261700001E+04  0.32178664792E+04 0.  0.
        5    1    3    3  502    0  0.11246765005E+04  0.10602842150E+04 -0.56351562340E+03  0.16451965825E+04  0.46999998093E+01 0. -1.
       -5    1    3    3    0  502 -0.11246765005E+04 -0.10602842150E+04  0.33219724566E+03  0.15809734176E+04  0.46999998093E+01 0.  1.
</event>
<event>
 5   0  0.5108810E-06  0.3153841E+04  0.7818609E-02  0.8201115E-01
       -2   -1    0    0    0  501  0.00000000000E+00  0.00000000000E+00  0.18135650294E+04  0.18135650294E+04  0.25500000920E-02 0.  1.
        2   -1    0    0  501    0  0.00000000000E+00  0.00000000000E+00 -0.13711546109E+04  0.13711546109E+04  0.25500000920E-02 0. -1.
    10030    2    1    2    0    0  0.00000000000E+00  0.00000000000E+00  0.44241041848E+03  0.31847196403E+04  0.31538408661E+04 0.  0.
        1    1    3    3  502    0 -0.31587353499E+03  0.69264031846E+03 -0.11733124232E+04  0.13986381746E+04  0.50400001928E-02 0. -1.
       -1    1    3    3    0  502  0.31587353499E+03 -0.69264031846E+03  0.16157228417E+04  0.17860814657E+04  0.50400001928E-02 0.  1.
</event>
<event>
 5   0  0.5131083E-06  0.3153788E+04  0.7818609E-02  0.8201129E-01
        2   -1    0    0  501    0  0.00000000000E+00  0.00000000000E+00  0.25451265624E+04  0.25451265624E+04  0.25500000920E-02 0. -1.
       -2   -1    0    0    0  501  0.00000000000E+00  0.00000000000E+00 -0.97700240341E+03  0.97700240342E+03  0.25500000920E-02 0.  1.
    10030    2    1    2    0    0  0.00000000000E+00  0.00000000000E+00  0.15681241590E+04  0.35221289659E+04  0.31537880515E+04 0.  0.
        3    1    3    3  502    0 -0.29159943814E+03  0.14385200656E+04  0.14277696389E+04  0.20476563099E+04  0.10100000352E+00 0. -1.
       -3    1    3    3    0  502  0.29159943814E+03 -0.14385200656E+04  0.14035452009E+03  0.14744726559E+04  0.10100000352E+00 0.  1.
</event>
<event>
 5   0  0.1977015E-06  0.2011534E+04  0.7818609E-02  0.8601247E-01
        1   -1    0    0  501    0  0.00000000000E+00  0.00000000000E+00  0.13087468751E+04  0.13087468751E+04  0.50400001928E-02 0. -1.
       -1   -1    0    0    0  501  0.00000000000E+00  0.00000000000E+00 -0.77292819471E+03  0.77292819473E+03  0.50400001928E-02 0.  1.
    10030    2    1    2    0    0  0.00000000000E+00  0.00000000000E+00  0.53581868040E+03  0.20816750699E+04  0.20115341007E+04 0.  0.
        1    1    3    3  502    0 -0.75061751641E+02  0.75745467887E+03 -0.41243012349E+03  0.86571962198E+03  0.50400001928E-02 0.  1.
       -1    1    3    3    0  502  0.75061751641E+02 -0.75745467887E+03  0.94824880389E+03  0.12159554479E+04  0.50400001928E-02 0. -1.
</event>
<event>
 5   0  0.1977015E-06  0.3205578E+04  0.7818609E-02  0.8187346E-01
        1   -1    0    0  501    0  0.00000000000E+00  0.00000000000E+00  0.23616798760E+04  0.23616798760E+04  0.50400001928E-02 0. -1.
       -1   -1    0    0    0  501  0.00000000000E+00  0.00000000000E+00 -0.10877566249E+04  0.10877566249E+04  0.50400001928E-02 0.  1.
    10030    2    1    2    0    0  0.00000000000E+00  0.00000000000E+00  0.12739232511E+04  0.34494365009E+04  0.32055782199E+04 0.  0.
        1    1    3    3  502    0 -0.41440737813E+03 -0.77755700692E+03  0.20776963513E+04  0.22568009443E+04  0.50400001928E-02 0. -1.
       -1    1    3    3    0  502  0.41440737813E+03  0.77755700692E+03 -0.80377310022E+03  0.11926355565E+04  0.50400001928E-02 0.  1.
</event>
<event>
 5   0  0.1881144E-06  0.3231847E+04  0.7818609E-02  0.8180457E-01
       -1   -1    0    0    0  501  0.00000000000E+00  0.00000000000E+00  0.31382610205E+04  0.31382610205E+04  0.50400001928E-02 0.  1.
        1   -1    0    0  501    0  0.00000000000E+00  0.00000000000E+00 -0.83205570738E+03  0.83205570740E+03  0.50400001928E-02 0. -1.
    10030    2    1    2    0    0  0.00000000000E+00  0.00000000000E+00  0.23062053131E+04  0.39703167279E+04  0.32318465269E+04 0.  0.
        3    1    3    3  502    0 -0.75903947931E+03  0.51527926014E+03 -0.48110174519E+03  0.10359114569E+04  0.10100000352E+00 0. -1.
       -3    1    3    3    0  502  0.75903947931E+03 -0.51527926014E+03  0.27873070583E+04  0.29344052710E+04  0.10100000352E+00 0.  1.
</event>
<event>
 5   0  0.1846850E-06  0.3227195E+04  0.7818609E-02  0.8181672E-01
        1   -1    0    0  501    0  0.00000000000E+00  0.00000000000E+00  0.12216697056E+04  0.12216697056E+04  0.50400001928E-02 0.  1.
       -1   -1    0    0    0  501  0.00000000000E+00  0.00000000000E+00 -0.21312608609E+04  0.21312608609E+04  0.50400001928E-02 0. -1.
    10030    2    1    2    0    0  0.00000000000E+00  0.00000000000E+00 -0.90959115529E+03  0.33529305665E+04  0.32271949607E+04 0.  0.
        5    1    3    3  502    0 -0.10223800072E+04  0.78088992202E+03  0.55712538329E+03  0.14019489049E+04  0.46999998093E+01 0.  1.
       -5    1    3    3    0  502  0.10223800072E+04 -0.78088992202E+03 -0.14667165386E+04  0.19509816616E+04  0.46999998093E+01 0. -1.
</event>
<event>
 5   0  0.1846850E-06  0.3172040E+04  0.7818609E-02  0.8196241E-01
        1   -1    0    0  501    0  0.00000000000E+00  0.00000000000E+00  0.15456793881E+04  0.15456793882E+04  0.50400001928E-02 0.  1.
       -1   -1    0    0    0  501  0.00000000000E+00  0.00000000000E+00 -0.16274129642E+04  0.16274129643E+04  0.50400001928E-02 0. -1.
    10030    2    1    2    0    0  0.00000000000E+00  0.00000000000E+00 -0.81733576107E+02  0.31730923524E+04  0.31720395173E+04 0.  0.
        5    1    3    3  502    0  0.10209328505E+04 -0.11562860647E+04 -0.40995433954E+03  0.15960532570E+04  0.46999998093E+01 0. -1.
       -5    1    3    3    0  502 -0.10209328505E+04  0.11562860647E+04  0.32822076344E+03  0.15770390954E+04  0.46999998093E+01 0.  1.
</event>
<event>
 5   0  0.5121624E-06  0.2575761E+04  0.7818609E-02  0.8376481E-01
       -2   -1    0    0    0  501  0.00000000000E+00  0.00000000000E+00  0.85792873704E+03  0.85792873704E+03  0.25500000920E-02 0.  1.
        2   -1    0    0  501    0  0.00000000000E+00  0.00000000000E+00 -0.19333033869E+04  0.19333033869E+04  0.25500000920E-02 0. -1.
    10030    2    1    2    0    0  0.00000000000E+00  0.00000000000E+00 -0.10753746499E+04  0.27912321240E+04  0.25757612724E+04 0.  0.
        4    1    3    3  502    0 -0.44554558458E+02 -0.27289546562E+03 -0.19007568224E+04  0.19207642111E+04  0.12699999809E+01 0. -1.
       -4    1    3    3    0  502  0.44554558458E+02  0.27289546562E+03  0.82538217248E+03  0.87046791290E+03  0.12699999809E+01 0.  1.
</event>
<event>
 5   0  0.5108810E-06  0.3115988E+04  0.7818609E-02  0.8211364E-01
        2   -1    0    0  501    0  0.00000000000E+00  0.00000000000E+00  0.18616950757E+04  0.18616950757E+04  0.25500000920E-02 0.  1.
       -2   -1    0    0    0  501  0.00000000000E+00  0.00000000000E+00 -0.13038359046E+04  0.13038359046E+04  0.25500000920E-02 0. -1.
    10030    2    1    2    0    0  0.00000000000E+00  0.00000000000E+00  0.55785917107E+03  0.31655309803E+04  0.31159877298E+04 0.  0.
        1    1    3    3  502    0  0.13179781014E+04  0.78046953485E+03 -0.10460836868E+02  0.15317664312E+04  0.50400001928E-02 0.  1.
       -1    1    3    3    0  502 -0.13179781014E+04 -0.78046953485E+03  0.56832000794E+03  0.16337645491E+04  0.50400001928E-02 0. -1.
</event>
<event>
 5   0  0.1969465E-06  0.2947549E+04  0.7818609E-02  0.8258869E-01
        1   -1    0    0  501    0  0.00000000000E+00  0.00000000000E+00  0.17580452641E+04  0.17580452641E+04  0.50400001928E-02 0. -1.
       -1   -1    0    0    0  501  0.00000000000E+00  0.00000000000E+00 -0.12354694806E+04  0.12354694806E+04  0.50400001928E-02 0.  1.
    10030    2    1    2    0    0  0.00000000000E+00  0.00000000000E+00  0.52257578351E+03  0.29935147447E+04  0.29475489949E+04 0.  0.
        2    1    3    3  502    0 -0.73340031294E+03 -0.68819626606E+03 -0.83278661519E+03  0.13057655479E+04  0.25500000920E-02 0.  1.
       -2    1    3    3    0  502  0.73340031294E+03  0.68819626606E+03  0.13553623987E+04  0.16877491968E+04  0.25500000920E-02 0. -1.
</event>
<event>
 5   0  0.5373060E-06  0.3279175E+04  0.7818609E-02  0.8168215E-01
       -2   -1    0    0    0  501  0.00000000000E+00  0.00000000000E+00  0.16871899322E+04  0.16871899322E+04  0.25500000920E-02 0. -1.
        2   -1    0    0  501    0  0.00000000000E+00  0.00000000000E+00 -0.15933281705E+04  0.15933281705E+04  0.25500000920E-02 0.  1.
    10030    2    1    2    0    0  0.00000000000E+00  0.00000000000E+00  0.93861761632E+02  0.32805181027E+04  0.32791750475E+04 0.  0.
        5    1    3    3  502    0  0.13797863276E+04  0.46328891038E+03  0.80207660101E+03  0.16618651835E+04  0.46999998093E+01 0. -1.
       -5    1    3    3    0  502 -0.13797863276E+04 -0.46328891038E+03 -0.70821483938E+03  0.16186529192E+04  0.46999998093E+01 0.  1.
</event>
<event>
 5   0  0.1969465E-06  0.2674811E+04  0.7818609E-02  0.8343224E-01
        1   -1    0    0  501    0  0.00000000000E+00  0.00000000000E+00  0.20131246704E+04  0.20131246704E+04  0.50400001928E-02 0.  1.
       -1   -1    0    0    0  501  0.00000000000E+00  0.00000000000E+00 -0.88849603950E+03  0.88849603951E+03  0.50400001928E-02 0. -1.
    10030    2    1    2    0    0  0.00000000000E+00  0.00000000000E+00  0.11246286309E+04  0.29016207099E+04  0.26748108694E+04 0.  0.
        2    1    3    3  502    0 -0.12654614629E+04 -0.34224562846E+03  0.27504127129E+03  0.13394672393E+04  0.25500000920E-02 0.  1.
       -2    1    3    3    0  502  0.12654614629E+04  0.34224562846E+03  0.84958735963E+03  0.15621534706E+04  0.25500000920E-02 0. -1.
</event>
<event>
 5   0  0.5347280E-06  0.3236999E+04  0.7818609E-02  0.8179114E-01
       -2   -1    0    0    0  501  0.00000000000E+00  0.00000000000E+00  0.19194560775E+04  0.19194560775E+04  0.25500000920E-02 0. -1.
        2   -1    0    0  501    0  0.00000000000E+00  0.00000000000E+00 -0.13647304967E+04  0.13647304967E+04  0.25500000920E-02 0.  1.
    10030    2    1    2    0    0  0.00000000000E+00  0.00000000000E+00  0.55472558076E+03  0.32841865742E+04  0.32369987618E+04 0.  0.
        2    1    3    3  502    0 -0.31310005626E+03 -0.11817244193E+04  0.13535021042E+04  0.18238618902E+04  0.25500000920E-02 0. -1.
       -2    1    3    3    0  502  0.31310005626E+03  0.11817244193E+04 -0.79877652340E+03  0.14603246840E+04  0.25500000920E-02 0.  1.
</event>
<event>
 5   0  0.5131083E-06  0.3192549E+04  0.7818609E-02  0.8190788E-01
       -2   -1    0    0    0  501  0.00000000000E+00  0.00000000000E+00  0.11932265233E+04  0.11932265233E+04  0.25500000920E-02 0. -1.
        2   -1    0    0  501    0  0.00000000000E+00  0.00000000000E+00 -0.21354640062E+04  0.21354640062E+04  0.25500000920E-02 0.  1.
    10030    2    1    2    0    0  0.00000000000E+00  0.00000000000E+00 -0.94223748293E+03  0.33286905295E+04  0.31925490078E+04 0.  0.
        3    1    3    3  502    0  0.13869499258E+04 -0.20029252975E+03 -0.12681411765E+04  0.18899548270E+04  0.10100000352E+00 0. -1.
       -3    1    3    3    0  502 -0.13869499258E+04  0.20029252975E+03  0.32590369362E+03  0.14387357026E+04  0.10100000352E+00 0.  1.
</event>
<event>
 5   0  0.5108810E-06  0.3212036E+04  0.7818609E-02  0.8185646E-01
        2   -1    0    0  501    0  0.00000000000E+00  0.00000000000E+00  0.24550821793E+04  0.24550821793E+04  0.25500000920E-02 0.  1.
       -2   -1    0    0    0  501  0.00000000000E+00  0.00000000000E+00 -0.10505933890E+04  0.10505933890E+04  0.25500000920E-02 0. -1.
    10030    2    1    2    0    0  0.00000000000E+00  0.00000000000E+00  0.14044887903E+04  0.35056755684E+04  0.32120355584E+04 0.  0.
        1    1    3    3  502    0 -0.30532691489E+03 -0.29926363169E+03 -0.98734427142E+03  0.10759330632E+04  0.50400001928E-02 0. -1.
       -1    1    3    3    0  502  0.30532691489E+03  0.29926363169E+03  0.23918330617E+04  0.24297425051E+04  0.50400001928E-02 0.  1.
</event>
<event>
 5   0  0.5121624E-06  0.2553498E+04  0.7818609E-02  0.8384171E-01
       -2   -1    0    0    0  501  0.00000000000E+00  0.00000000000E+00  0.79905131077E+03  0.79905131078E+03  0.25500000920E-02 0. -1.
        2   -1    0    0  501    0  0.00000000000E+00  0.00000000000E+00 -0.20400297401E+04  0.20400297401E+04  0.25500000920E-02 0.  1.
    10030    2    1    2    0    0  0.00000000000E+00  0.00000000000E+00 -0.12409784293E+04  0.28390810509E+04  0.25534983359E+04 0.  0.
        4    1    3    3  502    0  0.44853039759E+03 -0.79615032221E+02  0.70561863138E+03  0.83989126485E+03  0.12699999809E+01 0. -1.
       -4    1    3    3    0  502 -0.44853039759E+03  0.79615032221E+02 -0.19465970607E+04  0.19991897860E+04  0.12699999809E+01 0.  1.
</event>
<event>
 5   0  0.1846850E-06  0.3174984E+04  0.7818609E-02  0.8195455E-01
        1   -1    0    0  501    0  0.00000000000E+00  0.00000000000E+00  0.94705715687E+03  0.94705715688E+03  0.50400001928E-02 0. -1.
       -1   -1    0    0    0  501  0.00000000000E+00  0.00000000000E+00 -0.26610121654E+04  0.26610121654E+04  0.50400001928E-02 0.  1.
    10030    2    1    2    0    0  0.00000000000E+00  0.00000000000E+00 -0.17139550085E+04  0.36080693223E+04  0.31749838524E+04 0.  0.
        5    1    3    3  502    0 -0.15628983874E+04 -0.20745118309E+03 -0.10678141622E+04  0.19041892074E+04  0.46999998093E+01 0.  1.
       -5    1    3    3    0  502  0.15628983874E+04  0.20745118309E+03 -0.64614084627E+03  0.17038801148E+04  0.46999998093E+01 0. -1.
</event>
<event>
 5   0  0.1886248E-06  0.3003821E+04  0.7818609E-02  0.8242641E-01
       -1   -1    0    0    0  501  0.00000000000E+00  0.00000000000E+00  0.12651114579E+04  0.12651114579E+04  0.50400001928E-02 0.  1.
        1   -1    0    0  501    0  0.00000000000E+00  0.00000000000E+00 -0.17830332146E+04  0.17830332146E+04  0.50400001928E-02 0. -1.
    10030    2    1    2    0    0  0.00000000000E+00  0.00000000000E+00 -0.51792175669E+03  0.30481446726E+04  0.30038213993E+04 0.  0.
        4    1    3    3  502    0  0.30720475428E+03  0.32271784454E+02 -0.17504507270E+04  0.17774970013E+04  0.12699999809E+01 0. -1.
       -4    1    3    3    0  502 -0.30720475428E+03 -0.32271784454E+02  0.12325289703E+04  0.12706476713E+04  0.12699999809E+01 0.  1.
</event>
<event>
 5   0  0.1846850E-06  0.3238460E+04  0.7818609E-02  0.8178733E-01
        1   -1    0    0  501    0  0.00000000000E+00  0.00000000000E+00  0.17064565865E+04  0.17064565865E+04  0.50400001928E-02 0.  1.
       -1   -1    0    0    0  501  0.00000000000E+00  0.00000000000E+00 -0.15364620381E+04  0.15364620381E+04  0.50400001928E-02 0. -1.
    10030    2    1    2    0    0  0.00000000000E+00  0.00000000000E+00  0.16999454835E+03  0.32429186246E+04  0.32384599827E+04 0.  0.
        5    1    3    3  502    0 -0.18078711549E+03 -0.22158393177E+03 -0.15109661904E+04  0.15377985364E+04  0.46999998093E+01 0. -1.
       -5    1    3    3    0  502  0.18078711549E+03  0.22158393177E+03  0.16809607388E+04  0.17051200882E+04  0.46999998093E+01 0.  1.
</event>
<event>
 5   0  0.5131083E-06  0.3033432E+04  0.7818609E-02  0.8234248E-01
       -2   -1    0    0    0  501  0.00000000000E+00  0.00000000000E+00  0.23632375234E+04  0.23632375234E+04  0.25500000920E-02 0.  1.
        2   -1    0    0  501    0  0.00000000000E+00  0.00000000000E+00 -0.97342196792E+03  0.97342196792E+03  0.25500000920E-02 0. -1.
    10030    2    1    2    0    0  0.00000000000E+00  0.00000000000E+00  0.13898155555E+04  0.33366594913E+04  0.30334319315E+04 0.  0.
        3    1    3    3  502    0  0.57623569803E+03 -0.11584223779E+04 -0.17568778242E+03  0.13057014178E+04  0.10100000352E+00 0. -1.
       -3    1    3    3    0  502 -0.57623569803E+03  0.11584223779E+04  0.15655033379E+04  0.20309580735E+04  0.10100000352E+00 0.  1.
</event>
<event>
 5   0  0.5347280E-06  0.3105155E+04  0.7818609E-02  0.8214324E-01
       -2   -1    0    0    0  501  0.00000000000E+00  0.00000000000E+00  0.22943836434E+04  0.22943836434E+04  0.25500000920E-02 0.  1.
        2   -1    0    0  501    0  0.00000000000E+00  0.00000000000E+00 -0.10506079030E+04  0.10506079030E+04  0.25500000920E-02 0. -1.
    10030    2    1    2    0    0  0.00000000000E+00  0.00000000000E+00  0.12437757404E+04  0.33449915463E+04  0.31051554474E+04 0.  0.
        2    1    3    3  502    0  0.47130315425E+03  0.67426914927E+03 -0.79652500809E+03  0.11450841180E+04  0.25500000920E-02 0. -1.
       -2    1    3    3    0  502 -0.47130315425E+03 -0.67426914927E+03  0.20403007485E+04  0.21999074283E+04  0.25500000920E-02 0.  1.
</event>
<event>
 5   0  0.5373060E-06  0.3191689E+04  0.7818609E-02  0.8191016E-01
       -2   -1    0    0    0  501  0.00000000000E+00  0.00000000000E+00  0.11522807218E+04  0.11522807218E+04  0.25500000920E-02 0.  1.
        2   -1    0    0  501    0  0.00000000000E+00  0.00000000000E+00 -0.22101557699E+04  0.22101557699E+04  0.25500000920E-02 0. -1.
    10030    2    1    2    0    0  0.00000000000E+00  0.00000000000E+00 -0.10578750480E+04  0.33624364917E+04  0.31916891364E+04 0.  0.
        5    1    3    3  502    0  0.11546935212E+04  0.10977290562E+04 -0.62532872836E+03  0.17115444246E+04  0.46999998093E+01 0. -1.
       -5    1    3    3    0  502 -0.11546935212E+04 -0.10977290562E+04 -0.43254631969E+03  0.16508920672E+04  0.46999998093E+01 0.  1.
</event>
<event>
 5   0  0.1886248E-06  0.2754895E+04  0.7818609E-02  0.8317410E-01
        1   -1    0    0  501    0  0.00000000000E+00  0.00000000000E+00  0.21636305709E+04  0.21636305709E+04  0.50400001928E-02 0.  1.
       -1   -1    0    0    0  501  0.00000000000E+00  0.00000000000E+00 -0.87693425876E+03  0.87693425878E+03  0.50400001928E-02 0. -1.
    10030    2    1    2    0    0  0.00000000000E+00  0.00000000000E+00  0.12866963122E+04  0.30405648297E+04  0.27548951131E+04 0.  0.
        4    1    3    3  502    0 -0.21903362837E+03 -0.74418444727E+03 -0.61291406685E+03  0.98866146287E+03  0.12699999809E+01 0. -1.
       -4    1    3    3    0  502  0.21903362837E+03  0.74418444727E+03  0.18996103790E+04  0.20519033668E+04  0.12699999809E+01 0.  1.
</event>
<event>
 5   0  0.1977015E-06  0.2912481E+04  0.7818609E-02  0.8269174E-01
        1   -1    0    0  501    0  0.00000000000E+00  0.00000000000E+00  0.18610218607E+04  0.18610218607E+04  0.50400001928E-02 0.  1.
       -1   -1    0    0    0  501  0.00000000000E+00  0.00000000000E+00 -0.11395008759E+04  0.11395008759E+04  0.50400001928E-02 0. -1.
    10030    2    1    2    0    0  0.00000000000E+00  0.00000000000E+00  0.72152098482E+03  0.30005227366E+04  0.29124807573E+04 0.  0.
        1    1    3    3  502    0  0.11742637219E+03  0.97197818608E+03 -0.74983686146E+03  0.12332014701E+04  0.50400001928E-02 0. -1.
       -1    1    3    3    0  502 -0.11742637219E+03 -0.97197818608E+03  0.14713578463E+04  0.17673212665E+04  0.50400001928E-02 0.  1.
</event>
<event>
 5   0  0.5347280E-06  0.3207845E+04  0.7818609E-02  0.8186748E-01
        2   -1    0    0  501    0  0.00000000000E+00  0.00000000000E+00  0.14201862661E+04  0.14201862661E+04  0.25500000920E-02 0. -1.
       -2   -1    0    0    0  501  0.00000000000E+00  0.00000000000E+00 -0.18114294932E+04  0.18114294932E+04  0.25500000920E-02 0.  1.
    10030    2    1    2    0    0  0.00000000000E+00  0.00000000000E+00 -0.39124322706E+03  0.32316157593E+04  0.32078449390E+04 0.  0.
        2    1    3    3  502    0  0.43442640171E+03  0.60923313881E+02  0.13585774005E+04  0.14276450895E+04  0.25500000920E-02 0. -1.
       -2    1    3    3    0  502 -0.43442640171E+03 -0.60923313881E+02 -0.17498206275E+04  0.18039706697E+04  0.25500000920E-02 0.  1.
</event>
<event>
 5   0  0.1886248E-06  0.2703527E+04  0.7818609E-02  0.8333862E-01
        1   -1    0    0  501    0  0.00000000000E+00  0.00000000000E+00  0.13947281674E+04  0.13947281674E+04  0.50400001928E-02 0. -1.
       -1   -1    0    0    0  501  0.00000000000E+00  0.00000000000E+00 -0.13101222610E+04  0.13101222610E+04  0.50400001928E-02 0.  1.
    10030    2    1    2    0    0  0.00000000000E+00  0.00000000000E+00  0.84605906410E+02  0.27048504284E+04  0.27035268966E+04 0.  0.
        4    1    3    3  502    0  0.92701832399E+03 -0.26599291314E+03  0.98994541215E+03  0.13820668344E+04  0.12699999809E+01 0. -1.
       -4    1    3    3    0  502 -0.92701832399E+03  0.26599291314E+03 -0.90533950574E+03  0.13227835939E+04  0.12699999809E+01 0.  1.
</event>
<event>
 5   0  0.5121624E-06  0.3186548E+04  0.7818609E-02  0.8192379E-01
       -2   -1    0    0    0  501  0.00000000000E+00  0.00000000000E+00  0.14695017408E+04  0.14695017408E+04  0.25500000920E-02 0. -1.
        2   -1    0    0  501    0  0.00000000000E+00  0.00000000000E+00 -0.17274717067E+04  0.17274717067E+04  0.25500000920E-02 0.  1.
    10030    2    1    2    0    0  0.00000000000E+00  0.00000000000E+00 -0.25796996591E+03  0.31969734475E+04  0.31865484024E+04 0.  0.
        4    1    3    3  502    0  0.14083783497E+04  0.59504889918E+03 -0.57867935040E+03  0.16347734313E+04  0.12699999809E+01 0.  1.
       -4    1    3    3    0  502 -0.14083783497E+04 -0.59504889918E+03  0.32070938450E+03  0.15622000162E+04  0.12699999809E+01 0. -1.
</event>
<event>
 5   0  0.1846850E-06  0.2703034E+04  0.7818609E-02  0.8334021E-01
        1   -1    0    0  501    0  0.00000000000E+00  0.00000000000E+00  0.11714430900E+04  0.11714430900E+04  0.50400001928E-02 0.  1.
       -1   -1    0    0    0  501  0.00000000000E+00  0.00000000000E+00 -0.15592715407E+04  0.15592715407E+04  0.50400001928E-02 0. -1.
    10030    2    1    2    0    0  0.00000000000E+00  0.00000000000E+00 -0.38782845068E+03  0.27307146307E+04  0.27030337562E+04 0.  0.
        5    1    3    3  502    0 -0.82704552208E+03  0.10313470942E+04  0.89844121438E+02  0.13250566707E+04  0.46999998093E+01 0.  1.
       -5    1    3    3    0  502  0.82704552208E+03 -0.10313470942E+04 -0.47767257212E+03  0.14056579600E+04  0.46999998093E+01 0. -1.
</event>
<event>
 5   0  0.5131083E-06  0.3187381E+04  0.7818609E-02  0.8192158E-01
        2   -1    0    0  501    0  0.00000000000E+00  0.00000000000E+00  0.19064628349E+04  0.19064628349E+04  0.25500000920E-02 0.  1.
       -2   -1    0    0    0  501  0.00000000000E+00  0.00000000000E+00 -0.13322316287E+04  0.13322316287E+04  0.25500000920E-02 0. -1.
    10030    2    1    2    0    0  0.00000000000E+00  0.00000000000E+00  0.57423120616E+03  0.32386944636E+04  0.31873814253E+04 0.  0.
        3    1    3    3  502    0  0.45921092704E+03 -0.75604362165E+03  0.16341167675E+04  0.18581749792E+04  0.10100000352E+00 0.  1.
       -3    1    3    3    0  502 -0.45921092704E+03  0.75604362165E+03 -0.10598855614E+04  0.13805194844E+04  0.10100000352E+00 0. -1.
</event>
<event>
 5   0  0.5108810E-06  0.3187649E+04  0.7818609E-02  0.8192087E-01
       -2   -1    0    0    0  501  0.00000000000E+00  0.00000000000E+00  0.10365491933E+04  0.10365491933E+04  0.25500000920E-02 0.  1.
        2   -1    0    0  501    0  0.00000000000E+00  0.00000000000E+00 -0.24507051815E+04  0.24507051815E+04  0.25500000920E-02 0. -1.
    10030    2    1    2    0    0  0.00000000000E+00  0.00000000000E+00 -0.14141559882E+04  0.34872543748E+04  0.31876489636E+04 0.  0.
        1    1    3    3  502    0  0.10945435433E+04  0.11569758309E+04 -0.77324254099E+03  0.17704583216E+04  0.50400001928E-02 0.  1.
       -1    1    3    3    0  502 -0.10945435433E+04 -0.11569758309E+04 -0.64091344725E+03  0.17167960532E+04  0.50400001928E-02 0. -1.
</event>
<event>
 5   0  0.1881144E-06  0.3200204E+04  0.7818609E-02  0.8188763E-01
        1   -1    0    0  501    0  0.00000000000E+00  0.00000000000E+00  0.18694869177E+04  0.18694869177E+04  0.50400001928E-02 0.  1.
       -1   -1    0    0    0  501  0.00000000000E+00  0.00000000000E+00 -0.13695344531E+04  0.13695344531E+04  0.50400001928E-02 0. -1.
    10030    2    1    2    0    0  0.00000000000E+00  0.00000000000E+00  0.49995246465E+03  0.32390213708E+04  0.32002042082E+04 0.  0.
        3    1    3    3  502    0 -0.58812500781E+03  0.14096214107E+04  0.73262854896E+03  0.16940094885E+04  0.10100000352E+00 0.  1.
       -3    1    3    3    0  502  0.58812500781E+03 -0.14096214107E+04 -0.23267608431E+03  0.15450118823E+04  0.10100000352E+00 0. -1.
</event>
<event>
 5   0  0.1886248E-06  0.2477115E+04  0.7818609E-02  0.8411184E-01
        1   -1    0    0  501    0  0.00000000000E+00  0.00000000000E+00  0.15646144992E+04  0.15646144992E+04  0.50400001928E-02 0.  1.
       -1   -1    0    0    0  501  0.00000000000E+00  0.00000000000E+00 -0.98044919016E+03  0.98044919017E+03  0.50400001928E-02 0. -1.
    10030    2    1    2    0    0  0.00000000000E+00  0.00000000000E+00  0.58416530902E+03  0.25450636894E+04  0.24771152728E+04 0.  0.
        4    1    3    3  502    0 -0.23350593902E+03  0.71806562719E+03  0.13007871429E+04  0.15040585336E+04  0.12699999809E+01 0.  1.
       -4    1    3    3    0  502  0.23350593902E+03 -0.71806562719E+03 -0.71662183390E+03  0.10410051557E+04  0.12699999809E+01 0. -1.
</event>
<event>
 5   0  0.1886248E-06  0.3255516E+04  0.7818609E-02  0.8174307E-01
       -1   -1    0    0    0  501  0.00000000000E+00  0.00000000000E+00  0.22091019141E+04  0.22091019141E+04  0.50400001928E-02 0.  1.
        1   -1    0    0  501    0  0.00000000000E+00  0.00000000000E+00 -0.11993996134E+04  0.11993996134E+04  0.50400001928E-02 0. -1.
    10030    2    1    2    0    0  0.00000000000E+00  0.00000000000E+00  0.10097023007E+04  0.34085015275E+04  0.32555159233E+04 0.  0.
        4    1    3    3  502    0  0.77350332826E+03  0.82059319733E+03  0.17338590938E+04  0.20683204695E+04  0.12699999809E+01 0.  1.
       -4    1    3    3    0  502 -0.77350332826E+03 -0.82059319733E+03 -0.72415679309E+03  0.13401810580E+04  0.12699999809E+01 0. -1.
</event>
<event>
 5   0  0.1886248E-06  0.3207923E+04  0.7818609E-02  0.8186728E-01
        1   -1    0    0  501    0  0.00000000000E+00  0.00000000000E+00  0.22235497216E+04  0.22235497216E+04  0.50400001928E-02 0. -1.
       -1   -1    0    0    0  501  0.00000000000E+00  0.00000000000E+00 -0.11570205657E+04  0.11570205658E+04  0.50400001928E-02 0.  1.
    10030    2    1    2    0    0  0.00000000000E+00  0.00000000000E+00  0.10665291558E+04  0.33805702873E+04  0.32079231642E+04 0.  0.
        4    1    3    3  502    0 -0.15351333634E+04 -0.32703060958E+03  0.88135628361E+03  0.18001038788E+04  0.12699999809E+01 0.  1.
       -4    1    3    3    0  502  0.15351333634E+04  0.32703060958E+03  0.18517287223E+03  0.15804664085E+04  0.12699999809E+01 0. -1.
</event>
<event>
 5   0  0.1881144E-06  0.3300556E+04  0.7818609E-02  0.8162754E-01
        1   -1    0    0  501    0  0.00000000000E+00  0.00000000000E+00  0.18668641289E+04  0.18668641289E+04  0.50400001928E-02 0. -1.
       -1   -1    0    0    0  501  0.00000000000E+00  0.00000000000E+00 -0.14588189620E+04  0.14588189620E+04  0.50400001928E-02 0.  1.
    10030    2    1    2    0    0  0.00000000000E+00  0.00000000000E+00  0.40804516685E+03  0.33256830909E+04  0.33005555840E+04 0.  0.
        3    1    3    3  502    0 -0.10558585602E+04 -0.46508507248E+03  0.13929528401E+04  0.18087175149E+04  0.10100000352E+00 0. -1.
       -3    1    3    3    0  502  0.10558585602E+04  0.46508507248E+03 -0.98490767322E+03  0.15169655760E+04  0.10100000352E+00 0.  1.
</event>
<event>
 5   0  0.5373060E-06  0.3185078E+04  0.7818609E-02  0.8192769E-01
       -2   -1    0    0    0  501  0.00000000000E+00  0.00000000000E+00  0.16214456690E+04  0.16214456690E+04  0.25500000920E-02 0. -1.
        2   -1    0    0  501    0  0.00000000000E+00  0.00000000000E+00 -0.15641472957E+04  0.15641472957E+04  0.25500000920E-02 0.  1.
    10030    2    1    2    0    0  0.00000000000E+00  0.00000000000E+00  0.57298373305E+02  0.31855929647E+04  0.31850776181E+04 0.  0.
        5    1    3    3  502    0  0.13505939523E+04  0.55913088139E+03  0.66075334494E+03  0.16041659638E+04  0.46999998093E+01 0.  1.
       -5    1    3    3    0  502 -0.13505939523E+04 -0.55913088139E+03 -0.60345497163E+03  0.15814270009E+04  0.46999998093E+01 0. -1.
</event>
<event>
 5   0  0.5347280E-06  0.2811687E+04  0.7818609E-02  0.8299649E-01
       -2   -1    0    0    0  501  0.00000000000E+00  0.00000000000E+00  0.14563669665E+04  0.14563669665E+04  0.25500000920E-02 0. -1.
        2   -1    0    0  501    0  0.00000000000E+00  0.00000000000E+00 -0.13570726118E+04  0.13570726118E+04  0.25500000920E-02 0.  1.
    10030    2    1    2    0    0  0.00000000000E+00  0.00000000000E+00  0.99294354713E+02  0.28134395784E+04  0.28116868411E+04 0.  0.
        2    1    3    3  502    0  0.24140741360E+03 -0.10016182815E+04  0.10067365066E+04  0.14404982176E+04  0.25500000920E-02 0. -1.
       -2    1    3    3    0  502 -0.24140741360E+03  0.10016182815E+04 -0.90744215189E+03  0.13729413608E+04  0.25500000920E-02 0.  1.
</event>
<event>
 5   0  0.1969465E-06  0.2960402E+04  0.7818609E-02  0.8255130E-01
        1   -1    0    0  501    0  0.00000000000E+00  0.00000000000E+00  0.12233889234E+04  0.12233889235E+04  0.50400001928E-02 0.  1.
       -1   -1    0    0    0  501  0.00000000000E+00  0.00000000000E+00 -0.17909222504E+04  0.17909222504E+04  0.50400001928E-02 0. -1.
    10030    2    1    2    0    0  0.00000000000E+00  0.00000000000E+00 -0.56753332698E+03  0.30143111739E+04  0.29604016241E+04 0.  0.
        2    1    3    3  502    0  0.11406825920E+04 -0.29809518506E+03 -0.11950374610E+04  0.16787292957E+04  0.25500000920E-02 0. -1.
       -2    1    3    3    0  502 -0.11406825920E+04  0.29809518506E+03  0.62750413406E+03  0.13355818782E+04  0.25500000920E-02 0.  1.
</event>
<event>
 5   0  0.1977015E-06  0.3190497E+04  0.7818609E-02  0.8191331E-01
       -1   -1    0    0    0  501  0.00000000000E+00  0.00000000000E+00  0.17114157427E+04  0.17114157427E+04  0.50400001928E-02 0. -1.
        1   -1    0    0  501    0  0.00000000000E+00  0.00000000000E+00 -0.14869666804E+04  0.14869666804E+04  0.50400001928E-02 0.  1.
    10030    2    1    2    0    0  0.00000000000E+00  0.00000000000E+00  0.22444906230E+03  0.31983824230E+04  0.31904972563E+04 0.  0.
        1    1    3    3  502    0 -0.15343348792E+04 -0.17416110304E+03 -0.28914302400E+03  0.15710249201E+04  0.50400001928E-02 0.  1.
       -1    1    3    3    0  502  0.15343348792E+04  0.17416110304E+03  0.51359208630E+03  0.16273575029E+04  0.50400001928E-02 0. -1.
</event>
<event>
 5   0  0.1881144E-06  0.3176164E+04  0.7818609E-02  0.8195141E-01
        1   -1    0    0  501    0  0.00000000000E+00  0.00000000000E+00  0.14645211023E+04  0.14645211023E+04  0.50400001928E-02 0. -1.
       -1   -1    0    0    0  501  0.00000000000E+00  0.00000000000E+00 -0.17220673455E+04  0.17220673455E+04  0.50400001928E-02 0.  1.
    10030    2    1    2    0    0  0.00000000000E+00  0.00000000000E+00 -0.25754624325E+03  0.31865884478E+04  0.31761637030E+04 0.  0.
        3    1    3    3  502    0  0.14027980948E+04 -0.66195200613E+03 -0.47045073936E+03  0.16209092700E+04  0.10100000352E+00 0.  1.
       -3    1    3    3    0  502 -0.14027980948E+04  0.66195200613E+03  0.21290449611E+03  0.15656791778E+04  0.10100000352E+00 0. -1.
</event>
<event>
 5   0  0.1977015E-06  0.3029098E+04  0.7818609E-02  0.8235470E-01
       -1   -1    0    0    0  501  0.00000000000E+00  0.00000000000E+00  0.14500251277E+04  0.14500251277E+04  0.50400001928E-02 0.  1.
        1   -1    0    0  501    0  0.00000000000E+00  0.00000000000E+00 -0.15819439559E+04  0.15819439559E+04  0.50400001928E-02 0. -1.
    10030    2    1    2    0    0  0.00000000000E+00  0.00000000000E+00 -0.13191882824E+03  0.30319690836E+04  0.30290978767E+04 0.  0.
        1    1    3    3  502    0  0.55905861741E+03  0.14333183686E+03 -0.14675609345E+04  0.15769672316E+04  0.50400001928E-02 0. -1.
       -1    1    3    3    0  502 -0.55905861741E+03 -0.14333183686E+03  0.13356421063E+04  0.14550018520E+04  0.50400001928E-02 0.  1.
</event>
<event>
 5   0  0.1886248E-06  0.3185588E+04  0.7818609E-02  0.8192634E-01
        1   -1    0    0  501    0  0.00000000000E+00  0.00000000000E+00  0.13107021006E+04  0.13107021006E+04  0.50400001928E-02 0. -1.
       -1   -1    0    0    0  501  0.00000000000E+00  0.00000000000E+00 -0.19355988694E+04  0.19355988694E+04  0.50400001928E-02 0.  1.
    10030    2    1    2    0    0  0.00000000000E+00  0.00000000000E+00 -0.62489676882E+03  0.32463009700E+04  0.31855884882E+04 0.  0.
        4    1    3    3  502    0 -0.27352276763E+03  0.15647030072E+04 -0.43251443182E+03  0.16462626011E+04  0.12699999809E+01 0.  1.
       -4    1    3    3    0  502  0.27352276763E+03 -0.15647030072E+04 -0.19238233699E+03  0.16000383688E+04  0.12699999809E+01 0. -1.
</event>
<event>
 5   0  0.1886248E-06  0.3138408E+04  0.7818609E-02  0.8205275E-01
        1   -1    0    0  501    0  0.00000000000E+00  0.00000000000E+00  0.16790706868E+04  0.16790706868E+04  0.50400001928E-02 0.  1.
       -1   -1    0    0    0  501  0.00000000000E+00  0.00000000000E+00 -0.14665263788E+04  0.14665263788E+04  0.50400001928E-02 0. -1.
    10030    2    1    2    0    0  0.00000000000E+00  0.00000000000E+00  0.21254430805E+03  0.31455970656E+04  0.31384081660E+04 0.  0.
        4    1    3    3  502    0  0.10792701598E+04  0.11107797928E+04  0.35932625161E+03  0.15898971017E+04  0.12699999809E+01 0. -1.
       -4    1    3    3    0  502 -0.10792701598E+04 -0.11107797928E+04 -0.14678194356E+03  0.15556999639E+04  0.12699999809E+01 0.  1.
</event>
<event>
 5   0  0.1881144E-06  0.3189306E+04  0.7818609E-02  0.8191647E-01
        1   -1    0    0  501    0  0.00000000000E+00  0.00000000000E+00  0.13532196420E+04  0.13532196420E+04  0.50400001928E-02 0. -1.
       -1   -1    0    0    0  501  0.00000000000E+00  0.00000000000E+00 -0.18791613407E+04  0.18791613407E+04  0.50400001928E-02 0.  1.
    10030    2    1    2    0    0  0.00000000000E+00  0.00000000000E+00 -0.52594169868E+03  0.32323809827E+04  0.31893059036E+04 0.  0.
        3    1    3    3  502    0  0.34845104295E+03  0.37725312419E+03 -0.17930562689E+04  0.18651511581E+04  0.10100000352E+00 0.  1.
       -3    1    3    3    0  502 -0.34845104295E+03 -0.37725312419E+03  0.12671145702E+04  0.13672298246E+04  0.10100000352E+00 0. -1.
</event>
<event>
 5   0  0.5347280E-06  0.2534529E+04  0.7818609E-02  0.8390787E-01
        2   -1    0    0  501    0  0.00000000000E+00  0.00000000000E+00  0.11555689074E+04  0.11555689074E+04  0.25500000920E-02 0.  1.
       -2   -1    0    0    0  501  0.00000000000E+00  0.00000000000E+00 -0.13897559457E+04  0.13897559457E+04  0.25500000920E-02 0. -1.
    10030    2    1    2    0    0  0.00000000000E+00  0.00000000000E+00 -0.23418703832E+03  0.25453248530E+04  0.25345285634E+04 0.  0.
        2    1    3    3  502    0 -0.10774482331E+04 -0.10922583882E+03 -0.77802594058E+03  0.13334726630E+04  0.25500000920E-02 0.  1.
       -2    1    3    3    0  502  0.10774482331E+04  0.10922583882E+03  0.54383890226E+03  0.12118521900E+04  0.25500000920E-02 0. -1.
</event>
<event>
 5   0  0.1846850E-06  0.2874806E+04  0.7818609E-02  0.8280413E-01
       -1   -1    0    0    0  501  0.00000000000E+00  0.00000000000E+00  0.10191331235E+04  0.10191331235E+04  0.50400001928E-02 0.  1.
        1   -1    0    0  501    0  0.00000000000E+00  0.00000000000E+00 -0.20273384252E+04  0.20273384252E+04  0.50400001928E-02 0. -1.
    10030    2    1    2    0    0  0.00000000000E+00  0.00000000000E+00 -0.10082053017E+04  0.30464715486E+04  0.28748062485E+04 0.  0.
        5    1    3    3  502    0  0.11669580888E+03 -0.25549694628E+03 -0.19979641161E+04  0.20176172334E+04  0.46999998093E+01 0. -1.
       -5    1    3    3    0  502 -0.11669580888E+03  0.25549694628E+03  0.98975881438E+03  0.10288543153E+04  0.46999998093E+01 0.  1.
</event>
<event>
 5   0  0.5108810E-06  0.3315138E+04  0.7818609E-02  0.8159054E-01
       -2   -1    0    0    0  501  0.00000000000E+00  0.00000000000E+00  0.95246463057E+03  0.95246463057E+03  0.25500000920E-02 0. -1.
        2   -1    0    0  501    0  0.00000000000E+00  0.00000000000E+00 -0.28846579233E+04  0.28846579233E+04  0.25500000920E-02 0.  1.
    10030    2    1    2    0    0  0.00000000000E+00  0.00000000000E+00 -0.19321932927E+04  0.38371225539E+04  0.33151377909E+04 0.  0.
        1    1    3    3  502    0  0.48587515578E+03  0.30285935919E+03 -0.27665757928E+04  0.28251973516E+04  0.50400001928E-02 0.  1.
       -1    1    3    3    0  502 -0.48587515578E+03 -0.30285935919E+03  0.83438250007E+03  0.10119252022E+04  0.50400001928E-02 0. -1.
</event>
<event>
 5   0  0.1881144E-06  0.1953434E+04  0.7818609E-02  0.8628707E-01
       -1   -1    0    0    0  501  0.00000000000E+00  0.00000000000E+00  0.92589501577E+03  0.92589501578E+03  0.50400001928E-02 0.  1.
        1   -1    0    0  501    0  0.00000000000E+00  0.00000000000E+00 -0.10303286855E+04  0.10303286855E+04  0.50400001928E-02 0. -1.
    10030    2    1    2    0    0  0.00000000000E+00  0.00000000000E+00 -0.10443366972E+03  0.19562237013E+04  0.19534340987E+04 0.  0.
        3    1    3    3  502    0 -0.56844736386E+03 -0.78795920129E+03  0.47745931565E+02  0.97277530425E+03  0.10100000352E+00 0.  1.
       -3    1    3    3    0  502  0.56844736386E+03  0.78795920129E+03 -0.15217960128E+03  0.98344839703E+03  0.10100000352E+00 0. -1.
</event>
<event>
 5   0  0.5108810E-06  0.3224563E+04  0.7818609E-02  0.8182360E-01
        2   -1    0    0  501    0  0.00000000000E+00  0.00000000000E+00  0.17623657572E+04  0.17623657572E+04  0.25500000920E-02 0. -1.
       -2   -1    0    0    0  501  0.00000000000E+00  0.00000000000E+00 -0.14749788018E+04  0.14749788018E+04  0.25500000920E-02 0.  1.
    10030    2    1    2    0    0  0.00000000000E+00  0.00000000000E+00  0.28738695536E+03  0.32373445590E+04  0.32245633087E+04 0.  0.
        1    1    3    3  502    0  0.19981578991E+03  0.10928661594E+04 -0.10293423588E+04  0.15145390334E+04  0.50400001928E-02 0.  1.
       -1    1    3    3    0  502 -0.19981578991E+03 -0.10928661594E+04  0.13167293141E+04  0.17228055256E+04  0.50400001928E-02 0. -1.
</event>
<event>
 5   0  0.1977015E-06  0.2852836E+04  0.7818609E-02  0.8287050E-01
       -1   -1    0    0    0  501  0.00000000000E+00  0.00000000000E+00  0.11696893282E+04  0.11696893282E+04  0.50400001928E-02 0.  1.
        1   -1    0    0  501    0  0.00000000000E+00  0.00000000000E+00 -0.17394944522E+04  0.17394944522E+04  0.50400001928E-02 0. -1.
    10030    2    1    2    0    0  0.00000000000E+00  0.00000000000E+00 -0.56980512397E+03  0.29091837804E+04  0.28528358503E+04 0.  0.
        1    1    3    3  502    0 -0.47685867086E+03 -0.24610027063E+03 -0.16326378467E+04  0.17185650624E+04  0.50400001928E-02 0. -1.
       -1    1    3    3    0  502  0.47685867086E+03  0.24610027063E+03  0.10628327227E+04  0.11906187180E+04  0.50400001928E-02 0.  1.
</event>
<event>
 5   0  0.5373060E-06  0.3205060E+04  0.7818609E-02  0.8187482E-01
        2   -1    0    0  501    0  0.00000000000E+00  0.00000000000E+00  0.16790576066E+04  0.16790576066E+04  0.25500000920E-02 0. -1.
       -2   -1    0    0    0  501  0.00000000000E+00  0.00000000000E+00 -0.15294903624E+04  0.15294903624E+04  0.25500000920E-02 0.  1.
    10030    2    1    2    0    0  0.00000000000E+00  0.00000000000E+00  0.14956724420E+03  0.32085479689E+04  0.32050600163E+04 0.  0.
        5    1    3    3  502    0 -0.88516413210E+03  0.11328415009E+04  0.78353356112E+03  0.16373125353E+04  0.46999998093E+01 0. -1.
       -5    1    3    3    0  502  0.88516413210E+03 -0.11328415009E+04 -0.63396631692E+03  0.15712354336E+04  0.46999998093E+01 0.  1.
</event>
<event>
 5   0  0.1969465E-06  0.3200369E+04  0.7818609E-02  0.8188720E-01
        1   -1    0    0  501    0  0.00000000000E+00  0.00000000000E+00  0.20152216148E+04  0.20152216148E+04  0.50400001928E-02 0.  1.
       -1   -1    0    0    0  501  0.00000000000E+00  0.00000000000E+00 -0.12706249545E+04  0.12706249545E+04  0.50400001928E-02 0. -1.
    10030    2    1    2    0    0  0.00000000000E+00  0.00000000000E+00  0.74459666035E+03  0.32858465693E+04  0.32003692741E+04 0.  0.
        2    1    3    3  502    0  0.10594454841E+02 -0.11067195645E+04 -0.81427229658E+03  0.13740377761E+04  0.25500000920E-02 0. -1.
       -2    1    3    3    0  502 -0.10594454841E+02  0.11067195645E+04  0.15588689569E+04  0.19118087932E+04  0.25500000920E-02 0.  1.
</event>
<event>
 5   0  0.5131083E-06  0.3114272E+04  0.7818609E-02  0.8211832E-01
        2   -1    0    0  501    0  0.00000000000E+00  0.00000000000E+00  0.23855911946E+04  0.23855911946E+04  0.25500000920E-02 0. -1.
       -2   -1    0    0    0  501  0.00000000000E+00  0.00000000000E+00 -0.10163819947E+04  0.10163819947E+04  0.25500000920E-02 0.  1.
    10030    2    1    2    0    0  0.00000000000E+00  0.00000000000E+00  0.13692091999E+04  0.34019731893E+04  0.31142716239E+04 0.  0.
        3    1    3    3  502    0 -0.66245777820E+03 -0.71303356732E+03 -0.64316934929E+03  0.11665907586E+04  0.10100000352E+00 0.  1.
       -3    1    3    3    0  502  0.66245777820E+03  0.71303356732E+03  0.20123785491E+04  0.22353824307E+04  0.10100000352E+00 0. -1.
</event>
<event>
 5   0  0.5347280E-06  0.3170264E+04  0.7818609E-02  0.8196715E-01
        2   -1    0    0  501    0  0.00000000000E+00  0.00000000000E+00  0.31776307711E+04  0.31776307711E+04  0.25500000920E-02 0.  1.
       -2   -1    0    0    0  501  0.00000000000E+00  0.00000000000E+00 -0.79072835464E+03  0.79072835464E+03  0.25500000920E-02 0. -1.
    10030    2    1    2    0    0  0.00000000000E+00  0.00000000000E+00  0.23869024164E+04  0.39683591257E+04  0.31702635545E+04 0.  0.
        2    1    3    3  502    0 -0.44363444309E+03  0.44860495114E+03 -0.62678670449E+03  0.88933654722E+03  0.25500000920E-02 0. -1.
       -2    1    3    3    0  502  0.44363444309E+03 -0.44860495114E+03  0.30136891209E+04  0.30790225785E+04  0.25500000920E-02 0.  1.
</event>
<event>
 5   0  0.1969465E-06  0.2090936E+04  0.7818609E-02  0.8565247E-01
        1   -1    0    0  501    0  0.00000000000E+00  0.00000000000E+00  0.13177846187E+04  0.13177846187E+04  0.50400001928E-02 0.  1.
       -1   -1    0    0    0  501  0.00000000000E+00  0.00000000000E+00 -0.82942471140E+03  0.82942471142E+03  0.50400001928E-02 0. -1.
    10030    2    1    2    0    0  0.00000000000E+00  0.00000000000E+00  0.48835990725E+03  0.21472093301E+04  0.20909357972E+04 0.  0.
        2    1    3    3  502    0  0.28575368859E+03 -0.86061019411E+03  0.77846897652E+03  0.11951230163E+04  0.25500000920E-02 0.  1.
       -2    1    3    3    0  502 -0.28575368859E+03  0.86061019411E+03 -0.29010906926E+03  0.95208631375E+03  0.25500000920E-02 0. -1.
</event>
<event>
 5   0  0.5373060E-06  0.2989445E+04  0.7818609E-02  0.8246751E-01
        2   -1    0    0  501    0  0.00000000000E+00  0.00000000000E+00  0.16427396187E+04  0.16427396187E+04  0.25500000920E-02 0.  1.
       -2   -1    0    0    0  501  0.00000000000E+00  0.00000000000E+00 -0.13600420629E+04  0.13600420629E+04  0.25500000920E-02 0. -1.
    10030    2    1    2    0    0  0.00000000000E+00  0.00000000000E+00  0.28269755584E+03  0.30027816816E+04  0.29894447510E+04 0.  0.
        5    1    3    3  502    0  0.14557637802E+04 -0.30846051402E+03  0.28260624968E+03  0.15146895572E+04  0.46999998093E+01 0.  1.
       -5    1    3    3    0  502 -0.14557637802E+04  0.30846051402E+03  0.91306165659E-01  0.14880921244E+04  0.46999998093E+01 0. -1.
</event>
<event>
 5   0  0.5373060E-06  0.2892864E+04  0.7818609E-02  0.8275004E-01
        2   -1    0    0  501    0  0.00000000000E+00  0.00000000000E+00  0.80708805533E+03  0.80708805533E+03  0.25500000920E-02 0.  1.
       -2   -1    0    0    0  501  0.00000000000E+00  0.00000000000E+00 -0.25922389837E+04  0.25922389837E+04  0.25500000920E-02 0. -1.
    10030    2    1    2    0    0  0.00000000000E+00  0.00000000000E+00 -0.17851509284E+04  0.33993270390E+04  0.28928637163E+04 0.  0.
        5    1    3    3  502    0  0.32243237127E+03 -0.43458496683E+03 -0.24688023530E+04  0.25274164428E+04  0.46999998093E+01 0. -1.
       -5    1    3    3    0  502 -0.32243237127E+03  0.43458496683E+03  0.68365142460E+03  0.87191059621E+03  0.46999998093E+01 0.  1.
</event>
<event>
 5   0  0.5131083E-06  0.3196674E+04  0.7818609E-02  0.8189696E-01
        2   -1    0    0  501    0  0.00000000000E+00  0.00000000000E+00  0.22281600896E+04  0.22281600896E+04  0.25500000920E-02 0.  1.
       -2   -1    0    0    0  501  0.00000000000E+00  0.00000000000E+00 -0.11465431469E+04  0.11465431470E+04  0.25500000920E-02 0. -1.
    10030    2    1    2    0    0  0.00000000000E+00  0.00000000000E+00  0.10816169427E+04  0.33747032366E+04  0.31966743225E+04 0.  0.
        3    1    3    3  502    0  0.17911896047E+03  0.99808420970E+03 -0.76348424773E+03  0.12693163114E+04  0.10100000352E+00 0. -1.
       -3    1    3    3    0  502 -0.17911896047E+03 -0.99808420970E+03  0.18451011904E+04  0.21053869252E+04  0.10100000352E+00 0.  1.
</event>
<event>
 5   0  0.5108810E-06  0.2767619E+04  0.7818609E-02  0.8313392E-01
       -2   -1    0    0    0  501  0.00000000000E+00  0.00000000000E+00  0.10165111518E+04  0.10165111518E+04  0.25500000920E-02 0.  1.
        2   -1    0    0  501    0  0.00000000000E+00  0.00000000000E+00 -0.18838245788E+04  0.18838245788E+04  0.25500000920E-02 0. -1.
    10030    2    1    2    0    0  0.00000000000E+00  0.00000000000E+00 -0.86731342702E+03  0.29003357307E+04  0.27676189712E+04 0.  0.
        1    1    3    3  502    0 -0.12120751598E+04  0.18612634649E+03 -0.11056224508E+04  0.16511118113E+04  0.50400001928E-02 0. -1.
       -1    1    3    3    0  502  0.12120751598E+04 -0.18612634649E+03  0.23830902376E+03  0.12492239193E+04  0.50400001928E-02 0.  1.
</event>
<event>
 5   0  0.1846850E-06  0.3301337E+04  0.7818609E-02  0.8162555E-01
        1   -1    0    0  501    0  0.00000000000E+00  0.00000000000E+00  0.24302737053E+04  0.24302737053E+04  0.50400001928E-02 0.  1.
       -1   -1    0    0    0  501  0.00000000000E+00  0.00000000000E+00 -0.11211523667E+04  0.11211523667E+04  0.50400001928E-02 0. -1.
    10030    2    1    2    0    0  0.00000000000E+00  0.00000000000E+00  0.13091213386E+04  0.35514260720E+04  0.33013373753E+04 0.  0.
        5    1    3    3  502    0  0.20854899907E+03  0.12451658670E+04 -0.48936286486E+03  0.13540416629E+04  0.46999998093E+01 0. -1.
       -5    1    3    3    0  502 -0.20854899907E+03 -0.12451658670E+04  0.17984842034E+04  0.21973844091E+04  0.46999998093E+01 0.  1.
</event>
<event>
 5   0  0.1977015E-06  0.3122493E+04  0.7818609E-02  0.8209592E-01
       -1   -1    0    0    0  501  0.00000000000E+00  0.00000000000E+00  0.14656094117E+04  0.14656094117E+04  0.50400001928E-02 0.  1.
        1   -1    0    0  501    0  0.00000000000E+00  0.00000000000E+00 -0.16631239905E+04  0.16631239905E+04  0.50400001928E-02 0. -1.
    10030    2    1    2    0    0  0.00000000000E+00  0.00000000000E+00 -0.19751457885E+03  0.31287334022E+04  0.31224927051E+04 0.  0.
        1    1    3    3  502    0 -0.12263921487E+04  0.91312946496E+03  0.21754282717E+03  0.15443989134E+04  0.50400001928E-02 0. -1.
       -1    1    3    3    0  502  0.12263921487E+04 -0.91312946496E+03 -0.41505740602E+03  0.15843344888E+04  0.50400001928E-02 0.  1.
</event>
<event>
 5   0  0.5347280E-06  0.3183527E+04  0.7818609E-02  0.8193181E-01
        2   -1    0    0  501    0  0.00000000000E+00  0.00000000000E+00  0.25467124592E+04  0.25467124592E+04  0.25500000920E-02 0. -1.
       -2   -1    0    0    0  501  0.00000000000E+00  0.00000000000E+00 -0.99489470205E+03  0.99489470205E+03  0.25500000920E-02 0.  1.
    10030    2    1    2    0    0  0.00000000000E+00  0.00000000000E+00  0.15518177572E+04  0.35416071613E+04  0.31835268074E+04 0.  0.
        2    1    3    3  502    0  0.87260640187E+02 -0.47222977236E+03  0.24642019403E+04  0.25105590174E+04  0.25500000920E-02 0. -1.
       -2    1    3    3    0  502 -0.87260640187E+02  0.47222977236E+03 -0.91238418317E+03  0.10310481438E+04  0.25500000920E-02 0.  1.
</event>
<event>
 5   0  0.1969465E-06  0.3193557E+04  0.7818609E-02  0.8190521E-01
       -1   -1    0    0    0  501  0.00000000000E+00  0.00000000000E+00  0.15806457156E+04  0.15806457156E+04  0.50400001928E-02 0.  1.
        1   -1    0    0  501    0  0.00000000000E+00  0.00000000000E+00 -0.16130763079E+04  0.16130763079E+04  0.50400001928E-02 0. -1.
    10030    2    1    2    0    0  0.00000000000E+00  0.00000000000E+00 -0.32430592298E+02  0.31937220235E+04  0.31935573613E+04 0.  0.
        2    1    3    3  502    0 -0.33225918671E+03  0.11314175848E+04  0.10605018339E+04  0.15859275072E+04  0.25500000920E-02 0.  1.
       -2    1    3    3    0  502  0.33225918671E+03 -0.11314175848E+04 -0.10929324262E+04  0.16077945163E+04  0.25500000920E-02 0. -1.
</event>
<event>
 5   0  0.5108810E-06  0.3185382E+04  0.7818609E-02  0.8192688E-01
        2   -1    0    0  501    0  0.00000000000E+00  0.00000000000E+00  0.11610907895E+04  0.11610907895E+04  0.25500000920E-02 0. -1.
       -2   -1    0    0    0  501  0.00000000000E+00  0.00000000000E+00 -0.21847258779E+04  0.21847258779E+04  0.25500000920E-02 0.  1.
    10030    2    1    2    0    0  0.00000000000E+00  0.00000000000E+00 -0.10236350884E+04  0.33458166674E+04  0.31853822969E+04 0.  0.
        1    1    3    3  502    0 -0.15236196716E+04  0.40150719689E+02 -0.99730488426E+03  0.18214406430E+04  0.50400001928E-02 0.  1.
       -1    1    3    3    0  502  0.15236196716E+04 -0.40150719689E+02 -0.26330204139E+02  0.15243760244E+04  0.50400001928E-02 0. -1.
</event>
<event>
 5   0  0.5373060E-06  0.3206905E+04  0.7818609E-02  0.8186996E-01
       -2   -1    0    0    0  501  0.00000000000E+00  0.00000000000E+00  0.31645296451E+04  0.31645296451E+04  0.25500000920E-02 0. -1.
        2   -1    0    0  501    0  0.00000000000E+00  0.00000000000E+00 -0.81246214907E+03  0.81246214908E+03  0.25500000920E-02 0.  1.
    10030    2    1    2    0    0  0.00000000000E+00  0.00000000000E+00  0.23520674961E+04  0.39769917942E+04  0.32069053970E+04 0.  0.
        5    1    3    3  502    0 -0.11087513932E+04 -0.10054036755E+04  0.18893772801E+04  0.24103806336E+04  0.46999998093E+01 0. -1.
       -5    1    3    3    0  502  0.11087513932E+04  0.10054036755E+04  0.46269021600E+03  0.15666111606E+04  0.46999998093E+01 0.  1.
</event>
<event>
 5   0  0.1846850E-06  0.3195950E+04  0.7818609E-02  0.8189887E-01
       -1   -1    0    0    0  501  0.00000000000E+00  0.00000000000E+00  0.13451247395E+04  0.13451247395E+04  0.50400001928E-02 0. -1.
        1   -1    0    0  501    0  0.00000000000E+00  0.00000000000E+00 -0.18983553852E+04  0.18983553852E+04  0.50400001928E-02 0.  1.
    10030    2    1    2    0    0  0.00000000000E+00  0.00000000000E+00 -0.55323064571E+03  0.32434801247E+04  0.31959504333E+04 0.  0.
        5    1    3    3  502    0 -0.16987758880E+03  0.16878937576E+03  0.13268033363E+04  0.13482497661E+04  0.46999998093E+01 0. -1.
       -5    1    3    3    0  502  0.16987758880E+03 -0.16878937576E+03 -0.18800339820E+04  0.18952303586E+04  0.46999998093E+01 0.  1.
</event>
<event>
 5   0  0.1846850E-06  0.3089016E+04  0.7818609E-02  0.8218759E-01
        1   -1    0    0  501    0  0.00000000000E+00  0.00000000000E+00  0.14571456690E+04  0.14571456690E+04  0.50400001928E-02 0.  1.
       -1   -1    0    0    0  501  0.00000000000E+00  0.00000000000E+00 -0.16371077305E+04  0.16371077305E+04  0.50400001928E-02 0. -1.
    10030    2    1    2    0    0  0.00000000000E+00  0.00000000000E+00 -0.17996206148E+03  0.30942533995E+04  0.30890156614E+04 0.  0.
        5    1    3    3  502    0 -0.43627889393E+02  0.10558359051E+04  0.10383344692E+04  0.14815037668E+04  0.46999998093E+01 0.  1.
       -5    1    3    3    0  502  0.43627889393E+02 -0.10558359051E+04 -0.12182965306E+04  0.16127496327E+04  0.46999998093E+01 0. -1.
</event>
<event>
 5   0  0.5108810E-06  0.3259063E+04  0.7818609E-02  0.8173391E-01
       -2   -1    0    0    0  501  0.00000000000E+00  0.00000000000E+00  0.14662631245E+04  0.14662631245E+04  0.25500000920E-02 0. -1.
        2   -1    0    0  501    0  0.00000000000E+00  0.00000000000E+00 -0.18109794797E+04  0.18109794797E+04  0.25500000920E-02 0.  1.
    10030    2    1    2    0    0  0.00000000000E+00  0.00000000000E+00 -0.34471635517E+03  0.32772426042E+04  0.32590627059E+04 0.  0.
        1    1    3    3  502    0 -0.91053102693E+03  0.12004926416E+04 -0.79640281849E+03  0.17042613599E+04  0.50400001928E-02 0.  1.
       -1    1    3    3    0  502  0.91053102693E+03 -0.12004926416E+04  0.45168646333E+03  0.15729812443E+04  0.50400001928E-02 0. -1.
</event>
<event>
 5   0  0.5121624E-06  0.2520457E+04  0.7818609E-02  0.8395734E-01
       -2   -1    0    0    0  501  0.00000000000E+00  0.00000000000E+00  0.12766691351E+04  0.12766691351E+04  0.25500000920E-02 0.  1.
        2   -1    0    0  501    0  0.00000000000E+00  0.00000000000E+00 -0.12439992633E+04  0.12439992633E+04  0.25500000920E-02 0. -1.
    10030    2    1    2    0    0  0.00000000000E+00  0.00000000000E+00  0.32669871826E+02  0.25206683984E+04  0.25204566757E+04 0.  0.
        4    1    3    3  502    0  0.53911619051E+03  0.10950034018E+04  0.33020064306E+03  0.12644021490E+04  0.12699999809E+01 0.  1.
       -4    1    3    3    0  502 -0.53911619051E+03 -0.10950034018E+04 -0.29753077123E+03  0.12562662494E+04  0.12699999809E+01 0. -1.
</event>
<event>
 5   0  0.1729500E-06  0.2201514E+04  0.7818609E-02  0.8517798E-01
       -4   -1    0    0    0  501  0.00000000000E+00  0.00000000000E+00  0.11204203231E+04  0.11204210429E+04  0.12699999809E+01 0. -1.
        4   -1    0    0  501    0  0.00000000000E+00  0.00000000000E+00 -0.10814376833E+04  0.10814384290E+04  0.12699999809E+01 0.  1.
    10030    2    1    2    0    0  0.00000000000E+00  0.00000000000E+00  0.38982639886E+02  0.22018594719E+04  0.22015143624E+04 0.  0.
        5    1    3    3  502    0  0.51931963804E+03 -0.52600747589E+03  0.83525851828E+03  0.11153724192E+04  0.46999998093E+01 0. -1.
       -5    1    3    3    0  502 -0.51931963804E+03  0.52600747589E+03 -0.79627587840E+03  0.10864870527E+04  0.46999998093E+01 0.  1.
</event>
<event>
 5   0  0.1886248E-06  0.2508991E+04  0.7818609E-02  0.8399789E-01
       -1   -1    0    0    0  501  0.00000000000E+00  0.00000000000E+00  0.89403495514E+03  0.89403495515E+03  0.50400001928E-02 0.  1.
        1   -1    0    0  501    0  0.00000000000E+00  0.00000000000E+00 -0.17602879516E+04  0.17602879516E+04  0.50400001928E-02 0. -1.
    10030    2    1    2    0    0  0.00000000000E+00  0.00000000000E+00 -0.86625299641E+03  0.26543229067E+04  0.25089910002E+04 0.  0.
        4    1    3    3  502    0  0.45244314972E+03  0.52905981585E+03 -0.15372004186E+04  0.16874820984E+04  0.12699999809E+01 0. -1.
       -4    1    3    3    0  502 -0.45244314972E+03 -0.52905981585E+03  0.67094742217E+03  0.96684080835E+03  0.12699999809E+01 0.  1.
</event>
<event>
 5   0  0.5131083E-06  0.3191592E+04  0.7818609E-02  0.8191041E-01
       -2   -1    0    0    0  501  0.00000000000E+00  0.00000000000E+00  0.12031114913E+04  0.12031114913E+04  0.25500000920E-02 0. -1.
        2   -1    0    0  501    0  0.00000000000E+00  0.00000000000E+00 -0.21166485166E+04  0.21166485166E+04  0.25500000920E-02 0.  1.
    10030    2    1    2    0    0  0.00000000000E+00  0.00000000000E+00 -0.91353702533E+03  0.33197600078E+04  0.31915915486E+04 0.  0.
        3    1    3    3  502    0  0.44347418422E+03  0.82996756092E+00  0.11377278323E+04  0.12211038742E+04  0.10100000352E+00 0. -1.
       -3    1    3    3    0  502 -0.44347418422E+03 -0.82996756092E+00 -0.20512648577E+04  0.20986561337E+04  0.10100000352E+00 0.  1.
</event>
<event>
 5   0  0.1977015E-06  0.3156746E+04  0.7818609E-02  0.8200335E-01
       -1   -1    0    0    0  501  0.00000000000E+00  0.00000000000E+00  0.99402702137E+03  0.99402702138E+03  0.50400001928E-02 0. -1.
        1   -1    0    0  501    0  0.00000000000E+00  0.00000000000E+00 -0.25062312924E+04  0.25062312924E+04  0.50400001928E-02 0.  1.
    10030    2    1    2    0    0  0.00000000000E+00  0.00000000000E+00 -0.15122042710E+04  0.35002583138E+04  0.31567461896E+04 0.  0.
        1    1    3    3  502    0 -0.34419592632E+03 -0.10860277925E+04 -0.19673736818E+04  0.22734305368E+04  0.50400001928E-02 0.  1.
       -1    1    3    3    0  502  0.34419592632E+03  0.10860277925E+04  0.45516941085E+03  0.12268277769E+04  0.50400001928E-02 0. -1.
</event>
<event>
 5   0  0.5131083E-06  0.3318446E+04  0.7818609E-02  0.8158218E-01
        2   -1    0    0  501    0  0.00000000000E+00  0.00000000000E+00  0.19856648663E+04  0.19856648663E+04  0.25500000920E-02 0.  1.
       -2   -1    0    0    0  501  0.00000000000E+00  0.00000000000E+00 -0.13864476195E+04  0.13864476195E+04  0.25500000920E-02 0. -1.
    10030    2    1    2    0    0  0.00000000000E+00  0.00000000000E+00  0.59921724674E+03  0.33721124858E+04  0.33184456163E+04 0.  0.
        3    1    3    3  502    0 -0.18676877864E+03  0.58622218193E+03  0.18654642775E+04  0.19643054762E+04  0.10100000352E+00 0.  1.
       -3    1    3    3    0  502  0.18676877864E+03 -0.58622218193E+03 -0.12662470307E+04  0.14078070096E+04  0.10100000352E+00 0. -1.
</event>
<event>
 5   0  0.1969465E-06  0.3160554E+04  0.7818609E-02  0.8199313E-01
        1   -1    0    0  501    0  0.00000000000E+00  0.00000000000E+00  0.15762819201E+04  0.15762819201E+04  0.50400001928E-02 0. -1.
       -1   -1    0    0    0  501  0.00000000000E+00  0.00000000000E+00 -0.15842821772E+04  0.15842821772E+04  0.50400001928E-02 0.  1.
    10030    2    1    2    0    0  0.00000000000E+00  0.00000000000E+00 -0.80002570503E+01  0.31605640973E+04  0.31605539719E+04 0.  0.
        2    1    3    3  502    0 -0.11806349229E+02  0.17994584707E+03  0.15659588668E+04  0.15763080506E+04  0.25500000920E-02 0. -1.
       -2    1    3    3    0  502  0.11806349229E+02 -0.17994584707E+03 -0.15739591239E+04  0.15842560467E+04  0.25500000920E-02 0.  1.
</event>
<event>
 5   0  0.5108810E-06  0.2455756E+04  0.7818609E-02  0.8418919E-01
       -2   -1    0    0    0  501  0.00000000000E+00  0.00000000000E+00  0.95288354004E+03  0.95288354004E+03  0.25500000920E-02 0. -1.
        2   -1    0    0  501    0  0.00000000000E+00  0.00000000000E+00 -0.15822333768E+04  0.15822333768E+04  0.25500000920E-02 0.  1.
    10030    2    1    2    0    0  0.00000000000E+00  0.00000000000E+00 -0.62934983673E+03  0.25351169168E+04  0.24557558032E+04 0.  0.
        1    1    3    3  502    0 -0.35552685564E+03  0.99669106825E+03  0.32826155491E+03  0.11079476879E+04  0.50400001928E-02 0. -1.
       -1    1    3    3    0  502  0.35552685564E+03 -0.99669106825E+03 -0.95761139164E+03  0.14271692289E+04  0.50400001928E-02 0.  1.
</event>
<event>
 5   0  0.5347280E-06  0.3233782E+04  0.7818609E-02  0.8179952E-01
       -2   -1    0    0    0  501  0.00000000000E+00  0.00000000000E+00  0.19141760749E+04  0.19141760749E+04  0.25500000920E-02 0.  1.
        2   -1    0    0  501    0  0.00000000000E+00  0.00000000000E+00 -0.13657760490E+04  0.13657760490E+04  0.25500000920E-02 0. -1.
    10030    2    1    2    0    0  0.00000000000E+00  0.00000000000E+00  0.54840002592E+03  0.32799521239E+04  0.32337815861E+04 0.  0.
        2    1    3    3  502    0 -0.66710003643E+03  0.33974027850E+03  0.17278016476E+04  0.18830147235E+04  0.25500000920E-02 0.  1.
       -2    1    3    3    0  502  0.66710003643E+03 -0.33974027850E+03 -0.11794016217E+04  0.13969374004E+04  0.25500000920E-02 0. -1.
</event>
<event>
 5   0  0.1729500E-06  0.3156682E+04  0.7818609E-02  0.8200352E-01
       -3   -1    0    0    0  501  0.00000000000E+00  0.00000000000E+00  0.23539208578E+04  0.23539208599E+04  0.10100000352E+00 0. -1.
        3   -1    0    0  501    0  0.00000000000E+00  0.00000000000E+00 -0.10583026048E+04  0.10583026096E+04  0.10100000352E+00 0.  1.
    10030    2    1    2    0    0  0.00000000000E+00  0.00000000000E+00  0.12956182530E+04  0.34122234695E+04  0.31566821742E+04 0.  0.
        3    1    3    3  502    0 -0.57629546269E+03  0.17012777830E+03 -0.92982637632E+03  0.11070849207E+04  0.10100000352E+00 0.  1.
       -3    1    3    3    0  502  0.57629546269E+03 -0.17012777830E+03  0.22254446293E+04  0.23051385489E+04  0.10100000352E+00 0. -1.
</event>
<event>
 5   0  0.1886248E-06  0.3232875E+04  0.7818609E-02  0.8180189E-01
        1   -1    0    0  501    0  0.00000000000E+00  0.00000000000E+00  0.16189109843E+04  0.16189109843E+04  0.50400001928E-02 0.  1.
       -1   -1    0    0    0  501  0.00000000000E+00  0.00000000000E+00 -0.16139675120E+04  0.16139675120E+04  0.50400001928E-02 0. -1.
    10030    2    1    2    0    0  0.00000000000E+00  0.00000000000E+00  0.49434722887E+01  0.32328784964E+04  0.32328747168E+04 0.  0.
        4    1    3    3  502    0  0.14589997344E+04 -0.58753412428E+03  0.37528787517E+03  0.16170093303E+04  0.12699999809E+01 0. -1.
       -4    1    3    3    0  502 -0.14589997344E+04  0.58753412428E+03 -0.37034440288E+03  0.16158691661E+04  0.12699999809E+01 0.  1.
</event>
<event>
 5   0  0.5121624E-06  0.3168944E+04  0.7818609E-02  0.8197067E-01
       -2   -1    0    0    0  501  0.00000000000E+00  0.00000000000E+00  0.12839142622E+04  0.12839142622E+04  0.25500000920E-02 0. -1.
        2   -1    0    0  501    0  0.00000000000E+00  0.00000000000E+00 -0.19553889797E+04  0.19553889797E+04  0.25500000920E-02 0.  1.
    10030    2    1    2    0    0  0.00000000000E+00  0.00000000000E+00 -0.67147471743E+03  0.32393032419E+04  0.31689441770E+04 0.  0.
        4    1    3    3  502    0 -0.93654645468E+03 -0.60387265406E+03 -0.14871427327E+04  0.18583262804E+04  0.12699999809E+01 0.  1.
       -4    1    3    3    0  502  0.93654645468E+03  0.60387265406E+03  0.81566801530E+03  0.13809769615E+04  0.12699999809E+01 0. -1.
</event>
<event>
 5   0  0.5373060E-06  0.3073540E+04  0.7818609E-02  0.8223037E-01
        2   -1    0    0  501    0  0.00000000000E+00  0.00000000000E+00  0.69333935918E+03  0.69333935918E+03  0.25500000920E-02 0.  1.
       -2   -1    0    0    0  501  0.00000000000E+00  0.00000000000E+00 -0.34062132798E+04  0.34062132798E+04  0.25500000920E-02 0. -1.
    10030    2    1    2    0    0  0.00000000000E+00  0.00000000000E+00 -0.27128739206E+04  0.40995526390E+04  0.30735398046E+04 0.  0.
        5    1    3    3  502    0 -0.12785935333E+04  0.31667913376E+03 -0.30064980362E+03  0.13511104661E+04  0.46999998093E+01 0.  1.
       -5    1    3    3    0  502  0.12785935333E+04 -0.31667913376E+03 -0.24122241170E+04  0.27484421729E+04  0.46999998093E+01 0. -1.
</event>
<event>
 5   0  0.1977015E-06  0.3192939E+04  0.7818609E-02  0.8190684E-01
        1   -1    0    0  501    0  0.00000000000E+00  0.00000000000E+00  0.14980372454E+04  0.14980372454E+04  0.50400001928E-02 0.  1.
       -1   -1    0    0    0  501  0.00000000000E+00  0.00000000000E+00 -0.17013700054E+04  0.17013700054E+04  0.50400001928E-02 0. -1.
    10030    2    1    2    0    0  0.00000000000E+00  0.00000000000E+00 -0.20333275993E+03  0.31994072508E+04  0.31929394835E+04 0.  0.
        1    1    3    3  502    0  0.13534750493E+04  0.72277678192E+03 -0.54348430546E+03  0.16277825948E+04  0.50400001928E-02 0. -1.
       -1    1    3    3    0  502 -0.13534750493E+04 -0.72277678192E+03  0.34015154553E+03  0.15716246560E+04  0.50400001928E-02 0.  1.
</event>
<event>
 5   0  0.5121624E-06  0.3178025E+04  0.7818609E-02  0.8194645E-01
        2   -1    0    0  501    0  0.00000000000E+00  0.00000000000E+00  0.18306206879E+04  0.18306206879E+04  0.25500000920E-02 0.  1.
       -2   -1    0    0    0  501  0.00000000000E+00  0.00000000000E+00 -0.13792921545E+04  0.13792921545E+04  0.25500000920E-02 0. -1.
    10030    2    1    2    0    0  0.00000000000E+00  0.00000000000E+00  0.45132853332E+03  0.32099128424E+04  0.31780250173E+04 0.  0.
        4    1    3    3  502    0  0.11717557211E+04 -0.68427089263E+03  0.10608352424E+04  0.17223853079E+04  0.12699999809E+01 0.  1.
       -4    1    3    3    0  502 -0.11717557211E+04  0.68427089263E+03 -0.60950670910E+03  0.14875275345E+04  0.12699999809E+01 0. -1.
</event>
<event>
 5   0  0.1881144E-06  0.3075770E+04  0.7818609E-02  0.8222419E-01
        1   -1    0    0  501    0  0.00000000000E+00  0.00000000000E+00  0.14357727162E+04  0.14357727162E+04  0.50400001928E-02 0. -1.
       -1   -1    0    0    0  501  0.00000000000E+00  0.00000000000E+00 -0.16472600414E+04  0.16472600414E+04  0.50400001928E-02 0.  1.
    10030    2    1    2    0    0  0.00000000000E+00  0.00000000000E+00 -0.21148732526E+03  0.30830327576E+04  0.30757704882E+04 0.  0.
        3    1    3    3  502    0 -0.10994391521E+04  0.88939957250E+03 -0.71156542183E+03  0.15830740376E+04  0.10100000352E+00 0.  1.
       -3    1    3    3    0  502  0.10994391521E+04 -0.88939957250E+03  0.50007809657E+03  0.14999587200E+04  0.10100000352E+00 0. -1.
</event>
<event>
 5   0  0.1969465E-06  0.3572527E+04  0.7818609E-02  0.8096814E-01
        1   -1    0    0  501    0  0.00000000000E+00  0.00000000000E+00  0.18154626148E+04  0.18154626148E+04  0.50400001928E-02 0. -1.
       -1   -1    0    0    0  501  0.00000000000E+00  0.00000000000E+00 -0.17575335356E+04  0.17575335356E+04  0.50400001928E-02 0.  1.
    10030    2    1    2    0    0  0.00000000000E+00  0.00000000000E+00  0.57929079205E+02  0.35729961505E+04  0.35725265168E+04 0.  0.
        2    1    3    3  502    0 -0.11948350167E+04  0.10971651030E+04  0.77694950900E+03  0.17986251749E+04  0.25500000920E-02 0. -1.
       -2    1    3    3    0  502  0.11948350167E+04 -0.10971651030E+04 -0.71902042980E+03  0.17743709755E+04  0.25500000920E-02 0.  1.
</event>
<event>
 5   0  0.1969465E-06  0.2140427E+04  0.7818609E-02  0.8543641E-01
        1   -1    0    0  501    0  0.00000000000E+00  0.00000000000E+00  0.11720715444E+04  0.11720715444E+04  0.50400001928E-02 0. -1.
       -1   -1    0    0    0  501  0.00000000000E+00  0.00000000000E+00 -0.97720695864E+03  0.97720695866E+03  0.50400001928E-02 0.  1.
    10030    2    1    2    0    0  0.00000000000E+00  0.00000000000E+00  0.19486458573E+03  0.21492785030E+04  0.21404265642E+04 0.  0.
        2    1    3    3  502    0 -0.97407289206E+03 -0.79086513445E+02 -0.34058702368E+03  0.10349261792E+04  0.25500000920E-02 0.  1.
       -2    1    3    3    0  502  0.97407289206E+03  0.79086513445E+02  0.53545160941E+03  0.11143523239E+04  0.25500000920E-02 0. -1.
</event>
<event>
 5   0  0.1977015E-06  0.3254735E+04  0.7818609E-02  0.8174509E-01
        1   -1    0    0  501    0  0.00000000000E+00  0.00000000000E+00  0.25177450044E+04  0.25177450044E+04  0.50400001928E-02 0.  1.
       -1   -1    0    0    0  501  0.00000000000E+00  0.00000000000E+00 -0.10518640464E+04  0.10518640464E+04  0.50400001928E-02 0. -1.
    10030    2    1    2    0    0  0.00000000000E+00  0.00000000000E+00  0.14658809580E+04  0.35696090508E+04  0.32547352877E+04 0.  0.
        1    1    3    3  502    0 -0.93768391742E+03 -0.75799867949E+03 -0.46573134922E+03  0.12925628870E+04  0.50400001928E-02 0. -1.
       -1    1    3    3    0  502  0.93768391742E+03  0.75799867949E+03  0.19316123072E+04  0.22770461639E+04  0.50400001928E-02 0.  1.
</event>
<event>
 5   0  0.1846850E-06  0.2477660E+04  0.7818609E-02  0.8410988E-01
        1   -1    0    0  501    0  0.00000000000E+00  0.00000000000E+00  0.10124192138E+04  0.10124192138E+04  0.50400001928E-02 0. -1.
       -1   -1    0    0    0  501  0.00000000000E+00  0.00000000000E+00 -0.15158743651E+04  0.15158743651E+04  0.50400001928E-02 0.  1.
    10030    2    1    2    0    0  0.00000000000E+00  0.00000000000E+00 -0.50345515130E+03  0.25282935789E+04  0.24776604553E+04 0.  0.
        5    1    3    3  502    0  0.60602647253E+03  0.95710188124E+03 -0.76333767150E+03  0.13660229087E+04  0.46999998093E+01 0.  1.
       -5    1    3    3    0  502 -0.60602647253E+03 -0.95710188124E+03  0.25988252020E+03  0.11622706702E+04  0.46999998093E+01 0. -1.
</event>
<event>
 5   0  0.1969465E-06  0.3153694E+04  0.7818609E-02  0.8201155E-01
       -1   -1    0    0    0  501  0.00000000000E+00  0.00000000000E+00  0.13244385899E+04  0.13244385899E+04  0.50400001928E-02 0.  1.
        1   -1    0    0  501    0  0.00000000000E+00  0.00000000000E+00 -0.18773586839E+04  0.18773586839E+04  0.50400001928E-02 0. -1.
    10030    2    1    2    0    0  0.00000000000E+00  0.00000000000E+00 -0.55292009393E+03  0.32017972738E+04  0.31536938901E+04 0.  0.
        2    1    3    3  502    0  0.11958764381E+04  0.73177000120E+03  0.45623934784E+03  0.14743683842E+04  0.25500000920E-02 0. -1.
       -2    1    3    3    0  502 -0.11958764381E+04 -0.73177000120E+03 -0.10091594418E+04  0.17274288896E+04  0.25500000920E-02 0.  1.
</event>
<event>
 5   0  0.5121624E-06  0.3178871E+04  0.7818609E-02  0.8194420E-01
        2   -1    0    0  501    0  0.00000000000E+00  0.00000000000E+00  0.28176539680E+04  0.28176539680E+04  0.25500000920E-02 0.  1.
       -2   -1    0    0    0  501  0.00000000000E+00  0.00000000000E+00 -0.89659895129E+03  0.89659895129E+03  0.25500000920E-02 0. -1.
    10030    2    1    2    0    0  0.00000000000E+00  0.00000000000E+00  0.19210550167E+04  0.37142529192E+04  0.31788712417E+04 0.  0.
        4    1    3    3  502    0  0.84676935579E+03  0.12815457249E+03 -0.60395954081E+03  0.10479554743E+04  0.12699999809E+01 0. -1.
       -4    1    3    3    0  502 -0.84676935579E+03 -0.12815457249E+03  0.25250145575E+04  0.26662974449E+04  0.12699999809E+01 0.  1.
</event>
<event>
 5   0  0.5121624E-06  0.3137512E+04  0.7818609E-02  0.8205518E-01
        2   -1    0    0  501    0  0.00000000000E+00  0.00000000000E+00  0.25242735529E+04  0.25242735529E+04  0.25500000920E-02 0. -1.
       -2   -1    0    0    0  501  0.00000000000E+00  0.00000000000E+00 -0.97493205336E+03  0.97493205336E+03  0.25500000920E-02 0.  1.
    10030    2    1    2    0    0  0.00000000000E+00  0.00000000000E+00  0.15493414995E+04  0.34992056062E+04  0.31375118793E+04 0.  0.
        4    1    3    3  502    0  0.62984486784E+03  0.76483738842E+02  0.23747928055E+04  0.24580880378E+04  0.12699999809E+01 0. -1.
       -4    1    3    3    0  502 -0.62984486784E+03 -0.76483738842E+02 -0.82545130596E+03  0.10411175684E+04  0.12699999809E+01 0.  1.
</event>
<event>
 5   0  0.5108810E-06  0.3212670E+04  0.7818609E-02  0.8185479E-01
       -2   -1    0    0    0  501  0.00000000000E+00  0.00000000000E+00  0.12522255401E+04  0.12522255401E+04  0.25500000920E-02 0.  1.
        2   -1    0    0  501    0  0.00000000000E+00  0.00000000000E+00 -0.20605812406E+04  0.20605812406E+04  0.25500000920E-02 0. -1.
    10030    2    1    2    0    0  0.00000000000E+00  0.00000000000E+00 -0.80835570046E+03  0.33128067807E+04  0.32126702021E+04 0.  0.
        1    1    3    3  502    0 -0.51567530028E+02  0.14835143581E+04  0.22882772422E+03  0.15019441362E+04  0.50400001928E-02 0.  1.
       -1    1    3    3    0  502  0.51567530028E+02 -0.14835143581E+04 -0.10371834247E+04  0.18108626445E+04  0.50400001928E-02 0. -1.
</event>
<event>
 5   0  0.1886248E-06  0.2710496E+04  0.7818609E-02  0.8331607E-01
        1   -1    0    0  501    0  0.00000000000E+00  0.00000000000E+00  0.12632058487E+04  0.12632058487E+04  0.50400001928E-02 0.  1.
       -1   -1    0    0    0  501  0.00000000000E+00  0.00000000000E+00 -0.14539967871E+04  0.14539967871E+04  0.50400001928E-02 0. -1.
    10030    2    1    2    0    0  0.00000000000E+00  0.00000000000E+00 -0.19079093837E+03  0.27172026358E+04  0.27104960768E+04 0.  0.
        4    1    3    3  502    0 -0.87142524114E+02  0.12865982717E+04  0.32248927972E+03  0.13292591473E+04  0.12699999809E+01 0.  1.
       -4    1    3    3    0  502  0.87142524114E+02 -0.12865982717E+04 -0.51328021810E+03  0.13879434886E+04  0.12699999809E+01 0. -1.
</event>
<event>
 5   0  0.1886248E-06  0.3199045E+04  0.7818609E-02  0.8189069E-01
       -1   -1    0    0    0  501  0.00000000000E+00  0.00000000000E+00  0.10802896653E+04  0.10802896653E+04  0.50400001928E-02 0. -1.
        1   -1    0    0  501    0  0.00000000000E+00  0.00000000000E+00 -0.23683202854E+04  0.23683202854E+04  0.50400001928E-02 0.  1.
    10030    2    1    2    0    0  0.00000000000E+00  0.00000000000E+00 -0.12880306201E+04  0.34486099507E+04  0.31990448127E+04 0.  0.
        4    1    3    3  502    0 -0.12242229130E+04  0.62397740275E+03  0.23863973366E+03  0.13946397654E+04  0.12699999809E+01 0. -1.
       -4    1    3    3    0  502  0.12242229130E+04 -0.62397740275E+03 -0.15266703537E+04  0.20539701852E+04  0.12699999809E+01 0.  1.
</event>
<event>
 5   0  0.5373060E-06  0.2806512E+04  0.7818609E-02  0.8301250E-01
        2   -1    0    0  501    0  0.00000000000E+00  0.00000000000E+00  0.21013032326E+04  0.21013032326E+04  0.25500000920E-02 0. -1.
       -2   -1    0    0    0  501  0.00000000000E+00  0.00000000000E+00 -0.93709793649E+03  0.93709793650E+03  0.25500000920E-02 0.  1.
    10030    2    1    2    0    0  0.00000000000E+00  0.00000000000E+00  0.11642052962E+04  0.30384011691E+04  0.28065116592E+04 0.  0.
        5    1    3    3  502    0  0.11051825421E+04 -0.21746456697E+03  0.14881415614E+04  0.18663618851E+04  0.46999998093E+01 0. -1.
       -5    1    3    3    0  502 -0.11051825421E+04  0.21746456697E+03 -0.32393626528E+03  0.11720392840E+04  0.46999998093E+01 0.  1.
</event>
<event>
 5   0  0.1846850E-06  0.3238574E+04  0.7818609E-02  0.8178703E-01
       -1   -1    0    0    0  501  0.00000000000E+00  0.00000000000E+00  0.12390365181E+04  0.12390365181E+04  0.50400001928E-02 0. -1.
        1   -1    0    0  501    0  0.00000000000E+00  0.00000000000E+00 -0.21162335985E+04  0.21162335985E+04  0.50400001928E-02 0.  1.
    10030    2    1    2    0    0  0.00000000000E+00  0.00000000000E+00 -0.87719708040E+03  0.33552701167E+04  0.32385741983E+04 0.  0.
        5    1    3    3  502    0  0.54280317696E+03 -0.52532434980E+02  0.11410287787E+04  0.12646595231E+04  0.46999998093E+01 0. -1.
       -5    1    3    3    0  502 -0.54280317696E+03  0.52532434980E+02 -0.20182258591E+04  0.20906105936E+04  0.46999998093E+01 0.  1.
</event>
<event>
 5   0  0.1846850E-06  0.3174126E+04  0.7818609E-02  0.8195684E-01
        1   -1    0    0  501    0  0.00000000000E+00  0.00000000000E+00  0.21436209402E+04  0.21436209402E+04  0.50400001928E-02 0. -1.
       -1   -1    0    0    0  501  0.00000000000E+00  0.00000000000E+00 -0.11750069929E+04  0.11750069929E+04  0.50400001928E-02 0.  1.
    10030    2    1    2    0    0  0.00000000000E+00  0.00000000000E+00  0.96861394733E+03  0.33186279331E+04  0.31741263963E+04 0.  0.
        5    1    3    3  502    0  0.24378090737E+03  0.24637683038E+03 -0.11349463087E+04  0.11866995774E+04  0.46999998093E+01 0.  1.
       -5    1    3    3    0  502 -0.24378090737E+03 -0.24637683038E+03  0.21035602560E+04  0.21319283557E+04  0.46999998093E+01 0. -1.
</event>
<event>
 5   0  0.5347280E-06  0.3155099E+04  0.7818609E-02  0.8200777E-01
       -2   -1    0    0    0  501  0.00000000000E+00  0.00000000000E+00  0.13161418666E+04  0.13161418666E+04  0.25500000920E-02 0. -1.
        2   -1    0    0  501    0  0.00000000000E+00  0.00000000000E+00 -0.18908764840E+04  0.18908764840E+04  0.25500000920E-02 0.  1.
    10030    2    1    2    0    0  0.00000000000E+00  0.00000000000E+00 -0.57473461743E+03  0.32070183506E+04  0.31550985437E+04 0.  0.
        2    1    3    3  502    0 -0.92836551712E+02  0.13864323654E+04  0.47181591627E+03  0.14674547993E+04  0.25500000920E-02 0. -1.
       -2    1    3    3    0  502  0.92836551712E+02 -0.13864323654E+04 -0.10465505337E+04  0.17395635512E+04  0.25500000920E-02 0.  1.
</event>
<event>
 5   0  0.1881144E-06  0.3220480E+04  0.7818609E-02  0.8183429E-01
        1   -1    0    0  501    0  0.00000000000E+00  0.00000000000E+00  0.18098072682E+04  0.18098072682E+04  0.50400001928E-02 0.  1.
       -1   -1    0    0    0  501  0.00000000000E+00  0.00000000000E+00 -0.14326791454E+04  0.14326791454E+04  0.50400001928E-02 0. -1.
    10030    2    1    2    0    0  0.00000000000E+00  0.00000000000E+00  0.37712812278E+03  0.32424864136E+04  0.32204801694E+04 0.  0.
        3    1    3    3  502    0 -0.13609279886E+03  0.15206097426E+04  0.70401732137E+03  0.16811947056E+04  0.10100000352E+00 0.  1.
       -3    1    3    3    0  502  0.13609279886E+03 -0.15206097426E+04 -0.32688919859E+03  0.15612917080E+04  0.10100000352E+00 0. -1.
</event>
<event>
 5   0  0.5131083E-06  0.3182366E+04  0.7818609E-02  0.8193490E-01
        2   -1    0    0  501    0  0.00000000000E+00  0.00000000000E+00  0.20331339905E+04  0.20331339905E+04  0.25500000920E-02 0.  1.
       -2   -1    0    0    0  501  0.00000000000E+00  0.00000000000E+00 -0.12453010196E+04  0.12453010196E+04  0.25500000920E-02 0. -1.
    10030    2    1    2    0    0  0.00000000000E+00  0.00000000000E+00  0.78783297090E+03  0.32784350100E+04  0.31823663090E+04 0.  0.
        3    1    3    3  502    0 -0.13546693692E+04 -0.12686324105E+03 -0.45599810542E+03  0.14349765379E+04  0.10100000352E+00 0. -1.
       -3    1    3    3    0  502  0.13546693692E+04  0.12686324105E+03  0.12438310763E+04  0.18434584722E+04  0.10100000352E+00 0.  1.
</event>
<event>
 5   0  0.5121624E-06  0.2226679E+04  0.7818609E-02  0.8507405E-01
        2   -1    0    0  501    0  0.00000000000E+00  0.00000000000E+00  0.11415896997E+04  0.11415896997E+04  0.25500000920E-02 0. -1.
       -2   -1    0    0    0  501  0.00000000000E+00  0.00000000000E+00 -0.10857886277E+04  0.10857886277E+04  0.25500000920E-02 0.  1.
    10030    2    1    2    0    0  0.00000000000E+00  0.00000000000E+00  0.55801071970E+02  0.22273783274E+04  0.22266792436E+04 0.  0.
        4    1    3    3  502    0  0.41661789584E+03 -0.57465629891E+02 -0.10032726265E+04  0.10878558479E+04  0.12699999809E+01 0.  1.
       -4    1    3    3    0  502 -0.41661789584E+03  0.57465629891E+02  0.10590736985E+04  0.11395224796E+04  0.12699999809E+01 0. -1.
</event>
<event>
 5   0  0.5121624E-06  0.3079189E+04  0.7818609E-02  0.8221473E-01
        2   -1    0    0  501    0  0.00000000000E+00  0.00000000000E+00  0.21199893200E+04  0.21199893200E+04  0.25500000920E-02 0.  1.
       -2   -1    0    0    0  501  0.00000000000E+00  0.00000000000E+00 -0.11180959927E+04  0.11180959927E+04  0.25500000920E-02 0. -1.
    10030    2    1    2    0    0  0.00000000000E+00  0.00000000000E+00  0.10018933273E+04  0.32380853127E+04  0.30791892201E+04 0.  0.
        4    1    3    3  502    0  0.42486859231E+03  0.37106806417E+03  0.20074009028E+04  0.20851534300E+04  0.12699999809E+01 0.  1.
       -4    1    3    3    0  502 -0.42486859231E+03 -0.37106806417E+03 -0.10055075755E+04  0.11529318828E+04  0.12699999809E+01 0. -1.
</event>
<event>
 5   0  0.1969465E-06  0.3217057E+04  0.7818609E-02  0.8184327E-01
       -1   -1    0    0    0  501  0.00000000000E+00  0.00000000000E+00  0.15801259139E+04  0.15801259139E+04  0.50400001928E-02 0. -1.
        1   -1    0    0  501    0  0.00000000000E+00  0.00000000000E+00 -0.16374415226E+04  0.16374415227E+04  0.50400001928E-02 0.  1.
    10030    2    1    2    0    0  0.00000000000E+00  0.00000000000E+00 -0.57315608755E+02  0.32175674365E+04  0.32170569050E+04 0.  0.
        2    1    3    3  502    0 -0.44564163374E+03  0.14638702445E+04  0.46725474929E+03  0.15999498615E+04  0.25500000920E-02 0. -1.
       -2    1    3    3    0  502  0.44564163374E+03 -0.14638702445E+04 -0.52457035805E+03  0.16176175751E+04  0.25500000920E-02 0.  1.
</event>
<event>
 5   0  0.5108810E-06  0.3442500E+04  0.7818609E-02  0.8127554E-01
       -2   -1    0    0    0  501  0.00000000000E+00  0.00000000000E+00  0.13582259974E+04  0.13582259974E+04  0.25500000920E-02 0. -1.
        2   -1    0    0  501    0  0.00000000000E+00  0.00000000000E+00 -0.21813020650E+04  0.21813020650E+04  0.25500000920E-02 0.  1.
    10030    2    1    2    0    0  0.00000000000E+00  0.00000000000E+00 -0.82307606754E+03  0.35395280624E+04  0.34424997737E+04 0.  0.
        1    1    3    3  502    0  0.18640501626E+03  0.10035625783E+04 -0.18365364371E+04  0.21011308297E+04  0.50400001928E-02 0.  1.
       -1    1    3    3    0  502 -0.18640501626E+03 -0.10035625783E+04  0.10134603695E+04  0.14383972328E+04  0.50400001928E-02 0. -1.
</event>
<event>
 5   0  0.1977015E-06  0.3308138E+04  0.7818609E-02  0.8160828E-01
       -1   -1    0    0    0  501  0.00000000000E+00  0.00000000000E+00  0.16185420974E+04  0.16185420975E+04  0.50400001928E-02 0.  1.
        1   -1    0    0  501    0  0.00000000000E+00  0.00000000000E+00 -0.16903759679E+04  0.16903759679E+04  0.50400001928E-02 0. -1.
    10030    2    1    2    0    0  0.00000000000E+00  0.00000000000E+00 -0.71833870447E+02  0.33089180653E+04  0.33081382465E+04 0.  0.
        1    1    3    3  502    0  0.13214240137E+04  0.82496340609E+03 -0.59212231006E+03  0.16665337907E+04  0.50400001928E-02 0. -1.
       -1    1    3    3    0  502 -0.13214240137E+04 -0.82496340609E+03  0.52028843962E+03  0.16423842747E+04  0.50400001928E-02 0.  1.
</event>
<event>
 5   0  0.1846850E-06  0.2545143E+04  0.7818609E-02  0.8387077E-01
       -1   -1    0    0    0  501  0.00000000000E+00  0.00000000000E+00  0.13870405414E+04  0.13870405414E+04  0.50400001928E-02 0. -1.
        1   -1    0    0  501    0  0.00000000000E+00  0.00000000000E+00 -0.11675497099E+04  0.11675497099E+04  0.50400001928E-02 0.  1.
    10030    2    1    2    0    0  0.00000000000E+00  0.00000000000E+00  0.21949083154E+03  0.25545902513E+04  0.25451434394E+04 0.  0.
        5    1    3    3  502    0  0.74014121718E+03 -0.10208753163E+04  0.28190833311E+03  0.12920873930E+04  0.46999998093E+01 0. -1.
       -5    1    3    3    0  502 -0.74014121718E+03  0.10208753163E+04 -0.62417501568E+02  0.12625028583E+04  0.46999998093E+01 0.  1.
</event>
<event>
 5   0  0.5108810E-06  0.3251158E+04  0.7818609E-02  0.8175436E-01
        2   -1    0    0  501    0  0.00000000000E+00  0.00000000000E+00  0.19195420332E+04  0.19195420332E+04  0.25500000920E-02 0. -1.
       -2   -1    0    0    0  501  0.00000000000E+00  0.00000000000E+00 -0.13766341660E+04  0.13766341660E+04  0.25500000920E-02 0.  1.
    10030    2    1    2    0    0  0.00000000000E+00  0.00000000000E+00  0.54290786721E+03  0.32961761992E+04  0.32511580374E+04 0.  0.
        1    1    3    3  502    0  0.92307441063E+03  0.57058914757E+02 -0.10839136699E+04  0.14248476870E+04  0.50400001928E-02 0.  1.
       -1    1    3    3    0  502 -0.92307441063E+03 -0.57058914757E+02  0.16268215371E+04  0.18713285123E+04  0.50400001928E-02 0. -1.
</event>
<event>
 5   0  0.1846850E-06  0.3287389E+04  0.7818609E-02  0.8166112E-01
       -1   -1    0    0    0  501  0.00000000000E+00  0.00000000000E+00  0.22625767111E+04  0.22625767111E+04  0.50400001928E-02 0. -1.
        1   -1    0    0  501    0  0.00000000000E+00  0.00000000000E+00 -0.11940953000E+04  0.11940953000E+04  0.50400001928E-02 0.  1.
    10030    2    1    2    0    0  0.00000000000E+00  0.00000000000E+00  0.10684814111E+04  0.34566720111E+04  0.32873893695E+04 0.  0.
        5    1    3    3  502    0  0.36327707274E+02  0.11482028130E+04  0.17703711553E+04  0.21104325432E+04  0.46999998093E+01 0. -1.
       -5    1    3    3    0  502 -0.36327707274E+02 -0.11482028130E+04 -0.70188974416E+03  0.13462394679E+04  0.46999998093E+01 0.  1.
</event>
<event>
 5   0  0.1881144E-06  0.3124619E+04  0.7818609E-02  0.8209014E-01
       -1   -1    0    0    0  501  0.00000000000E+00  0.00000000000E+00  0.13543723009E+04  0.13543723010E+04  0.50400001928E-02 0. -1.
        1   -1    0    0  501    0  0.00000000000E+00  0.00000000000E+00 -0.18021709665E+04  0.18021709665E+04  0.50400001928E-02 0.  1.
    10030    2    1    2    0    0  0.00000000000E+00  0.00000000000E+00 -0.44779866552E+03  0.31565432674E+04  0.31246186574E+04 0.  0.
        3    1    3    3  502    0 -0.59553428942E+03 -0.10585196763E+04  0.76883391074E+03  0.14374388987E+04  0.10100000352E+00 0. -1.
       -3    1    3    3    0  502  0.59553428942E+03  0.10585196763E+04 -0.12166325763E+04  0.17191043688E+04  0.10100000352E+00 0.  1.
</event>
<event>
 5   0  0.1886248E-06  0.3101615E+04  0.7818609E-02  0.8215295E-01
        1   -1    0    0  501    0  0.00000000000E+00  0.00000000000E+00  0.22175735434E+04  0.22175735435E+04  0.50400001928E-02 0. -1.
       -1   -1    0    0    0  501  0.00000000000E+00  0.00000000000E+00 -0.10845206598E+04  0.10845206598E+04  0.50400001928E-02 0.  1.
    10030    2    1    2    0    0  0.00000000000E+00  0.00000000000E+00  0.11330528836E+04  0.33020942033E+04  0.31016152712E+04 0.  0.
        4    1    3    3  502    0 -0.10676970139E+04 -0.11133871122E+04  0.73618473070E+03  0.17092622226E+04  0.12699999809E+01 0. -1.
       -4    1    3    3    0  502  0.10676970139E+04  0.11133871122E+04  0.39686815291E+03  0.15928319807E+04  0.12699999809E+01 0.  1.
</event>
<event>
 5   0  0.5373060E-06  0.3107370E+04  0.7818609E-02  0.8213718E-01
       -2   -1    0    0    0  501  0.00000000000E+00  0.00000000000E+00  0.23881677255E+04  0.23881677255E+04  0.25500000920E-02 0.  1.
        2   -1    0    0  501    0  0.00000000000E+00  0.00000000000E+00 -0.10107906136E+04  0.10107906136E+04  0.25500000920E-02 0. -1.
    10030    2    1    2    0    0  0.00000000000E+00  0.00000000000E+00  0.13773771119E+04  0.33989583391E+04  0.31073702841E+04 0.  0.
        5    1    3    3  502    0  0.87183523149E+03  0.59304596364E+03  0.19368694916E+04  0.22052858552E+04  0.46999998093E+01 0.  1.
       -5    1    3    3    0  502 -0.87183523149E+03 -0.59304596364E+03 -0.55949237963E+03  0.11936724839E+04  0.46999998093E+01 0. -1.
</event>
<event>
 5   0  0.5108810E-06  0.2564547E+04  0.7818609E-02  0.8380344E-01
        2   -1    0    0  501    0  0.00000000000E+00  0.00000000000E+00  0.12285948051E+04  0.12285948051E+04  0.25500000920E-02 0. -1.
       -2   -1    0    0    0  501  0.00000000000E+00  0.00000000000E+00 -0.13382978139E+04  0.13382978139E+04  0.25500000920E-02 0.  1.
    10030    2    1    2    0    0  0.00000000000E+00  0.00000000000E+00 -0.10970300884E+03  0.25668926190E+04  0.25645473221E+04 0.  0.
        1    1    3    3  502    0 -0.89803255448E+03 -0.60160762649E+03  0.63558476149E+03  0.12539386724E+04  0.50400001928E-02 0. -1.
       -1    1    3    3    0  502  0.89803255448E+03  0.60160762649E+03 -0.74528777033E+03  0.13129539466E+04  0.50400001928E-02 0.  1.
</event>
<event>
 5   0  0.1969465E-06  0.3156718E+04  0.7818609E-02  0.8200342E-01
        1   -1    0    0  501    0  0.00000000000E+00  0.00000000000E+00  0.12021153010E+04  0.12021153011E+04  0.50400001928E-02 0.  1.
       -1   -1    0    0    0  501  0.00000000000E+00  0.00000000000E+00 -0.20723607525E+04  0.20723607525E+04  0.50400001928E-02 0. -1.
    10030    2    1    2    0    0  0.00000000000E+00  0.00000000000E+00 -0.87024545149E+03  0.32744760536E+04  0.31567176433E+04 0.  0.
        2    1    3    3  502    0 -0.52708185537E+03  0.14038935576E+04  0.75673611036E+02  0.15014855640E+04  0.25500000920E-02 0. -1.
       -2    1    3    3    0  502  0.52708185537E+03 -0.14038935576E+04 -0.94591906252E+03  0.17729904896E+04  0.25500000920E-02 0.  1.
</event>
<event>
 5   0  0.1846850E-06  0.3235310E+04  0.7818609E-02  0.8179554E-01
       -1   -1    0    0    0  501  0.00000000000E+00  0.00000000000E+00  0.20665654556E+04  0.20665654556E+04  0.50400001928E-02 0.  1.
        1   -1    0    0  501    0  0.00000000000E+00  0.00000000000E+00 -0.12662596680E+04  0.12662596680E+04  0.50400001928E-02 0. -1.
    10030    2    1    2    0    0  0.00000000000E+00  0.00000000000E+00  0.80030578757E+03  0.33328251236E+04  0.32353104876E+04 0.  0.
        5    1    3    3  502    0  0.43925415916E+03  0.50882998380E+03  0.19158726606E+04  0.20303798438E+04  0.46999998093E+01 0.  1.
       -5    1    3    3    0  502 -0.43925415916E+03 -0.50882998380E+03 -0.11155668730E+04  0.13024452798E+04  0.46999998093E+01 0. -1.
</event>
<event>
 5   0  0.5131083E-06  0.3065337E+04  0.7818609E-02  0.8225316E-01
       -2   -1    0    0    0  501  0.00000000000E+00  0.00000000000E+00  0.11144637749E+04  0.11144637749E+04  0.25500000920E-02 0.  1.
        2   -1    0    0  501    0  0.00000000000E+00  0.00000000000E+00 -0.21078055359E+04  0.21078055359E+04  0.25500000920E-02 0. -1.
    10030    2    1    2    0    0  0.00000000000E+00  0.00000000000E+00 -0.99334176102E+03  0.32222693108E+04  0.30653371196E+04 0.  0.
        3    1    3    3  502    0 -0.99422518520E+02 -0.91731817956E+03  0.78979490981E+03  0.12145507357E+04  0.10100000352E+00 0.  1.
       -3    1    3    3    0  502  0.99422518520E+02  0.91731817956E+03 -0.17831366708E+04  0.20077185751E+04  0.10100000352E+00 0. -1.
</event>
<event>
 5   0  0.5108810E-06  0.3068478E+04  0.7818609E-02  0.8224442E-01
        2   -1    0    0  501    0  0.00000000000E+00  0.00000000000E+00  0.11201001131E+04  0.11201001131E+04  0.25500000920E-02 0.  1.
       -2   -1    0    0    0  501  0.00000000000E+00  0.00000000000E+00 -0.21014989279E+04  0.21014989279E+04  0.25500000920E-02 0. -1.
    10030    2    1    2    0    0  0.00000000000E+00  0.00000000000E+00 -0.98139881482E+03  0.32215990410E+04  0.30684779203E+04 0.  0.
        1    1    3    3  502    0  0.26082951085E+02  0.15155505019E+04 -0.24154841518E+03  0.15349004141E+04  0.50400001928E-02 0. -1.
       -1    1    3    3    0  502 -0.26082951085E+02 -0.15155505019E+04 -0.73985039963E+03  0.16866986269E+04  0.50400001928E-02 0.  1.
</event>
<event>
 5   0  0.1729500E-06  0.2353487E+04  0.7818609E-02  0.8457126E-01
        3   -1    0    0  501    0  0.00000000000E+00  0.00000000000E+00  0.16011981667E+04  0.16011981699E+04  0.10100000352E+00 0. -1.
       -3   -1    0    0    0  501  0.00000000000E+00  0.00000000000E+00 -0.86480565230E+03  0.86480565820E+03  0.10100000352E+00 0.  1.
    10030    2    1    2    0    0  0.00000000000E+00  0.00000000000E+00  0.73639251437E+03  0.24660038281E+04  0.23534869757E+04 0.  0.
        4    1    3    3  502    0 -0.93712849262E+03 -0.53171033628E+03  0.86388605417E+03  0.13810236858E+04  0.12699999809E+01 0. -1.
       -4    1    3    3    0  502  0.93712849262E+03  0.53171033628E+03 -0.12749353980E+03  0.10849801422E+04  0.12699999809E+01 0.  1.
</event>
<event>
 5   0  0.1969465E-06  0.3152599E+04  0.7818609E-02  0.8201449E-01
       -1   -1    0    0    0  501  0.00000000000E+00  0.00000000000E+00  0.14822929611E+04  0.14822929611E+04  0.50400001928E-02 0.  1.
        1   -1    0    0  501    0  0.00000000000E+00  0.00000000000E+00 -0.16762675185E+04  0.16762675185E+04  0.50400001928E-02 0. -1.
    10030    2    1    2    0    0  0.00000000000E+00  0.00000000000E+00 -0.19397455743E+03  0.31585604796E+04  0.31525986383E+04 0.  0.
        2    1    3    3  502    0 -0.65336659026E+03  0.83037146151E+03 -0.12689492999E+04  0.16512531578E+04  0.25500000920E-02 0. -1.
       -2    1    3    3    0  502  0.65336659026E+03 -0.83037146151E+03  0.10749747425E+04  0.15073073218E+04  0.25500000920E-02 0.  1.
</event>
<event>
 5   0  0.1846850E-06  0.3044582E+04  0.7818609E-02  0.8231114E-01
       -1   -1    0    0    0  501  0.00000000000E+00  0.00000000000E+00  0.10299243506E+04  0.10299243506E+04  0.50400001928E-02 0. -1.
        1   -1    0    0  501    0  0.00000000000E+00  0.00000000000E+00 -0.22500387448E+04  0.22500387448E+04  0.50400001928E-02 0.  1.
    10030    2    1    2    0    0  0.00000000000E+00  0.00000000000E+00 -0.12201143942E+04  0.32799630953E+04  0.30445818714E+04 0.  0.
        5    1    3    3  502    0  0.11165873470E+03  0.14207775796E+04 -0.11864651671E+04  0.18543997105E+04  0.46999998093E+01 0.  1.
       -5    1    3    3    0  502 -0.11165873470E+03 -0.14207775796E+04 -0.33649227079E+02  0.14255633848E+04  0.46999998093E+01 0. -1.
</event>
<event>
 5   0  0.1969465E-06  0.3278119E+04  0.7818609E-02  0.8168485E-01
        1   -1    0    0  501    0  0.00000000000E+00  0.00000000000E+00  0.19664951798E+04  0.19664951798E+04  0.50400001928E-02 0.  1.
       -1   -1    0    0    0  501  0.00000000000E+00  0.00000000000E+00 -0.13661442737E+04  0.13661442737E+04  0.50400001928E-02 0. -1.
    10030    2    1    2    0    0  0.00000000000E+00  0.00000000000E+00  0.60035090610E+03  0.33326394534E+04  0.32781190515E+04 0.  0.
        2    1    3    3  502    0 -0.34588886965E+03 -0.77819750062E+03  0.17239264365E+04  0.19227981742E+04  0.25500000920E-02 0.  1.
       -2    1    3    3    0  502  0.34588886965E+03  0.77819750062E+03 -0.11235755304E+04  0.14098412792E+04  0.25500000920E-02 0. -1.
</event>
<event>
 5   0  0.1846850E-06  0.3212502E+04  0.7818609E-02  0.8185523E-01
        1   -1    0    0  501    0  0.00000000000E+00  0.00000000000E+00  0.22167802922E+04  0.22167802922E+04  0.50400001928E-02 0. -1.
       -1   -1    0    0    0  501  0.00000000000E+00  0.00000000000E+00 -0.11638695041E+04  0.11638695041E+04  0.50400001928E-02 0.  1.
    10030    2    1    2    0    0  0.00000000000E+00  0.00000000000E+00  0.10529107881E+04  0.33806497963E+04  0.32125024385E+04 0.  0.
        5    1    3    3  502    0 -0.13764264714E+04 -0.42640700883E+02 -0.34365533903E+03  0.14193270034E+04  0.46999998093E+01 0.  1.
       -5    1    3    3    0  502  0.13764264714E+04  0.42640700883E+02  0.13965661272E+04  0.19613227929E+04  0.46999998093E+01 0. -1.
</event>
<event>
 5   0  0.1969465E-06  0.3118145E+04  0.7818609E-02  0.8210776E-01
       -1   -1    0    0    0  501  0.00000000000E+00  0.00000000000E+00  0.21675786208E+04  0.21675786208E+04  0.50400001928E-02 0. -1.
        1   -1    0    0  501    0  0.00000000000E+00  0.00000000000E+00 -0.11213926787E+04  0.11213926787E+04  0.50400001928E-02 0.  1.
    10030    2    1    2    0    0  0.00000000000E+00  0.00000000000E+00  0.10461859422E+04  0.32889712995E+04  0.31181448304E+04 0.  0.
        2    1    3    3  502    0 -0.13787786131E+04 -0.40096799933E+03  0.11637398490E+04  0.18482684428E+04  0.25500000920E-02 0. -1.
       -2    1    3    3    0  502  0.13787786131E+04  0.40096799933E+03 -0.11755390678E+03  0.14407028567E+04  0.25500000920E-02 0.  1.
</event>
<event>
 5   0  0.5131083E-06  0.3178834E+04  0.7818609E-02  0.8194429E-01
       -2   -1    0    0    0  501  0.00000000000E+00  0.00000000000E+00  0.12459411529E+04  0.12459411529E+04  0.25500000920E-02 0. -1.
        2   -1    0    0  501    0  0.00000000000E+00  0.00000000000E+00 -0.20275812819E+04  0.20275812819E+04  0.25500000920E-02 0.  1.
    10030    2    1    2    0    0  0.00000000000E+00  0.00000000000E+00 -0.78164012898E+03  0.32735224348E+04  0.31788343524E+04 0.  0.
        3    1    3    3  502    0 -0.80672225793E+03 -0.78195777149E+03  0.76694097954E+03  0.13603151231E+04  0.10100000352E+00 0. -1.
       -3    1    3    3    0  502  0.80672225793E+03  0.78195777149E+03 -0.15485811085E+04  0.19132073117E+04  0.10100000352E+00 0.  1.
</event>
<event>
 5   0  0.5347280E-06  0.2825677E+04  0.7818609E-02  0.8295341E-01
        2   -1    0    0  501    0  0.00000000000E+00  0.00000000000E+00  0.25668794614E+04  0.25668794614E+04  0.25500000920E-02 0. -1.
       -2   -1    0    0    0  501  0.00000000000E+00  0.00000000000E+00 -0.77764147693E+03  0.77764147694E+03  0.25500000920E-02 0.  1.
    10030    2    1    2    0    0  0.00000000000E+00  0.00000000000E+00  0.17892379845E+04  0.33445209383E+04  0.28256765105E+04 0.  0.
        2    1    3    3  502    0 -0.10350171762E+03  0.13094513104E+04  0.27875479186E+03  0.13427879854E+04  0.25500000920E-02 0.  1.
       -2    1    3    3    0  502  0.10350171762E+03 -0.13094513104E+04  0.15104831926E+04  0.20017329529E+04  0.25500000920E-02 0. -1.
</event>
<event>
 5   0  0.5108810E-06  0.3217361E+04  0.7818609E-02  0.8184247E-01
        2   -1    0    0  501    0  0.00000000000E+00  0.00000000000E+00  0.17500593796E+04  0.17500593796E+04  0.25500000920E-02 0.  1.
       -2   -1    0    0    0  501  0.00000000000E+00  0.00000000000E+00 -0.14787231062E+04  0.14787231062E+04  0.25500000920E-02 0. -1.
    10030    2    1    2    0    0  0.00000000000E+00  0.00000000000E+00  0.27133627343E+03  0.32287824858E+04  0.32173611808E+04 0.  0.
        1    1    3    3  502    0 -0.10603632420E+04  0.89879167726E+03  0.94826880650E+03  0.16826795338E+04  0.50400001928E-02 0.  1.
       -1    1    3    3    0  502  0.10603632420E+04 -0.89879167726E+03 -0.67693253307E+03  0.15461029521E+04  0.50400001928E-02 0. -1.
</event>
<event>
 5   0  0.1969465E-06  0.2533507E+04  0.7818609E-02  0.8391145E-01
        1   -1    0    0  501    0  0.00000000000E+00  0.00000000000E+00  0.14975944764E+04  0.14975944764E+04  0.50400001928E-02 0. -1.
       -1   -1    0    0    0  501  0.00000000000E+00  0.00000000000E+00 -0.10714947481E+04  0.10714947481E+04  0.50400001928E-02 0.  1.
    10030    2    1    2    0    0  0.00000000000E+00  0.00000000000E+00  0.42609972832E+03  0.25690892245E+04  0.25335071472E+04 0.  0.
        2    1    3    3  502    0 -0.52009963013E+02  0.10320020481E+04 -0.52999739381E+03  0.11613055158E+04  0.25500000920E-02 0. -1.
       -2    1    3    3    0  502  0.52009963013E+02 -0.10320020481E+04  0.95609712213E+03  0.14077837087E+04  0.25500000920E-02 0.  1.
</event>
<event>
 5   0  0.5121624E-06  0.3201608E+04  0.7818609E-02  0.8188393E-01
        2   -1    0    0  501    0  0.00000000000E+00  0.00000000000E+00  0.18849589422E+04  0.18849589422E+04  0.25500000920E-02 0. -1.
       -2   -1    0    0    0  501  0.00000000000E+00  0.00000000000E+00 -0.13594854030E+04  0.13594854030E+04  0.25500000920E-02 0.  1.
    10030    2    1    2    0    0  0.00000000000E+00  0.00000000000E+00  0.52547353919E+03  0.32444443453E+04  0.32016084503E+04 0.  0.
        4    1    3    3  502    0  0.64606107426E+03  0.83465398820E+03  0.14823887144E+04  0.18197582546E+04  0.12699999809E+01 0. -1.
       -4    1    3    3    0  502 -0.64606107426E+03 -0.83465398820E+03 -0.95691517517E+03  0.14246860907E+04  0.12699999809E+01 0.  1.
</event>
<event>
 5   0  0.1977015E-06  0.2351128E+04  0.7818609E-02  0.8458030E-01
        1   -1    0    0  501    0  0.00000000000E+00  0.00000000000E+00  0.42121056898E+03  0.42121056901E+03  0.50400001928E-02 0.  1.
       -1   -1    0    0    0  501  0.00000000000E+00  0.00000000000E+00 -0.32809032484E+04  0.32809032484E+04  0.50400001928E-02 0. -1.
    10030    2    1    2    0    0  0.00000000000E+00  0.00000000000E+00 -0.28596926794E+04  0.37021138174E+04  0.23511283454E+04 0.  0.
        1    1    3    3  502    0 -0.83856443557E+03 -0.13264237554E+03 -0.27101970649E+04  0.28400620492E+04  0.50400001928E-02 0. -1.
       -1    1    3    3    0  502  0.83856443557E+03  0.13264237554E+03 -0.14949561452E+03  0.86205176827E+03  0.50400001928E-02 0.  1.
</event>
<event>
 5   0  0.1886248E-06  0.3124858E+04  0.7818609E-02  0.8208949E-01
        1   -1    0    0  501    0  0.00000000000E+00  0.00000000000E+00  0.86124240476E+03  0.86124240478E+03  0.50400001928E-02 0.  1.
       -1   -1    0    0    0  501  0.00000000000E+00  0.00000000000E+00 -0.28344925105E+04  0.28344925105E+04  0.50400001928E-02 0. -1.
    10030    2    1    2    0    0  0.00000000000E+00  0.00000000000E+00 -0.19732501058E+04  0.36957349153E+04  0.31248584903E+04 0.  0.
        4    1    3    3  502    0  0.35210718370E+03  0.10717343407E+04  0.29187709008E+03  0.11652415262E+04  0.12699999809E+01 0.  1.
       -4    1    3    3    0  502 -0.35210718370E+03 -0.10717343407E+04 -0.22651271958E+04  0.25304933891E+04  0.12699999809E+01 0. -1.
</event>
<event>
 5   0  0.5131083E-06  0.3241537E+04  0.7818609E-02  0.8177933E-01
        2   -1    0    0  501    0  0.00000000000E+00  0.00000000000E+00  0.16699123546E+04  0.16699123546E+04  0.25500000920E-02 0. -1.
       -2   -1    0    0    0  501  0.00000000000E+00  0.00000000000E+00 -0.15730707295E+04  0.15730707295E+04  0.25500000920E-02 0.  1.
    10030    2    1    2    0    0  0.00000000000E+00  0.00000000000E+00  0.96841625132E+02  0.32429830842E+04  0.32415368244E+04 0.  0.
        3    1    3    3  502    0  0.61261558277E+03  0.12979379872E+04 -0.70487553242E+03  0.15989966846E+04  0.10100000352E+00 0.  1.
       -3    1    3    3    0  502 -0.61261558277E+03 -0.12979379872E+04  0.80171715755E+03  0.16439863995E+04  0.10100000352E+00 0. -1.
</event>
<event>
 5   0  0.1846850E-06  0.3179333E+04  0.7818609E-02  0.8194297E-01
        1   -1    0    0  501    0  0.00000000000E+00  0.00000000000E+00  0.19190672917E+04  0.19190672917E+04  0.50400001928E-02 0. -1.
       -1   -1    0    0    0  501  0.00000000000E+00  0.00000000000E+00 -0.13168063607E+04  0.13168063607E+04  0.50400001928E-02 0.  1.
    10030    2    1    2    0    0  0.00000000000E+00  0.00000000000E+00  0.60226093107E+03  0.32358736524E+04  0.31793332737E+04 0.  0.
        5    1    3    3  502    0  0.33061072056E+03  0.15534497682E+04  0.23279255738E+03  0.16052177720E+04  0.46999998093E+01 0.  1.
       -5    1    3    3    0  502 -0.33061072056E+03 -0.15534497682E+04  0.36946837369E+03  0.16306558803E+04  0.46999998093E+01 0. -1.
</event>
<event>
 5   0  0.5131083E-06  0.3220624E+04  0.7818609E-02  0.8183391E-01
        2   -1    0    0  501    0  0.00000000000E+00  0.00000000000E+00  0.21335420471E+04  0.21335420471E+04  0.25500000920E-02 0.  1.
       -2   -1    0    0    0  501  0.00000000000E+00  0.00000000000E+00 -0.12153992510E+04  0.12153992510E+04  0.25500000920E-02 0. -1.
    10030    2    1    2    0    0  0.00000000000E+00  0.00000000000E+00  0.91814279608E+03  0.33489412980E+04  0.32206244152E+04 0.  0.
        3    1    3    3  502    0  0.14643886318E+04  0.23523240558E+03  0.11112249741E+04  0.18532644989E+04  0.10100000352E+00 0.  1.
       -3    1    3    3    0  502 -0.14643886318E+04 -0.23523240558E+03 -0.19308217805E+03  0.14956767991E+04  0.10100000352E+00 0. -1.
</event>
<event>
 5   0  0.1886248E-06  0.3168330E+04  0.7818609E-02  0.8197232E-01
       -1   -1    0    0    0  501  0.00000000000E+00  0.00000000000E+00  0.11256719874E+04  0.11256719874E+04  0.50400001928E-02 0.  1.
        1   -1    0    0  501    0  0.00000000000E+00  0.00000000000E+00 -0.22294043869E+04  0.22294043869E+04  0.50400001928E-02 0. -1.
    10030    2    1    2    0    0  0.00000000000E+00  0.00000000000E+00 -0.11037323995E+04  0.33550763743E+04  0.31683295705E+04 0.  0.
        4    1    3    3  502    0 -0.86489994096E+03 -0.85305791904E+03 -0.16285640321E+04  0.20317436208E+04  0.12699999809E+01 0. -1.
       -4    1    3    3    0  502  0.86489994096E+03  0.85305791904E+03  0.52483163254E+03  0.13233327535E+04  0.12699999809E+01 0.  1.
</event>
<event>
 5   0  0.1846850E-06  0.3143482E+04  0.7818609E-02  0.8203905E-01
        1   -1    0    0  501    0  0.00000000000E+00  0.00000000000E+00  0.29008042241E+04  0.29008042241E+04  0.50400001928E-02 0. -1.
       -1   -1    0    0    0  501  0.00000000000E+00  0.00000000000E+00 -0.85161540931E+03  0.85161540932E+03  0.50400001928E-02 0.  1.
    10030    2    1    2    0    0  0.00000000000E+00  0.00000000000E+00  0.20491888148E+04  0.37524196334E+04  0.31434818763E+04 0.  0.
        5    1    3    3  502    0  0.63627042602E+03  0.13782401276E+04  0.15108943543E+04  0.21417772397E+04  0.46999998093E+01 0.  1.
       -5    1    3    3    0  502 -0.63627042602E+03 -0.13782401276E+04  0.53829446049E+03  0.16106423938E+04  0.46999998093E+01 0. -1.
</event>
<event>
 5   0  0.5131083E-06  0.3137666E+04  0.7818609E-02  0.8205476E-01
       -2   -1    0    0    0  501  0.00000000000E+00  0.00000000000E+00  0.23989116401E+04  0.23989116401E+04  0.25500000920E-02 0.  1.
        2   -1    0    0  501    0  0.00000000000E+00  0.00000000000E+00 -0.10259807290E+04  0.10259807290E+04  0.25500000920E-02 0. -1.
    10030    2    1    2    0    0  0.00000000000E+00  0.00000000000E+00  0.13729309111E+04  0.34248923691E+04  0.31376660838E+04 0.  0.
        3    1    3    3  502    0  0.26376056950E+03  0.89631429287E+03 -0.68917472638E+03  0.11609955914E+04  0.10100000352E+00 0. -1.
       -3    1    3    3    0  502 -0.26376056950E+03 -0.89631429287E+03  0.20621056375E+04  0.22638967776E+04  0.10100000352E+00 0.  1.
</event>
<event>
 5   0  0.1977015E-06  0.3201807E+04  0.7818609E-02  0.8188340E-01
        1   -1    0    0  501    0  0.00000000000E+00  0.00000000000E+00  0.15733811627E+04  0.15733811627E+04  0.50400001928E-02 0.  1.
       -1   -1    0    0    0  501  0.00000000000E+00  0.00000000000E+00 -0.16289077428E+04  0.16289077428E+04  0.50400001928E-02 0. -1.
    10030    2    1    2    0    0  0.00000000000E+00  0.00000000000E+00 -0.55526580169E+02  0.32022889055E+04  0.32018074635E+04 0.  0.
        1    1    3    3  502    0 -0.86966958675E+02 -0.20399690397E+03 -0.16134715796E+04  0.16286400851E+04  0.50400001928E-02 0. -1.
       -1    1    3    3    0  502  0.86966958675E+02  0.20399690397E+03  0.15579449994E+04  0.15736488204E+04  0.50400001928E-02 0.  1.
</event>
<event>
 5   0  0.5373060E-06  0.3158711E+04  0.7818609E-02  0.8199807E-01
        2   -1    0    0  501    0  0.00000000000E+00  0.00000000000E+00  0.91920513918E+03  0.91920513919E+03  0.25500000920E-02 0.  1.
       -2   -1    0    0    0  501  0.00000000000E+00  0.00000000000E+00 -0.27136093819E+04  0.27136093819E+04  0.25500000920E-02 0. -1.
    10030    2    1    2    0    0  0.00000000000E+00  0.00000000000E+00 -0.17944042427E+04  0.36328145211E+04  0.31587109330E+04 0.  0.
        5    1    3    3  502    0 -0.62665705472E+03 -0.56401722125E+03 -0.24331384009E+04  0.25750726316E+04  0.46999998093E+01 0. -1.
       -5    1    3    3    0  502  0.62665705472E+03  0.56401722125E+03  0.63873415814E+03  0.10577418895E+04  0.46999998093E+01 0.  1.
</event>
<event>
 5   0  0.1969465E-06  0.3175367E+04  0.7818609E-02  0.8195353E-01
       -1   -1    0    0    0  501  0.00000000000E+00  0.00000000000E+00  0.16401159746E+04  0.16401159746E+04  0.50400001928E-02 0.  1.
        1   -1    0    0  501    0  0.00000000000E+00  0.00000000000E+00 -0.15369275150E+04  0.15369275150E+04  0.50400001928E-02 0. -1.
    10030    2    1    2    0    0  0.00000000000E+00  0.00000000000E+00  0.10318845962E+03  0.31770434896E+04  0.31753672979E+04 0.  0.
        2    1    3    3  502    0  0.56849707757E+03 -0.97646220727E+03 -0.10643743053E+04  0.15522757587E+04  0.25500000920E-02 0. -1.
       -2    1    3    3    0  502 -0.56849707757E+03  0.97646220727E+03  0.11675627649E+04  0.16247677309E+04  0.25500000920E-02 0.  1.
</event>
<event>
 5   0  0.1881144E-06  0.3126850E+04  0.7818609E-02  0.8208408E-01
        1   -1    0    0  501    0  0.00000000000E+00  0.00000000000E+00  0.20586083171E+04  0.20586083171E+04  0.50400001928E-02 0. -1.
       -1   -1    0    0    0  501  0.00000000000E+00  0.00000000000E+00 -0.11873543183E+04  0.11873543183E+04  0.50400001928E-02 0.  1.
    10030    2    1    2    0    0  0.00000000000E+00  0.00000000000E+00  0.87125399880E+03  0.32459626353E+04  0.31268498364E+04 0.  0.
        3    1    3    3  502    0  0.11238123025E+04  0.67801739357E+03 -0.44622463151E+03  0.13862821174E+04  0.10100000352E+00 0.  1.
       -3    1    3    3    0  502 -0.11238123025E+04 -0.67801739357E+03  0.13174786303E+04  0.18596805179E+04  0.10100000352E+00 0. -1.
</event>
<event>
 5   0  0.1846850E-06  0.2881243E+04  0.7818609E-02  0.8278480E-01
       -1   -1    0    0    0  501  0.00000000000E+00  0.00000000000E+00  0.16419980902E+04  0.16419980902E+04  0.50400001928E-02 0.  1.
        1   -1    0    0  501    0  0.00000000000E+00  0.00000000000E+00 -0.12639416765E+04  0.12639416766E+04  0.50400001928E-02 0. -1.
    10030    2    1    2    0    0  0.00000000000E+00  0.00000000000E+00  0.37805641361E+03  0.29059397667E+04  0.28812426618E+04 0.  0.
        5    1    3    3  502    0  0.12111001469E+04  0.63436417670E+03  0.64699778119E+03  0.15125507242E+04  0.46999998093E+01 0.  1.
       -5    1    3    3    0  502 -0.12111001469E+04 -0.63436417670E+03 -0.26894136758E+03  0.13933890425E+04  0.46999998093E+01 0. -1.
</event>
<event>
 5   0  0.5347280E-06  0.3190547E+04  0.7818609E-02  0.8191318E-01
        2   -1    0    0  501    0  0.00000000000E+00  0.00000000000E+00  0.20775638186E+04  0.20775638186E+04  0.25500000920E-02 0.  1.
       -2   -1    0    0    0  501  0.00000000000E+00  0.00000000000E+00 -0.12249431741E+04  0.12249431741E+04  0.25500000920E-02 0. -1.
    10030    2    1    2    0    0  0.00000000000E+00  0.00000000000E+00  0.85262064457E+03  0.33025069927E+04  0.31905470492E+04 0.  0.
        2    1    3    3  502    0  0.59864641729E+03 -0.63691475831E+03  0.18076275957E+04  0.20078733693E+04  0.25500000920E-02 0.  1.
       -2    1    3    3    0  502 -0.59864641729E+03  0.63691475831E+03 -0.95500695112E+03  0.12946336235E+04  0.25500000920E-02 0. -1.
</event>
<event>
 5   0  0.5108810E-06  0.3136620E+04  0.7818609E-02  0.8205759E-01
       -2   -1    0    0    0  501  0.00000000000E+00  0.00000000000E+00  0.11361810338E+04  0.11361810338E+04  0.25500000920E-02 0.  1.
        2   -1    0    0  501    0  0.00000000000E+00  0.00000000000E+00 -0.21647918950E+04  0.21647918950E+04  0.25500000920E-02 0. -1.
    10030    2    1    2    0    0  0.00000000000E+00  0.00000000000E+00 -0.10286108612E+04  0.33009729287E+04  0.31366195135E+04 0.  0.
        1    1    3    3  502    0 -0.64851097132E+03 -0.12673794471E+04  0.17802414768E+03  0.14347507588E+04  0.50400001928E-02 0.  1.
       -1    1    3    3    0  502  0.64851097132E+03  0.12673794471E+04 -0.12066350089E+04  0.18662221699E+04  0.50400001928E-02 0. -1.
</event>
<event>
 5   0  0.1977015E-06  0.3246186E+04  0.7818609E-02  0.8176725E-01
        1   -1    0    0  501    0  0.00000000000E+00  0.00000000000E+00  0.15517199138E+04  0.15517199138E+04  0.50400001928E-02 0. -1.
       -1   -1    0    0    0  501  0.00000000000E+00  0.00000000000E+00 -0.16977488458E+04  0.16977488458E+04  0.50400001928E-02 0.  1.
    10030    2    1    2    0    0  0.00000000000E+00  0.00000000000E+00 -0.14602893199E+03  0.32494687595E+04  0.32461858804E+04 0.  0.
        1    1    3    3  502    0  0.36387751908E+03 -0.14773348830E+04  0.49280533574E+03  0.15993068199E+04  0.50400001928E-02 0. -1.
       -1    1    3    3    0  502 -0.36387751908E+03  0.14773348830E+04 -0.63883426774E+03  0.16501619396E+04  0.50400001928E-02 0.  1.
</event>
<event>
 5   0  0.1881144E-06  0.3167623E+04  0.7818609E-02  0.8197421E-01
       -1   -1    0    0    0  501  0.00000000000E+00  0.00000000000E+00  0.15029311159E+04  0.15029311159E+04  0.50400001928E-02 0. -1.
        1   -1    0    0  501    0  0.00000000000E+00  0.00000000000E+00 -0.16690443294E+04  0.16690443295E+04  0.50400001928E-02 0.  1.
    10030    2    1    2    0    0  0.00000000000E+00  0.00000000000E+00 -0.16611321355E+03  0.31719754454E+04  0.31676228668E+04 0.  0.
        3    1    3    3  502    0  0.42309436193E+03  0.12136549988E+04  0.84368324330E+03  0.15374552743E+04  0.10100000352E+00 0. -1.
       -3    1    3    3    0  502 -0.42309436193E+03 -0.12136549988E+04 -0.10097964569E+04  0.16345201711E+04  0.10100000352E+00 0.  1.
</event>
<event>
 5   0  0.1881144E-06  0.3213276E+04  0.7818609E-02  0.8185320E-01
        1   -1    0    0  501    0  0.00000000000E+00  0.00000000000E+00  0.93258519073E+03  0.93258519075E+03  0.50400001928E-02 0.  1.
       -1   -1    0    0    0  501  0.00000000000E+00  0.00000000000E+00 -0.27678824599E+04  0.27678824599E+04  0.50400001928E-02 0. -1.
    10030    2    1    2    0    0  0.00000000000E+00  0.00000000000E+00 -0.18352972691E+04  0.37004676506E+04  0.32132763291E+04 0.  0.
        3    1    3    3  502    0 -0.31698912769E+02 -0.12990109695E+04  0.17052510605E+03  0.13105392561E+04  0.10100000352E+00 0.  1.
       -3    1    3    3    0  502  0.31698912769E+02  0.12990109695E+04 -0.20058223752E+04  0.23899283945E+04  0.10100000352E+00 0. -1.
</event>
<event>
 5   0  0.1969465E-06  0.3408130E+04  0.7818609E-02  0.8135914E-01
       -1   -1    0    0    0  501  0.00000000000E+00  0.00000000000E+00  0.12811930373E+04  0.12811930373E+04  0.50400001928E-02 0. -1.
        1   -1    0    0  501    0  0.00000000000E+00  0.00000000000E+00 -0.22665107278E+04  0.22665107278E+04  0.50400001928E-02 0.  1.
    10030    2    1    2    0    0  0.00000000000E+00  0.00000000000E+00 -0.98531769050E+03  0.35477037652E+04  0.34081301404E+04 0.  0.
        2    1    3    3  502    0 -0.51023565256E+03  0.15072080926E+04  0.14208456263E+03  0.15975621047E+04  0.25500000920E-02 0. -1.
       -2    1    3    3    0  502  0.51023565256E+03 -0.15072080926E+04 -0.11274022531E+04  0.19501416604E+04  0.25500000920E-02 0.  1.
</event>
<event>
 5   0  0.5108810E-06  0.3167856E+04  0.7818609E-02  0.8197358E-01
       -2   -1    0    0    0  501  0.00000000000E+00  0.00000000000E+00  0.14467873413E+04  0.14467873413E+04  0.25500000920E-02 0.  1.
        2   -1    0    0  501    0  0.00000000000E+00  0.00000000000E+00 -0.17340683272E+04  0.17340683272E+04  0.25500000920E-02 0. -1.
    10030    2    1    2    0    0  0.00000000000E+00  0.00000000000E+00 -0.28728098585E+03  0.31808556685E+04  0.31678561235E+04 0.  0.
        1    1    3    3  502    0 -0.88022557632E+03  0.11453017075E+04  0.50888395518E+03  0.15314946772E+04  0.50400001928E-02 0.  1.
       -1    1    3    3    0  502  0.88022557632E+03 -0.11453017075E+04 -0.79616494103E+03  0.16493609913E+04  0.50400001928E-02 0. -1.
</event>
<event>
 5   0  0.5131083E-06  0.3171479E+04  0.7818609E-02  0.8196390E-01
        2   -1    0    0  501    0  0.00000000000E+00  0.00000000000E+00  0.12631192354E+04  0.12631192354E+04  0.25500000920E-02 0.  1.
       -2   -1    0    0    0  501  0.00000000000E+00  0.00000000000E+00 -0.19907620822E+04  0.19907620822E+04  0.25500000920E-02 0. -1.
    10030    2    1    2    0    0  0.00000000000E+00  0.00000000000E+00 -0.72764284680E+03  0.32538813177E+04  0.31714790740E+04 0.  0.
        3    1    3    3  502    0  0.50461983631E+03  0.16532523693E+03 -0.18968313049E+04  0.19697569958E+04  0.10100000352E+00 0. -1.
       -3    1    3    3    0  502 -0.50461983631E+03 -0.16532523693E+03  0.11691884581E+04  0.12841243218E+04  0.10100000352E+00 0.  1.
</event>
<event>
 5   0  0.1881144E-06  0.3075079E+04  0.7818609E-02  0.8222611E-01
       -1   -1    0    0    0  501  0.00000000000E+00  0.00000000000E+00  0.13642814065E+04  0.13642814065E+04  0.50400001928E-02 0.  1.
        1   -1    0    0  501    0  0.00000000000E+00  0.00000000000E+00 -0.17328011819E+04  0.17328011820E+04  0.50400001928E-02 0. -1.
    10030    2    1    2    0    0  0.00000000000E+00  0.00000000000E+00 -0.36851977541E+03  0.30970825885E+04  0.30750794681E+04 0.  0.
        3    1    3    3  502    0  0.11172297884E+04 -0.15609518049E+03 -0.12364650265E+04  0.16737424764E+04  0.10100000352E+00 0.  1.
       -3    1    3    3    0  502 -0.11172297884E+04  0.15609518049E+03  0.86794525106E+03  0.14233401121E+04  0.10100000352E+00 0. -1.
</event>
<event>
 5   0  0.5121624E-06  0.3237948E+04  0.7818609E-02  0.8178867E-01
       -2   -1    0    0    0  501  0.00000000000E+00  0.00000000000E+00  0.26123593438E+04  0.26123593438E+04  0.25500000920E-02 0.  1.
        2   -1    0    0  501    0  0.00000000000E+00  0.00000000000E+00 -0.10033367907E+04  0.10033367907E+04  0.25500000920E-02 0. -1.
    10030    2    1    2    0    0  0.00000000000E+00  0.00000000000E+00  0.16090225531E+04  0.36156961346E+04  0.32379476465E+04 0.  0.
        4    1    3    3  502    0 -0.88881270684E+03 -0.97153475581E+02  0.23116537515E+04  0.24785422138E+04  0.12699999809E+01 0.  1.
       -4    1    3    3    0  502  0.88881270684E+03  0.97153475581E+02 -0.70263119842E+03  0.11371539208E+04  0.12699999809E+01 0. -1.
</event>
<event>
 5   0  0.1881144E-06  0.2170842E+04  0.7818609E-02  0.8530663E-01
       -1   -1    0    0    0  501  0.00000000000E+00  0.00000000000E+00  0.12182712899E+04  0.12182712899E+04  0.50400001928E-02 0.  1.
        1   -1    0    0  501    0  0.00000000000E+00  0.00000000000E+00 -0.96705749431E+03  0.96705749432E+03  0.50400001928E-02 0. -1.
    10030    2    1    2    0    0  0.00000000000E+00  0.00000000000E+00  0.25121379557E+03  0.21853287842E+04  0.21708416626E+04 0.  0.
        3    1    3    3  502    0 -0.81060206746E+03  0.29080428220E+03 -0.53948022272E+03  0.10162095075E+04  0.10100000352E+00 0. -1.
       -3    1    3    3    0  502  0.81060206746E+03 -0.29080428220E+03  0.79069401829E+03  0.11691192767E+04  0.10100000352E+00 0.  1.
</event>
<event>
 5   0  0.1881144E-06  0.3229855E+04  0.7818609E-02  0.8180977E-01
        1   -1    0    0  501    0  0.00000000000E+00  0.00000000000E+00  0.16518704555E+04  0.16518704555E+04  0.50400001928E-02 0. -1.
       -1   -1    0    0    0  501  0.00000000000E+00  0.00000000000E+00 -0.15788103484E+04  0.15788103484E+04  0.50400001928E-02 0.  1.
    10030    2    1    2    0    0  0.00000000000E+00  0.00000000000E+00  0.73060107106E+02  0.32306808039E+04  0.32298545907E+04 0.  0.
        3    1    3    3  502    0  0.43887943245E+03 -0.10640864479E+04 -0.10964975554E+04  0.15897175925E+04  0.10100000352E+00 0.  1.
       -3    1    3    3    0  502 -0.43887943245E+03  0.10640864479E+04  0.11695576625E+04  0.16409632113E+04  0.10100000352E+00 0. -1.
</event>
<event>
 5   0  0.5131083E-06  0.3219343E+04  0.7818609E-02  0.8183727E-01
       -2   -1    0    0    0  501  0.00000000000E+00  0.00000000000E+00  0.12304116031E+04  0.12304116031E+04  0.25500000920E-02 0. -1.
        2   -1    0    0  501    0  0.00000000000E+00  0.00000000000E+00 -0.21058342353E+04  0.21058342353E+04  0.25500000920E-02 0.  1.
    10030    2    1    2    0    0  0.00000000000E+00  0.00000000000E+00 -0.87542263219E+03  0.33362458385E+04  0.32193433352E+04 0.  0.
        3    1    3    3  502    0 -0.12438361506E+04 -0.93415338543E+03 -0.88332153622E+01  0.15555863695E+04  0.10100000352E+00 0.  1.
       -3    1    3    3    0  502  0.12438361506E+04  0.93415338543E+03 -0.86658941682E+03  0.17806594690E+04  0.10100000352E+00 0. -1.
</event>
<event>
 5   0  0.1886248E-06  0.3448918E+04  0.7818609E-02  0.8126004E-01
       -1   -1    0    0    0  501  0.00000000000E+00  0.00000000000E+00  0.13954311012E+04  0.13954311012E+04  0.50400001928E-02 0. -1.
        1   -1    0    0  501    0  0.00000000000E+00  0.00000000000E+00 -0.21310679157E+04  0.21310679157E+04  0.50400001928E-02 0.  1.
    10030    2    1    2    0    0  0.00000000000E+00  0.00000000000E+00 -0.73563681448E+03  0.35264990169E+04  0.34489177713E+04 0.  0.
        4    1    3    3  502    0 -0.45117088468E+03  0.10577829879E+04 -0.16817522509E+04  0.20373395061E+04  0.12699999809E+01 0.  1.
       -4    1    3    3    0  502  0.45117088468E+03 -0.10577829879E+04  0.94611543642E+03  0.14891595108E+04  0.12699999809E+01 0. -1.
</event>
<event>
 5   0  0.1881144E-06  0.3221216E+04  0.7818609E-02  0.8183237E-01
        1   -1    0    0  501    0  0.00000000000E+00  0.00000000000E+00  0.21816978600E+04  0.21816978600E+04  0.50400001928E-02 0.  1.
       -1   -1    0    0    0  501  0.00000000000E+00  0.00000000000E+00 -0.11890086255E+04  0.11890086255E+04  0.50400001928E-02 0. -1.
    10030    2    1    2    0    0  0.00000000000E+00  0.00000000000E+00  0.99268923452E+03  0.33707064856E+04  0.32212156549E+04 0.  0.
        3    1    3    3  502    0  0.13490421603E+04 -0.84688413351E+03  0.74601787279E+03  0.17588832146E+04  0.10100000352E+00 0.  1.
       -3    1    3    3    0  502 -0.13490421603E+04  0.84688413351E+03  0.24667136173E+03  0.16118232710E+04  0.10100000352E+00 0. -1.
</event>
<event>
 5   0  0.5347280E-06  0.3005246E+04  0.7818609E-02  0.8242234E-01
       -2   -1    0    0    0  501  0.00000000000E+00  0.00000000000E+00  0.25395594312E+04  0.25395594312E+04  0.25500000920E-02 0. -1.
        2   -1    0    0  501    0  0.00000000000E+00  0.00000000000E+00 -0.88908197340E+03  0.88908197341E+03  0.25500000920E-02 0.  1.
    10030    2    1    2    0    0  0.00000000000E+00  0.00000000000E+00  0.16504774578E+04  0.34286414046E+04  0.30052464196E+04 0.  0.
        2    1    3    3  502    0  0.11907849224E+04  0.53281574888E+03 -0.25478625340E+02  0.13048028641E+04  0.25500000920E-02 0.  1.
       -2    1    3    3    0  502 -0.11907849224E+04 -0.53281574888E+03  0.16759560831E+04  0.21238385406E+04  0.25500000920E-02 0. -1.
</event>
<event>
 5   0  0.1886248E-06  0.3197347E+04  0.7818609E-02  0.8189518E-01
       -1   -1    0    0    0  501  0.00000000000E+00  0.00000000000E+00  0.96074140827E+03  0.96074140829E+03  0.50400001928E-02 0.  1.
        1   -1    0    0  501    0  0.00000000000E+00  0.00000000000E+00 -0.26601917753E+04  0.26601917753E+04  0.50400001928E-02 0. -1.
    10030    2    1    2    0    0  0.00000000000E+00  0.00000000000E+00 -0.16994503670E+04  0.36209331836E+04  0.31973466453E+04 0.  0.
        4    1    3    3  502    0  0.55229924692E+02 -0.14340855469E+04 -0.52067140471E+02  0.14360934164E+04  0.12699999809E+01 0.  1.
       -4    1    3    3    0  502 -0.55229924692E+02  0.14340855469E+04 -0.16473832266E+04  0.21848397673E+04  0.12699999809E+01 0. -1.
</event>
<event>
 5   0  0.5108810E-06  0.3138483E+04  0.7818609E-02  0.8205255E-01
       -2   -1    0    0    0  501  0.00000000000E+00  0.00000000000E+00  0.15823216521E+04  0.15823216521E+04  0.25500000920E-02 0.  1.
        2   -1    0    0  501    0  0.00000000000E+00  0.00000000000E+00 -0.15562698291E+04  0.15562698291E+04  0.25500000920E-02 0. -1.
    10030    2    1    2    0    0  0.00000000000E+00  0.00000000000E+00  0.26051823083E+02  0.31385914812E+04  0.31384833580E+04 0.  0.
        1    1    3    3  502    0  0.72963696792E+03 -0.13207571002E+04 -0.41797620354E+03  0.15657182152E+04  0.50400001928E-02 0. -1.
       -1    1    3    3    0  502 -0.72963696792E+03  0.13207571002E+04  0.44402802663E+03  0.15728732660E+04  0.50400001928E-02 0.  1.
</event>
<event>
 5   0  0.1969465E-06  0.3168164E+04  0.7818609E-02  0.8197276E-01
       -1   -1    0    0    0  501  0.00000000000E+00  0.00000000000E+00  0.16709215826E+04  0.16709215826E+04  0.50400001928E-02 0.  1.
        1   -1    0    0  501    0  0.00000000000E+00  0.00000000000E+00 -0.15017552987E+04  0.15017552987E+04  0.50400001928E-02 0. -1.
    10030    2    1    2    0    0  0.00000000000E+00  0.00000000000E+00  0.16916628385E+03  0.31726768813E+04  0.31681637208E+04 0.  0.
        2    1    3    3  502    0  0.38482202663E+03 -0.78162794968E+03 -0.12402849019E+04  0.15156968304E+04  0.25500000920E-02 0. -1.
       -2    1    3    3    0  502 -0.38482202663E+03  0.78162794968E+03  0.14094511858E+04  0.16569800509E+04  0.25500000920E-02 0.  1.
</event>
<event>
 5   0  0.1886248E-06  0.3200677E+04  0.7818609E-02  0.8188638E-01
        1   -1    0    0  501    0  0.00000000000E+00  0.00000000000E+00  0.13380226732E+04  0.13380226732E+04  0.50400001928E-02 0.  1.
       -1   -1    0    0    0  501  0.00000000000E+00  0.00000000000E+00 -0.19140808291E+04  0.19140808291E+04  0.50400001928E-02 0. -1.
    10030    2    1    2    0    0  0.00000000000E+00  0.00000000000E+00 -0.57605815593E+03  0.32521035024E+04  0.32006771457E+04 0.  0.
        4    1    3    3  502    0  0.93377625339E+02  0.10571921995E+03  0.13316938034E+04  0.13391437314E+04  0.12699999809E+01 0.  1.
       -4    1    3    3    0  502 -0.93377625339E+02 -0.10571921995E+03 -0.19077519593E+04  0.19129597710E+04  0.12699999809E+01 0. -1.
</event>
<event>
 5   0  0.5131083E-06  0.3137898E+04  0.7818609E-02  0.8205413E-01
        2   -1    0    0  501    0  0.00000000000E+00  0.00000000000E+00  0.21551506502E+04  0.21551506502E+04  0.25500000920E-02 0. -1.
       -2   -1    0    0    0  501  0.00000000000E+00  0.00000000000E+00 -0.11421942669E+04  0.11421942669E+04  0.25500000920E-02 0.  1.
    10030    2    1    2    0    0  0.00000000000E+00  0.00000000000E+00  0.10129563834E+04  0.32973449171E+04  0.31378978421E+04 0.  0.
        3    1    3    3  502    0 -0.54523328105E+03 -0.30209427258E+03  0.20194525189E+04  0.21134636894E+04  0.10100000352E+00 0. -1.
       -3    1    3    3    0  502  0.54523328105E+03  0.30209427258E+03 -0.10064961355E+04  0.11838812277E+04  0.10100000352E+00 0.  1.
</event>
<event>
 5   0  0.1881144E-06  0.3106696E+04  0.7818609E-02  0.8213903E-01
       -1   -1    0    0    0  501  0.00000000000E+00  0.00000000000E+00  0.14273639478E+04  0.14273639479E+04  0.50400001928E-02 0.  1.
        1   -1    0    0  501    0  0.00000000000E+00  0.00000000000E+00 -0.16904514301E+04  0.16904514301E+04  0.50400001928E-02 0. -1.
    10030    2    1    2    0    0  0.00000000000E+00  0.00000000000E+00 -0.26308748228E+03  0.31178153780E+04  0.31066956252E+04 0.  0.
        3    1    3    3  502    0 -0.14196348865E+04  0.54615576467E+03 -0.44769524800E+03  0.15855851839E+04  0.10100000352E+00 0. -1.
       -3    1    3    3    0  502  0.14196348865E+04 -0.54615576467E+03  0.18460776572E+03  0.15322301941E+04  0.10100000352E+00 0.  1.
</event>
<event>
 5   0  0.5347280E-06  0.3201133E+04  0.7818609E-02  0.8188518E-01
       -2   -1    0    0    0  501  0.00000000000E+00  0.00000000000E+00  0.10374069688E+04  0.10374069688E+04  0.25500000920E-02 0. -1.
        2   -1    0    0  501    0  0.00000000000E+00  0.00000000000E+00 -0.24694390604E+04  0.24694390604E+04  0.25500000920E-02 0.  1.
    10030    2    1    2    0    0  0.00000000000E+00  0.00000000000E+00 -0.14320320916E+04  0.35068460291E+04  0.32011331057E+04 0.  0.
        2    1    3    3  502    0 -0.63952324115E+03 -0.32768962491E+03 -0.22827910615E+04  0.23932207371E+04  0.25500000920E-02 0.  1.
       -2    1    3    3    0  502  0.63952324115E+03  0.32768962491E+03  0.85075896984E+03  0.11136252920E+04  0.25500000920E-02 0. -1.
</event>
<event>
 5   0  0.5131083E-06  0.1989962E+04  0.7818609E-02  0.8611328E-01
       -2   -1    0    0    0  501  0.00000000000E+00  0.00000000000E+00  0.71676929968E+03  0.71676929969E+03  0.25500000920E-02 0. -1.
        2   -1    0    0  501    0  0.00000000000E+00  0.00000000000E+00 -0.13811792453E+04  0.13811792453E+04  0.25500000920E-02 0.  1.
    10030    2    1    2    0    0  0.00000000000E+00  0.00000000000E+00 -0.66440994561E+03  0.20979485450E+04  0.19899616885E+04 0.  0.
        3    1    3    3  502    0 -0.93174764950E+03  0.41938833212E+02  0.33116490675E+02  0.93327876877E+03  0.10100000352E+00 0. -1.
       -3    1    3    3    0  502  0.93174764950E+03 -0.41938833212E+02 -0.69752643629E+03  0.11646697762E+04  0.10100000352E+00 0.  1.
</event>
<event>
 5   0  0.5347280E-06  0.1966560E+04  0.7818609E-02  0.8622417E-01
        2   -1    0    0  501    0  0.00000000000E+00  0.00000000000E+00  0.15609071591E+04  0.15609071591E+04  0.25500000920E-02 0.  1.
       -2   -1    0    0    0  501  0.00000000000E+00  0.00000000000E+00 -0.61940849020E+03  0.61940849020E+03  0.25500000920E-02 0. -1.
    10030    2    1    2    0    0  0.00000000000E+00  0.00000000000E+00  0.94149866886E+03  0.21803156493E+04  0.19665595813E+04 0.  0.
        2    1    3    3  502    0  0.25433891172E+03 -0.86611831730E+03  0.90298406862E+03  0.12768043898E+04  0.25500000920E-02 0. -1.
       -2    1    3    3    0  502 -0.25433891172E+03  0.86611831730E+03  0.38514600239E+02  0.90351125948E+03  0.25500000920E-02 0.  1.
</event>
<event>
 5   0  0.5347280E-06  0.3154186E+04  0.7818609E-02  0.8201022E-01
       -2   -1    0    0    0  501  0.00000000000E+00  0.00000000000E+00  0.18842467172E+04  0.18842467172E+04  0.25500000920E-02 0. -1.
        2   -1    0    0  501    0  0.00000000000E+00  0.00000000000E+00 -0.13200085922E+04  0.13200085922E+04  0.25500000920E-02 0.  1.
    10030    2    1    2    0    0  0.00000000000E+00  0.00000000000E+00  0.56423812504E+03  0.32042553094E+04  0.31541856993E+04 0.  0.
        2    1    3    3  502    0  0.58344676215E+03 -0.12712159566E+04 -0.45802148707E+03  0.14717961188E+04  0.25500000920E-02 0.  1.
       -2    1    3    3    0  502 -0.58344676215E+03  0.12712159566E+04  0.10222596121E+04  0.17324591906E+04  0.25500000920E-02 0. -1.
</event>
<event>
 5   0  0.1846850E-06  0.3157652E+04  0.7818609E-02  0.8200092E-01
        1   -1    0    0  501    0  0.00000000000E+00  0.00000000000E+00  0.20628807261E+04  0.20628807261E+04  0.50400001928E-02 0. -1.
       -1   -1    0    0    0  501  0.00000000000E+00  0.00000000000E+00 -0.12083545002E+04  0.12083545002E+04  0.50400001928E-02 0.  1.
    10030    2    1    2    0    0  0.00000000000E+00  0.00000000000E+00  0.85452622590E+03  0.32712352263E+04  0.31576517913E+04 0.  0.
        5    1    3    3  502    0  0.89385416102E+03  0.40871239622E+03  0.17072838311E+04  0.19699901659E+04  0.46999998093E+01 0. -1.
       -5    1    3    3    0  502 -0.89385416102E+03 -0.40871239622E+03 -0.85275760516E+03  0.13012450604E+04  0.46999998093E+01 0.  1.
</event>
<event>
 5   0  0.1886248E-06  0.3206221E+04  0.7818609E-02  0.8187176E-01
       -1   -1    0    0    0  501  0.00000000000E+00  0.00000000000E+00  0.15703828872E+04  0.15703828872E+04  0.50400001928E-02 0.  1.
        1   -1    0    0  501    0  0.00000000000E+00  0.00000000000E+00 -0.16365204479E+04  0.16365204479E+04  0.50400001928E-02 0. -1.
    10030    2    1    2    0    0  0.00000000000E+00  0.00000000000E+00 -0.66137560690E+02  0.32069033350E+04  0.32062212686E+04 0.  0.
        4    1    3    3  502    0  0.13955214857E+04 -0.11906527952E+03 -0.81317401347E+03  0.16195401653E+04  0.12699999809E+01 0. -1.
       -4    1    3    3    0  502 -0.13955214857E+04  0.11906527952E+03  0.74703645278E+03  0.15873631697E+04  0.12699999809E+01 0.  1.
</event>
<event>
 5   0  0.5347280E-06  0.3273206E+04  0.7818609E-02  0.8169747E-01
        2   -1    0    0  501    0  0.00000000000E+00  0.00000000000E+00  0.16635887893E+04  0.16635887893E+04  0.25500000920E-02 0. -1.
       -2   -1    0    0    0  501  0.00000000000E+00  0.00000000000E+00 -0.16100551310E+04  0.16100551310E+04  0.25500000920E-02 0.  1.
    10030    2    1    2    0    0  0.00000000000E+00  0.00000000000E+00  0.53533658306E+02  0.32736439203E+04  0.32732061750E+04 0.  0.
        2    1    3    3  502    0  0.10170079232E+04  0.12820697186E+04  0.52747281551E+01  0.16364705014E+04  0.25500000920E-02 0.  1.
       -2    1    3    3    0  502 -0.10170079232E+04 -0.12820697186E+04  0.48258930150E+02  0.16371734189E+04  0.25500000920E-02 0. -1.
</event>
<event>
 5   0  0.5347280E-06  0.2597156E+04  0.7818609E-02  0.8369168E-01
        2   -1    0    0  501    0  0.00000000000E+00  0.00000000000E+00  0.19337605036E+04  0.19337605036E+04  0.25500000920E-02 0. -1.
       -2   -1    0    0    0  501  0.00000000000E+00  0.00000000000E+00 -0.87203419532E+03  0.87203419532E+03  0.25500000920E-02 0.  1.
    10030    2    1    2    0    0  0.00000000000E+00  0.00000000000E+00  0.10617263082E+04  0.28057946989E+04  0.25971563562E+04 0.  0.
        2    1    3    3  502    0  0.59849391654E+03 -0.67916258289E+03  0.15367042965E+04  0.17835125111E+04  0.25500000920E-02 0. -1.
       -2    1    3    3    0  502 -0.59849391654E+03  0.67916258289E+03 -0.47497798831E+03  0.10222821878E+04  0.25500000920E-02 0.  1.
</event>
<event>
 5   0  0.5131083E-06  0.2249396E+04  0.7818609E-02  0.8498145E-01
       -2   -1    0    0    0  501  0.00000000000E+00  0.00000000000E+00  0.83220669462E+03  0.83220669463E+03  0.25500000920E-02 0.  1.
        2   -1    0    0  501    0  0.00000000000E+00  0.00000000000E+00 -0.15199894543E+04  0.15199894543E+04  0.25500000920E-02 0. -1.
    10030    2    1    2    0    0  0.00000000000E+00  0.00000000000E+00 -0.68778275966E+03  0.23521961489E+04  0.22493958297E+04 0.  0.
        3    1    3    3  502    0  0.81569112572E+03 -0.53249900740E+03 -0.93175614103E+03  0.13479898820E+04  0.10100000352E+00 0. -1.
       -3    1    3    3    0  502 -0.81569112572E+03  0.53249900740E+03  0.24397338137E+03  0.10042062669E+04  0.10100000352E+00 0.  1.
</event>
<event>
 5   0  0.1729500E-06  0.3202577E+04  0.7818609E-02  0.8188137E-01
        4   -1    0    0  501    0  0.00000000000E+00  0.00000000000E+00  0.16205554890E+04  0.16205559866E+04  0.12699999809E+01 0. -1.
       -4   -1    0    0    0  501  0.00000000000E+00  0.00000000000E+00 -0.15822492268E+04  0.15822497364E+04  0.12699999809E+01 0.  1.
    10030    2    1    2    0    0  0.00000000000E+00  0.00000000000E+00  0.38306262214E+02  0.32028057230E+04  0.32025766392E+04 0.  0.
        5    1    3    3  502    0 -0.91782249624E+03 -0.43582330463E+03 -0.12185791704E+04  0.15865993105E+04  0.46999998093E+01 0.  1.
       -5    1    3    3    0  502  0.91782249624E+03  0.43582330463E+03  0.12568854326E+04  0.16162064126E+04  0.46999998093E+01 0. -1.
</event>
<event>
 5   0  0.1977015E-06  0.3237427E+04  0.7818609E-02  0.8179002E-01
       -1   -1    0    0    0  501  0.00000000000E+00  0.00000000000E+00  0.13642471719E+04  0.13642471720E+04  0.50400001928E-02 0.  1.
        1   -1    0    0  501    0  0.00000000000E+00  0.00000000000E+00 -0.19206444029E+04  0.19206444029E+04  0.50400001928E-02 0. -1.
    10030    2    1    2    0    0  0.00000000000E+00  0.00000000000E+00 -0.55639723097E+03  0.32848915749E+04  0.32374271853E+04 0.  0.
        1    1    3    3  502    0 -0.99121319662E+03 -0.55900799082E+03 -0.14462671476E+04  0.18402940518E+04  0.50400001928E-02 0. -1.
       -1    1    3    3    0  502  0.99121319662E+03  0.55900799082E+03  0.88986991665E+03  0.14445975230E+04  0.50400001928E-02 0.  1.
</event>
<event>
 5   0  0.5347280E-06  0.3156022E+04  0.7818609E-02  0.8200529E-01
        2   -1    0    0  501    0  0.00000000000E+00  0.00000000000E+00  0.18721236848E+04  0.18721236848E+04  0.25500000920E-02 0.  1.
       -2   -1    0    0    0  501  0.00000000000E+00  0.00000000000E+00 -0.13301036600E+04  0.13301036600E+04  0.25500000920E-02 0. -1.
    10030    2    1    2    0    0  0.00000000000E+00  0.00000000000E+00  0.54202002471E+03  0.32022273448E+04  0.31560219043E+04 0.  0.
        2    1    3    3  502    0 -0.52484909452E+03  0.58844433231E+02 -0.12377672052E+04  0.13457328463E+04  0.25500000920E-02 0. -1.
       -2    1    3    3    0  502  0.52484909452E+03 -0.58844433231E+02  0.17797872299E+04  0.18564944985E+04  0.25500000920E-02 0.  1.
</event>
<event>
 5   0  0.5131083E-06  0.2014840E+04  0.7818609E-02  0.8599714E-01
       -2   -1    0    0    0  501  0.00000000000E+00  0.00000000000E+00  0.53430055116E+03  0.53430055117E+03  0.25500000920E-02 0. -1.
        2   -1    0    0  501    0  0.00000000000E+00  0.00000000000E+00 -0.18994843685E+04  0.18994843685E+04  0.25500000920E-02 0.  1.
    10030    2    1    2    0    0  0.00000000000E+00  0.00000000000E+00 -0.13651838174E+04  0.24337849197E+04  0.20148404850E+04 0.  0.
        3    1    3    3  502    0  0.67290875354E+03 -0.11017551810E+03 -0.15783761260E+04  0.17193650109E+04  0.10100000352E+00 0.  1.
       -3    1    3    3    0  502 -0.67290875354E+03  0.11017551810E+03  0.21319230866E+03  0.71441990877E+03  0.10100000352E+00 0. -1.
</event>
<event>
 5   0  0.1729500E-06  0.1981371E+04  0.7818609E-02  0.8615380E-01
        4   -1    0    0  501    0  0.00000000000E+00  0.00000000000E+00  0.66654201589E+03  0.66654322579E+03  0.12699999809E+01 0. -1.
       -4   -1    0    0    0  501  0.00000000000E+00  0.00000000000E+00 -0.14724593226E+04  0.14724598703E+04  0.12699999809E+01 0.  1.
    10030    2    1    2    0    0  0.00000000000E+00  0.00000000000E+00 -0.80591730676E+03  0.21390030961E+04  0.19813711262E+04 0.  0.
        3    1    3    3  502    0 -0.43055822048E+02 -0.50615715689E+03  0.51524187454E+03  0.72354894151E+03  0.10100000352E+00 0. -1.
       -3    1    3    3    0  502  0.43055822048E+02  0.50615715689E+03 -0.13211591813E+04  0.14154541546E+04  0.10100000352E+00 0.  1.
</event>
<event>
 5   0  0.1846850E-06  0.3194274E+04  0.7818609E-02  0.8190331E-01
       -1   -1    0    0    0  501  0.00000000000E+00  0.00000000000E+00  0.13978706931E+04  0.13978706932E+04  0.50400001928E-02 0.  1.
        1   -1    0    0  501    0  0.00000000000E+00  0.00000000000E+00 -0.18248084934E+04  0.18248084934E+04  0.50400001928E-02 0. -1.
    10030    2    1    2    0    0  0.00000000000E+00  0.00000000000E+00 -0.42693780023E+03  0.32226791865E+04  0.31942738227E+04 0.  0.
        5    1    3    3  502    0 -0.93003467448E+02  0.12791559311E+03  0.13899443139E+04  0.13989207731E+04  0.46999998093E+01 0.  1.
       -5    1    3    3    0  502  0.93003467448E+02 -0.12791559311E+03 -0.18168821141E+04  0.18237584134E+04  0.46999998093E+01 0. -1.
</event>
<event>
 5   0  0.5121624E-06  0.3120035E+04  0.7818609E-02  0.8210261E-01
        2   -1    0    0  501    0  0.00000000000E+00  0.00000000000E+00  0.16486562613E+04  0.16486562613E+04  0.25500000920E-02 0.  1.
       -2   -1    0    0    0  501  0.00000000000E+00  0.00000000000E+00 -0.14761443829E+04  0.14761443829E+04  0.25500000920E-02 0. -1.
    10030    2    1    2    0    0  0.00000000000E+00  0.00000000000E+00  0.17251187846E+03  0.31248006442E+04  0.31200350507E+04 0.  0.
        4    1    3    3  502    0 -0.10998073085E+04  0.28991155467E+02 -0.10214335935E+04  0.15012477483E+04  0.12699999809E+01 0. -1.
       -4    1    3    3    0  502  0.10998073085E+04 -0.28991155467E+02  0.11939454719E+04  0.16235528959E+04  0.12699999809E+01 0.  1.
</event>
<event>
 5   0  0.1881144E-06  0.3109336E+04  0.7818609E-02  0.8213180E-01
       -1   -1    0    0    0  501  0.00000000000E+00  0.00000000000E+00  0.14845004641E+04  0.14845004641E+04  0.50400001928E-02 0. -1.
        1   -1    0    0  501    0  0.00000000000E+00  0.00000000000E+00 -0.16281519027E+04  0.16281519027E+04  0.50400001928E-02 0.  1.
    10030    2    1    2    0    0  0.00000000000E+00  0.00000000000E+00 -0.14365143857E+03  0.31126523668E+04  0.31093357845E+04 0.  0.
        3    1    3    3  502    0  0.98154338112E+03  0.71351300635E+03  0.90104628209E+03  0.15114273492E+04  0.10100000352E+00 0. -1.
       -3    1    3    3    0  502 -0.98154338112E+03 -0.71351300635E+03 -0.10446977207E+04  0.16012250176E+04  0.10100000352E+00 0.  1.
</event>
<event>
 5   0  0.1969465E-06  0.3151729E+04  0.7818609E-02  0.8201683E-01
       -1   -1    0    0    0  501  0.00000000000E+00  0.00000000000E+00  0.16951601053E+04  0.16951601053E+04  0.50400001928E-02 0.  1.
        1   -1    0    0  501    0  0.00000000000E+00  0.00000000000E+00 -0.14649645522E+04  0.14649645522E+04  0.50400001928E-02 0. -1.
    10030    2    1    2    0    0  0.00000000000E+00  0.00000000000E+00  0.23019555309E+03  0.31601246575E+04  0.31517293441E+04 0.  0.
        2    1    3    3  502    0  0.15055937858E+04  0.38504023935E+03 -0.14690427815E+03  0.15609770981E+04  0.25500000920E-02 0. -1.
       -2    1    3    3    0  502 -0.15055937858E+04 -0.38504023935E+03  0.37709983124E+03  0.15991475594E+04  0.25500000920E-02 0.  1.
</event>
<event>
 5   0  0.5347280E-06  0.3168901E+04  0.7818609E-02  0.8197079E-01
       -2   -1    0    0    0  501  0.00000000000E+00  0.00000000000E+00  0.13779893735E+04  0.13779893735E+04  0.25500000920E-02 0. -1.
        2   -1    0    0  501    0  0.00000000000E+00  0.00000000000E+00 -0.18218453010E+04  0.18218453010E+04  0.25500000920E-02 0.  1.
    10030    2    1    2    0    0  0.00000000000E+00  0.00000000000E+00 -0.44385592744E+03  0.31998346745E+04  0.31689010493E+04 0.  0.
        2    1    3    3  502    0 -0.95372693922E+03  0.31370467987E+02 -0.14991484110E+04  0.17770833236E+04  0.25500000920E-02 0.  1.
       -2    1    3    3    0  502  0.95372693922E+03 -0.31370467987E+02  0.10552924835E+04  0.14227513509E+04  0.25500000920E-02 0. -1.
</event>
<event>
 5   0  0.5131083E-06  0.3179162E+04  0.7818609E-02  0.8194342E-01
        2   -1    0    0  501    0  0.00000000000E+00  0.00000000000E+00  0.13257557650E+04  0.13257557650E+04  0.25500000920E-02 0.  1.
       -2   -1    0    0    0  501  0.00000000000E+00  0.00000000000E+00 -0.19059072068E+04  0.19059072068E+04  0.25500000920E-02 0. -1.
    10030    2    1    2    0    0  0.00000000000E+00  0.00000000000E+00 -0.58015144181E+03  0.32316629718E+04  0.31791618184E+04 0.  0.
        3    1    3    3  502    0  0.12246168928E+04 -0.48972819230E+03 -0.11919977534E+04  0.17777454516E+04  0.10100000352E+00 0. -1.
       -3    1    3    3    0  502 -0.12246168928E+04  0.48972819230E+03  0.61184631154E+03  0.14539175202E+04  0.10100000352E+00 0.  1.
</event>
<event>
 5   0  0.1886248E-06  0.2939459E+04  0.7818609E-02  0.8261233E-01
       -1   -1    0    0    0  501  0.00000000000E+00  0.00000000000E+00  0.14192871798E+04  0.14192871798E+04  0.50400001928E-02 0.  1.
        1   -1    0    0  501    0  0.00000000000E+00  0.00000000000E+00 -0.15219643605E+04  0.15219643605E+04  0.50400001928E-02 0. -1.
    10030    2    1    2    0    0  0.00000000000E+00  0.00000000000E+00 -0.10267718067E+03  0.29412515403E+04  0.29394587971E+04 0.  0.
        4    1    3    3  502    0  0.17199736892E+03  0.11856044971E+04 -0.90324598760E+03  0.15003653040E+04  0.12699999809E+01 0. -1.
       -4    1    3    3    0  502 -0.17199736892E+03 -0.11856044971E+04  0.80056880694E+03  0.14408862363E+04  0.12699999809E+01 0.  1.
</event>
<event>
 5   0  0.5131083E-06  0.3206617E+04  0.7818609E-02  0.8187072E-01
       -2   -1    0    0    0  501  0.00000000000E+00  0.00000000000E+00  0.16142043030E+04  0.16142043030E+04  0.25500000920E-02 0.  1.
        2   -1    0    0  501    0  0.00000000000E+00  0.00000000000E+00 -0.15924861866E+04  0.15924861866E+04  0.25500000920E-02 0. -1.
    10030    2    1    2    0    0  0.00000000000E+00  0.00000000000E+00  0.21718116418E+02  0.32066904896E+04  0.32066169431E+04 0.  0.
        3    1    3    3  502    0 -0.49670492673E+03  0.96610412765E+03  0.11900913769E+04  0.16113318917E+04  0.10100000352E+00 0.  1.
       -3    1    3    3    0  502  0.49670492673E+03 -0.96610412765E+03 -0.11683732605E+04  0.15953585979E+04  0.10100000352E+00 0. -1.
</event>
<event>
 5   0  0.1881144E-06  0.2379056E+04  0.7818609E-02  0.8447387E-01
        1   -1    0    0  501    0  0.00000000000E+00  0.00000000000E+00  0.79480674738E+03  0.79480674739E+03  0.50400001928E-02 0.  1.
       -1   -1    0    0    0  501  0.00000000000E+00  0.00000000000E+00 -0.17802773626E+04  0.17802773626E+04  0.50400001928E-02 0. -1.
    10030    2    1    2    0    0  0.00000000000E+00  0.00000000000E+00 -0.98547061519E+03  0.25750841100E+04  0.23790556614E+04 0.  0.
        3    1    3    3  502    0  0.56341645128E+03  0.30295268548E+03  0.59277404247E+03  0.87212355939E+03  0.10100000352E+00 0.  1.
       -3    1    3    3    0  502 -0.56341645128E+03 -0.30295268548E+03 -0.15782446577E+04  0.17029605506E+04  0.10100000352E+00 0. -1.
</event>
<event>
 5   0  0.5347280E-06  0.3183712E+04  0.7818609E-02  0.8193132E-01
        2   -1    0    0  501    0  0.00000000000E+00  0.00000000000E+00  0.14440997286E+04  0.14440997286E+04  0.25500000920E-02 0.  1.
       -2   -1    0    0    0  501  0.00000000000E+00  0.00000000000E+00 -0.17547303764E+04  0.17547303764E+04  0.25500000920E-02 0. -1.
    10030    2    1    2    0    0  0.00000000000E+00  0.00000000000E+00 -0.31063064771E+03  0.31988301050E+04  0.31837120852E+04 0.  0.
        2    1    3    3  502    0  0.10350113842E+04  0.59009675630E+03  0.90541695750E+03  0.14964099085E+04  0.25500000920E-02 0.  1.
       -2    1    3    3    0  502 -0.10350113842E+04 -0.59009675630E+03 -0.12160476052E+04  0.17024201965E+04  0.25500000920E-02 0. -1.
</event>
<event>
 5   0  0.5131083E-06  0.3183245E+04  0.7818609E-02  0.8193256E-01
       -2   -1    0    0    0  501  0.00000000000E+00  0.00000000000E+00  0.11793676634E+04  0.11793676634E+04  0.25500000920E-02 0.  1.
        2   -1    0    0  501    0  0.00000000000E+00  0.00000000000E+00 -0.21479827968E+04  0.21479827968E+04  0.25500000920E-02 0. -1.
    10030    2    1    2    0    0  0.00000000000E+00  0.00000000000E+00 -0.96861513338E+03  0.33273504602E+04  0.31832445411E+04 0.  0.
        3    1    3    3  502    0  0.57887981836E+03  0.12073486747E+04  0.41515256497E+03  0.14018360563E+04  0.10100000352E+00 0.  1.
       -3    1    3    3    0  502 -0.57887981836E+03 -0.12073486747E+04 -0.13837676983E+04  0.19255144039E+04  0.10100000352E+00 0. -1.
</event>
<event>
 5   0  0.5108810E-06  0.2930516E+04  0.7818609E-02  0.8263856E-01
       -2   -1    0    0    0  501  0.00000000000E+00  0.00000000000E+00  0.18106284085E+04  0.18106284085E+04  0.25500000920E-02 0.  1.
        2   -1    0    0  501    0  0.00000000000E+00  0.00000000000E+00 -0.11857655579E+04  0.11857655579E+04  0.25500000920E-02 0. -1.
    10030    2    1    2    0    0  0.00000000000E+00  0.00000000000E+00  0.62486285059E+03  0.29963939665E+04  0.29305158625E+04 0.  0.
        1    1    3    3  502    0 -0.10180517376E+04  0.93787435981E+03 -0.17893715166E+03  0.13957278243E+04  0.50400001928E-02 0. -1.
       -1    1    3    3    0  502  0.10180517376E+04 -0.93787435981E+03  0.80380000225E+03  0.16006661422E+04  0.50400001928E-02 0.  1.
</event>
<event>
 5   0  0.1977015E-06  0.3220633E+04  0.7818609E-02  0.8183389E-01
        1   -1    0    0  501    0  0.00000000000E+00  0.00000000000E+00  0.23257424770E+04  0.23257424770E+04  0.50400001928E-02 0. -1.
       -1   -1    0    0    0  501  0.00000000000E+00  0.00000000000E+00 -0.11149641812E+04  0.11149641813E+04  0.50400001928E-02 0.  1.
    10030    2    1    2    0    0  0.00000000000E+00  0.00000000000E+00  0.12107782958E+04  0.34407066583E+04  0.32206332028E+04 0.  0.
        1    1    3    3  502    0 -0.11892487613E+04 -0.84538069365E+03 -0.12244117176E+03  0.14642311887E+04  0.50400001928E-02 0.  1.
       -1    1    3    3    0  502  0.11892487613E+04  0.84538069365E+03  0.13332194675E+04  0.19764754696E+04  0.50400001928E-02 0. -1.
</event>
<event>
 5   0  0.5131083E-06  0.3149279E+04  0.7818609E-02  0.8202342E-01
       -2   -1    0    0    0  501  0.00000000000E+00  0.00000000000E+00  0.12763743592E+04  0.12763743592E+04  0.25500000920E-02 0.  1.
        2   -1    0    0  501    0  0.00000000000E+00  0.00000000000E+00 -0.19426040700E+04  0.19426040700E+04  0.25500000920E-02 0. -1.
    10030    2    1    2    0    0  0.00000000000E+00  0.00000000000E+00 -0.66622971081E+03  0.32189784293E+04  0.31492792986E+04 0.  0.
        3    1    3    3  502    0 -0.11228717055E+04  0.82893442497E+03  0.41207239099E+03  0.14552583322E+04  0.10100000352E+00 0.  1.
       -3    1    3    3    0  502  0.11228717055E+04 -0.82893442497E+03 -0.10783021018E+04  0.17637200971E+04  0.10100000352E+00 0. -1.
</event>
<event>
 5   0  0.1886248E-06  0.3391136E+04  0.7818609E-02  0.8140085E-01
        1   -1    0    0  501    0  0.00000000000E+00  0.00000000000E+00  0.23050755541E+04  0.23050755541E+04  0.50400001928E-02 0. -1.
       -1   -1    0    0    0  501  0.00000000000E+00  0.00000000000E+00 -0.12472265042E+04  0.12472265042E+04  0.50400001928E-02 0.  1.
    10030    2    1    2    0    0  0.00000000000E+00  0.00000000000E+00  0.10578490500E+04  0.35523020583E+04  0.33911362846E+04 0.  0.
        4    1    3    3  502    0 -0.35702762794E+03 -0.32646239771E+01  0.22652500476E+04  0.22932158154E+04  0.12699999809E+01 0. -1.
       -4    1    3    3    0  502  0.35702762794E+03  0.32646239771E+01 -0.12074009977E+04  0.12590862429E+04  0.12699999809E+01 0.  1.
</event>
<event>
 5   0  0.5373060E-06  0.3205202E+04  0.7818609E-02  0.8187445E-01
        2   -1    0    0  501    0  0.00000000000E+00  0.00000000000E+00  0.20372253831E+04  0.20372253831E+04  0.25500000920E-02 0.  1.
       -2   -1    0    0    0  501  0.00000000000E+00  0.00000000000E+00 -0.12606999812E+04  0.12606999812E+04  0.25500000920E-02 0. -1.
    10030    2    1    2    0    0  0.00000000000E+00  0.00000000000E+00  0.77652540191E+03  0.32979253642E+04  0.32052020230E+04 0.  0.
        5    1    3    3  502    0 -0.10201590600E+04 -0.78470084641E+03 -0.59425837112E+03  0.14176194933E+04  0.46999998093E+01 0. -1.
       -5    1    3    3    0  502  0.10201590600E+04  0.78470084641E+03  0.13707837730E+04  0.18803058710E+04  0.46999998093E+01 0.  1.
</event>
<event>
 5   0  0.1886248E-06  0.2776689E+04  0.7818609E-02  0.8310542E-01
        1   -1    0    0  501    0  0.00000000000E+00  0.00000000000E+00  0.15724657397E+04  0.15724657397E+04  0.50400001928E-02 0.  1.
       -1   -1    0    0    0  501  0.00000000000E+00  0.00000000000E+00 -0.12257820774E+04  0.12257820774E+04  0.50400001928E-02 0. -1.
    10030    2    1    2    0    0  0.00000000000E+00  0.00000000000E+00  0.34668366234E+03  0.27982478172E+04  0.27766889067E+04 0.  0.
        4    1    3    3  502    0 -0.96603189725E+03 -0.30315804730E+03 -0.78396858399E+03  0.12805197311E+04  0.12699999809E+01 0. -1.
       -4    1    3    3    0  502  0.96603189725E+03  0.30315804730E+03  0.11306522463E+04  0.15177280861E+04  0.12699999809E+01 0.  1.
</event>
<event>
 5   0  0.1881144E-06  0.2873996E+04  0.7818609E-02  0.8280657E-01
       -1   -1    0    0    0  501  0.00000000000E+00  0.00000000000E+00  0.13857380763E+04  0.13857380763E+04  0.50400001928E-02 0. -1.
        1   -1    0    0  501    0  0.00000000000E+00  0.00000000000E+00 -0.14901540172E+04  0.14901540172E+04  0.50400001928E-02 0.  1.
    10030    2    1    2    0    0  0.00000000000E+00  0.00000000000E+00 -0.10441594085E+03  0.28758920935E+04  0.28739959368E+04 0.  0.
        3    1    3    3  502    0 -0.22286515760E+03  0.14156957527E+04 -0.15763310843E+03  0.14417737512E+04  0.10100000352E+00 0.  1.
       -3    1    3    3    0  502  0.22286515760E+03 -0.14156957527E+04  0.53217167579E+02  0.14341183423E+04  0.10100000352E+00 0. -1.
</event>
<event>
 5   0  0.5108810E-06  0.3192134E+04  0.7818609E-02  0.8190898E-01
        2   -1    0    0  501    0  0.00000000000E+00  0.00000000000E+00  0.23043530321E+04  0.23043530321E+04  0.25500000920E-02 0.  1.
       -2   -1    0    0    0  501  0.00000000000E+00  0.00000000000E+00 -0.11054860021E+04  0.11054860021E+04  0.25500000920E-02 0. -1.
    10030    2    1    2    0    0  0.00000000000E+00  0.00000000000E+00  0.11988670300E+04  0.34098390343E+04  0.31921340956E+04 0.  0.
        1    1    3    3  502    0 -0.94622544452E+03  0.12829283367E+04  0.68342363747E+03  0.17344496468E+04  0.50400001928E-02 0. -1.
       -1    1    3    3    0  502  0.94622544452E+03 -0.12829283367E+04  0.51544339252E+03  0.16753893875E+04  0.50400001928E-02 0.  1.
</event>
<event>
 5   0  0.5121624E-06  0.2937602E+04  0.7818609E-02  0.8261777E-01
        2   -1    0    0  501    0  0.00000000000E+00  0.00000000000E+00  0.34129670623E+04  0.34129670623E+04  0.25500000920E-02 0. -1.
       -2   -1    0    0    0  501  0.00000000000E+00  0.00000000000E+00 -0.63211187107E+03  0.63211187108E+03  0.25500000920E-02 0.  1.
    10030    2    1    2    0    0  0.00000000000E+00  0.00000000000E+00  0.27808551912E+04  0.40450789333E+04  0.29376024208E+04 0.  0.
        4    1    3    3  502    0 -0.49746144955E+03 -0.13492142791E+04  0.18024437041E+04  0.23057866302E+04  0.12699999809E+01 0.  1.
       -4    1    3    3    0  502  0.49746144955E+03  0.13492142791E+04  0.97841148704E+03  0.17392923031E+04  0.12699999809E+01 0. -1.
</event>
<event>
 5   0  0.5131083E-06  0.3174286E+04  0.7818609E-02  0.8195641E-01
        2   -1    0    0  501    0  0.00000000000E+00  0.00000000000E+00  0.14903851413E+04  0.14903851413E+04  0.25500000920E-02 0.  1.
       -2   -1    0    0    0  501  0.00000000000E+00  0.00000000000E+00 -0.16901824753E+04  0.16901824753E+04  0.25500000920E-02 0. -1.
    10030    2    1    2    0    0  0.00000000000E+00  0.00000000000E+00 -0.19979733398E+03  0.31805676167E+04  0.31742859653E+04 0.  0.
        3    1    3    3  502    0 -0.14116240716E+04 -0.22572478327E+03 -0.79074742884E+03  0.16336816409E+04  0.10100000352E+00 0. -1.
       -3    1    3    3    0  502  0.14116240716E+04  0.22572478327E+03  0.59095009486E+03  0.15468859758E+04  0.10100000352E+00 0.  1.
</event>
<event>
 5   0  0.1886248E-06  0.3237524E+04  0.7818609E-02  0.8178977E-01
       -1   -1    0    0    0  501  0.00000000000E+00  0.00000000000E+00  0.25535381322E+04  0.25535381322E+04  0.50400001928E-02 0.  1.
        1   -1    0    0  501    0  0.00000000000E+00  0.00000000000E+00 -0.10261800249E+04  0.10261800249E+04  0.50400001928E-02 0. -1.
    10030    2    1    2    0    0  0.00000000000E+00  0.00000000000E+00  0.15273581073E+04  0.35797181572E+04  0.32375236365E+04 0.  0.
        4    1    3    3  502    0  0.65161118170E+03 -0.14734512330E+04  0.93756731841E+03  0.18640519729E+04  0.12699999809E+01 0. -1.
       -4    1    3    3    0  502 -0.65161118170E+03  0.14734512330E+04  0.58979078886E+03  0.17156661842E+04  0.12699999809E+01 0.  1.
</event>
<event>
 5   0  0.1969465E-06  0.3093250E+04  0.7818609E-02  0.8217593E-01
       -1   -1    0    0    0  501  0.00000000000E+00  0.00000000000E+00  0.29817572175E+04  0.29817572175E+04  0.50400001928E-02 0. -1.
        1   -1    0    0  501    0  0.00000000000E+00  0.00000000000E+00 -0.80222785173E+03  0.80222785175E+03  0.50400001928E-02 0.  1.
    10030    2    1    2    0    0  0.00000000000E+00  0.00000000000E+00  0.21795293658E+04  0.37839850692E+04  0.30932498684E+04 0.  0.
        2    1    3    3  502    0  0.12287383316E+04  0.73206173216E+03  0.18096834459E+04  0.23066569839E+04  0.25500000920E-02 0. -1.
       -2    1    3    3    0  502 -0.12287383316E+04 -0.73206173216E+03  0.36984591988E+03  0.14773280853E+04  0.25500000920E-02 0.  1.
</event>
<event>
 5   0  0.5373060E-06  0.3156804E+04  0.7818609E-02  0.8200319E-01
       -2   -1    0    0    0  501  0.00000000000E+00  0.00000000000E+00  0.11551635691E+04  0.11551635691E+04  0.25500000920E-02 0.  1.
        2   -1    0    0  501    0  0.00000000000E+00  0.00000000000E+00 -0.21567106396E+04  0.21567106396E+04  0.25500000920E-02 0. -1.
    10030    2    1    2    0    0  0.00000000000E+00  0.00000000000E+00 -0.10015470705E+04  0.33118742088E+04  0.31568044349E+04 0.  0.
        5    1    3    3  502    0  0.13851032733E+04  0.53853560620E+03 -0.10586855304E+04  0.18246558084E+04  0.46999998093E+01 0. -1.
       -5    1    3    3    0  502 -0.13851032733E+04 -0.53853560620E+03  0.57138459960E+02  0.14872184004E+04  0.46999998093E+01 0.  1.
</event>
<event>
 5   0  0.1977015E-06  0.3217787E+04  0.7818609E-02  0.8184135E-01
       -1   -1    0    0    0  501  0.00000000000E+00  0.00000000000E+00  0.24364506795E+04  0.24364506795E+04  0.50400001928E-02 0.  1.
        1   -1    0    0  501    0  0.00000000000E+00  0.00000000000E+00 -0.10624215797E+04  0.10624215797E+04  0.50400001928E-02 0. -1.
    10030    2    1    2    0    0  0.00000000000E+00  0.00000000000E+00  0.13740290998E+04  0.34988722593E+04  0.32177866802E+04 0.  0.
        1    1    3    3  502    0  0.35258614185E+03 -0.36566884122E+03 -0.97293944464E+03  0.10975617759E+04  0.50400001928E-02 0. -1.
       -1    1    3    3    0  502 -0.35258614185E+03  0.36566884122E+03  0.23469685445E+04  0.24013104834E+04  0.50400001928E-02 0.  1.
</event>
<event>
 5   0  0.5108810E-06  0.3120701E+04  0.7818609E-02  0.8210080E-01
        2   -1    0    0  501    0  0.00000000000E+00  0.00000000000E+00  0.20334172824E+04  0.20334172824E+04  0.25500000920E-02 0.  1.
       -2   -1    0    0    0  501  0.00000000000E+00  0.00000000000E+00 -0.11973410995E+04  0.11973410995E+04  0.25500000920E-02 0. -1.
    10030    2    1    2    0    0  0.00000000000E+00  0.00000000000E+00  0.83607618283E+03  0.32307583819E+04  0.31207012575E+04 0.  0.
        1    1    3    3  502    0  0.95298452840E+03 -0.14462500401E+03  0.16883396313E+04  0.19441158951E+04  0.50400001928E-02 0.  1.
       -1    1    3    3    0  502 -0.95298452840E+03  0.14462500401E+03 -0.85226344844E+03  0.12866424868E+04  0.50400001928E-02 0. -1.
</event>
<event>
 5   0  0.1969465E-06  0.3202289E+04  0.7818609E-02  0.8188213E-01
        1   -1    0    0  501    0  0.00000000000E+00  0.00000000000E+00  0.20566434526E+04  0.20566434526E+04  0.50400001928E-02 0.  1.
       -1   -1    0    0    0  501  0.00000000000E+00  0.00000000000E+00 -0.12465280302E+04  0.12465280302E+04  0.50400001928E-02 0. -1.
    10030    2    1    2    0    0  0.00000000000E+00  0.00000000000E+00  0.81011542240E+03  0.33031714829E+04  0.32022890013E+04 0.  0.
        2    1    3    3  502    0  0.14334009451E+04  0.11554040441E+03  0.11312798430E+04  0.18296944930E+04  0.25500000920E-02 0.  1.
       -2    1    3    3    0  502 -0.14334009451E+04 -0.11554040441E+03 -0.32116442062E+03  0.14734769899E+04  0.25500000920E-02 0. -1.
</event>
<event>
 5   0  0.1886248E-06  0.3186197E+04  0.7818609E-02  0.8192472E-01
        1   -1    0    0  501    0  0.00000000000E+00  0.00000000000E+00  0.22004847776E+04  0.22004847776E+04  0.50400001928E-02 0.  1.
       -1   -1    0    0    0  501  0.00000000000E+00  0.00000000000E+00 -0.11533651584E+04  0.11533651585E+04  0.50400001928E-02 0. -1.
    10030    2    1    2    0    0  0.00000000000E+00  0.00000000000E+00  0.10471196191E+04  0.33538499360E+04  0.31861967762E+04 0.  0.
        4    1    3    3  502    0  0.56913672181E+03 -0.14227593366E+04  0.64975408658E+02  0.15337484001E+04  0.12699999809E+01 0. -1.
       -4    1    3    3    0  502 -0.56913672181E+03  0.14227593366E+04  0.98214421047E+03  0.18201015359E+04  0.12699999809E+01 0.  1.
</event>
<event>
 5   0  0.1729500E-06  0.3241221E+04  0.7818609E-02  0.8178015E-01
        3   -1    0    0  501    0  0.00000000000E+00  0.00000000000E+00  0.12773919540E+04  0.12773919580E+04  0.10100000352E+00 0.  1.
       -3   -1    0    0    0  501  0.00000000000E+00  0.00000000000E+00 -0.20560473291E+04  0.20560473316E+04  0.10100000352E+00 0. -1.
    10030    2    1    2    0    0  0.00000000000E+00  0.00000000000E+00 -0.77865537511E+03  0.33334392897E+04  0.32412209589E+04 0.  0.
        4    1    3    3  502    0 -0.74260388941E+03  0.63379361754E+03  0.94100625524E+03  0.13559680201E+04  0.12699999809E+01 0.  1.
       -4    1    3    3    0  502  0.74260388941E+03 -0.63379361754E+03 -0.17196616303E+04  0.19774712696E+04  0.12699999809E+01 0. -1.
</event>
<event>
 5   0  0.5121624E-06  0.3249816E+04  0.7818609E-02  0.8175783E-01
        2   -1    0    0  501    0  0.00000000000E+00  0.00000000000E+00  0.11062424708E+04  0.11062424709E+04  0.25500000920E-02 0. -1.
       -2   -1    0    0    0  501  0.00000000000E+00  0.00000000000E+00 -0.23867511446E+04  0.23867511446E+04  0.25500000920E-02 0.  1.
    10030    2    1    2    0    0  0.00000000000E+00  0.00000000000E+00 -0.12805086737E+04  0.34929936154E+04  0.32498156769E+04 0.  0.
        4    1    3    3  502    0 -0.91683187564E+03  0.11640625930E+04  0.76504970346E+02  0.14837375213E+04  0.12699999809E+01 0. -1.
       -4    1    3    3    0  502  0.91683187564E+03 -0.11640625930E+04 -0.13570136441E+04  0.20092560941E+04  0.12699999809E+01 0.  1.
</event>
<event>
 5   0  0.1846850E-06  0.3092759E+04  0.7818609E-02  0.8217728E-01
        1   -1    0    0  501    0  0.00000000000E+00  0.00000000000E+00  0.16595567814E+04  0.16595567814E+04  0.50400001928E-02 0. -1.
       -1   -1    0    0    0  501  0.00000000000E+00  0.00000000000E+00 -0.14409202144E+04  0.14409202144E+04  0.50400001928E-02 0.  1.
    10030    2    1    2    0    0  0.00000000000E+00  0.00000000000E+00  0.21863656700E+03  0.31004769958E+04  0.30927585831E+04 0.  0.
        5    1    3    3  502    0 -0.58636639476E+03  0.82062415217E+03 -0.10657918979E+04  0.14673731658E+04  0.46999998093E+01 0.  1.
       -5    1    3    3    0  502  0.58636639476E+03 -0.82062415217E+03  0.12844284649E+04  0.16331038300E+04  0.46999998093E+01 0. -1.
</event>
<event>
 5   0  0.5347280E-06  0.3186645E+04  0.7818609E-02  0.8192353E-01
       -2   -1    0    0    0  501  0.00000000000E+00  0.00000000000E+00  0.92297468376E+03  0.92297468376E+03  0.25500000920E-02 0. -1.
        2   -1    0    0  501    0  0.00000000000E+00  0.00000000000E+00 -0.27505368319E+04  0.27505368319E+04  0.25500000920E-02 0.  1.
    10030    2    1    2    0    0  0.00000000000E+00  0.00000000000E+00 -0.18275621481E+04  0.36735115156E+04  0.31866445441E+04 0.  0.
        2    1    3    3  502    0 -0.12897006114E+03 -0.10084655006E+04 -0.23280167631E+04  0.25403342284E+04  0.25500000920E-02 0.  1.
       -2    1    3    3    0  502  0.12897006114E+03  0.10084655006E+04  0.50045461501E+03  0.11331772872E+04  0.25500000920E-02 0. -1.
</event>
<event>
 5   0  0.1886248E-06  0.2495071E+04  0.7818609E-02  0.8404744E-01
       -1   -1    0    0    0  501  0.00000000000E+00  0.00000000000E+00  0.93196864273E+03  0.93196864275E+03  0.50400001928E-02 0. -1.
        1   -1    0    0  501    0  0.00000000000E+00  0.00000000000E+00 -0.16699543070E+04  0.16699543070E+04  0.50400001928E-02 0.  1.
    10030    2    1    2    0    0  0.00000000000E+00  0.00000000000E+00 -0.73798566427E+03  0.26019229498E+04  0.24950711805E+04 0.  0.
        4    1    3    3  502    0 -0.12338683072E+03  0.12395863134E+04 -0.43929578094E+03  0.13209015613E+04  0.12699999809E+01 0.  1.
       -4    1    3    3    0  502  0.12338683072E+03 -0.12395863134E+04 -0.29868988332E+03  0.12810213885E+04  0.12699999809E+01 0. -1.
</event>
<event>
 5   0  0.1977015E-06  0.3151759E+04  0.7818609E-02  0.8201675E-01
        1   -1    0    0  501    0  0.00000000000E+00  0.00000000000E+00  0.20139862251E+04  0.20139862251E+04  0.50400001928E-02 0.  1.
       -1   -1    0    0    0  501  0.00000000000E+00  0.00000000000E+00 -0.12330753932E+04  0.12330753932E+04  0.50400001928E-02 0. -1.
    10030    2    1    2    0    0  0.00000000000E+00  0.00000000000E+00  0.78091083196E+03  0.32470616183E+04  0.31517594175E+04 0.  0.
        1    1    3    3  502    0  0.16040668612E+03 -0.12055582649E+04  0.14229036811E+04  0.18718322362E+04  0.50400001928E-02 0.  1.
       -1    1    3    3    0  502 -0.16040668612E+03  0.12055582649E+04 -0.64199284911E+03  0.13752293821E+04  0.50400001928E-02 0. -1.
</event>
<event>
 5   0  0.5347280E-06  0.3209987E+04  0.7818609E-02  0.8186185E-01
        2   -1    0    0  501    0  0.00000000000E+00  0.00000000000E+00  0.17551508428E+04  0.17551508428E+04  0.25500000920E-02 0.  1.
       -2   -1    0    0    0  501  0.00000000000E+00  0.00000000000E+00 -0.14676820734E+04  0.14676820734E+04  0.25500000920E-02 0. -1.
    10030    2    1    2    0    0  0.00000000000E+00  0.00000000000E+00  0.28746876948E+03  0.32228329162E+04  0.32099865595E+04 0.  0.
        2    1    3    3  502    0 -0.10426588654E+04 -0.27747558252E+03 -0.10492435937E+04  0.15050057566E+04  0.25500000920E-02 0. -1.
       -2    1    3    3    0  502  0.10426588654E+04  0.27747558252E+03  0.13367123632E+04  0.17178271596E+04  0.25500000920E-02 0.  1.
</event>
<event>
 5   0  0.5121624E-06  0.2142231E+04  0.7818609E-02  0.8542865E-01
       -2   -1    0    0    0  501  0.00000000000E+00  0.00000000000E+00  0.67245739466E+03  0.67245739466E+03  0.25500000920E-02 0. -1.
        2   -1    0    0  501    0  0.00000000000E+00  0.00000000000E+00 -0.17061137466E+04  0.17061137466E+04  0.25500000920E-02 0.  1.
    10030    2    1    2    0    0  0.00000000000E+00  0.00000000000E+00 -0.10336563520E+04  0.23785711413E+04  0.21422313648E+04 0.  0.
        4    1    3    3  502    0  0.63765814958E+03  0.64606035445E+03  0.11448193793E+03  0.91493695101E+03  0.12699999809E+01 0. -1.
       -4    1    3    3    0  502 -0.63765814958E+03 -0.64606035445E+03 -0.11481382899E+04  0.14636341903E+04  0.12699999809E+01 0.  1.
</event>
<event>
 5   0  0.1969465E-06  0.3294707E+04  0.7818609E-02  0.8164243E-01
       -1   -1    0    0    0  501  0.00000000000E+00  0.00000000000E+00  0.11736760656E+04  0.11736760656E+04  0.50400001928E-02 0.  1.
        1   -1    0    0  501    0  0.00000000000E+00  0.00000000000E+00 -0.23121999271E+04  0.23121999271E+04  0.50400001928E-02 0. -1.
    10030    2    1    2    0    0  0.00000000000E+00  0.00000000000E+00 -0.11385238615E+04  0.34858759928E+04  0.32947070968E+04 0.  0.
        2    1    3    3  502    0 -0.53378490272E+03 -0.67182349550E+03 -0.20570923439E+04  0.22288791001E+04  0.25500000920E-02 0. -1.
       -2    1    3    3    0  502  0.53378490272E+03  0.67182349550E+03  0.91856848237E+03  0.12569968927E+04  0.25500000920E-02 0.  1.
</event>
<event>
 5   0  0.1977015E-06  0.3176695E+04  0.7818609E-02  0.8194999E-01
        1   -1    0    0  501    0  0.00000000000E+00  0.00000000000E+00  0.13115811087E+04  0.13115811087E+04  0.50400001928E-02 0. -1.
       -1   -1    0    0    0  501  0.00000000000E+00  0.00000000000E+00 -0.19235164771E+04  0.19235164771E+04  0.50400001928E-02 0.  1.
    10030    2    1    2    0    0  0.00000000000E+00  0.00000000000E+00 -0.61193536841E+03  0.32350975858E+04  0.31766950585E+04 0.  0.
        1    1    3    3  502    0 -0.50632401450E+03 -0.27696194454E+03  0.12010269247E+04  0.13324930019E+04  0.50400001928E-02 0. -1.
       -1    1    3    3    0  502  0.50632401450E+03  0.27696194454E+03 -0.18129622931E+04  0.19026045839E+04  0.50400001928E-02 0.  1.
</event>
<event>
 5   0  0.1886248E-06  0.2690906E+04  0.7818609E-02  0.8337962E-01
        1   -1    0    0  501    0  0.00000000000E+00  0.00000000000E+00  0.19063289163E+04  0.19063289163E+04  0.50400001928E-02 0.  1.
       -1   -1    0    0    0  501  0.00000000000E+00  0.00000000000E+00 -0.94959693818E+03  0.94959693819E+03  0.50400001928E-02 0. -1.
    10030    2    1    2    0    0  0.00000000000E+00  0.00000000000E+00  0.95673197808E+03  0.28559258544E+04  0.26909062429E+04 0.  0.
        4    1    3    3  502    0  0.10233372016E+04  0.48394048731E+03  0.12501652846E+04  0.16865148310E+04  0.12699999809E+01 0.  1.
       -4    1    3    3    0  502 -0.10233372016E+04 -0.48394048731E+03 -0.29343330655E+03  0.11694110234E+04  0.12699999809E+01 0. -1.
</event>
<event>
 5   0  0.5121624E-06  0.3099684E+04  0.7818609E-02  0.8215825E-01
       -2   -1    0    0    0  501  0.00000000000E+00  0.00000000000E+00  0.10008006427E+04  0.10008006427E+04  0.25500000920E-02 0. -1.
        2   -1    0    0  501    0  0.00000000000E+00  0.00000000000E+00 -0.24000883084E+04  0.24000883084E+04  0.25500000920E-02 0.  1.
    10030    2    1    2    0    0  0.00000000000E+00  0.00000000000E+00 -0.13992876657E+04  0.34008889511E+04  0.30996838042E+04 0.  0.
        4    1    3    3  502    0 -0.14150033327E+04 -0.44698572273E+03 -0.20900064041E+03  0.14985705016E+04  0.12699999809E+01 0.  1.
       -4    1    3    3    0  502  0.14150033327E+04  0.44698572273E+03 -0.11902870252E+04  0.19023184495E+04  0.12699999809E+01 0. -1.
</event>
<event>
 5   0  0.1881144E-06  0.3189684E+04  0.7818609E-02  0.8191547E-01
        1   -1    0    0  501    0  0.00000000000E+00  0.00000000000E+00  0.15785884346E+04  0.15785884346E+04  0.50400001928E-02 0. -1.
       -1   -1    0    0    0  501  0.00000000000E+00  0.00000000000E+00 -0.16112626378E+04  0.16112626379E+04  0.50400001928E-02 0.  1.
    10030    2    1    2    0    0  0.00000000000E+00  0.00000000000E+00 -0.32674203278E+02  0.31898510724E+04  0.31896837242E+04 0.  0.
        3    1    3    3  502    0 -0.71207355767E+03  0.98356854360E+03  0.10176730068E+04  0.15843339896E+04  0.10100000352E+00 0. -1.
       -3    1    3    3    0  502  0.71207355767E+03 -0.98356854360E+03 -0.10503472101E+04  0.16055170829E+04  0.10100000352E+00 0.  1.
</event>
<event>
 5   0  0.1977015E-06  0.3153536E+04  0.7818609E-02  0.8201197E-01
        1   -1    0    0  501    0  0.00000000000E+00  0.00000000000E+00  0.16669222801E+04  0.16669222801E+04  0.50400001928E-02 0. -1.
       -1   -1    0    0    0  501  0.00000000000E+00  0.00000000000E+00 -0.14914896208E+04  0.14914896208E+04  0.50400001928E-02 0.  1.
    10030    2    1    2    0    0  0.00000000000E+00  0.00000000000E+00  0.17543265936E+03  0.31584119009E+04  0.31535359706E+04 0.  0.
        1    1    3    3  502    0  0.11399833803E+04 -0.10892694627E+04  0.76420157457E+02  0.15785785093E+04  0.50400001928E-02 0.  1.
       -1    1    3    3    0  502 -0.11399833803E+04  0.10892694627E+04  0.99012501905E+02  0.15798333916E+04  0.50400001928E-02 0. -1.
</event>
<event>
 5   0  0.1977015E-06  0.3219403E+04  0.7818609E-02  0.8183712E-01
       -1   -1    0    0    0  501  0.00000000000E+00  0.00000000000E+00  0.12385755181E+04  0.12385755181E+04  0.50400001928E-02 0. -1.
        1   -1    0    0  501    0  0.00000000000E+00  0.00000000000E+00 -0.20920313119E+04  0.20920313119E+04  0.50400001928E-02 0.  1.
    10030    2    1    2    0    0  0.00000000000E+00  0.00000000000E+00 -0.85345579375E+03  0.33306068300E+04  0.32194029049E+04 0.  0.
        1    1    3    3  502    0 -0.39013648400E+03  0.12272332319E+04 -0.14259211546E+04  0.19213430253E+04  0.50400001928E-02 0.  1.
       -1    1    3    3    0  502  0.39013648400E+03 -0.12272332319E+04  0.57246536085E+03  0.14092638047E+04  0.50400001928E-02 0. -1.
</event>
<event>
 5   0  0.5121624E-06  0.3181732E+04  0.7818609E-02  0.8193659E-01
        2   -1    0    0  501    0  0.00000000000E+00  0.00000000000E+00  0.27525733151E+04  0.27525733151E+04  0.25500000920E-02 0.  1.
       -2   -1    0    0    0  501  0.00000000000E+00  0.00000000000E+00 -0.91945016284E+03  0.91945016285E+03  0.25500000920E-02 0. -1.
    10030    2    1    2    0    0  0.00000000000E+00  0.00000000000E+00  0.18331231523E+04  0.36720234780E+04  0.31817315932E+04 0.  0.
        4    1    3    3  502    0 -0.14619280830E+04 -0.10072710602E+03  0.16312374721E+04  0.21927874892E+04  0.12699999809E+01 0.  1.
       -4    1    3    3    0  502  0.14619280830E+04  0.10072710602E+03  0.20188568021E+03  0.14792359888E+04  0.12699999809E+01 0. -1.
</event>
<event>
 5   0  0.5131083E-06  0.3164082E+04  0.7818609E-02  0.8198368E-01
        2   -1    0    0  501    0  0.00000000000E+00  0.00000000000E+00  0.21610882661E+04  0.21610882661E+04  0.25500000920E-02 0. -1.
       -2   -1    0    0    0  501  0.00000000000E+00  0.00000000000E+00 -0.11581447427E+04  0.11581447427E+04  0.25500000920E-02 0.  1.
    10030    2    1    2    0    0  0.00000000000E+00  0.00000000000E+00  0.10029435234E+04  0.33192330089E+04  0.31640815502E+04 0.  0.
        3    1    3    3  502    0  0.13927552587E+03 -0.64449044778E+03  0.20100731956E+04  0.21154573669E+04  0.10100000352E+00 0. -1.
       -3    1    3    3    0  502 -0.13927552587E+03  0.64449044778E+03 -0.10071296722E+04  0.12037756420E+04  0.10100000352E+00 0.  1.
</event>
<event>
 5   0  0.5373060E-06  0.3164036E+04  0.7818609E-02  0.8198380E-01
       -2   -1    0    0    0  501  0.00000000000E+00  0.00000000000E+00  0.97497935755E+03  0.97497935755E+03  0.25500000920E-02 0. -1.
        2   -1    0    0  501    0  0.00000000000E+00  0.00000000000E+00 -0.25670090855E+04  0.25670090855E+04  0.25500000920E-02 0.  1.
    10030    2    1    2    0    0  0.00000000000E+00  0.00000000000E+00 -0.15920297280E+04  0.35419884431E+04  0.31640359474E+04 0.  0.
        5    1    3    3  502    0  0.11579459450E+04 -0.10779149502E+04 -0.80093634849E+03  0.17732062981E+04  0.46999998093E+01 0.  1.
       -5    1    3    3    0  502 -0.11579459450E+04  0.10779149502E+04 -0.79109337950E+03  0.17687821450E+04  0.46999998093E+01 0. -1.
</event>
<event>
 5   0  0.5131083E-06  0.3458207E+04  0.7818609E-02  0.8123766E-01
       -2   -1    0    0    0  501  0.00000000000E+00  0.00000000000E+00  0.16009199983E+04  0.16009199983E+04  0.25500000920E-02 0.  1.
        2   -1    0    0  501    0  0.00000000000E+00  0.00000000000E+00 -0.18675504066E+04  0.18675504066E+04  0.25500000920E-02 0. -1.
    10030    2    1    2    0    0  0.00000000000E+00  0.00000000000E+00 -0.26663040824E+03  0.34684704049E+04  0.34582069306E+04 0.  0.
        3    1    3    3  502    0  0.10454094517E+04 -0.10998516037E+04 -0.96477756342E+03  0.17981518926E+04  0.10100000352E+00 0.  1.
       -3    1    3    3    0  502 -0.10454094517E+04  0.10998516037E+04  0.69814715518E+03  0.16703185123E+04  0.10100000352E+00 0. -1.
</event>
<event>
 5   0  0.1846850E-06  0.2938464E+04  0.7818609E-02  0.8261525E-01
        1   -1    0    0  501    0  0.00000000000E+00  0.00000000000E+00  0.18414065058E+04  0.18414065058E+04  0.50400001928E-02 0. -1.
       -1   -1    0    0    0  501  0.00000000000E+00  0.00000000000E+00 -0.11722789090E+04  0.11722789091E+04  0.50400001928E-02 0.  1.
    10030    2    1    2    0    0  0.00000000000E+00  0.00000000000E+00  0.66912759671E+03  0.30136854148E+04  0.29384635507E+04 0.  0.
        5    1    3    3  502    0 -0.68025550758E+02 -0.14583603848E+03  0.18323332424E+04  0.18393919720E+04  0.46999998093E+01 0. -1.
       -5    1    3    3    0  502  0.68025550758E+02  0.14583603848E+03 -0.11632056457E+04  0.11742934428E+04  0.46999998093E+01 0.  1.
</event>
<event>
 5   0  0.5373060E-06  0.3271338E+04  0.7818609E-02  0.8170227E-01
       -2   -1    0    0    0  501  0.00000000000E+00  0.00000000000E+00  0.15867946164E+04  0.15867946164E+04  0.25500000920E-02 0. -1.
        2   -1    0    0  501    0  0.00000000000E+00  0.00000000000E+00 -0.16860482962E+04  0.16860482962E+04  0.25500000920E-02 0.  1.
    10030    2    1    2    0    0  0.00000000000E+00  0.00000000000E+00 -0.99253679831E+02  0.32728429126E+04  0.32713375610E+04 0.  0.
        5    1    3    3  502    0 -0.69848223251E+02  0.22178097879E+03  0.15701687416E+04  0.15872988200E+04  0.46999998093E+01 0. -1.
       -5    1    3    3    0  502  0.69848223251E+02 -0.22178097879E+03 -0.16694224215E+04  0.16855440926E+04  0.46999998093E+01 0.  1.
</event>
<event>
 5   0  0.5347280E-06  0.3172325E+04  0.7818609E-02  0.8196165E-01
        2   -1    0    0  501    0  0.00000000000E+00  0.00000000000E+00  0.24996946853E+04  0.24996946853E+04  0.25500000920E-02 0. -1.
       -2   -1    0    0    0  501  0.00000000000E+00  0.00000000000E+00 -0.10064872214E+04  0.10064872214E+04  0.25500000920E-02 0.  1.
    10030    2    1    2    0    0  0.00000000000E+00  0.00000000000E+00  0.14932074639E+04  0.35061819066E+04  0.31723245471E+04 0.  0.
        2    1    3    3  502    0 -0.30424198091E+03  0.15566959077E+04  0.75405291754E+03  0.17562634012E+04  0.25500000920E-02 0.  1.
       -2    1    3    3    0  502  0.30424198091E+03 -0.15566959077E+04  0.73915454637E+03  0.17499185054E+04  0.25500000920E-02 0. -1.
</event>
<event>
 5   0  0.5373060E-06  0.3172186E+04  0.7818609E-02  0.8196202E-01
       -2   -1    0    0    0  501  0.00000000000E+00  0.00000000000E+00  0.15596798205E+04  0.15596798205E+04  0.25500000920E-02 0.  1.
        2   -1    0    0  501    0  0.00000000000E+00  0.00000000000E+00 -0.16129530809E+04  0.16129530809E+04  0.25500000920E-02 0. -1.
    10030    2    1    2    0    0  0.00000000000E+00  0.00000000000E+00 -0.53273260342E+02  0.31726329014E+04  0.31721856009E+04 0.  0.
        5    1    3    3  502    0  0.52315490116E+03 -0.95722217531E+03  0.11249174638E+04  0.15669801319E+04  0.46999998093E+01 0.  1.
       -5    1    3    3    0  502 -0.52315490116E+03  0.95722217531E+03 -0.11781907241E+04  0.16056527694E+04  0.46999998093E+01 0. -1.
</event>
<event>
 5   0  0.1977015E-06  0.3101671E+04  0.7818609E-02  0.8215279E-01
       -1   -1    0    0    0  501  0.00000000000E+00  0.00000000000E+00  0.11056828754E+04  0.11056828754E+04  0.50400001928E-02 0. -1.
        1   -1    0    0  501    0  0.00000000000E+00  0.00000000000E+00 -0.21752085285E+04  0.21752085285E+04  0.50400001928E-02 0.  1.
    10030    2    1    2    0    0  0.00000000000E+00  0.00000000000E+00 -0.10695256531E+04  0.32808914039E+04  0.31016710466E+04 0.  0.
        1    1    3    3  502    0 -0.74488528560E+03  0.45957749695E+03  0.81945629735E+03  0.11989888188E+04  0.50400001928E-02 0. -1.
       -1    1    3    3    0  502  0.74488528560E+03 -0.45957749695E+03 -0.18889819505E+04  0.20819025851E+04  0.50400001928E-02 0.  1.
</event>
<event>
 5   0  0.5347280E-06  0.2950712E+04  0.7818609E-02  0.8257947E-01
       -2   -1    0    0    0  501  0.00000000000E+00  0.00000000000E+00  0.13865484244E+04  0.13865484244E+04  0.25500000920E-02 0.  1.
        2   -1    0    0  501    0  0.00000000000E+00  0.00000000000E+00 -0.15698514961E+04  0.15698514961E+04  0.25500000920E-02 0. -1.
    10030    2    1    2    0    0  0.00000000000E+00  0.00000000000E+00 -0.18330307170E+03  0.29563999205E+04  0.29507118588E+04 0.  0.
        2    1    3    3  502    0 -0.40483171739E+03 -0.13022046212E+03  0.13238099194E+04  0.13904383449E+04  0.25500000920E-02 0.  1.
       -2    1    3    3    0  502  0.40483171739E+03  0.13022046212E+03 -0.15071129911E+04  0.15659615756E+04  0.25500000920E-02 0. -1.
</event>
<event>
 5   0  0.1846850E-06  0.3154142E+04  0.7818609E-02  0.8201034E-01
        1   -1    0    0  501    0  0.00000000000E+00  0.00000000000E+00  0.14012083095E+04  0.14012083095E+04  0.50400001928E-02 0. -1.
       -1   -1    0    0    0  501  0.00000000000E+00  0.00000000000E+00 -0.17750053652E+04  0.17750053652E+04  0.50400001928E-02 0.  1.
    10030    2    1    2    0    0  0.00000000000E+00  0.00000000000E+00 -0.37379705572E+03  0.31762136747E+04  0.31541415739E+04 0.  0.
        5    1    3    3  502    0 -0.22311275604E+03 -0.76607635938E+03  0.11829434737E+04  0.14268951055E+04  0.46999998093E+01 0. -1.
       -5    1    3    3    0  502  0.22311275604E+03  0.76607635938E+03 -0.15567405294E+04  0.17493185691E+04  0.46999998093E+01 0.  1.
</event>
<event>
 5   0  0.1881144E-06  0.2251824E+04  0.7818609E-02  0.8497162E-01
       -1   -1    0    0    0  501  0.00000000000E+00  0.00000000000E+00  0.92958587537E+03  0.92958587538E+03  0.50400001928E-02 0.  1.
        1   -1    0    0  501    0  0.00000000000E+00  0.00000000000E+00 -0.13637019115E+04  0.13637019115E+04  0.50400001928E-02 0. -1.
    10030    2    1    2    0    0  0.00000000000E+00  0.00000000000E+00 -0.43411603615E+03  0.22932877869E+04  0.22518241807E+04 0.  0.
        3    1    3    3  502    0 -0.36872336788E+03  0.82335740721E+03  0.46899564558E+03  0.10167749347E+04  0.10100000352E+00 0.  1.
       -3    1    3    3    0  502  0.36872336788E+03 -0.82335740721E+03 -0.90311168173E+03  0.12765128522E+04  0.10100000352E+00 0. -1.
</event>
<event>
 5   0  0.5121624E-06  0.3122656E+04  0.7818609E-02  0.8209548E-01
       -2   -1    0    0    0  501  0.00000000000E+00  0.00000000000E+00  0.13780357700E+04  0.13780357700E+04  0.25500000920E-02 0.  1.
        2   -1    0    0  501    0  0.00000000000E+00  0.00000000000E+00 -0.17689996493E+04  0.17689996493E+04  0.25500000920E-02 0. -1.
    10030    2    1    2    0    0  0.00000000000E+00  0.00000000000E+00 -0.39096387933E+03  0.31470354193E+04  0.31226557888E+04 0.  0.
        4    1    3    3  502    0 -0.24490247105E+03  0.79781089117E+02  0.13564762252E+04  0.13807141648E+04  0.12699999809E+01 0.  1.
       -4    1    3    3    0  502  0.24490247105E+03 -0.79781089117E+02 -0.17474401045E+04  0.17663212545E+04  0.12699999809E+01 0. -1.
</event>
<event>
 5   0  0.1846850E-06  0.2629664E+04  0.7818609E-02  0.8358194E-01
       -1   -1    0    0    0  501  0.00000000000E+00  0.00000000000E+00  0.10561470738E+04  0.10561470738E+04  0.50400001928E-02 0.  1.
        1   -1    0    0  501    0  0.00000000000E+00  0.00000000000E+00 -0.16368775365E+04  0.16368775365E+04  0.50400001928E-02 0. -1.
    10030    2    1    2    0    0  0.00000000000E+00  0.00000000000E+00 -0.58073046266E+03  0.26930246103E+04  0.26296641766E+04 0.  0.
        5    1    3    3  502    0  0.11367234136E+04 -0.19763588922E+03  0.35535153761E+03  0.12072683500E+04  0.46999998093E+01 0.  1.
       -5    1    3    3    0  502 -0.11367234136E+04  0.19763588922E+03 -0.93608200026E+03  0.14857562603E+04  0.46999998093E+01 0. -1.
</event>
<event>
 5   0  0.1977015E-06  0.3166386E+04  0.7818609E-02  0.8197751E-01
        1   -1    0    0  501    0  0.00000000000E+00  0.00000000000E+00  0.10946822006E+04  0.10946822006E+04  0.50400001928E-02 0. -1.
       -1   -1    0    0    0  501  0.00000000000E+00  0.00000000000E+00 -0.22897055746E+04  0.22897055746E+04  0.50400001928E-02 0.  1.
    10030    2    1    2    0    0  0.00000000000E+00  0.00000000000E+00 -0.11950233740E+04  0.33843877752E+04  0.31663859128E+04 0.  0.
        1    1    3    3  502    0 -0.15205028231E+04 -0.30895936064E+03 -0.26101062584E+03  0.15733757556E+04  0.50400001928E-02 0. -1.
       -1    1    3    3    0  502  0.15205028231E+04  0.30895936064E+03 -0.93401274813E+03  0.18110120196E+04  0.50400001928E-02 0.  1.
</event>
<event>
 5   0  0.1846850E-06  0.3148633E+04  0.7818609E-02  0.8202516E-01
        1   -1    0    0  501    0  0.00000000000E+00  0.00000000000E+00  0.23988188492E+04  0.23988188492E+04  0.50400001928E-02 0. -1.
       -1   -1    0    0    0  501  0.00000000000E+00  0.00000000000E+00 -0.10332052216E+04  0.10332052216E+04  0.50400001928E-02 0.  1.
    10030    2    1    2    0    0  0.00000000000E+00  0.00000000000E+00  0.13656136276E+04  0.34320240708E+04  0.31486328212E+04 0.  0.
        5    1    3    3  502    0  0.12108999093E+04  0.58375826944E+03 -0.21033053727E+03  0.13606297558E+04  0.46999998093E+01 0.  1.
       -5    1    3    3    0  502 -0.12108999093E+04 -0.58375826944E+03  0.15759441649E+04  0.20713943150E+04  0.46999998093E+01 0. -1.
</event>
<event>
 5   0  0.5131083E-06  0.2120767E+04  0.7818609E-02  0.8552150E-01
       -2   -1    0    0    0  501  0.00000000000E+00  0.00000000000E+00  0.69132218306E+03  0.69132218307E+03  0.25500000920E-02 0.  1.
        2   -1    0    0  501    0  0.00000000000E+00  0.00000000000E+00 -0.16264672948E+04  0.16264672948E+04  0.25500000920E-02 0. -1.
    10030    2    1    2    0    0  0.00000000000E+00  0.00000000000E+00 -0.93514511177E+03  0.23177894779E+04  0.21207667679E+04 0.  0.
        3    1    3    3  502    0 -0.10144008208E+04  0.81922303400E+02 -0.79305294282E+03  0.12902144277E+04  0.10100000352E+00 0. -1.
       -3    1    3    3    0  502  0.10144008208E+04 -0.81922303400E+02 -0.14209216895E+03  0.10275750502E+04  0.10100000352E+00 0.  1.
</event>
<event>
 5   0  0.1886248E-06  0.3218769E+04  0.7818609E-02  0.8183878E-01
       -1   -1    0    0    0  501  0.00000000000E+00  0.00000000000E+00  0.96489808799E+03  0.96489808800E+03  0.50400001928E-02 0. -1.
        1   -1    0    0  501    0  0.00000000000E+00  0.00000000000E+00 -0.26843444842E+04  0.26843444842E+04  0.50400001928E-02 0.  1.
    10030    2    1    2    0    0  0.00000000000E+00  0.00000000000E+00 -0.17194463962E+04  0.36492425722E+04  0.32187692433E+04 0.  0.
        4    1    3    3  502    0  0.33847739619E+03 -0.57318613254E+03 -0.25209530127E+04  0.26073578572E+04  0.12699999809E+01 0.  1.
       -4    1    3    3    0  502 -0.33847739619E+03  0.57318613254E+03  0.80150661648E+03  0.10418847150E+04  0.12699999809E+01 0. -1.
</event>
<event>
 5   0  0.1729500E-06  0.3149968E+04  0.7818609E-02  0.8202157E-01
       -3   -1    0    0    0  501  0.00000000000E+00  0.00000000000E+00  0.14511581712E+04  0.14511581747E+04  0.10100000352E+00 0.  1.
        3   -1    0    0  501    0  0.00000000000E+00  0.00000000000E+00 -0.17093758908E+04  0.17093758938E+04  0.10100000352E+00 0. -1.
    10030    2    1    2    0    0  0.00000000000E+00  0.00000000000E+00 -0.25821771958E+03  0.31605340685E+04  0.31499681280E+04 0.  0.
        2    1    3    3  502    0 -0.13771413997E+04 -0.65819011676E+03  0.26057790448E+03  0.15484293684E+04  0.25500000920E-02 0.  1.
       -2    1    3    3    0  502  0.13771413997E+04  0.65819011676E+03 -0.51879562405E+03  0.16121047001E+04  0.25500000920E-02 0. -1.
</event>
<event>
 5   0  0.5373060E-06  0.3212715E+04  0.7818609E-02  0.8185467E-01
       -2   -1    0    0    0  501  0.00000000000E+00  0.00000000000E+00  0.19291717035E+04  0.19291717036E+04  0.25500000920E-02 0.  1.
        2   -1    0    0  501    0  0.00000000000E+00  0.00000000000E+00 -0.13375608933E+04  0.13375608933E+04  0.25500000920E-02 0. -1.
    10030    2    1    2    0    0  0.00000000000E+00  0.00000000000E+00  0.59161081030E+03  0.32667325968E+04  0.32127151303E+04 0.  0.
        5    1    3    3  502    0  0.11423214770E+04  0.58554974306E+03  0.12777524487E+04  0.18111985724E+04  0.46999998093E+01 0.  1.
       -5    1    3    3    0  502 -0.11423214770E+04 -0.58554974306E+03 -0.68614163837E+03  0.14555340245E+04  0.46999998093E+01 0. -1.
</event>
<event>
 5   0  0.1846850E-06  0.3204222E+04  0.7818609E-02  0.8187703E-01
        1   -1    0    0  501    0  0.00000000000E+00  0.00000000000E+00  0.15253523067E+04  0.15253523067E+04  0.50400001928E-02 0.  1.
       -1   -1    0    0    0  501  0.00000000000E+00  0.00000000000E+00 -0.16827325057E+04  0.16827325057E+04  0.50400001928E-02 0. -1.
    10030    2    1    2    0    0  0.00000000000E+00  0.00000000000E+00 -0.15738019899E+03  0.32080848125E+04  0.32042221579E+04 0.  0.
        5    1    3    3  502    0 -0.52361568526E+03 -0.14530724227E+04  0.34743425738E+03  0.15831378666E+04  0.46999998093E+01 0.  1.
       -5    1    3    3    0  502  0.52361568526E+03  0.14530724227E+04 -0.50481445637E+03  0.16249469459E+04  0.46999998093E+01 0. -1.
</event>
<event>
 5   0  0.5121624E-06  0.3225560E+04  0.7818609E-02  0.8182099E-01
        2   -1    0    0  501    0  0.00000000000E+00  0.00000000000E+00  0.17747646228E+04  0.17747646228E+04  0.25500000920E-02 0.  1.
       -2   -1    0    0    0  501  0.00000000000E+00  0.00000000000E+00 -0.14655794661E+04  0.14655794661E+04  0.25500000920E-02 0. -1.
    10030    2    1    2    0    0  0.00000000000E+00  0.00000000000E+00  0.30918515668E+03  0.32403440890E+04  0.32255595412E+04 0.  0.
        4    1    3    3  502    0 -0.65790503417E+03  0.89894409729E+03  0.13261788483E+04  0.17319617417E+04  0.12699999809E+01 0.  1.
       -4    1    3    3    0  502  0.65790503417E+03 -0.89894409729E+03 -0.10169936916E+04  0.15083823473E+04  0.12699999809E+01 0. -1.
</event>
<event>
 5   0  0.1886248E-06  0.2751611E+04  0.7818609E-02  0.8318451E-01
        1   -1    0    0  501    0  0.00000000000E+00  0.00000000000E+00  0.12220258684E+04  0.12220258684E+04  0.50400001928E-02 0. -1.
       -1   -1    0    0    0  501  0.00000000000E+00  0.00000000000E+00 -0.15489370815E+04  0.15489370815E+04  0.50400001928E-02 0.  1.
    10030    2    1    2    0    0  0.00000000000E+00  0.00000000000E+00 -0.32691121315E+03  0.27709629500E+04  0.27516112968E+04 0.  0.
        4    1    3    3  502    0 -0.67900627609E+03  0.11057436174E+04  0.29705810040E+03  0.13311512305E+04  0.12699999809E+01 0. -1.
       -4    1    3    3    0  502  0.67900627609E+03 -0.11057436174E+04 -0.62396931354E+03  0.14398117195E+04  0.12699999809E+01 0.  1.
</event>
<event>
 5   0  0.1969465E-06  0.3047009E+04  0.7818609E-02  0.8230433E-01
        1   -1    0    0  501    0  0.00000000000E+00  0.00000000000E+00  0.30498042105E+04  0.30498042105E+04  0.50400001928E-02 0. -1.
       -1   -1    0    0    0  501  0.00000000000E+00  0.00000000000E+00 -0.76105392882E+03  0.76105392884E+03  0.50400001928E-02 0.  1.
    10030    2    1    2    0    0  0.00000000000E+00  0.00000000000E+00  0.22887502817E+04  0.38108581393E+04  0.30470086817E+04 0.  0.
        2    1    3    3  502    0  0.11412834227E+04  0.73549034856E+03  0.28004945758E+03  0.13863266579E+04  0.25500000920E-02 0.  1.
       -2    1    3    3    0  502 -0.11412834227E+04 -0.73549034856E+03  0.20087008241E+04  0.24245314814E+04  0.25500000920E-02 0. -1.
</event>
<event>
 5   0  0.1881144E-06  0.3248930E+04  0.7818609E-02  0.8176013E-01
        1   -1    0    0  501    0  0.00000000000E+00  0.00000000000E+00  0.16536266438E+04  0.16536266438E+04  0.50400001928E-02 0. -1.
       -1   -1    0    0    0  501  0.00000000000E+00  0.00000000000E+00 -0.15958179145E+04  0.15958179145E+04  0.50400001928E-02 0.  1.
    10030    2    1    2    0    0  0.00000000000E+00  0.00000000000E+00  0.57808729264E+02  0.32494445583E+04  0.32489302991E+04 0.  0.
        3    1    3    3  502    0  0.14491914639E+04 -0.27916190273E+03 -0.65002540533E+03  0.16126438865E+04  0.10100000352E+00 0. -1.
       -3    1    3    3    0  502 -0.14491914639E+04  0.27916190273E+03  0.70783413459E+03  0.16368006718E+04  0.10100000352E+00 0.  1.
</event>
<event>
 5   0  0.5131083E-06  0.3202692E+04  0.7818609E-02  0.8188107E-01
        2   -1    0    0  501    0  0.00000000000E+00  0.00000000000E+00  0.19924320285E+04  0.19924320285E+04  0.25500000920E-02 0.  1.
       -2   -1    0    0    0  501  0.00000000000E+00  0.00000000000E+00 -0.12870242522E+04  0.12870242522E+04  0.25500000920E-02 0. -1.
    10030    2    1    2    0    0  0.00000000000E+00  0.00000000000E+00  0.70540777623E+03  0.32794562807E+04  0.32026915815E+04 0.  0.
        3    1    3    3  502    0 -0.77744610981E+03  0.10008785484E+04 -0.64959787752E+03  0.14241340299E+04  0.10100000352E+00 0. -1.
       -3    1    3    3    0  502  0.77744610981E+03 -0.10008785484E+04  0.13550056538E+04  0.18553222508E+04  0.10100000352E+00 0.  1.
</event>
<event>
 5   0  0.1969465E-06  0.3061709E+04  0.7818609E-02  0.8226326E-01
        1   -1    0    0  501    0  0.00000000000E+00  0.00000000000E+00  0.12934948716E+04  0.12934948716E+04  0.50400001928E-02 0. -1.
       -1   -1    0    0    0  501  0.00000000000E+00  0.00000000000E+00 -0.18117704551E+04  0.18117704551E+04  0.50400001928E-02 0.  1.
    10030    2    1    2    0    0  0.00000000000E+00  0.00000000000E+00 -0.51827558349E+03  0.31052653267E+04  0.30617091907E+04 0.  0.
        2    1    3    3  502    0 -0.28664659498E+03  0.11541951867E+04  0.71851670504E+03  0.13894599868E+04  0.25500000920E-02 0. -1.
       -2    1    3    3    0  502  0.28664659498E+03 -0.11541951867E+04 -0.12367922885E+04  0.17158053399E+04  0.25500000920E-02 0.  1.
</event>
<event>
 5   0  0.1969465E-06  0.2956038E+04  0.7818609E-02  0.8256397E-01
        1   -1    0    0  501    0  0.00000000000E+00  0.00000000000E+00  0.22599231229E+04  0.22599231229E+04  0.50400001928E-02 0. -1.
       -1   -1    0    0    0  501  0.00000000000E+00  0.00000000000E+00 -0.96664343960E+03  0.96664343962E+03  0.50400001928E-02 0.  1.
    10030    2    1    2    0    0  0.00000000000E+00  0.00000000000E+00  0.12932796833E+04  0.32265665625E+04  0.29560377946E+04 0.  0.
        2    1    3    3  502    0 -0.98722242679E+03  0.13036945593E+03 -0.54553275824E+03  0.11354339722E+04  0.25500000920E-02 0.  1.
       -2    1    3    3    0  502  0.98722242679E+03 -0.13036945593E+03  0.18388124416E+04  0.20911325903E+04  0.25500000920E-02 0. -1.
</event>
<event>
 5   0  0.5373060E-06  0.3154463E+04  0.7818609E-02  0.8200948E-01
        2   -1    0    0  501    0  0.00000000000E+00  0.00000000000E+00  0.25461018876E+04  0.25461018876E+04  0.25500000920E-02 0.  1.
       -2   -1    0    0    0  501  0.00000000000E+00  0.00000000000E+00 -0.97704614681E+03  0.97704614682E+03  0.25500000920E-02 0. -1.
    10030    2    1    2    0    0  0.00000000000E+00  0.00000000000E+00  0.15690557408E+04  0.35231480344E+04  0.31544628948E+04 0.  0.
        5    1    3    3  502    0  0.15029609290E+02  0.14912064582E+04  0.21097645403E+03  0.15061393509E+04  0.46999998093E+01 0. -1.
       -5    1    3    3    0  502 -0.15029609290E+02 -0.14912064582E+04  0.13580792868E+04  0.20170086835E+04  0.46999998093E+01 0.  1.
</event>
<event>
 5   0  0.5121624E-06  0.3230751E+04  0.7818609E-02  0.8180743E-01
       -2   -1    0    0    0  501  0.00000000000E+00  0.00000000000E+00  0.16248499068E+04  0.16248499068E+04  0.25500000920E-02 0.  1.
        2   -1    0    0  501    0  0.00000000000E+00  0.00000000000E+00 -0.16059567900E+04  0.16059567900E+04  0.25500000920E-02 0. -1.
    10030    2    1    2    0    0  0.00000000000E+00  0.00000000000E+00  0.18893116742E+02  0.32308066968E+04  0.32307514548E+04 0.  0.
        4    1    3    3  502    0  0.15488508193E+04  0.45625741954E+03 -0.38797755820E+02  0.16151212252E+04  0.12699999809E+01 0. -1.
       -4    1    3    3    0  502 -0.15488508193E+04 -0.45625741954E+03  0.57690872562E+02  0.16156854716E+04  0.12699999809E+01 0.  1.
</event>
<event>
 5   0  0.1969465E-06  0.3217626E+04  0.7818609E-02  0.8184178E-01
       -1   -1    0    0    0  501  0.00000000000E+00  0.00000000000E+00  0.33303199940E+04  0.33303199940E+04  0.50400001928E-02 0.  1.
        1   -1    0    0  501    0  0.00000000000E+00  0.00000000000E+00 -0.77718658707E+03  0.77718658709E+03  0.50400001928E-02 0. -1.
    10030    2    1    2    0    0  0.00000000000E+00  0.00000000000E+00  0.25531334069E+04  0.41075065811E+04  0.32176264731E+04 0.  0.
        2    1    3    3  502    0 -0.67974753436E+03  0.59967455055E+03  0.29732994630E+04  0.31084040879E+04  0.25500000920E-02 0.  1.
       -2    1    3    3    0  502  0.67974753436E+03 -0.59967455055E+03 -0.42016605613E+03  0.99910249313E+03  0.25500000920E-02 0. -1.
</event>
<event>
 5   0  0.1881144E-06  0.2190439E+04  0.7818609E-02  0.8522418E-01
       -1   -1    0    0    0  501  0.00000000000E+00  0.00000000000E+00  0.10949989328E+04  0.10949989328E+04  0.50400001928E-02 0. -1.
        1   -1    0    0  501    0  0.00000000000E+00  0.00000000000E+00 -0.10954396565E+04  0.10954396566E+04  0.50400001928E-02 0.  1.
    10030    2    1    2    0    0  0.00000000000E+00  0.00000000000E+00 -0.44072377139E+00  0.21904385893E+04  0.21904385450E+04 0.  0.
        3    1    3    3  502    0 -0.19257105951E+03  0.60714313479E+03 -0.89117427636E+03  0.10953985577E+04  0.10100000352E+00 0.  1.
       -3    1    3    3    0  502  0.19257105951E+03 -0.60714313479E+03  0.89073355259E+03  0.10950400317E+04  0.10100000352E+00 0. -1.
</event>
<event>
 5   0  0.1881144E-06  0.3108098E+04  0.7818609E-02  0.8213519E-01
        1   -1    0    0  501    0  0.00000000000E+00  0.00000000000E+00  0.14158689503E+04  0.14158689503E+04  0.50400001928E-02 0.  1.
       -1   -1    0    0    0  501  0.00000000000E+00  0.00000000000E+00 -0.17057150477E+04  0.17057150477E+04  0.50400001928E-02 0. -1.
    10030    2    1    2    0    0  0.00000000000E+00  0.00000000000E+00 -0.28984609741E+03  0.31215839980E+04  0.31080984373E+04 0.  0.
        3    1    3    3  502    0 -0.99356191586E+03  0.65138046113E+03  0.86122558127E+03  0.14673688350E+04  0.10100000352E+00 0.  1.
       -3    1    3    3    0  502  0.99356191586E+03 -0.65138046113E+03 -0.11510716787E+04  0.16542151630E+04  0.10100000352E+00 0. -1.
</event>
<event>
 5   0  0.5347280E-06  0.2911724E+04  0.7818609E-02  0.8269398E-01
        2   -1    0    0  501    0  0.00000000000E+00  0.00000000000E+00  0.79383338991E+03  0.79383338991E+03  0.25500000920E-02 0.  1.
       -2   -1    0    0    0  501  0.00000000000E+00  0.00000000000E+00 -0.26699995107E+04  0.26699995107E+04  0.25500000920E-02 0. -1.
    10030    2    1    2    0    0  0.00000000000E+00  0.00000000000E+00 -0.18761661208E+04  0.34638329007E+04  0.29117244119E+04 0.  0.
        2    1    3    3  502    0  0.13495583105E+04  0.39776347858E+02 -0.15860086921E+04  0.20828618204E+04  0.25500000920E-02 0. -1.
       -2    1    3    3    0  502 -0.13495583105E+04 -0.39776347858E+02 -0.29015742870E+03  0.13809710803E+04  0.25500000920E-02 0.  1.
</event>
<event>
 5   0  0.1977015E-06  0.3252503E+04  0.7818609E-02  0.8175087E-01
       -1   -1    0    0    0  501  0.00000000000E+00  0.00000000000E+00  0.31857171496E+04  0.31857171496E+04  0.50400001928E-02 0.  1.
        1   -1    0    0  501    0  0.00000000000E+00  0.00000000000E+00 -0.83017222180E+03  0.83017222181E+03  0.50400001928E-02 0. -1.
    10030    2    1    2    0    0  0.00000000000E+00  0.00000000000E+00  0.23555449278E+04  0.40158893714E+04  0.32525029649E+04 0.  0.
        1    1    3    3  502    0 -0.15289459356E+04 -0.47951353837E+03  0.83496607102E+03  0.18068694605E+04  0.50400001928E-02 0. -1.
       -1    1    3    3    0  502  0.15289459356E+04  0.47951353837E+03  0.15205788568E+04  0.22090199110E+04  0.50400001928E-02 0.  1.
</event>
<event>
 5   0  0.5373060E-06  0.3114405E+04  0.7818609E-02  0.8211796E-01
        2   -1    0    0  501    0  0.00000000000E+00  0.00000000000E+00  0.21832590721E+04  0.21832590721E+04  0.25500000920E-02 0.  1.
       -2   -1    0    0    0  501  0.00000000000E+00  0.00000000000E+00 -0.11106699257E+04  0.11106699257E+04  0.25500000920E-02 0. -1.
    10030    2    1    2    0    0  0.00000000000E+00  0.00000000000E+00  0.10725891464E+04  0.32939289978E+04  0.31144053631E+04 0.  0.
        5    1    3    3  502    0 -0.86816254053E+03  0.25619368820E+03 -0.80383412785E+03  0.12105836600E+04  0.46999998093E+01 0. -1.
       -5    1    3    3    0  502  0.86816254053E+03 -0.25619368820E+03  0.18764232742E+04  0.20833453378E+04  0.46999998093E+01 0.  1.
</event>
<event>
 5   0  0.1881144E-06  0.2994833E+04  0.7818609E-02  0.8245208E-01
        1   -1    0    0  501    0  0.00000000000E+00  0.00000000000E+00  0.19464214157E+04  0.19464214157E+04  0.50400001928E-02 0.  1.
       -1   -1    0    0    0  501  0.00000000000E+00  0.00000000000E+00 -0.11519889847E+04  0.11519889847E+04  0.50400001928E-02 0. -1.
    10030    2    1    2    0    0  0.00000000000E+00  0.00000000000E+00  0.79443243102E+03  0.30984104004E+04  0.29948329038E+04 0.  0.
        3    1    3    3  502    0  0.11630471607E+04  0.11800344086E+03  0.13653430192E+04  0.17974329140E+04  0.10100000352E+00 0.  1.
       -3    1    3    3    0  502 -0.11630471607E+04 -0.11800344086E+03 -0.57091058817E+03  0.13009774864E+04  0.10100000352E+00 0. -1.
</event>
<event>
 5   0  0.5347280E-06  0.3201197E+04  0.7818609E-02  0.8188501E-01
       -2   -1    0    0    0  501  0.00000000000E+00  0.00000000000E+00  0.15351071002E+04  0.15351071002E+04  0.25500000920E-02 0.  1.
        2   -1    0    0  501    0  0.00000000000E+00  0.00000000000E+00 -0.16688836036E+04  0.16688836036E+04  0.25500000920E-02 0. -1.
    10030    2    1    2    0    0  0.00000000000E+00  0.00000000000E+00 -0.13377650334E+03  0.32039907038E+04  0.32011966945E+04 0.  0.
        2    1    3    3  502    0  0.18071389832E+03  0.10192967750E+04 -0.12887287623E+04  0.16530109653E+04  0.25500000920E-02 0. -1.
       -2    1    3    3    0  502 -0.18071389832E+03 -0.10192967750E+04  0.11549522590E+04  0.15509797385E+04  0.25500000920E-02 0.  1.
</event>
<event>
 5   0  0.5131083E-06  0.3132376E+04  0.7818609E-02  0.8206908E-01
       -2   -1    0    0    0  501  0.00000000000E+00  0.00000000000E+00  0.14466806226E+04  0.14466806226E+04  0.25500000920E-02 0. -1.
        2   -1    0    0  501    0  0.00000000000E+00  0.00000000000E+00 -0.16955681674E+04  0.16955681674E+04  0.25500000920E-02 0.  1.
    10030    2    1    2    0    0  0.00000000000E+00  0.00000000000E+00 -0.24888754478E+03  0.31422487899E+04  0.31323764857E+04 0.  0.
        3    1    3    3  502    0 -0.67815481689E+03 -0.90391011286E+02  0.12888546103E+04  0.14591815196E+04  0.10100000352E+00 0. -1.
       -3    1    3    3    0  502  0.67815481689E+03  0.90391011286E+02 -0.15377421551E+04  0.16830672703E+04  0.10100000352E+00 0.  1.
</event>
<event>
 5   0  0.1977015E-06  0.3228809E+04  0.7818609E-02  0.8181250E-01
        1   -1    0    0  501    0  0.00000000000E+00  0.00000000000E+00  0.18639801120E+04  0.18639801120E+04  0.50400001928E-02 0.  1.
       -1   -1    0    0    0  501  0.00000000000E+00  0.00000000000E+00 -0.13982451368E+04  0.13982451368E+04  0.50400001928E-02 0. -1.
    10030    2    1    2    0    0  0.00000000000E+00  0.00000000000E+00  0.46573497522E+03  0.32622252488E+04  0.32288085274E+04 0.  0.
        1    1    3    3  502    0  0.12977654093E+04 -0.92848219148E+03 -0.14672047558E+02  0.15957723856E+04  0.50400001928E-02 0.  1.
       -1    1    3    3    0  502 -0.12977654093E+04  0.92848219148E+03  0.48040702278E+03  0.16664528632E+04  0.50400001928E-02 0. -1.
</event>
<event>
 5   0  0.1886248E-06  0.3169003E+04  0.7818609E-02  0.8197052E-01
        1   -1    0    0  501    0  0.00000000000E+00  0.00000000000E+00  0.18464444955E+04  0.18464444955E+04  0.50400001928E-02 0.  1.
       -1   -1    0    0    0  501  0.00000000000E+00  0.00000000000E+00 -0.13597185478E+04  0.13597185478E+04  0.50400001928E-02 0. -1.
    10030    2    1    2    0    0  0.00000000000E+00  0.00000000000E+00  0.48672594768E+03  0.32061630433E+04  0.31690028893E+04 0.  0.
        4    1    3    3  502    0 -0.48022460725E+03 -0.42045522237E+03  0.17106257365E+04  0.18258259202E+04  0.12699999809E+01 0.  1.
       -4    1    3    3    0  502  0.48022460725E+03  0.42045522237E+03 -0.12238997889E+04  0.13803371231E+04  0.12699999809E+01 0. -1.
</event>
<event>
 5   0  0.5131083E-06  0.3343917E+04  0.7818609E-02  0.8151810E-01
        2   -1    0    0  501    0  0.00000000000E+00  0.00000000000E+00  0.16824089638E+04  0.16824089638E+04  0.25500000920E-02 0.  1.
       -2   -1    0    0    0  501  0.00000000000E+00  0.00000000000E+00 -0.16615729200E+04  0.16615729200E+04  0.25500000920E-02 0. -1.
    10030    2    1    2    0    0  0.00000000000E+00  0.00000000000E+00  0.20836043786E+02  0.33439818838E+04  0.33439169694E+04 0.  0.
        3    1    3    3  502    0  0.86673742079E+03  0.34272470193E+03  0.13985196010E+04  0.16806400753E+04  0.10100000352E+00 0.  1.
       -3    1    3    3    0  502 -0.86673742079E+03 -0.34272470193E+03 -0.13776835573E+04  0.16633418085E+04  0.10100000352E+00 0. -1.
</event>
<event>
 5   0  0.1846850E-06  0.3167820E+04  0.7818609E-02  0.8197368E-01
        1   -1    0    0  501    0  0.00000000000E+00  0.00000000000E+00  0.16975696674E+04  0.16975696674E+04  0.50400001928E-02 0.  1.
       -1   -1    0    0    0  501  0.00000000000E+00  0.00000000000E+00 -0.14778599476E+04  0.14778599477E+04  0.50400001928E-02 0. -1.
    10030    2    1    2    0    0  0.00000000000E+00  0.00000000000E+00  0.21970971979E+03  0.31754296151E+04  0.31678195781E+04 0.  0.
        5    1    3    3  502    0 -0.87135697468E+03 -0.12484239209E+04  0.54785174835E+03  0.16180200529E+04  0.46999998093E+01 0. -1.
       -5    1    3    3    0  502  0.87135697468E+03  0.12484239209E+04 -0.32814202856E+03  0.15574095622E+04  0.46999998093E+01 0.  1.
</event>
<event>
 5   0  0.5108810E-06  0.3224073E+04  0.7818609E-02  0.8182488E-01
       -2   -1    0    0    0  501  0.00000000000E+00  0.00000000000E+00  0.11050539387E+04  0.11050539387E+04  0.25500000920E-02 0.  1.
        2   -1    0    0  501    0  0.00000000000E+00  0.00000000000E+00 -0.23516148168E+04  0.23516148168E+04  0.25500000920E-02 0. -1.
    10030    2    1    2    0    0  0.00000000000E+00  0.00000000000E+00 -0.12465608781E+04  0.34566687555E+04  0.32240727135E+04 0.  0.
        1    1    3    3  502    0 -0.72443784703E+03  0.13025908125E+04 -0.12816745263E+04  0.19657676899E+04  0.50400001928E-02 0. -1.
       -1    1    3    3    0  502  0.72443784703E+03 -0.13025908125E+04  0.35113648196E+02  0.14909010656E+04  0.50400001928E-02 0.  1.
</event>
<event>
 5   0  0.1977015E-06  0.3283304E+04  0.7818609E-02  0.8167157E-01
        1   -1    0    0  501    0  0.00000000000E+00  0.00000000000E+00  0.21789451542E+04  0.21789451542E+04  0.50400001928E-02 0. -1.
       -1   -1    0    0    0  501  0.00000000000E+00  0.00000000000E+00 -0.12368468325E+04  0.12368468325E+04  0.50400001928E-02 0.  1.
    10030    2    1    2    0    0  0.00000000000E+00  0.00000000000E+00  0.94209832177E+03  0.34157919867E+04  0.32833040750E+04 0.  0.
        1    1    3    3  502    0  0.14481404425E+03  0.10147160990E+04 -0.86303813183E+03  0.13399457773E+04  0.50400001928E-02 0.  1.
       -1    1    3    3    0  502 -0.14481404425E+03 -0.10147160990E+04  0.18051364536E+04  0.20758462094E+04  0.50400001928E-02 0. -1.
</event>
<event>
 5   0  0.5347280E-06  0.3134226E+04  0.7818609E-02  0.8206407E-01
       -2   -1    0    0    0  501  0.00000000000E+00  0.00000000000E+00  0.14993763069E+04  0.14993763069E+04  0.25500000920E-02 0. -1.
        2   -1    0    0  501    0  0.00000000000E+00  0.00000000000E+00 -0.16379099514E+04  0.16379099514E+04  0.25500000920E-02 0.  1.
    10030    2    1    2    0    0  0.00000000000E+00  0.00000000000E+00 -0.13853364450E+03  0.31372862584E+04  0.31342261399E+04 0.  0.
        2    1    3    3  502    0  0.59783716431E+03 -0.59923813075E+03  0.12508641798E+04  0.15103498961E+04  0.25500000920E-02 0. -1.
       -2    1    3    3    0  502 -0.59783716431E+03  0.59923813075E+03 -0.13893978243E+04  0.16269363622E+04  0.25500000920E-02 0.  1.
</event>
<event>
 5   0  0.1881144E-06  0.3102796E+04  0.7818609E-02  0.8214971E-01
       -1   -1    0    0    0  501  0.00000000000E+00  0.00000000000E+00  0.99419885000E+03  0.99419885002E+03  0.50400001928E-02 0. -1.
        1   -1    0    0  501    0  0.00000000000E+00  0.00000000000E+00 -0.24208794711E+04  0.24208794711E+04  0.50400001928E-02 0.  1.
    10030    2    1    2    0    0  0.00000000000E+00  0.00000000000E+00 -0.14266806211E+04  0.34150783212E+04  0.31027958916E+04 0.  0.
        3    1    3    3  502    0  0.14475623194E+04 -0.31688933285E+03 -0.20778559658E+03  0.14963389931E+04  0.10100000352E+00 0. -1.
       -3    1    3    3    0  502 -0.14475623194E+04  0.31688933285E+03 -0.12188950246E+04  0.19187393281E+04  0.10100000352E+00 0.  1.
</event>
<event>
 5   0  0.5121624E-06  0.3165746E+04  0.7818609E-02  0.8197923E-01
       -2   -1    0    0    0  501  0.00000000000E+00  0.00000000000E+00  0.12362295714E+04  0.12362295714E+04  0.25500000920E-02 0.  1.
        2   -1    0    0  501    0  0.00000000000E+00  0.00000000000E+00 -0.20267167394E+04  0.20267167394E+04  0.25500000920E-02 0. -1.
    10030    2    1    2    0    0  0.00000000000E+00  0.00000000000E+00 -0.79048716793E+03  0.32629463108E+04  0.31657461466E+04 0.  0.
        4    1    3    3  502    0  0.71064387228E+03 -0.38278900323E+02 -0.18525163294E+04  0.19845146387E+04  0.12699999809E+01 0. -1.
       -4    1    3    3    0  502 -0.71064387228E+03  0.38278900323E+02  0.10620291615E+04  0.12784316721E+04  0.12699999809E+01 0.  1.
</event>
<event>
 5   0  0.5108810E-06  0.2690958E+04  0.7818609E-02  0.8337945E-01
       -2   -1    0    0    0  501  0.00000000000E+00  0.00000000000E+00  0.10711290623E+04  0.10711290623E+04  0.25500000920E-02 0.  1.
        2   -1    0    0  501    0  0.00000000000E+00  0.00000000000E+00 -0.16900991093E+04  0.16900991093E+04  0.25500000920E-02 0. -1.
    10030    2    1    2    0    0  0.00000000000E+00  0.00000000000E+00 -0.61897004702E+03  0.27612281717E+04  0.26909583975E+04 0.  0.
        1    1    3    3  502    0  0.46307150393E+03  0.25837943019E+03  0.95938159593E+03  0.10961789062E+04  0.50400001928E-02 0.  1.
       -1    1    3    3    0  502 -0.46307150393E+03 -0.25837943019E+03 -0.15783516429E+04  0.16650492655E+04  0.50400001928E-02 0. -1.
</event>
<event>
 5   0  0.1881144E-06  0.3211956E+04  0.7818609E-02  0.8185667E-01
        1   -1    0    0  501    0  0.00000000000E+00  0.00000000000E+00  0.15724715843E+04  0.15724715843E+04  0.50400001928E-02 0. -1.
       -1   -1    0    0    0  501  0.00000000000E+00  0.00000000000E+00 -0.16401981120E+04  0.16401981120E+04  0.50400001928E-02 0.  1.
    10030    2    1    2    0    0  0.00000000000E+00  0.00000000000E+00 -0.67726527764E+02  0.32126696963E+04  0.32119557430E+04 0.  0.
        3    1    3    3  502    0  0.15273899653E+04  0.41182349894E+01  0.46246054456E+03  0.15958718092E+04  0.10100000352E+00 0.  1.
       -3    1    3    3    0  502 -0.15273899653E+04 -0.41182349894E+01 -0.53018707232E+03  0.16167978871E+04  0.10100000352E+00 0. -1.
</event>
<event>
 5   0  0.1846850E-06  0.3167446E+04  0.7818609E-02  0.8197468E-01
       -1   -1    0    0    0  501  0.00000000000E+00  0.00000000000E+00  0.19457884803E+04  0.19457884803E+04  0.50400001928E-02 0. -1.
        1   -1    0    0  501    0  0.00000000000E+00  0.00000000000E+00 -0.12890295409E+04  0.12890295410E+04  0.50400001928E-02 0.  1.
    10030    2    1    2    0    0  0.00000000000E+00  0.00000000000E+00  0.65675893935E+03  0.32348180213E+04  0.31674461836E+04 0.  0.
        5    1    3    3  502    0  0.75011718394E+03  0.75530414444E+02 -0.10940030688E+04  0.13286253940E+04  0.46999998093E+01 0.  1.
       -5    1    3    3    0  502 -0.75011718394E+03 -0.75530414444E+02  0.17507620081E+04  0.19061926272E+04  0.46999998093E+01 0. -1.
</event>
<event>
 5   0  0.1881144E-06  0.3184586E+04  0.7818609E-02  0.8192900E-01
        1   -1    0    0  501    0  0.00000000000E+00  0.00000000000E+00  0.19966456299E+04  0.19966456299E+04  0.50400001928E-02 0. -1.
       -1   -1    0    0    0  501  0.00000000000E+00  0.00000000000E+00 -0.12698282160E+04  0.12698282160E+04  0.50400001928E-02 0.  1.
    10030    2    1    2    0    0  0.00000000000E+00  0.00000000000E+00  0.72681741382E+03  0.32664738459E+04  0.31845859751E+04 0.  0.
        3    1    3    3  502    0  0.98807629285E+03  0.82298610067E+03  0.13265949820E+04  0.18475538257E+04  0.10100000352E+00 0. -1.
       -3    1    3    3    0  502 -0.98807629285E+03 -0.82298610067E+03 -0.59977756813E+03  0.14189200202E+04  0.10100000352E+00 0.  1.
</event>
<event>
 5   0  0.1846850E-06  0.3134741E+04  0.7818609E-02  0.8206268E-01
        1   -1    0    0  501    0  0.00000000000E+00  0.00000000000E+00  0.24878833644E+04  0.24878833644E+04  0.50400001928E-02 0.  1.
       -1   -1    0    0    0  501  0.00000000000E+00  0.00000000000E+00 -0.98744604953E+03  0.98744604954E+03  0.50400001928E-02 0. -1.
    10030    2    1    2    0    0  0.00000000000E+00  0.00000000000E+00  0.15004373149E+04  0.34753294140E+04  0.31347412014E+04 0.  0.
        5    1    3    3  502    0  0.57286784148E+03 -0.12334473503E+04  0.16140114678E+04  0.21105982654E+04  0.46999998093E+01 0. -1.
       -5    1    3    3    0  502 -0.57286784148E+03  0.12334473503E+04 -0.11357415289E+03  0.13647311486E+04  0.46999998093E+01 0.  1.
</event>
<event>
 5   0  0.5347280E-06  0.3009221E+04  0.7818609E-02  0.8241103E-01
        2   -1    0    0  501    0  0.00000000000E+00  0.00000000000E+00  0.16770652377E+04  0.16770652377E+04  0.25500000920E-02 0. -1.
       -2   -1    0    0    0  501  0.00000000000E+00  0.00000000000E+00 -0.13498898011E+04  0.13498898011E+04  0.25500000920E-02 0.  1.
    10030    2    1    2    0    0  0.00000000000E+00  0.00000000000E+00  0.32717543656E+03  0.30269550388E+04  0.30092213346E+04 0.  0.
        2    1    3    3  502    0  0.86926821939E+03  0.11908453024E+04 -0.13837042040E+03  0.14808396756E+04  0.25500000920E-02 0.  1.
       -2    1    3    3    0  502 -0.86926821939E+03 -0.11908453024E+04  0.46554585696E+03  0.15461153632E+04  0.25500000920E-02 0. -1.
</event>
<event>
 5   0  0.1881144E-06  0.3213591E+04  0.7818609E-02  0.8185237E-01
        1   -1    0    0  501    0  0.00000000000E+00  0.00000000000E+00  0.15689270233E+04  0.15689270233E+04  0.50400001928E-02 0.  1.
       -1   -1    0    0    0  501  0.00000000000E+00  0.00000000000E+00 -0.16455777166E+04  0.16455777166E+04  0.50400001928E-02 0. -1.
    10030    2    1    2    0    0  0.00000000000E+00  0.00000000000E+00 -0.76650693323E+02  0.32145047400E+04  0.32135907323E+04 0.  0.
        3    1    3    3  502    0  0.92887511383E+03  0.12931499354E+04  0.17794346836E+03  0.16020953844E+04  0.10100000352E+00 0. -1.
       -3    1    3    3    0  502 -0.92887511383E+03 -0.12931499354E+04 -0.25459416168E+03  0.16124093556E+04  0.10100000352E+00 0.  1.
</event>
<event>
 5   0  0.5108810E-06  0.2985183E+04  0.7818609E-02  0.8247975E-01
        2   -1    0    0  501    0  0.00000000000E+00  0.00000000000E+00  0.17620535150E+04  0.17620535150E+04  0.25500000920E-02 0.  1.
       -2   -1    0    0    0  501  0.00000000000E+00  0.00000000000E+00 -0.12643367285E+04  0.12643367285E+04  0.25500000920E-02 0. -1.
    10030    2    1    2    0    0  0.00000000000E+00  0.00000000000E+00  0.49771678649E+03  0.30263902436E+04  0.29851827259E+04 0.  0.
        1    1    3    3  502    0  0.10054272272E+04 -0.29530073816E+02  0.13668378902E+04  0.16970567912E+04  0.50400001928E-02 0.  1.
       -1    1    3    3    0  502 -0.10054272272E+04  0.29530073816E+02 -0.86912110376E+03  0.13293334523E+04  0.50400001928E-02 0. -1.
</event>
<event>
 5   0  0.5121624E-06  0.3096081E+04  0.7818609E-02  0.8216814E-01
        2   -1    0    0  501    0  0.00000000000E+00  0.00000000000E+00  0.11020411000E+04  0.11020411000E+04  0.25500000920E-02 0. -1.
       -2   -1    0    0    0  501  0.00000000000E+00  0.00000000000E+00 -0.21745366133E+04  0.21745366133E+04  0.25500000920E-02 0.  1.
    10030    2    1    2    0    0  0.00000000000E+00  0.00000000000E+00 -0.10724955133E+04  0.32765777133E+04  0.30960805683E+04 0.  0.
        4    1    3    3  502    0  0.42496380810E+02 -0.15431251205E+04 -0.65869079274E+03  0.16783671390E+04  0.12699999809E+01 0.  1.
       -4    1    3    3    0  502 -0.42496380810E+02  0.15431251205E+04 -0.41380472052E+03  0.15982105743E+04  0.12699999809E+01 0. -1.
</event>
<event>
 5   0  0.1846850E-06  0.3710191E+04  0.7818609E-02  0.8065707E-01
        1   -1    0    0  501    0  0.00000000000E+00  0.00000000000E+00  0.23552650688E+04  0.23552650688E+04  0.50400001928E-02 0.  1.
       -1   -1    0    0    0  501  0.00000000000E+00  0.00000000000E+00 -0.14611429303E+04  0.14611429303E+04  0.50400001928E-02 0. -1.
    10030    2    1    2    0    0  0.00000000000E+00  0.00000000000E+00  0.89412213851E+03  0.38164079991E+04  0.37101907790E+04 0.  0.
        5    1    3    3  502    0 -0.11934312725E+04  0.12991850567E+04 -0.14312147269E+03  0.17699338574E+04  0.46999998093E+01 0.  1.
       -5    1    3    3    0  502  0.11934312725E+04 -0.12991850567E+04  0.10372436112E+04  0.20464741417E+04  0.46999998093E+01 0. -1.
</event>
<event>
 5   0  0.5131083E-06  0.3187357E+04  0.7818609E-02  0.8192164E-01
       -2   -1    0    0    0  501  0.00000000000E+00  0.00000000000E+00  0.14565154252E+04  0.14565154252E+04  0.25500000920E-02 0. -1.
        2   -1    0    0  501    0  0.00000000000E+00  0.00000000000E+00 -0.17437582426E+04  0.17437582426E+04  0.25500000920E-02 0.  1.
    10030    2    1    2    0    0  0.00000000000E+00  0.00000000000E+00 -0.28724281745E+03  0.32002736678E+04  0.31873567595E+04 0.  0.
        3    1    3    3  502    0 -0.34234901506E+03 -0.15359750016E+04  0.10917006003E+03  0.15774473575E+04  0.10100000352E+00 0. -1.
       -3    1    3    3    0  502  0.34234901506E+03  0.15359750016E+04 -0.39641287748E+03  0.16228263102E+04  0.10100000352E+00 0.  1.
</event>
<event>
 5   0  0.5108810E-06  0.3237104E+04  0.7818609E-02  0.8179086E-01
        2   -1    0    0  501    0  0.00000000000E+00  0.00000000000E+00  0.26011240511E+04  0.26011240511E+04  0.25500000920E-02 0. -1.
       -2   -1    0    0    0  501  0.00000000000E+00  0.00000000000E+00 -0.10071458715E+04  0.10071458715E+04  0.25500000920E-02 0.  1.
    10030    2    1    2    0    0  0.00000000000E+00  0.00000000000E+00  0.15939781796E+04  0.36082699226E+04  0.32371044773E+04 0.  0.
        1    1    3    3  502    0  0.28421026686E+03  0.13971544275E+04  0.16509198281E+04  0.21813647675E+04  0.50400001928E-02 0. -1.
       -1    1    3    3    0  502 -0.28421026686E+03 -0.13971544275E+04 -0.56941648486E+02  0.14269051551E+04  0.50400001928E-02 0.  1.
</event>
<event>
 5   0  0.1969465E-06  0.3228333E+04  0.7818609E-02  0.8181374E-01
        1   -1    0    0  501    0  0.00000000000E+00  0.00000000000E+00  0.21821985462E+04  0.21821985462E+04  0.50400001928E-02 0.  1.
       -1   -1    0    0    0  501  0.00000000000E+00  0.00000000000E+00 -0.11939945500E+04  0.11939945500E+04  0.50400001928E-02 0. -1.
    10030    2    1    2    0    0  0.00000000000E+00  0.00000000000E+00  0.98820399616E+03  0.33761930962E+04  0.32283328027E+04 0.  0.
        2    1    3    3  502    0  0.54098174165E+03 -0.82656895001E+03  0.18291500831E+04  0.20788620686E+04  0.25500000920E-02 0.  1.
       -2    1    3    3    0  502 -0.54098174165E+03  0.82656895001E+03 -0.84094608694E+03  0.12973310276E+04  0.25500000920E-02 0. -1.
</event>
<event>
 5   0  0.1846850E-06  0.3238987E+04  0.7818609E-02  0.8178596E-01
       -1   -1    0    0    0  501  0.00000000000E+00  0.00000000000E+00  0.11613941741E+04  0.11613941741E+04  0.50400001928E-02 0.  1.
        1   -1    0    0  501    0  0.00000000000E+00  0.00000000000E+00 -0.22582858006E+04  0.22582858007E+04  0.50400001928E-02 0. -1.
    10030    2    1    2    0    0  0.00000000000E+00  0.00000000000E+00 -0.10968916265E+04  0.34196799748E+04  0.32389874790E+04 0.  0.
        5    1    3    3  502    0  0.45448991133E+03 -0.84956748694E+03  0.82586730164E+03  0.12690172908E+04  0.46999998093E+01 0.  1.
       -5    1    3    3    0  502 -0.45448991133E+03  0.84956748694E+03 -0.19227589282E+04  0.21506626840E+04  0.46999998093E+01 0. -1.
</event>
<event>
 5   0  0.1977015E-06  0.3105968E+04  0.7818609E-02  0.8214102E-01
        1   -1    0    0  501    0  0.00000000000E+00  0.00000000000E+00  0.19966985627E+04  0.19966985627E+04  0.50400001928E-02 0.  1.
       -1   -1    0    0    0  501  0.00000000000E+00  0.00000000000E+00 -0.12078737445E+04  0.12078737445E+04  0.50400001928E-02 0. -1.
    10030    2    1    2    0    0  0.00000000000E+00  0.00000000000E+00  0.78882481819E+03  0.32045723073E+04  0.31059682997E+04 0.  0.
        1    1    3    3  502    0 -0.12176452303E+04 -0.30580137882E+03 -0.54871088738E+03  0.13701306609E+04  0.50400001928E-02 0. -1.
       -1    1    3    3    0  502  0.12176452303E+04  0.30580137882E+03  0.13375357056E+04  0.18344416463E+04  0.50400001928E-02 0.  1.
</event>
<event>
 5   0  0.5373060E-06  0.2957877E+04  0.7818609E-02  0.8255863E-01
       -2   -1    0    0    0  501  0.00000000000E+00  0.00000000000E+00  0.26090861054E+04  0.26090861054E+04  0.25500000920E-02 0. -1.
        2   -1    0    0  501    0  0.00000000000E+00  0.00000000000E+00 -0.83832392411E+03  0.83832392411E+03  0.25500000920E-02 0.  1.
    10030    2    1    2    0    0  0.00000000000E+00  0.00000000000E+00  0.17707621813E+04  0.34474100295E+04  0.29578771457E+04 0.  0.
        5    1    3    3  502    0 -0.41817875340E+03  0.71600523444E+03 -0.54191816880E+03  0.99057274201E+03  0.46999998093E+01 0.  1.
       -5    1    3    3    0  502  0.41817875340E+03 -0.71600523444E+03  0.23126803501E+04  0.24568372875E+04  0.46999998093E+01 0. -1.
</event>
<event>
 5   0  0.5131083E-06  0.3132326E+04  0.7818609E-02  0.8206922E-01
        2   -1    0    0  501    0  0.00000000000E+00  0.00000000000E+00  0.30957822958E+04  0.30957822958E+04  0.25500000920E-02 0.  1.
       -2   -1    0    0    0  501  0.00000000000E+00  0.00000000000E+00 -0.79232550020E+03  0.79232550021E+03  0.25500000920E-02 0. -1.
    10030    2    1    2    0    0  0.00000000000E+00  0.00000000000E+00  0.23034567956E+04  0.38881077960E+04  0.31323264556E+04 0.  0.
        3    1    3    3  502    0  0.13956850715E+03  0.33074042915E+03  0.30440250188E+04  0.30651193981E+04  0.10100000352E+00 0.  1.
       -3    1    3    3    0  502 -0.13956850715E+03 -0.33074042915E+03 -0.74056822318E+03  0.82298839788E+03  0.10100000352E+00 0. -1.
</event>
<event>
 5   0  0.5121624E-06  0.3207905E+04  0.7818609E-02  0.8186733E-01
       -2   -1    0    0    0  501  0.00000000000E+00  0.00000000000E+00  0.17491024734E+04  0.17491024734E+04  0.25500000920E-02 0. -1.
        2   -1    0    0  501    0  0.00000000000E+00  0.00000000000E+00 -0.14708476982E+04  0.14708476982E+04  0.25500000920E-02 0.  1.
    10030    2    1    2    0    0  0.00000000000E+00  0.00000000000E+00  0.27825477518E+03  0.32199501715E+04  0.32079048283E+04 0.  0.
        4    1    3    3  502    0  0.16857294253E+03 -0.41902255477E+02 -0.14613783138E+04  0.14716660032E+04  0.12699999809E+01 0.  1.
       -4    1    3    3    0  502 -0.16857294253E+03  0.41902255477E+02  0.17396330890E+04  0.17482841683E+04  0.12699999809E+01 0. -1.
</event>
<event>
 5   0  0.5131083E-06  0.3195777E+04  0.7818609E-02  0.8189933E-01
       -2   -1    0    0    0  501  0.00000000000E+00  0.00000000000E+00  0.12698783946E+04  0.12698783946E+04  0.25500000920E-02 0.  1.
        2   -1    0    0  501    0  0.00000000000E+00  0.00000000000E+00 -0.20106237584E+04  0.20106237584E+04  0.25500000920E-02 0. -1.
    10030    2    1    2    0    0  0.00000000000E+00  0.00000000000E+00 -0.74074536378E+03  0.32805021531E+04  0.31957770076E+04 0.  0.
        3    1    3    3  502    0 -0.75900208956E+03 -0.11206826912E+04 -0.12421426287E+04  0.18370988505E+04  0.10100000352E+00 0. -1.
       -3    1    3    3    0  502  0.75900208956E+03  0.11206826912E+04  0.50139726495E+03  0.14434033025E+04  0.10100000352E+00 0.  1.
</event>
<event>
 5   0  0.1846850E-06  0.3136115E+04  0.7818609E-02  0.8205896E-01
       -1   -1    0    0    0  501  0.00000000000E+00  0.00000000000E+00  0.13792660470E+04  0.13792660470E+04  0.50400001928E-02 0. -1.
        1   -1    0    0  501    0  0.00000000000E+00  0.00000000000E+00 -0.17826905967E+04  0.17826905967E+04  0.50400001928E-02 0.  1.
    10030    2    1    2    0    0  0.00000000000E+00  0.00000000000E+00 -0.40342454975E+03  0.31619566437E+04  0.31361151843E+04 0.  0.
        5    1    3    3  502    0 -0.13093640781E+04  0.66759228379E+03 -0.75272143202E+03  0.16512799250E+04  0.46999998093E+01 0. -1.
       -5    1    3    3    0  502  0.13093640781E+04 -0.66759228379E+03  0.34929688228E+03  0.15106767187E+04  0.46999998093E+01 0.  1.
</event>
<event>
 5   0  0.1886248E-06  0.3080446E+04  0.7818609E-02  0.8221125E-01
        1   -1    0    0  501    0  0.00000000000E+00  0.00000000000E+00  0.14233356696E+04  0.14233356696E+04  0.50400001928E-02 0.  1.
       -1   -1    0    0    0  501  0.00000000000E+00  0.00000000000E+00 -0.16667091462E+04  0.16667091462E+04  0.50400001928E-02 0. -1.
    10030    2    1    2    0    0  0.00000000000E+00  0.00000000000E+00 -0.24337347656E+03  0.30900448158E+04  0.30804457980E+04 0.  0.
        4    1    3    3  502    0  0.66036450551E+03 -0.50573703495E+03  0.11786681740E+04  0.14426058041E+04  0.12699999809E+01 0.  1.
       -4    1    3    3    0  502 -0.66036450551E+03  0.50573703495E+03 -0.14220416505E+04  0.16474390117E+04  0.12699999809E+01 0. -1.
</event>
<event>
 5   0  0.1846850E-06  0.3287361E+04  0.7818609E-02  0.8166119E-01
       -1   -1    0    0    0  501  0.00000000000E+00  0.00000000000E+00  0.15377636371E+04  0.15377636372E+04  0.50400001928E-02 0. -1.
        1   -1    0    0  501    0  0.00000000000E+00  0.00000000000E+00 -0.17568930654E+04  0.17568930654E+04  0.50400001928E-02 0.  1.
    10030    2    1    2    0    0  0.00000000000E+00  0.00000000000E+00 -0.21912942828E+03  0.32946567026E+04  0.32873614163E+04 0.  0.
        5    1    3    3  502    0 -0.52254330260E+02  0.78948461184E+03 -0.15534727642E+04  0.17433634694E+04  0.46999998093E+01 0.  1.
       -5    1    3    3    0  502  0.52254330260E+02 -0.78948461184E+03  0.13343433359E+04  0.15512932332E+04  0.46999998093E+01 0. -1.
</event>
<event>
 5   0  0.1886248E-06  0.2084315E+04  0.7818609E-02  0.8568185E-01
        1   -1    0    0  501    0  0.00000000000E+00  0.00000000000E+00  0.13417512725E+04  0.13417512725E+04  0.50400001928E-02 0. -1.
       -1   -1    0    0    0  501  0.00000000000E+00  0.00000000000E+00 -0.80945847387E+03  0.80945847388E+03  0.50400001928E-02 0.  1.
    10030    2    1    2    0    0  0.00000000000E+00  0.00000000000E+00  0.53229279863E+03  0.21512097464E+04  0.20843146954E+04 0.  0.
        4    1    3    3  502    0 -0.10281042506E+04  0.97397656428E+02  0.12163226657E+03  0.10398464669E+04  0.12699999809E+01 0.  1.
       -4    1    3    3    0  502  0.10281042506E+04 -0.97397656428E+02  0.41066053205E+03  0.11113632795E+04  0.12699999809E+01 0. -1.
</event>
<event>
 5   0  0.5131083E-06  0.2871433E+04  0.7818609E-02  0.8281428E-01
        2   -1    0    0  501    0  0.00000000000E+00  0.00000000000E+00  0.20328067487E+04  0.20328067487E+04  0.25500000920E-02 0.  1.
       -2   -1    0    0    0  501  0.00000000000E+00  0.00000000000E+00 -0.10140075905E+04  0.10140075905E+04  0.25500000920E-02 0. -1.
    10030    2    1    2    0    0  0.00000000000E+00  0.00000000000E+00  0.10187991582E+04  0.30468143392E+04  0.28714327247E+04 0.  0.
        3    1    3    3  502    0 -0.77444740320E+03  0.29916777198E+03  0.17522709767E+04  0.19390007019E+04  0.10100000352E+00 0.  1.
       -3    1    3    3    0  502  0.77444740320E+03 -0.29916777198E+03 -0.73347181853E+03  0.11078136373E+04  0.10100000352E+00 0. -1.
</event>
<event>
 5   0  0.1881144E-06  0.3498730E+04  0.7818609E-02  0.8114091E-01
        1   -1    0    0  501    0  0.00000000000E+00  0.00000000000E+00  0.18882849206E+04  0.18882849206E+04  0.50400001928E-02 0. -1.
       -1   -1    0    0    0  501  0.00000000000E+00  0.00000000000E+00 -0.16206648697E+04  0.16206648697E+04  0.50400001928E-02 0.  1.
    10030    2    1    2    0    0  0.00000000000E+00  0.00000000000E+00  0.26762005091E+03  0.35089497904E+04  0.34987295036E+04 0.  0.
        3    1    3    3  502    0 -0.32131232915E+03 -0.30168807514E+03  0.18316876052E+04  0.18839683652E+04  0.10100000352E+00 0. -1.
       -3    1    3    3    0  502  0.32131232915E+03  0.30168807514E+03 -0.15640675543E+04  0.16249814252E+04  0.10100000352E+00 0.  1.
</event>
<event>
 5   0  0.5373060E-06  0.3250736E+04  0.7818609E-02  0.8175545E-01
        2   -1    0    0  501    0  0.00000000000E+00  0.00000000000E+00  0.17194187792E+04  0.17194187792E+04  0.25500000920E-02 0.  1.
       -2   -1    0    0    0  501  0.00000000000E+00  0.00000000000E+00 -0.15364620260E+04  0.15364620260E+04  0.25500000920E-02 0. -1.
    10030    2    1    2    0    0  0.00000000000E+00  0.00000000000E+00  0.18295675318E+03  0.32558808052E+04  0.32507363234E+04 0.  0.
        5    1    3    3  502    0  0.39692186896E+03  0.75968107917E+03  0.14746552812E+04  0.17056648559E+04  0.46999998093E+01 0.  1.
       -5    1    3    3    0  502 -0.39692186896E+03 -0.75968107917E+03 -0.12916985281E+04  0.15502159493E+04  0.46999998093E+01 0. -1.
</event>
<event>
 5   0  0.5131083E-06  0.3171772E+04  0.7818609E-02  0.8196312E-01
       -2   -1    0    0    0  501  0.00000000000E+00  0.00000000000E+00  0.12747764476E+04  0.12747764476E+04  0.25500000920E-02 0.  1.
        2   -1    0    0  501    0  0.00000000000E+00  0.00000000000E+00 -0.19729222096E+04  0.19729222096E+04  0.25500000920E-02 0. -1.
    10030    2    1    2    0    0  0.00000000000E+00  0.00000000000E+00 -0.69814576205E+03  0.32476986572E+04  0.31717722274E+04 0.  0.
        3    1    3    3  502    0  0.13584049212E+02  0.21400771213E+03  0.12598630767E+04  0.12779823197E+04  0.10100000352E+00 0.  1.
       -3    1    3    3    0  502 -0.13584049212E+02 -0.21400771213E+03 -0.19580088387E+04  0.19697163375E+04  0.10100000352E+00 0. -1.
</event>
<event>
 5   0  0.1881144E-06  0.3203145E+04  0.7818609E-02  0.8187987E-01
        1   -1    0    0  501    0  0.00000000000E+00  0.00000000000E+00  0.20289407228E+04  0.20289407228E+04  0.50400001928E-02 0.  1.
       -1   -1    0    0    0  501  0.00000000000E+00  0.00000000000E+00 -0.12642231768E+04  0.12642231768E+04  0.50400001928E-02 0. -1.
    10030    2    1    2    0    0  0.00000000000E+00  0.00000000000E+00  0.76471754600E+03  0.32931638997E+04  0.32031446338E+04 0.  0.
        3    1    3    3  502    0  0.12700188728E+04 -0.79749651541E+03 -0.19565596178E+03  0.15123590496E+04  0.10100000352E+00 0. -1.
       -3    1    3    3    0  502 -0.12700188728E+04  0.79749651541E+03  0.96037350778E+03  0.17808048501E+04  0.10100000352E+00 0.  1.
</event>
<event>
 5   0  0.5121624E-06  0.3204974E+04  0.7818609E-02  0.8187505E-01
        2   -1    0    0  501    0  0.00000000000E+00  0.00000000000E+00  0.22994286748E+04  0.22994286748E+04  0.25500000920E-02 0.  1.
       -2   -1    0    0    0  501  0.00000000000E+00  0.00000000000E+00 -0.11167840069E+04  0.11167840069E+04  0.25500000920E-02 0. -1.
    10030    2    1    2    0    0  0.00000000000E+00  0.00000000000E+00  0.11826446679E+04  0.34162126817E+04  0.32049743643E+04 0.  0.
        4    1    3    3  502    0 -0.88081883290E+03  0.18497217644E+03 -0.82192538244E+03  0.12188599057E+04  0.12699999809E+01 0. -1.
       -4    1    3    3    0  502  0.88081883290E+03 -0.18497217644E+03  0.20045700504E+04  0.21973527760E+04  0.12699999809E+01 0.  1.
</event>
<event>
 5   0  0.5373060E-06  0.3304618E+04  0.7818609E-02  0.8161721E-01
       -2   -1    0    0    0  501  0.00000000000E+00  0.00000000000E+00  0.98409943215E+03  0.98409943215E+03  0.25500000920E-02 0.  1.
        2   -1    0    0  501    0  0.00000000000E+00  0.00000000000E+00 -0.27742365843E+04  0.27742365843E+04  0.25500000920E-02 0. -1.
    10030    2    1    2    0    0  0.00000000000E+00  0.00000000000E+00 -0.17901371521E+04  0.37583360164E+04  0.33046177674E+04 0.  0.
        5    1    3    3  502    0  0.10261671909E+04 -0.12239669807E+04 -0.13762254272E+04  0.21083483560E+04  0.46999998093E+01 0. -1.
       -5    1    3    3    0  502 -0.10261671909E+04  0.12239669807E+04 -0.41391172494E+03  0.16499876605E+04  0.46999998093E+01 0.  1.
</event>
<event>
 5   0  0.1969465E-06  0.3155039E+04  0.7818609E-02  0.8200793E-01
        1   -1    0    0  501    0  0.00000000000E+00  0.00000000000E+00  0.17139299898E+04  0.17139299898E+04  0.50400001928E-02 0.  1.
       -1   -1    0    0    0  501  0.00000000000E+00  0.00000000000E+00 -0.14519659146E+04  0.14519659146E+04  0.50400001928E-02 0. -1.
    10030    2    1    2    0    0  0.00000000000E+00  0.00000000000E+00  0.26196407518E+03  0.31658959044E+04  0.31550390966E+04 0.  0.
        2    1    3    3  502    0 -0.15002988218E+04 -0.28413723037E+03 -0.26653442507E+03  0.15500551990E+04  0.25500000920E-02 0. -1.
       -2    1    3    3    0  502  0.15002988218E+04  0.28413723037E+03  0.52849850025E+03  0.16158407054E+04  0.25500000920E-02 0.  1.
</event>
<event>
 5   0  0.1886248E-06  0.3160798E+04  0.7818609E-02  0.8199248E-01
        1   -1    0    0  501    0  0.00000000000E+00  0.00000000000E+00  0.17322989529E+04  0.17322989529E+04  0.50400001928E-02 0. -1.
       -1   -1    0    0    0  501  0.00000000000E+00  0.00000000000E+00 -0.14418183124E+04  0.14418183124E+04  0.50400001928E-02 0.  1.
    10030    2    1    2    0    0  0.00000000000E+00  0.00000000000E+00  0.29048064043E+03  0.31741172653E+04  0.31607975910E+04 0.  0.
        4    1    3    3  502    0  0.44527258518E+03 -0.12397666628E+04 -0.73157694234E+03  0.15068163421E+04  0.12699999809E+01 0.  1.
       -4    1    3    3    0  502 -0.44527258518E+03  0.12397666628E+04  0.10220575828E+04  0.16673009232E+04  0.12699999809E+01 0. -1.
</event>
<event>
 5   0  0.1881144E-06  0.3251606E+04  0.7818609E-02  0.8175320E-01
       -1   -1    0    0    0  501  0.00000000000E+00  0.00000000000E+00  0.21974908872E+04  0.21974908872E+04  0.50400001928E-02 0. -1.
        1   -1    0    0  501    0  0.00000000000E+00  0.00000000000E+00 -0.12028422415E+04  0.12028422416E+04  0.50400001928E-02 0.  1.
    10030    2    1    2    0    0  0.00000000000E+00  0.00000000000E+00  0.99464864564E+03  0.34003331287E+04  0.32516056738E+04 0.  0.
        3    1    3    3  502    0  0.10015563390E+04  0.18685917264E+03 -0.82759254736E+03  0.13126084280E+04  0.10100000352E+00 0.  1.
       -3    1    3    3    0  502 -0.10015563390E+04 -0.18685917264E+03  0.18222411930E+04  0.20877247008E+04  0.10100000352E+00 0. -1.
</event>
<event>
 5   0  0.1846850E-06  0.2626452E+04  0.7818609E-02  0.8359271E-01
       -1   -1    0    0    0  501  0.00000000000E+00  0.00000000000E+00  0.99651965932E+03  0.99651965933E+03  0.50400001928E-02 0.  1.
        1   -1    0    0  501    0  0.00000000000E+00  0.00000000000E+00 -0.17305852610E+04  0.17305852610E+04  0.50400001928E-02 0. -1.
    10030    2    1    2    0    0  0.00000000000E+00  0.00000000000E+00 -0.73406560170E+03  0.27271049203E+04  0.26264517774E+04 0.  0.
        5    1    3    3  502    0 -0.52707619268E+03 -0.88264665985E+03  0.48138925548E+03  0.11351793446E+04  0.46999998093E+01 0.  1.
       -5    1    3    3    0  502  0.52707619268E+03  0.88264665985E+03 -0.12154548572E+04  0.15919255758E+04  0.46999998093E+01 0. -1.
</event>
<event>
 5   0  0.5108810E-06  0.3358000E+04  0.7818609E-02  0.8148292E-01
        2   -1    0    0  501    0  0.00000000000E+00  0.00000000000E+00  0.14994402299E+04  0.14994402299E+04  0.25500000920E-02 0. -1.
       -2   -1    0    0    0  501  0.00000000000E+00  0.00000000000E+00 -0.18800621925E+04  0.18800621925E+04  0.25500000920E-02 0.  1.
    10030    2    1    2    0    0  0.00000000000E+00  0.00000000000E+00 -0.38062196263E+03  0.33795024224E+04  0.33579999322E+04 0.  0.
        1    1    3    3  502    0 -0.94008141053E+03  0.12003331097E+04  0.51739044153E+03  0.16100451862E+04  0.50400001928E-02 0.  1.
       -1    1    3    3    0  502  0.94008141053E+03 -0.12003331097E+04 -0.89801240416E+03  0.17694572362E+04  0.50400001928E-02 0. -1.
</event>
<event>
 5   0  0.1977015E-06  0.3245816E+04  0.7818609E-02  0.8176821E-01
       -1   -1    0    0    0  501  0.00000000000E+00  0.00000000000E+00  0.11691417908E+04  0.11691417908E+04  0.50400001928E-02 0.  1.
        1   -1    0    0  501    0  0.00000000000E+00  0.00000000000E+00 -0.22527888602E+04  0.22527888602E+04  0.50400001928E-02 0. -1.
    10030    2    1    2    0    0  0.00000000000E+00  0.00000000000E+00 -0.10836470693E+04  0.34219306510E+04  0.32458155230E+04 0.  0.
        1    1    3    3  502    0 -0.17336713900E+03 -0.16092458095E+04 -0.41663115331E+03  0.16713197654E+04  0.50400001928E-02 0.  1.
       -1    1    3    3    0  502  0.17336713900E+03  0.16092458095E+04 -0.66701591602E+03  0.17506108856E+04  0.50400001928E-02 0. -1.
</event>
<event>
 5   0  0.5108810E-06  0.3200328E+04  0.7818609E-02  0.8188731E-01
       -2   -1    0    0    0  501  0.00000000000E+00  0.00000000000E+00  0.12119093697E+04  0.12119093697E+04  0.25500000920E-02 0. -1.
        2   -1    0    0  501    0  0.00000000000E+00  0.00000000000E+00 -0.21128022877E+04  0.21128022877E+04  0.25500000920E-02 0.  1.
    10030    2    1    2    0    0  0.00000000000E+00  0.00000000000E+00 -0.90089291801E+03  0.33247116573E+04  0.32003280386E+04 0.  0.
        1    1    3    3  502    0 -0.17435711148E+03  0.15870855164E+04 -0.56080145313E+03  0.16922585820E+04  0.50400001928E-02 0.  1.
       -1    1    3    3    0  502  0.17435711148E+03 -0.15870855164E+04 -0.34009146487E+03  0.16324530753E+04  0.50400001928E-02 0. -1.
</event>
<event>
 5   0  0.1881144E-06  0.3187149E+04  0.7818609E-02  0.8192219E-01
       -1   -1    0    0    0  501  0.00000000000E+00  0.00000000000E+00  0.31768151937E+04  0.31768151937E+04  0.50400001928E-02 0.  1.
        1   -1    0    0  501    0  0.00000000000E+00  0.00000000000E+00 -0.79937898029E+03  0.79937898031E+03  0.50400001928E-02 0. -1.
    10030    2    1    2    0    0  0.00000000000E+00  0.00000000000E+00  0.23774362134E+04  0.39761941740E+04  0.31871487510E+04 0.  0.
        3    1    3    3  502    0 -0.34004683416E+01 -0.41970259644E+03  0.31066195318E+04  0.31348439767E+04  0.10100000352E+00 0.  1.
       -3    1    3    3    0  502  0.34004683416E+01  0.41970259644E+03 -0.72918331835E+03  0.84135019737E+03  0.10100000352E+00 0. -1.
</event>
<event>
 5   0  0.1969465E-06  0.3253732E+04  0.7818609E-02  0.8174769E-01
        1   -1    0    0  501    0  0.00000000000E+00  0.00000000000E+00  0.16720020842E+04  0.16720020843E+04  0.50400001928E-02 0.  1.
       -1   -1    0    0    0  501  0.00000000000E+00  0.00000000000E+00 -0.15829482462E+04  0.15829482462E+04  0.50400001928E-02 0. -1.
    10030    2    1    2    0    0  0.00000000000E+00  0.00000000000E+00  0.89053838071E+02  0.32549503304E+04  0.32537318678E+04 0.  0.
        2    1    3    3  502    0 -0.11171344147E+04 -0.11233000614E+04 -0.32561223192E+03  0.16173483403E+04  0.25500000920E-02 0.  1.
       -2    1    3    3    0  502  0.11171344147E+04  0.11233000614E+04  0.41466607000E+03  0.16376019901E+04  0.25500000920E-02 0. -1.
</event>
<event>
 5   0  0.1846850E-06  0.3130843E+04  0.7818609E-02  0.8207324E-01
       -1   -1    0    0    0  501  0.00000000000E+00  0.00000000000E+00  0.13831223702E+04  0.13831223702E+04  0.50400001928E-02 0.  1.
        1   -1    0    0  501    0  0.00000000000E+00  0.00000000000E+00 -0.17717483514E+04  0.17717483514E+04  0.50400001928E-02 0. -1.
    10030    2    1    2    0    0  0.00000000000E+00  0.00000000000E+00 -0.38862598126E+03  0.31548707216E+04  0.31308431958E+04 0.  0.
        5    1    3    3  502    0 -0.25142441875E+03 -0.11098954238E+04 -0.12774766038E+04  0.17108625466E+04  0.46999998093E+01 0. -1.
       -5    1    3    3    0  502  0.25142441875E+03  0.11098954238E+04  0.88885062253E+03  0.14440081750E+04  0.46999998093E+01 0.  1.
</event>
<event>
 5   0  0.5373060E-06  0.2344079E+04  0.7818609E-02  0.8460741E-01
       -2   -1    0    0    0  501  0.00000000000E+00  0.00000000000E+00  0.74464837005E+03  0.74464837005E+03  0.25500000920E-02 0.  1.
        2   -1    0    0  501    0  0.00000000000E+00  0.00000000000E+00 -0.18447321237E+04  0.18447321237E+04  0.25500000920E-02 0. -1.
    10030    2    1    2    0    0  0.00000000000E+00  0.00000000000E+00 -0.11000837537E+04  0.25893804938E+04  0.23440791532E+04 0.  0.
        5    1    3    3  502    0 -0.57987460178E+03 -0.89677336326E+03 -0.10834820190E+04  0.15213192940E+04  0.46999998093E+01 0. -1.
       -5    1    3    3    0  502  0.57987460178E+03  0.89677336326E+03 -0.16601734680E+02  0.10680611998E+04  0.46999998093E+01 0.  1.
</event>
<event>
 5   0  0.5373060E-06  0.3197754E+04  0.7818609E-02  0.8189411E-01
       -2   -1    0    0    0  501  0.00000000000E+00  0.00000000000E+00  0.15542676439E+04  0.15542676439E+04  0.25500000920E-02 0. -1.
        2   -1    0    0  501    0  0.00000000000E+00  0.00000000000E+00 -0.16447666707E+04  0.16447666707E+04  0.25500000920E-02 0.  1.
    10030    2    1    2    0    0  0.00000000000E+00  0.00000000000E+00 -0.90499026838E+02  0.31990343146E+04  0.31977539731E+04 0.  0.
        5    1    3    3  502    0 -0.93789177731E+03  0.85870158396E+02 -0.13378081840E+04  0.16360829738E+04  0.46999998093E+01 0.  1.
       -5    1    3    3    0  502  0.93789177731E+03 -0.85870158396E+02  0.12473091572E+04  0.15629513408E+04  0.46999998093E+01 0. -1.
</event>
<event>
 5   0  0.5373060E-06  0.3222297E+04  0.7818609E-02  0.8182953E-01
        2   -1    0    0  501    0  0.00000000000E+00  0.00000000000E+00  0.21166082138E+04  0.21166082138E+04  0.25500000920E-02 0. -1.
       -2   -1    0    0    0  501  0.00000000000E+00  0.00000000000E+00 -0.12263957593E+04  0.12263957593E+04  0.25500000920E-02 0.  1.
    10030    2    1    2    0    0  0.00000000000E+00  0.00000000000E+00  0.89021245456E+03  0.33430039731E+04  0.32222969060E+04 0.  0.
        5    1    3    3  502    0  0.10476294157E+04  0.80789198530E+03 -0.50888340500E+03  0.14174629669E+04  0.46999998093E+01 0. -1.
       -5    1    3    3    0  502 -0.10476294157E+04 -0.80789198530E+03  0.13990958596E+04  0.19255410063E+04  0.46999998093E+01 0.  1.
</event>
<event>
 5   0  0.1886248E-06  0.3064281E+04  0.7818609E-02  0.8225610E-01
        1   -1    0    0  501    0  0.00000000000E+00  0.00000000000E+00  0.18807943698E+04  0.18807943698E+04  0.50400001928E-02 0. -1.
       -1   -1    0    0    0  501  0.00000000000E+00  0.00000000000E+00 -0.12481182341E+04  0.12481182341E+04  0.50400001928E-02 0.  1.
    10030    2    1    2    0    0  0.00000000000E+00  0.00000000000E+00  0.63267613573E+03  0.31289126039E+04  0.30642805012E+04 0.  0.
        4    1    3    3  502    0  0.40052101691E+03 -0.98940771320E+03  0.14386606259E+04  0.17913935127E+04  0.12699999809E+01 0. -1.
       -4    1    3    3    0  502 -0.40052101691E+03  0.98940771320E+03 -0.80598449020E+03  0.13375190912E+04  0.12699999809E+01 0.  1.
</event>
<event>
 5   0  0.5347280E-06  0.3180676E+04  0.7818609E-02  0.8193939E-01
        2   -1    0    0  501    0  0.00000000000E+00  0.00000000000E+00  0.11046855631E+04  0.11046855631E+04  0.25500000920E-02 0.  1.
       -2   -1    0    0    0  501  0.00000000000E+00  0.00000000000E+00 -0.22894977101E+04  0.22894977101E+04  0.25500000920E-02 0. -1.
    10030    2    1    2    0    0  0.00000000000E+00  0.00000000000E+00 -0.11848121469E+04  0.33941832732E+04  0.31806760710E+04 0.  0.
        2    1    3    3  502    0 -0.17693468148E+03  0.76196338891E+02  0.10921884417E+04  0.11090479502E+04  0.25500000920E-02 0.  1.
       -2    1    3    3    0  502  0.17693468148E+03 -0.76196338891E+02 -0.22770005887E+04  0.22851353230E+04  0.25500000920E-02 0. -1.
</event>
<event>
 5   0  0.5131083E-06  0.2971550E+04  0.7818609E-02  0.8251902E-01
        2   -1    0    0  501    0  0.00000000000E+00  0.00000000000E+00  0.24520545849E+04  0.24520545849E+04  0.25500000920E-02 0. -1.
       -2   -1    0    0    0  501  0.00000000000E+00  0.00000000000E+00 -0.90027662670E+03  0.90027662671E+03  0.25500000920E-02 0.  1.
    10030    2    1    2    0    0  0.00000000000E+00  0.00000000000E+00  0.15517779582E+04  0.33523312116E+04  0.29715500536E+04 0.  0.
        3    1    3    3  502    0 -0.77424451422E+03  0.70355284539E+03 -0.41433385735E+03  0.11252171922E+04  0.10100000352E+00 0.  1.
       -3    1    3    3    0  502  0.77424451422E+03 -0.70355284539E+03  0.19661118156E+04  0.22271140194E+04  0.10100000352E+00 0. -1.
</event>
<event>
 5   0  0.1881144E-06  0.3233023E+04  0.7818609E-02  0.8180150E-01
        1   -1    0    0  501    0  0.00000000000E+00  0.00000000000E+00  0.20504341208E+04  0.20504341209E+04  0.50400001928E-02 0. -1.
       -1   -1    0    0    0  501  0.00000000000E+00  0.00000000000E+00 -0.12744178855E+04  0.12744178856E+04  0.50400001928E-02 0.  1.
    10030    2    1    2    0    0  0.00000000000E+00  0.00000000000E+00  0.77601623531E+03  0.33248520064E+04  0.32330233013E+04 0.  0.
        3    1    3    3  502    0  0.29965260168E+03 -0.13697001677E+04  0.12153710318E+04  0.18555314565E+04  0.10100000352E+00 0.  1.
       -3    1    3    3    0  502 -0.29965260168E+03  0.13697001677E+04 -0.43935479648E+03  0.14693205499E+04  0.10100000352E+00 0. -1.
</event>
<event>
 5   0  0.5131083E-06  0.3223403E+04  0.7818609E-02  0.8182664E-01
       -2   -1    0    0    0  501  0.00000000000E+00  0.00000000000E+00  0.13324400089E+04  0.13324400089E+04  0.25500000920E-02 0. -1.
        2   -1    0    0  501    0  0.00000000000E+00  0.00000000000E+00 -0.19494930080E+04  0.19494930080E+04  0.25500000920E-02 0.  1.
    10030    2    1    2    0    0  0.00000000000E+00  0.00000000000E+00 -0.61705299909E+03  0.32819330170E+04  0.32234034690E+04 0.  0.
        3    1    3    3  502    0 -0.12468693504E+04  0.59732863257E+03  0.53482390377E+03  0.14824038891E+04  0.10100000352E+00 0. -1.
       -3    1    3    3    0  502  0.12468693504E+04 -0.59732863257E+03 -0.11518769029E+04  0.17995291278E+04  0.10100000352E+00 0.  1.
</event>
<event>
 5   0  0.1886248E-06  0.3098560E+04  0.7818609E-02  0.8216133E-01
        1   -1    0    0  501    0  0.00000000000E+00  0.00000000000E+00  0.16353719176E+04  0.16353719176E+04  0.50400001928E-02 0.  1.
       -1   -1    0    0    0  501  0.00000000000E+00  0.00000000000E+00 -0.14677200671E+04  0.14677200671E+04  0.50400001928E-02 0. -1.
    10030    2    1    2    0    0  0.00000000000E+00  0.00000000000E+00  0.16765185044E+03  0.31030919847E+04  0.30985597820E+04 0.  0.
        4    1    3    3  502    0 -0.10823115334E+04 -0.21599504754E+03  0.11727131485E+04  0.16103756883E+04  0.12699999809E+01 0.  1.
       -4    1    3    3    0  502  0.10823115334E+04  0.21599504754E+03 -0.10050612980E+04  0.14927162964E+04  0.12699999809E+01 0. -1.
</event>
<event>
 5   0  0.5373060E-06  0.2196524E+04  0.7818609E-02  0.8519876E-01
       -2   -1    0    0    0  501  0.00000000000E+00  0.00000000000E+00  0.53262063800E+03  0.53262063800E+03  0.25500000920E-02 0.  1.
        2   -1    0    0  501    0  0.00000000000E+00  0.00000000000E+00 -0.22646130390E+04  0.22646130390E+04  0.25500000920E-02 0. -1.
    10030    2    1    2    0    0  0.00000000000E+00  0.00000000000E+00 -0.17319924010E+04  0.27972336770E+04  0.21965242012E+04 0.  0.
        5    1    3    3  502    0 -0.42110324574E+03 -0.88720094836E+03 -0.23990910705E+03  0.10109559516E+04  0.46999998093E+01 0.  1.
       -5    1    3    3    0  502  0.42110324574E+03  0.88720094836E+03 -0.14920832939E+04  0.17862777254E+04  0.46999998093E+01 0. -1.
</event>
<event>
 5   0  0.1881144E-06  0.3245065E+04  0.7818609E-02  0.8177016E-01
        1   -1    0    0  501    0  0.00000000000E+00  0.00000000000E+00  0.15840923529E+04  0.15840923529E+04  0.50400001928E-02 0. -1.
       -1   -1    0    0    0  501  0.00000000000E+00  0.00000000000E+00 -0.16619058776E+04  0.16619058776E+04  0.50400001928E-02 0.  1.
    10030    2    1    2    0    0  0.00000000000E+00  0.00000000000E+00 -0.77813524680E+02  0.32459982305E+04  0.32450654181E+04 0.  0.
        3    1    3    3  502    0  0.15705345273E+04 -0.18365329624E+03 -0.40274906569E+03  0.16317211939E+04  0.10100000352E+00 0.  1.
       -3    1    3    3    0  502 -0.15705345273E+04  0.18365329624E+03  0.32493554101E+03  0.16142770365E+04  0.10100000352E+00 0. -1.
</event>
<event>
 5   0  0.5347280E-06  0.3251376E+04  0.7818609E-02  0.8175379E-01
       -2   -1    0    0    0  501  0.00000000000E+00  0.00000000000E+00  0.94146464057E+03  0.94146464057E+03  0.25500000920E-02 0.  1.
        2   -1    0    0  501    0  0.00000000000E+00  0.00000000000E+00 -0.28071813270E+04  0.28071813270E+04  0.25500000920E-02 0. -1.
    10030    2    1    2    0    0  0.00000000000E+00  0.00000000000E+00 -0.18657166865E+04  0.37486459676E+04  0.32513762988E+04 0.  0.
        2    1    3    3  502    0 -0.55103442279E+03  0.61529682000E+03  0.68152001879E+03  0.10708401598E+04  0.25500000920E-02 0.  1.
       -2    1    3    3    0  502  0.55103442279E+03 -0.61529682000E+03 -0.25472367052E+04  0.26778058078E+04  0.25500000920E-02 0. -1.
</event>
<event>
 5   0  0.1846850E-06  0.2031711E+04  0.7818609E-02  0.8591936E-01
       -1   -1    0    0    0  501  0.00000000000E+00  0.00000000000E+00  0.16267043084E+04  0.16267043085E+04  0.50400001928E-02 0. -1.
        1   -1    0    0  501    0  0.00000000000E+00  0.00000000000E+00 -0.63438862181E+03  0.63438862183E+03  0.50400001928E-02 0.  1.
    10030    2    1    2    0    0  0.00000000000E+00  0.00000000000E+00  0.99231568663E+03  0.22610929303E+04  0.20317113027E+04 0.  0.
        5    1    3    3  502    0 -0.42662200675E+03 -0.36208695943E+03  0.14397160586E+04  0.15446416161E+04  0.46999998093E+01 0. -1.
       -5    1    3    3    0  502  0.42662200675E+03  0.36208695943E+03 -0.44740037193E+03  0.71645131421E+03  0.46999998093E+01 0.  1.
</event>
<event>
 5   0  0.1969465E-06  0.3200824E+04  0.7818609E-02  0.8188600E-01
        1   -1    0    0  501    0  0.00000000000E+00  0.00000000000E+00  0.17846693631E+04  0.17846693631E+04  0.50400001928E-02 0.  1.
       -1   -1    0    0    0  501  0.00000000000E+00  0.00000000000E+00 -0.14351778362E+04  0.14351778362E+04  0.50400001928E-02 0. -1.
    10030    2    1    2    0    0  0.00000000000E+00  0.00000000000E+00  0.34949152696E+03  0.32198471993E+04  0.32008235908E+04 0.  0.
        2    1    3    3  502    0  0.15375994145E+04  0.13627871532E+03 -0.25029841522E+03  0.15637880752E+04  0.25500000920E-02 0.  1.
       -2    1    3    3    0  502 -0.15375994145E+04 -0.13627871532E+03  0.59978994218E+03  0.16560591240E+04  0.25500000920E-02 0. -1.
</event>
<event>
 5   0  0.1846850E-06  0.2541113E+04  0.7818609E-02  0.8388483E-01
        1   -1    0    0  501    0  0.00000000000E+00  0.00000000000E+00  0.20444599013E+04  0.20444599013E+04  0.50400001928E-02 0.  1.
       -1   -1    0    0    0  501  0.00000000000E+00  0.00000000000E+00 -0.78960409829E+03  0.78960409831E+03  0.50400001928E-02 0. -1.
    10030    2    1    2    0    0  0.00000000000E+00  0.00000000000E+00  0.12548558030E+04  0.28340639996E+04  0.25411130765E+04 0.  0.
        5    1    3    3  502    0 -0.24463915067E+02  0.54335484741E+03  0.19080439875E+04  0.19840581951E+04  0.46999998093E+01 0.  1.
       -5    1    3    3    0  502  0.24463915067E+02 -0.54335484741E+03 -0.65318818449E+03  0.85000580451E+03  0.46999998093E+01 0. -1.
</event>
<event>
 5   0  0.5131083E-06  0.3082749E+04  0.7818609E-02  0.8220488E-01
        2   -1    0    0  501    0  0.00000000000E+00  0.00000000000E+00  0.20355813845E+04  0.20355813845E+04  0.25500000920E-02 0. -1.
       -2   -1    0    0    0  501  0.00000000000E+00  0.00000000000E+00 -0.11671529402E+04  0.11671529402E+04  0.25500000920E-02 0.  1.
    10030    2    1    2    0    0  0.00000000000E+00  0.00000000000E+00  0.86842844425E+03  0.32027343247E+04  0.30827486423E+04 0.  0.
        3    1    3    3  502    0 -0.40275774517E+03  0.10389969944E+03 -0.11077449695E+04  0.11832615419E+04  0.10100000352E+00 0.  1.
       -3    1    3    3    0  502  0.40275774517E+03 -0.10389969944E+03  0.19761734138E+04  0.20194727828E+04  0.10100000352E+00 0. -1.
</event>
<event>
 5   0  0.1846850E-06  0.3142709E+04  0.7818609E-02  0.8204113E-01
       -1   -1    0    0    0  501  0.00000000000E+00  0.00000000000E+00  0.16550019566E+04  0.16550019566E+04  0.50400001928E-02 0.  1.
        1   -1    0    0  501    0  0.00000000000E+00  0.00000000000E+00 -0.14919351250E+04  0.14919351250E+04  0.50400001928E-02 0. -1.
    10030    2    1    2    0    0  0.00000000000E+00  0.00000000000E+00  0.16306683157E+03  0.31469370816E+04  0.31427093732E+04 0.  0.
        5    1    3    3  502    0 -0.89203825173E+03 -0.89412590090E+03 -0.85457181191E+03  0.15249617834E+04  0.46999998093E+01 0. -1.
       -5    1    3    3    0  502  0.89203825173E+03  0.89412590090E+03  0.10176386435E+04  0.16219752982E+04  0.46999998093E+01 0.  1.
</event>
<event>
 5   0  0.5108810E-06  0.3207711E+04  0.7818609E-02  0.8186784E-01
        2   -1    0    0  501    0  0.00000000000E+00  0.00000000000E+00  0.22115430049E+04  0.22115430049E+04  0.25500000920E-02 0.  1.
       -2   -1    0    0    0  501  0.00000000000E+00  0.00000000000E+00 -0.11631482271E+04  0.11631482271E+04  0.25500000920E-02 0. -1.
    10030    2    1    2    0    0  0.00000000000E+00  0.00000000000E+00  0.10483947778E+04  0.33746912321E+04  0.32077109130E+04 0.  0.
        1    1    3    3  502    0 -0.25417106760E+03 -0.18865367969E+03 -0.11299607926E+04  0.11734583653E+04  0.50400001928E-02 0. -1.
       -1    1    3    3    0  502  0.25417106760E+03  0.18865367969E+03  0.21783555704E+04  0.22012328667E+04  0.50400001928E-02 0.  1.
</event>
<event>
 5   0  0.5373060E-06  0.2690758E+04  0.7818609E-02  0.8338010E-01
       -2   -1    0    0    0  501  0.00000000000E+00  0.00000000000E+00  0.71556322149E+03  0.71556322150E+03  0.25500000920E-02 0.  1.
        2   -1    0    0  501    0  0.00000000000E+00  0.00000000000E+00 -0.25295379457E+04  0.25295379457E+04  0.25500000920E-02 0. -1.
    10030    2    1    2    0    0  0.00000000000E+00  0.00000000000E+00 -0.18139747242E+04  0.32451011672E+04  0.26907577530E+04 0.  0.
        5    1    3    3  502    0 -0.21566673051E+03  0.70929679758E+02 -0.25062590263E+04  0.25165252940E+04  0.46999998093E+01 0. -1.
       -5    1    3    3    0  502  0.21566673051E+03 -0.70929679758E+02  0.69228430211E+03  0.72857587324E+03  0.46999998093E+01 0.  1.
</event>
<event>
 5   0  0.5373060E-06  0.3181945E+04  0.7818609E-02  0.8193602E-01
        2   -1    0    0  501    0  0.00000000000E+00  0.00000000000E+00  0.20074234110E+04  0.20074234110E+04  0.25500000920E-02 0. -1.
       -2   -1    0    0    0  501  0.00000000000E+00  0.00000000000E+00 -0.12609164241E+04  0.12609164241E+04  0.25500000920E-02 0.  1.
    10030    2    1    2    0    0  0.00000000000E+00  0.00000000000E+00  0.74650698693E+03  0.32683398351E+04  0.31819447821E+04 0.  0.
        5    1    3    3  502    0  0.72217540990E+03 -0.10492879047E+02 -0.10828127304E+04  0.13015962978E+04  0.46999998093E+01 0.  1.
       -5    1    3    3    0  502 -0.72217540990E+03  0.10492879047E+02  0.18293197174E+04  0.19667435373E+04  0.46999998093E+01 0. -1.
</event>
<event>
 5   0  0.1846850E-06  0.3237137E+04  0.7818609E-02  0.8179078E-01
       -1   -1    0    0    0  501  0.00000000000E+00  0.00000000000E+00  0.10779455893E+04  0.10779455893E+04  0.50400001928E-02 0. -1.
        1   -1    0    0  501    0  0.00000000000E+00  0.00000000000E+00 -0.24303311165E+04  0.24303311165E+04  0.50400001928E-02 0.  1.
    10030    2    1    2    0    0  0.00000000000E+00  0.00000000000E+00 -0.13523855272E+04  0.35082767058E+04  0.32371374438E+04 0.  0.
        5    1    3    3  502    0 -0.14116012300E+04  0.32378546463E+03  0.10703403846E+03  0.14522167314E+04  0.46999998093E+01 0.  1.
       -5    1    3    3    0  502  0.14116012300E+04 -0.32378546463E+03 -0.14594195657E+04  0.20560599744E+04  0.46999998093E+01 0. -1.
</event>
<event>
 5   0  0.1846850E-06  0.2184587E+04  0.7818609E-02  0.8524871E-01
        1   -1    0    0  501    0  0.00000000000E+00  0.00000000000E+00  0.93596213108E+03  0.93596213110E+03  0.50400001928E-02 0. -1.
       -1   -1    0    0    0  501  0.00000000000E+00  0.00000000000E+00 -0.12747369871E+04  0.12747369871E+04  0.50400001928E-02 0.  1.
    10030    2    1    2    0    0  0.00000000000E+00  0.00000000000E+00 -0.33877485598E+03  0.22106991182E+04  0.21845874183E+04 0.  0.
        5    1    3    3  502    0 -0.59392120984E+03  0.35482525672E+02  0.75757562351E+03  0.96329867044E+03  0.46999998093E+01 0. -1.
       -5    1    3    3    0  502  0.59392120984E+03 -0.35482525672E+02 -0.10963504795E+04  0.12474004477E+04  0.46999998093E+01 0.  1.
</event>
<event>
 5   0  0.5373060E-06  0.3208583E+04  0.7818609E-02  0.8186554E-01
        2   -1    0    0  501    0  0.00000000000E+00  0.00000000000E+00  0.22817440632E+04  0.22817440632E+04  0.25500000920E-02 0.  1.
       -2   -1    0    0    0  501  0.00000000000E+00  0.00000000000E+00 -0.11279755162E+04  0.11279755162E+04  0.25500000920E-02 0. -1.
    10030    2    1    2    0    0  0.00000000000E+00  0.00000000000E+00  0.11537685470E+04  0.34097195794E+04  0.32085831375E+04 0.  0.
        5    1    3    3  502    0  0.95143754525E+03 -0.19468638534E+03 -0.78011049785E+03  0.12456848197E+04  0.46999998093E+01 0. -1.
       -5    1    3    3    0  502 -0.95143754525E+03  0.19468638534E+03  0.19338790449E+04  0.21640347597E+04  0.46999998093E+01 0.  1.
</event>
<event>
 5   0  0.1886248E-06  0.3154622E+04  0.7818609E-02  0.8200905E-01
        1   -1    0    0  501    0  0.00000000000E+00  0.00000000000E+00  0.12896049955E+04  0.12896049955E+04  0.50400001928E-02 0.  1.
       -1   -1    0    0    0  501  0.00000000000E+00  0.00000000000E+00 -0.19292034493E+04  0.19292034493E+04  0.50400001928E-02 0. -1.
    10030    2    1    2    0    0  0.00000000000E+00  0.00000000000E+00 -0.63959845380E+03  0.32188084447E+04  0.31546222629E+04 0.  0.
        4    1    3    3  502    0 -0.10337032811E+03 -0.11347221900E+04  0.79309406512E+03  0.13882649899E+04  0.12699999809E+01 0.  1.
       -4    1    3    3    0  502  0.10337032811E+03  0.11347221900E+04 -0.14326925189E+04  0.18305434548E+04  0.12699999809E+01 0. -1.
</event>
<event>
 5   0  0.5108810E-06  0.3298086E+04  0.7818609E-02  0.8163383E-01
       -2   -1    0    0    0  501  0.00000000000E+00  0.00000000000E+00  0.16368384574E+04  0.16368384574E+04  0.25500000920E-02 0.  1.
        2   -1    0    0  501    0  0.00000000000E+00  0.00000000000E+00 -0.16613380679E+04  0.16613380679E+04  0.25500000920E-02 0. -1.
    10030    2    1    2    0    0  0.00000000000E+00  0.00000000000E+00 -0.24499610544E+02  0.32981765253E+04  0.32980855297E+04 0.  0.
        1    1    3    3  502    0  0.20520041899E+03  0.14785426941E+04 -0.71308746997E+03  0.16542942453E+04  0.50400001928E-02 0. -1.
       -1    1    3    3    0  502 -0.20520041899E+03 -0.14785426941E+04  0.68858785942E+03  0.16438822800E+04  0.50400001928E-02 0.  1.
</event>
<event>
 5   0  0.1846850E-06  0.2027559E+04  0.7818609E-02  0.8593843E-01
        1   -1    0    0  501    0  0.00000000000E+00  0.00000000000E+00  0.15496652713E+04  0.15496652713E+04  0.50400001928E-02 0.  1.
       -1   -1    0    0    0  501  0.00000000000E+00  0.00000000000E+00 -0.66320728009E+03  0.66320728011E+03  0.50400001928E-02 0. -1.
    10030    2    1    2    0    0  0.00000000000E+00  0.00000000000E+00  0.88645799119E+03  0.22128725514E+04  0.20275594094E+04 0.  0.
        5    1    3    3  502    0 -0.28414891554E+03 -0.48645117785E+03  0.13630844119E+04  0.14749225602E+04  0.46999998093E+01 0.  1.
       -5    1    3    3    0  502  0.28414891554E+03  0.48645117785E+03 -0.47662642069E+03  0.73794999121E+03  0.46999998093E+01 0. -1.
</event>
<event>
 5   0  0.1977015E-06  0.3270996E+04  0.7818609E-02  0.8170315E-01
        1   -1    0    0  501    0  0.00000000000E+00  0.00000000000E+00  0.23949547152E+04  0.23949547152E+04  0.50400001928E-02 0.  1.
       -1   -1    0    0    0  501  0.00000000000E+00  0.00000000000E+00 -0.11168704400E+04  0.11168704400E+04  0.50400001928E-02 0. -1.
    10030    2    1    2    0    0  0.00000000000E+00  0.00000000000E+00  0.12780842752E+04  0.35118251553E+04  0.32709962560E+04 0.  0.
        1    1    3    3  502    0  0.20902450310E+02  0.16185841917E+04  0.38816631017E+03  0.16646094985E+04  0.50400001928E-02 0. -1.
       -1    1    3    3    0  502 -0.20902450310E+02 -0.16185841917E+04  0.88991796503E+03  0.18472156568E+04  0.50400001928E-02 0.  1.
</event>
<event>
 5   0  0.1977015E-06  0.3435893E+04  0.7818609E-02  0.8129153E-01
        1   -1    0    0  501    0  0.00000000000E+00  0.00000000000E+00  0.16079591592E+04  0.16079591592E+04  0.50400001928E-02 0.  1.
       -1   -1    0    0    0  501  0.00000000000E+00  0.00000000000E+00 -0.18354568774E+04  0.18354568774E+04  0.50400001928E-02 0. -1.
    10030    2    1    2    0    0  0.00000000000E+00  0.00000000000E+00 -0.22749771815E+03  0.34434160366E+04  0.34358927209E+04 0.  0.
        1    1    3    3  502    0 -0.23138346612E+02 -0.56572274321E+03  0.15117650500E+04  0.16143144588E+04  0.50400001928E-02 0.  1.
       -1    1    3    3    0  502  0.23138346612E+02  0.56572274321E+03 -0.17392627682E+04  0.18291015778E+04  0.50400001928E-02 0. -1.
</event>
<event>
 5   0  0.1886248E-06  0.3164019E+04  0.7818609E-02  0.8198385E-01
        1   -1    0    0  501    0  0.00000000000E+00  0.00000000000E+00  0.13378392116E+04  0.13378392116E+04  0.50400001928E-02 0.  1.
       -1   -1    0    0    0  501  0.00000000000E+00  0.00000000000E+00 -0.18707432415E+04  0.18707432415E+04  0.50400001928E-02 0. -1.
    10030    2    1    2    0    0  0.00000000000E+00  0.00000000000E+00 -0.53290402989E+03  0.32085824531E+04  0.31640187504E+04 0.  0.
        4    1    3    3  502    0  0.49560377879E+03  0.93425896079E+03  0.92667742355E+03  0.14061278646E+04  0.12699999809E+01 0.  1.
       -4    1    3    3    0  502 -0.49560377879E+03 -0.93425896079E+03 -0.14595814534E+04  0.18024545885E+04  0.12699999809E+01 0. -1.
</event>
<event>
 5   0  0.5121624E-06  0.3229048E+04  0.7818609E-02  0.8181187E-01
       -2   -1    0    0    0  501  0.00000000000E+00  0.00000000000E+00  0.10688658683E+04  0.10688658683E+04  0.25500000920E-02 0.  1.
        2   -1    0    0  501    0  0.00000000000E+00  0.00000000000E+00 -0.24387419861E+04  0.24387419861E+04  0.25500000920E-02 0. -1.
    10030    2    1    2    0    0  0.00000000000E+00  0.00000000000E+00 -0.13698761178E+04  0.35076078544E+04  0.32290482007E+04 0.  0.
        4    1    3    3  502    0 -0.51782973795E+03  0.13106130287E+04 -0.15408393099E+04  0.20880712489E+04  0.12699999809E+01 0. -1.
       -4    1    3    3    0  502  0.51782973795E+03 -0.13106130287E+04  0.17096319204E+03  0.14195366056E+04  0.12699999809E+01 0.  1.
</event>
<event>
 5   0  0.5108810E-06  0.3645089E+04  0.7818609E-02  0.8080241E-01
        2   -1    0    0  501    0  0.00000000000E+00  0.00000000000E+00  0.21915959135E+04  0.21915959135E+04  0.25500000920E-02 0.  1.
       -2   -1    0    0    0  501  0.00000000000E+00  0.00000000000E+00 -0.15156392150E+04  0.15156392150E+04  0.25500000920E-02 0. -1.
    10030    2    1    2    0    0  0.00000000000E+00  0.00000000000E+00  0.67595669849E+03  0.37072351284E+04  0.36450891401E+04 0.  0.
        1    1    3    3  502    0  0.10425581314E+04 -0.92003595079E+03  0.15363174927E+04  0.20721160794E+04  0.50400001928E-02 0.  1.
       -1    1    3    3    0  502 -0.10425581314E+04  0.92003595079E+03 -0.86036079424E+03  0.16351190490E+04  0.50400001928E-02 0. -1.
</event>
<event>
 5   0  0.1886248E-06  0.3061192E+04  0.7818609E-02  0.8226470E-01
       -1   -1    0    0    0  501  0.00000000000E+00  0.00000000000E+00  0.12488405580E+04  0.12488405580E+04  0.50400001928E-02 0. -1.
        1   -1    0    0  501    0  0.00000000000E+00  0.00000000000E+00 -0.18759194328E+04  0.18759194329E+04  0.50400001928E-02 0.  1.
    10030    2    1    2    0    0  0.00000000000E+00  0.00000000000E+00 -0.62707887482E+03  0.31247599909E+04  0.30611921020E+04 0.  0.
        4    1    3    3  502    0 -0.31266975845E+03 -0.31083765827E+02  0.12155642464E+04  0.12555184700E+04  0.12699999809E+01 0. -1.
       -4    1    3    3    0  502  0.31266975845E+03  0.31083765827E+02 -0.18426431212E+04  0.18692415209E+04  0.12699999809E+01 0.  1.
</event>
<event>
 5   0  0.5373060E-06  0.3231634E+04  0.7818609E-02  0.8180512E-01
       -2   -1    0    0    0  501  0.00000000000E+00  0.00000000000E+00  0.12055913157E+04  0.12055913157E+04  0.25500000920E-02 0.  1.
        2   -1    0    0  501    0  0.00000000000E+00  0.00000000000E+00 -0.21656292699E+04  0.21656292699E+04  0.25500000920E-02 0. -1.
    10030    2    1    2    0    0  0.00000000000E+00  0.00000000000E+00 -0.96003795417E+03  0.33712205856E+04  0.32316335441E+04 0.  0.
        5    1    3    3  502    0  0.59796234873E+03  0.13768797266E+04 -0.11037451578E+04  0.18632316591E+04  0.46999998093E+01 0. -1.
       -5    1    3    3    0  502 -0.59796234873E+03 -0.13768797266E+04  0.14370720366E+03  0.15079889265E+04  0.46999998093E+01 0.  1.
</event>
<event>
 5   0  0.5131083E-06  0.3220395E+04  0.7818609E-02  0.8183451E-01
        2   -1    0    0  501    0  0.00000000000E+00  0.00000000000E+00  0.17771521575E+04  0.17771521575E+04  0.25500000920E-02 0. -1.
       -2   -1    0    0    0  501  0.00000000000E+00  0.00000000000E+00 -0.14589278260E+04  0.14589278260E+04  0.25500000920E-02 0.  1.
    10030    2    1    2    0    0  0.00000000000E+00  0.00000000000E+00  0.31822433150E+03  0.32360799836E+04  0.32203954625E+04 0.  0.
        3    1    3    3  502    0 -0.85173286333E+03  0.72607223119E+03  0.13223801455E+04  0.17324315325E+04  0.10100000352E+00 0. -1.
       -3    1    3    3    0  502  0.85173286333E+03 -0.72607223119E+03 -0.10041558140E+04  0.15036484511E+04  0.10100000352E+00 0.  1.
</event>
<event>
 5   0  0.5121624E-06  0.3385124E+04  0.7818609E-02  0.8141567E-01
       -2   -1    0    0    0  501  0.00000000000E+00  0.00000000000E+00  0.26487519204E+04  0.26487519204E+04  0.25500000920E-02 0. -1.
        2   -1    0    0  501    0  0.00000000000E+00  0.00000000000E+00 -0.10815530917E+04  0.10815530917E+04  0.25500000920E-02 0.  1.
    10030    2    1    2    0    0  0.00000000000E+00  0.00000000000E+00  0.15671988287E+04  0.37303050121E+04  0.33851238256E+04 0.  0.
        4    1    3    3  502    0 -0.86838145440E+02 -0.15752626620E+04  0.14591087504E+04  0.21489516691E+04  0.12699999809E+01 0. -1.
       -4    1    3    3    0  502  0.86838145440E+02  0.15752626620E+04  0.10809007832E+03  0.15813533431E+04  0.12699999809E+01 0.  1.
</event>
<event>
 5   0  0.5347280E-06  0.3166704E+04  0.7818609E-02  0.8197666E-01
        2   -1    0    0  501    0  0.00000000000E+00  0.00000000000E+00  0.16374695007E+04  0.16374695007E+04  0.25500000920E-02 0.  1.
       -2   -1    0    0    0  501  0.00000000000E+00  0.00000000000E+00 -0.15310233128E+04  0.15310233128E+04  0.25500000920E-02 0. -1.
    10030    2    1    2    0    0  0.00000000000E+00  0.00000000000E+00  0.10644618787E+03  0.31684928135E+04  0.31667042675E+04 0.  0.
        2    1    3    3  502    0  0.63432860264E+03 -0.34819619017E+02 -0.13979128332E+04  0.15354951876E+04  0.25500000920E-02 0. -1.
       -2    1    3    3    0  502 -0.63432860264E+03  0.34819619017E+02  0.15043590210E+04  0.16329976259E+04  0.25500000920E-02 0.  1.
</event>
<event>
 5   0  0.5347280E-06  0.3181619E+04  0.7818609E-02  0.8193689E-01
       -2   -1    0    0    0  501  0.00000000000E+00  0.00000000000E+00  0.10826977320E+04  0.10826977320E+04  0.25500000920E-02 0.  1.
        2   -1    0    0  501    0  0.00000000000E+00  0.00000000000E+00 -0.23373787744E+04  0.23373787744E+04  0.25500000920E-02 0. -1.
    10030    2    1    2    0    0  0.00000000000E+00  0.00000000000E+00 -0.12546810424E+04  0.34200765064E+04  0.31816188948E+04 0.  0.
        2    1    3    3  502    0  0.40436608916E+03 -0.10497670827E+04  0.58175048069E+03  0.12664740359E+04  0.25500000920E-02 0.  1.
       -2    1    3    3    0  502 -0.40436608916E+03  0.10497670827E+04 -0.18364315231E+04  0.21536024705E+04  0.25500000920E-02 0. -1.
</event>
<event>
 5   0  0.5347280E-06  0.3153978E+04  0.7818609E-02  0.8201078E-01
       -2   -1    0    0    0  501  0.00000000000E+00  0.00000000000E+00  0.12939511367E+04  0.12939511367E+04  0.25500000920E-02 0.  1.
        2   -1    0    0  501    0  0.00000000000E+00  0.00000000000E+00 -0.19219381315E+04  0.19219381315E+04  0.25500000920E-02 0. -1.
    10030    2    1    2    0    0  0.00000000000E+00  0.00000000000E+00 -0.62798699480E+03  0.32158892681E+04  0.31539778248E+04 0.  0.
        2    1    3    3  502    0  0.11042425975E+04  0.49019303357E+03 -0.13474237770E+04  0.18097490874E+04  0.25500000920E-02 0. -1.
       -2    1    3    3    0  502 -0.11042425975E+04 -0.49019303357E+03  0.71943678220E+03  0.14061401808E+04  0.25500000920E-02 0.  1.
</event>
<event>
 5   0  0.5131083E-06  0.3187011E+04  0.7818609E-02  0.8192256E-01
        2   -1    0    0  501    0  0.00000000000E+00  0.00000000000E+00  0.22361309451E+04  0.22361309451E+04  0.25500000920E-02 0.  1.
       -2   -1    0    0    0  501  0.00000000000E+00  0.00000000000E+00 -0.11355598470E+04  0.11355598470E+04  0.25500000920E-02 0. -1.
    10030    2    1    2    0    0  0.00000000000E+00  0.00000000000E+00  0.11005710981E+04  0.33716907920E+04  0.31870114614E+04 0.  0.
        3    1    3    3  502    0 -0.10374812793E+04  0.74699513764E+03 -0.45609523588E+03  0.13573474186E+04  0.10100000352E+00 0. -1.
       -3    1    3    3    0  502  0.10374812793E+04 -0.74699513764E+03  0.15566663340E+04  0.20143433734E+04  0.10100000352E+00 0.  1.
</event>
<event>
 5   0  0.5121624E-06  0.2756141E+04  0.7818609E-02  0.8317016E-01
        2   -1    0    0  501    0  0.00000000000E+00  0.00000000000E+00  0.12708741160E+04  0.12708741160E+04  0.25500000920E-02 0.  1.
       -2   -1    0    0    0  501  0.00000000000E+00  0.00000000000E+00 -0.14943083670E+04  0.14943083670E+04  0.25500000920E-02 0. -1.
    10030    2    1    2    0    0  0.00000000000E+00  0.00000000000E+00 -0.22343425101E+03  0.27651824829E+04  0.27561406530E+04 0.  0.
        4    1    3    3  502    0 -0.91324664546E+03 -0.70884341314E+03 -0.86424299079E+03  0.14433973742E+04  0.12699999809E+01 0.  1.
       -4    1    3    3    0  502  0.91324664546E+03  0.70884341314E+03  0.64080873978E+03  0.13217851087E+04  0.12699999809E+01 0. -1.
</event>
<event>
 5   0  0.5108810E-06  0.3144010E+04  0.7818609E-02  0.8203763E-01
        2   -1    0    0  501    0  0.00000000000E+00  0.00000000000E+00  0.16980994230E+04  0.16980994230E+04  0.25500000920E-02 0. -1.
       -2   -1    0    0    0  501  0.00000000000E+00  0.00000000000E+00 -0.14552734768E+04  0.14552734768E+04  0.25500000920E-02 0.  1.
    10030    2    1    2    0    0  0.00000000000E+00  0.00000000000E+00  0.24282594617E+03  0.31533728999E+04  0.31440095746E+04 0.  0.
        1    1    3    3  502    0  0.62228380520E+03 -0.13462591230E+03  0.15629957297E+04  0.16876957431E+04  0.50400001928E-02 0. -1.
       -1    1    3    3    0  502 -0.62228380520E+03  0.13462591230E+03 -0.13201697835E+04  0.14656771567E+04  0.50400001928E-02 0.  1.
</event>
<event>
 5   0  0.1977015E-06  0.3158296E+04  0.7818609E-02  0.8199919E-01
       -1   -1    0    0    0  501  0.00000000000E+00  0.00000000000E+00  0.13518679938E+04  0.13518679938E+04  0.50400001928E-02 0. -1.
        1   -1    0    0  501    0  0.00000000000E+00  0.00000000000E+00 -0.18446384114E+04  0.18446384114E+04  0.50400001928E-02 0.  1.
    10030    2    1    2    0    0  0.00000000000E+00  0.00000000000E+00 -0.49277041763E+03  0.31965064053E+04  0.31582955078E+04 0.  0.
        1    1    3    3  502    0 -0.90345286237E+03  0.19397165269E+03 -0.15424467201E+04  0.17980528248E+04  0.50400001928E-02 0.  1.
       -1    1    3    3    0  502  0.90345286237E+03 -0.19397165269E+03  0.10496763025E+04  0.13984535804E+04  0.50400001928E-02 0. -1.
</event>
<event>
 5   0  0.1881144E-06  0.2637236E+04  0.7818609E-02  0.8355662E-01
       -1   -1    0    0    0  501  0.00000000000E+00  0.00000000000E+00  0.82356312170E+03  0.82356312171E+03  0.50400001928E-02 0.  1.
        1   -1    0    0  501    0  0.00000000000E+00  0.00000000000E+00 -0.21112568063E+04  0.21112568063E+04  0.50400001928E-02 0. -1.
    10030    2    1    2    0    0  0.00000000000E+00  0.00000000000E+00 -0.12876936846E+04  0.29348199280E+04  0.26372358606E+04 0.  0.
        3    1    3    3  502    0  0.81506724154E+03 -0.87017676241E+03 -0.12706145703E+04  0.17424131550E+04  0.10100000352E+00 0.  1.
       -3    1    3    3    0  502 -0.81506724154E+03  0.87017676241E+03 -0.17079114282E+02  0.11924067731E+04  0.10100000352E+00 0. -1.
</event>
<event>
 5   0  0.1977015E-06  0.3171252E+04  0.7818609E-02  0.8196451E-01
        1   -1    0    0  501    0  0.00000000000E+00  0.00000000000E+00  0.11425347864E+04  0.11425347864E+04  0.50400001928E-02 0.  1.
       -1   -1    0    0    0  501  0.00000000000E+00  0.00000000000E+00 -0.22005540773E+04  0.22005540773E+04  0.50400001928E-02 0. -1.
    10030    2    1    2    0    0  0.00000000000E+00  0.00000000000E+00 -0.10580192910E+04  0.33430888637E+04  0.31712518554E+04 0.  0.
        1    1    3    3  502    0  0.88789814281E+03 -0.10159554174E+04  0.34899558909E+03  0.13936737220E+04  0.50400001928E-02 0.  1.
       -1    1    3    3    0  502 -0.88789814281E+03  0.10159554174E+04 -0.14070148801E+04  0.19494151417E+04  0.50400001928E-02 0. -1.
</event>
<event>
 5   0  0.5121624E-06  0.3262123E+04  0.7818609E-02  0.8172601E-01
       -2   -1    0    0    0  501  0.00000000000E+00  0.00000000000E+00  0.12772910246E+04  0.12772910246E+04  0.25500000920E-02 0.  1.
        2   -1    0    0  501    0  0.00000000000E+00  0.00000000000E+00 -0.20828151023E+04  0.20828151023E+04  0.25500000920E-02 0. -1.
    10030    2    1    2    0    0  0.00000000000E+00  0.00000000000E+00 -0.80552407771E+03  0.33601061269E+04  0.32621226439E+04 0.  0.
        4    1    3    3  502    0 -0.33182927113E+03 -0.15100735340E+04  0.13238806732E+03  0.15517605990E+04  0.12699999809E+01 0.  1.
       -4    1    3    3    0  502  0.33182927113E+03  0.15100735340E+04 -0.93791214503E+03  0.18083455278E+04  0.12699999809E+01 0. -1.
</event>
<event>
 5   0  0.5347280E-06  0.3351605E+04  0.7818609E-02  0.8149887E-01
        2   -1    0    0  501    0  0.00000000000E+00  0.00000000000E+00  0.13182596536E+04  0.13182596536E+04  0.25500000920E-02 0. -1.
       -2   -1    0    0    0  501  0.00000000000E+00  0.00000000000E+00 -0.21303198512E+04  0.21303198512E+04  0.25500000920E-02 0.  1.
    10030    2    1    2    0    0  0.00000000000E+00  0.00000000000E+00 -0.81206019765E+03  0.34485795048E+04  0.33516054118E+04 0.  0.
        2    1    3    3  502    0 -0.13805355219E+04 -0.76691681337E+03 -0.98285269624E+03  0.18601180469E+04  0.25500000920E-02 0.  1.
       -2    1    3    3    0  502  0.13805355219E+04  0.76691681337E+03  0.17079249859E+03  0.15884614579E+04  0.25500000920E-02 0. -1.
</event>
<event>
 5   0  0.5347280E-06  0.3206525E+04  0.7818609E-02  0.8187096E-01
        2   -1    0    0  501    0  0.00000000000E+00  0.00000000000E+00  0.18289520407E+04  0.18289520407E+04  0.25500000920E-02 0. -1.
       -2   -1    0    0    0  501  0.00000000000E+00  0.00000000000E+00 -0.14054229232E+04  0.14054229232E+04  0.25500000920E-02 0.  1.
    10030    2    1    2    0    0  0.00000000000E+00  0.00000000000E+00  0.42352911751E+03  0.32343749639E+04  0.32065252991E+04 0.  0.
        2    1    3    3  502    0 -0.62851152991E+03 -0.44037282492E+03 -0.12081176348E+04  0.14312593014E+04  0.25500000920E-02 0.  1.
       -2    1    3    3    0  502  0.62851152991E+03  0.44037282492E+03  0.16316467523E+04  0.18031156626E+04  0.25500000920E-02 0. -1.
</event>
<event>
 5   0  0.5108810E-06  0.3096329E+04  0.7818609E-02  0.8216746E-01
       -2   -1    0    0    0  501  0.00000000000E+00  0.00000000000E+00  0.18043205267E+04  0.18043205267E+04  0.25500000920E-02 0.  1.
        2   -1    0    0  501    0  0.00000000000E+00  0.00000000000E+00 -0.13283748913E+04  0.13283748913E+04  0.25500000920E-02 0. -1.
    10030    2    1    2    0    0  0.00000000000E+00  0.00000000000E+00  0.47594563542E+03  0.31326954179E+04  0.30963294937E+04 0.  0.
        1    1    3    3  502    0 -0.72317642126E+03  0.34868964970E+03  0.15772438515E+04  0.17698211139E+04  0.50400001928E-02 0.  1.
       -1    1    3    3    0  502  0.72317642126E+03 -0.34868964970E+03 -0.11012982160E+04  0.13628743041E+04  0.50400001928E-02 0. -1.
</event>
<event>
 5   0  0.5373060E-06  0.3096875E+04  0.7818609E-02  0.8216596E-01
       -2   -1    0    0    0  501  0.00000000000E+00  0.00000000000E+00  0.87640333829E+03  0.87640333830E+03  0.25500000920E-02 0.  1.
        2   -1    0    0  501    0  0.00000000000E+00  0.00000000000E+00 -0.27357934241E+04  0.27357934241E+04  0.25500000920E-02 0. -1.
    10030    2    1    2    0    0  0.00000000000E+00  0.00000000000E+00 -0.18593900858E+04  0.36121967624E+04  0.30968748698E+04 0.  0.
        5    1    3    3  502    0  0.86373819303E+03 -0.77158347928E+03  0.26906275442E+03  0.11890338883E+04  0.46999998093E+01 0.  1.
       -5    1    3    3    0  502 -0.86373819303E+03  0.77158347928E+03 -0.21284528403E+04  0.24231628742E+04  0.46999998093E+01 0. -1.
</event>
<event>
 5   0  0.1969465E-06  0.3186477E+04  0.7818609E-02  0.8192398E-01
       -1   -1    0    0    0  501  0.00000000000E+00  0.00000000000E+00  0.13909540707E+04  0.13909540707E+04  0.50400001928E-02 0. -1.
        1   -1    0    0  501    0  0.00000000000E+00  0.00000000000E+00 -0.18249411304E+04  0.18249411304E+04  0.50400001928E-02 0.  1.
    10030    2    1    2    0    0  0.00000000000E+00  0.00000000000E+00 -0.43398705971E+03  0.32158952010E+04  0.31864772361E+04 0.  0.
        2    1    3    3  502    0  0.73372322435E+03 -0.13814909131E+04 -0.52234651481E+03  0.16491551760E+04  0.25500000920E-02 0.  1.
       -2    1    3    3    0  502 -0.73372322435E+03  0.13814909131E+04  0.88359455101E+02  0.15667400251E+04  0.25500000920E-02 0. -1.
</event>
<event>
 5   0  0.1881144E-06  0.3163641E+04  0.7818609E-02  0.8198486E-01
        1   -1    0    0  501    0  0.00000000000E+00  0.00000000000E+00  0.15170351208E+04  0.15170351208E+04  0.50400001928E-02 0.  1.
       -1   -1    0    0    0  501  0.00000000000E+00  0.00000000000E+00 -0.16493721786E+04  0.16493721786E+04  0.50400001928E-02 0. -1.
    10030    2    1    2    0    0  0.00000000000E+00  0.00000000000E+00 -0.13233705781E+03  0.31664072993E+04  0.31636406383E+04 0.  0.
        3    1    3    3  502    0  0.10917840255E+04 -0.10100174844E+04 -0.60518181798E+03  0.16057312104E+04  0.10100000352E+00 0. -1.
       -3    1    3    3    0  502 -0.10917840255E+04  0.10100174844E+04  0.47284476017E+03  0.15606760889E+04  0.10100000352E+00 0.  1.
</event>
<event>
 5   0  0.1977015E-06  0.2616396E+04  0.7818609E-02  0.8362653E-01
        1   -1    0    0  501    0  0.00000000000E+00  0.00000000000E+00  0.25163140510E+04  0.25163140510E+04  0.50400001928E-02 0.  1.
       -1   -1    0    0    0  501  0.00000000000E+00  0.00000000000E+00 -0.68011485371E+03  0.68011485373E+03  0.50400001928E-02 0. -1.
    10030    2    1    2    0    0  0.00000000000E+00  0.00000000000E+00  0.18361991973E+04  0.31964289047E+04  0.26163964246E+04 0.  0.
        1    1    3    3  502    0 -0.39763035098E+03  0.12461693325E+04  0.89575027573E+03  0.15853758096E+04  0.50400001928E-02 0.  1.
       -1    1    3    3    0  502  0.39763035098E+03 -0.12461693325E+04  0.94044892156E+03  0.16110530951E+04  0.50400001928E-02 0. -1.
</event>
<event>
 5   0  0.1969465E-06  0.3035782E+04  0.7818609E-02  0.8233586E-01
       -1   -1    0    0    0  501  0.00000000000E+00  0.00000000000E+00  0.13524078557E+04  0.13524078558E+04  0.50400001928E-02 0. -1.
        1   -1    0    0  501    0  0.00000000000E+00  0.00000000000E+00 -0.17036225554E+04  0.17036225554E+04  0.50400001928E-02 0.  1.
    10030    2    1    2    0    0  0.00000000000E+00  0.00000000000E+00 -0.35121469968E+03  0.30560304112E+04  0.30357816306E+04 0.  0.
        2    1    3    3  502    0 -0.64011410537E+03  0.10228811125E+04  0.75138255046E+03  0.14214807685E+04  0.25500000920E-02 0. -1.
       -2    1    3    3    0  502  0.64011410537E+03 -0.10228811125E+04 -0.11025972501E+04  0.16345496426E+04  0.25500000920E-02 0.  1.
</event>
<event>
 5   0  0.5131083E-06  0.3173085E+04  0.7818609E-02  0.8195962E-01
       -2   -1    0    0    0  501  0.00000000000E+00  0.00000000000E+00  0.11986831328E+04  0.11986831328E+04  0.25500000920E-02 0. -1.
        2   -1    0    0  501    0  0.00000000000E+00  0.00000000000E+00 -0.20999022082E+04  0.20999022082E+04  0.25500000920E-02 0.  1.
    10030    2    1    2    0    0  0.00000000000E+00  0.00000000000E+00 -0.90121907544E+03  0.32985853410E+04  0.31730851596E+04 0.  0.
        3    1    3    3  502    0  0.14619994411E+03  0.15317070589E+04 -0.48508114017E+02  0.15394330077E+04  0.10100000352E+00 0.  1.
       -3    1    3    3    0  502 -0.14619994411E+03 -0.15317070589E+04 -0.85271096143E+03  0.17591523333E+04  0.10100000352E+00 0. -1.
</event>
<event>
 5   0  0.1969465E-06  0.3247190E+04  0.7818609E-02  0.8176464E-01
       -1   -1    0    0    0  501  0.00000000000E+00  0.00000000000E+00  0.18614107224E+04  0.18614107224E+04  0.50400001928E-02 0.  1.
        1   -1    0    0  501    0  0.00000000000E+00  0.00000000000E+00 -0.14161626987E+04  0.14161626987E+04  0.50400001928E-02 0. -1.
    10030    2    1    2    0    0  0.00000000000E+00  0.00000000000E+00  0.44524802369E+03  0.32775734211E+04  0.32471898202E+04 0.  0.
        2    1    3    3  502    0 -0.52393053170E+03 -0.14097698604E+04  0.83998927274E+03  0.17226538363E+04  0.25500000920E-02 0.  1.
       -2    1    3    3    0  502  0.52393053170E+03  0.14097698604E+04 -0.39474124904E+03  0.15549195848E+04  0.25500000920E-02 0. -1.
</event>
<event>
 5   0  0.5373060E-06  0.3202785E+04  0.7818609E-02  0.8188082E-01
        2   -1    0    0  501    0  0.00000000000E+00  0.00000000000E+00  0.15368976700E+04  0.15368976700E+04  0.25500000920E-02 0. -1.
       -2   -1    0    0    0  501  0.00000000000E+00  0.00000000000E+00 -0.16685936220E+04  0.16685936220E+04  0.25500000920E-02 0.  1.
    10030    2    1    2    0    0  0.00000000000E+00  0.00000000000E+00 -0.13169595208E+03  0.32054912920E+04  0.32027848194E+04 0.  0.
        5    1    3    3  502    0  0.16012906609E+04 -0.17402776954E+02 -0.64886663920E+02  0.16027061510E+04  0.46999998093E+01 0.  1.
       -5    1    3    3    0  502 -0.16012906609E+04  0.17402776954E+02 -0.66809288162E+02  0.16027851410E+04  0.46999998093E+01 0. -1.
</event>
<event>
 5   0  0.5121624E-06  0.3159231E+04  0.7818609E-02  0.8199668E-01
        2   -1    0    0  501    0  0.00000000000E+00  0.00000000000E+00  0.18240866750E+04  0.18240866750E+04  0.25500000920E-02 0. -1.
       -2   -1    0    0    0  501  0.00000000000E+00  0.00000000000E+00 -0.13679089022E+04  0.13679089022E+04  0.25500000920E-02 0.  1.
    10030    2    1    2    0    0  0.00000000000E+00  0.00000000000E+00  0.45617777278E+03  0.31919955771E+04  0.31592305399E+04 0.  0.
        4    1    3    3  502    0 -0.14012575343E+04 -0.49419883506E+03 -0.31359412204E+03  0.15185842263E+04  0.12699999809E+01 0.  1.
       -4    1    3    3    0  502  0.14012575343E+04  0.49419883506E+03  0.76977189483E+03  0.16734113508E+04  0.12699999809E+01 0. -1.
</event>
<event>
 5   0  0.1846850E-06  0.2948423E+04  0.7818609E-02  0.8258614E-01
       -1   -1    0    0    0  501  0.00000000000E+00  0.00000000000E+00  0.28483917919E+04  0.28483917919E+04  0.50400001928E-02 0. -1.
        1   -1    0    0  501    0  0.00000000000E+00  0.00000000000E+00 -0.76299172576E+03  0.76299172577E+03  0.50400001928E-02 0.  1.
    10030    2    1    2    0    0  0.00000000000E+00  0.00000000000E+00  0.20854000661E+04  0.36113835177E+04  0.29484228794E+04 0.  0.
        5    1    3    3  502    0 -0.60454838899E+03 -0.21741594175E+03  0.26678947803E+04  0.27441634600E+04  0.46999998093E+01 0. -1.
       -5    1    3    3    0  502  0.60454838899E+03  0.21741594175E+03 -0.58249471419E+03  0.86722005767E+03  0.46999998093E+01 0.  1.
</event>
<event>
 5   0  0.1881144E-06  0.3202150E+04  0.7818609E-02  0.8188250E-01
        1   -1    0    0  501    0  0.00000000000E+00  0.00000000000E+00  0.11273569641E+04  0.11273569641E+04  0.50400001928E-02 0. -1.
       -1   -1    0    0    0  501  0.00000000000E+00  0.00000000000E+00 -0.22738503921E+04  0.22738503921E+04  0.50400001928E-02 0.  1.
    10030    2    1    2    0    0  0.00000000000E+00  0.00000000000E+00 -0.11464934280E+04  0.34012073562E+04  0.32021499496E+04 0.  0.
        3    1    3    3  502    0  0.29651175827E+03  0.13827551900E+04 -0.13705842872E+04  0.19693736153E+04  0.10100000352E+00 0.  1.
       -3    1    3    3    0  502 -0.29651175827E+03 -0.13827551900E+04  0.22409085919E+03  0.14318337409E+04  0.10100000352E+00 0. -1.
</event>
<event>
 5   0  0.1977015E-06  0.3071915E+04  0.7818609E-02  0.8223488E-01
       -1   -1    0    0    0  501  0.00000000000E+00  0.00000000000E+00  0.14928407397E+04  0.14928407397E+04  0.50400001928E-02 0.  1.
        1   -1    0    0  501    0  0.00000000000E+00  0.00000000000E+00 -0.15803192121E+04  0.15803192121E+04  0.50400001928E-02 0. -1.
    10030    2    1    2    0    0  0.00000000000E+00  0.00000000000E+00 -0.87478472444E+02  0.30731599518E+04  0.30719146483E+04 0.  0.
        1    1    3    3  502    0  0.19735704044E+03  0.14602226974E+04 -0.47746403469E+03  0.15489260898E+04  0.50400001928E-02 0. -1.
       -1    1    3    3    0  502 -0.19735704044E+03 -0.14602226974E+04  0.38998556224E+03  0.15242338620E+04  0.50400001928E-02 0.  1.
</event>
<event>
 5   0  0.1846850E-06  0.3134554E+04  0.7818609E-02  0.8206318E-01
       -1   -1    0    0    0  501  0.00000000000E+00  0.00000000000E+00  0.10434684604E+04  0.10434684604E+04  0.50400001928E-02 0. -1.
        1   -1    0    0  501    0  0.00000000000E+00  0.00000000000E+00 -0.23540305437E+04  0.23540305437E+04  0.50400001928E-02 0.  1.
    10030    2    1    2    0    0  0.00000000000E+00  0.00000000000E+00 -0.13105620833E+04  0.33974990040E+04  0.31345536378E+04 0.  0.
        5    1    3    3  502    0  0.31960891961E+01 -0.56807756710E+03 -0.22385014347E+04  0.23094659773E+04  0.46999998093E+01 0.  1.
       -5    1    3    3    0  502 -0.31960891961E+01  0.56807756710E+03  0.92793935143E+03  0.10880330267E+04  0.46999998093E+01 0. -1.
</event>
<event>
 5   0  0.5347280E-06  0.3239086E+04  0.7818609E-02  0.8178570E-01
       -2   -1    0    0    0  501  0.00000000000E+00  0.00000000000E+00  0.18009029962E+04  0.18009029962E+04  0.25500000920E-02 0.  1.
        2   -1    0    0  501    0  0.00000000000E+00  0.00000000000E+00 -0.14564467378E+04  0.14564467378E+04  0.25500000920E-02 0. -1.
    10030    2    1    2    0    0  0.00000000000E+00  0.00000000000E+00  0.34445625839E+03  0.32573497340E+04  0.32390858550E+04 0.  0.
        2    1    3    3  502    0  0.95982985928E+02 -0.22088578896E+03  0.17827940545E+04  0.17989880227E+04  0.25500000920E-02 0.  1.
       -2    1    3    3    0  502 -0.95982985928E+02  0.22088578896E+03 -0.14383377961E+04  0.14583617113E+04  0.25500000920E-02 0. -1.
</event>
<event>
 5   0  0.1969465E-06  0.2769112E+04  0.7818609E-02  0.8312922E-01
       -1   -1    0    0    0  501  0.00000000000E+00  0.00000000000E+00  0.11867933480E+04  0.11867933480E+04  0.50400001928E-02 0. -1.
        1   -1    0    0  501    0  0.00000000000E+00  0.00000000000E+00 -0.16152731434E+04  0.16152731434E+04  0.50400001928E-02 0.  1.
    10030    2    1    2    0    0  0.00000000000E+00  0.00000000000E+00 -0.42847979541E+03  0.28020664914E+04  0.27691120756E+04 0.  0.
        2    1    3    3  502    0 -0.10522663013E+04 -0.89897290508E+03 -0.17403331153E+03  0.13948850298E+04  0.25500000920E-02 0. -1.
       -2    1    3    3    0  502  0.10522663013E+04  0.89897290508E+03 -0.25444648388E+03  0.14071814616E+04  0.25500000920E-02 0.  1.
</event>
<event>
 5   0  0.5131083E-06  0.3178260E+04  0.7818609E-02  0.8194582E-01
       -2   -1    0    0    0  501  0.00000000000E+00  0.00000000000E+00  0.10048177151E+04  0.10048177151E+04  0.25500000920E-02 0. -1.
        2   -1    0    0  501    0  0.00000000000E+00  0.00000000000E+00 -0.25132268564E+04  0.25132268564E+04  0.25500000920E-02 0.  1.
    10030    2    1    2    0    0  0.00000000000E+00  0.00000000000E+00 -0.15084091413E+04  0.35180445715E+04  0.31782604470E+04 0.  0.
        3    1    3    3  502    0  0.14306046906E+04 -0.68925702740E+03 -0.68751548038E+03  0.17304284373E+04  0.10100000352E+00 0.  1.
       -3    1    3    3    0  502 -0.14306046906E+04  0.68925702740E+03 -0.82089366097E+03  0.17876161342E+04  0.10100000352E+00 0. -1.
</event>
<event>
 5   0  0.1977015E-06  0.3167755E+04  0.7818609E-02  0.8197385E-01
        1   -1    0    0  501    0  0.00000000000E+00  0.00000000000E+00  0.10241287647E+04  0.10241287647E+04  0.50400001928E-02 0. -1.
       -1   -1    0    0    0  501  0.00000000000E+00  0.00000000000E+00 -0.24495627942E+04  0.24495627942E+04  0.50400001928E-02 0.  1.
    10030    2    1    2    0    0  0.00000000000E+00  0.00000000000E+00 -0.14254340296E+04  0.34736915589E+04  0.31677548633E+04 0.  0.
        1    1    3    3  502    0  0.12514341935E+04 -0.96372328763E+03 -0.58381608883E+03  0.16839511101E+04  0.50400001928E-02 0.  1.
       -1    1    3    3    0  502 -0.12514341935E+04  0.96372328763E+03 -0.84161794075E+03  0.17897404488E+04  0.50400001928E-02 0. -1.
</event>
<event>
 5   0  0.5131083E-06  0.3073878E+04  0.7818609E-02  0.8222944E-01
        2   -1    0    0  501    0  0.00000000000E+00  0.00000000000E+00  0.16645381897E+04  0.16645381897E+04  0.25500000920E-02 0.  1.
       -2   -1    0    0    0  501  0.00000000000E+00  0.00000000000E+00 -0.14191208068E+04  0.14191208068E+04  0.25500000920E-02 0. -1.
    10030    2    1    2    0    0  0.00000000000E+00  0.00000000000E+00  0.24541738283E+03  0.30836589965E+04  0.30738775374E+04 0.  0.
        3    1    3    3  502    0  0.81040786904E+03  0.10220810224E+04 -0.69275573724E+03  0.14769296030E+04  0.10100000352E+00 0. -1.
       -3    1    3    3    0  502 -0.81040786904E+03 -0.10220810224E+04  0.93817312006E+03  0.16067293935E+04  0.10100000352E+00 0.  1.
</event>
<event>
 5   0  0.5373060E-06  0.3207220E+04  0.7818609E-02  0.8186913E-01
       -2   -1    0    0    0  501  0.00000000000E+00  0.00000000000E+00  0.12636204612E+04  0.12636204612E+04  0.25500000920E-02 0.  1.
        2   -1    0    0  501    0  0.00000000000E+00  0.00000000000E+00 -0.20350773091E+04  0.20350773091E+04  0.25500000920E-02 0. -1.
    10030    2    1    2    0    0  0.00000000000E+00  0.00000000000E+00 -0.77145684787E+03  0.32986977703E+04  0.32072201844E+04 0.  0.
        5    1    3    3  502    0 -0.40288469517E+03 -0.58582704070E+03  0.10926392771E+04  0.13036073331E+04  0.46999998093E+01 0.  1.
       -5    1    3    3    0  502  0.40288469517E+03  0.58582704070E+03 -0.18640961249E+04  0.19950904371E+04  0.46999998093E+01 0. -1.
</event>
<event>
 5   0  0.5373060E-06  0.3214342E+04  0.7818609E-02  0.8185040E-01
       -2   -1    0    0    0  501  0.00000000000E+00  0.00000000000E+00  0.10691790234E+04  0.10691790234E+04  0.25500000920E-02 0.  1.
        2   -1    0    0  501    0  0.00000000000E+00  0.00000000000E+00 -0.24158717411E+04  0.24158717411E+04  0.25500000920E-02 0. -1.
    10030    2    1    2    0    0  0.00000000000E+00  0.00000000000E+00 -0.13466927177E+04  0.34850507645E+04  0.32143424764E+04 0.  0.
        5    1    3    3  502    0  0.67570304514E+03 -0.63952962947E+03  0.74752010977E+03  0.11934744055E+04  0.46999998093E+01 0.  1.
       -5    1    3    3    0  502 -0.67570304514E+03  0.63952962947E+03 -0.20942128275E+04  0.22915763590E+04  0.46999998093E+01 0. -1.
</event>
<event>
 5   0  0.5131083E-06  0.3156449E+04  0.7818609E-02  0.8200414E-01
        2   -1    0    0  501    0  0.00000000000E+00  0.00000000000E+00  0.23803674249E+04  0.23803674249E+04  0.25500000920E-02 0. -1.
       -2   -1    0    0    0  501  0.00000000000E+00  0.00000000000E+00 -0.10463900950E+04  0.10463900950E+04  0.25500000920E-02 0.  1.
    10030    2    1    2    0    0  0.00000000000E+00  0.00000000000E+00  0.13339773299E+04  0.34267575198E+04  0.31564492049E+04 0.  0.
        3    1    3    3  502    0 -0.63149832827E+03 -0.12167177202E+04  0.15160099329E+04  0.20438880293E+04  0.10100000352E+00 0. -1.
       -3    1    3    3    0  502  0.63149832827E+03  0.12167177202E+04 -0.18203260300E+03  0.13828694906E+04  0.10100000352E+00 0.  1.
</event>
<event>
 5   0  0.1977015E-06  0.3216525E+04  0.7818609E-02  0.8184466E-01
       -1   -1    0    0    0  501  0.00000000000E+00  0.00000000000E+00  0.19928654152E+04  0.19928654152E+04  0.50400001928E-02 0. -1.
        1   -1    0    0  501    0  0.00000000000E+00  0.00000000000E+00 -0.12978843943E+04  0.12978843943E+04  0.50400001928E-02 0.  1.
    10030    2    1    2    0    0  0.00000000000E+00  0.00000000000E+00  0.69498102096E+03  0.32907498095E+04  0.32165254063E+04 0.  0.
        1    1    3    3  502    0 -0.44380861100E+03 -0.54143300493E+03  0.18287946746E+04  0.19582149382E+04  0.50400001928E-02 0. -1.
       -1    1    3    3    0  502  0.44380861100E+03  0.54143300493E+03 -0.11338136537E+04  0.13325348713E+04  0.50400001928E-02 0.  1.
</event>
<event>
 5   0  0.1886248E-06  0.3209388E+04  0.7818609E-02  0.8186342E-01
        1   -1    0    0  501    0  0.00000000000E+00  0.00000000000E+00  0.14066910395E+04  0.14066910395E+04  0.50400001928E-02 0.  1.
       -1   -1    0    0    0  501  0.00000000000E+00  0.00000000000E+00 -0.18305677034E+04  0.18305677034E+04  0.50400001928E-02 0. -1.
    10030    2    1    2    0    0  0.00000000000E+00  0.00000000000E+00 -0.42387666393E+03  0.32372587429E+04  0.32093882193E+04 0.  0.
        4    1    3    3  502    0 -0.30823095807E+03 -0.15708988487E+04 -0.10001504577E+03  0.16039744819E+04  0.12699999809E+01 0.  1.
       -4    1    3    3    0  502  0.30823095807E+03  0.15708988487E+04 -0.32386161817E+03  0.16332842609E+04  0.12699999809E+01 0. -1.
</event>
<event>
 5   0  0.1846850E-06  0.3160591E+04  0.7818609E-02  0.8199303E-01
        1   -1    0    0  501    0  0.00000000000E+00  0.00000000000E+00  0.17206379255E+04  0.17206379255E+04  0.50400001928E-02 0.  1.
       -1   -1    0    0    0  501  0.00000000000E+00  0.00000000000E+00 -0.14513996985E+04  0.14513996985E+04  0.50400001928E-02 0. -1.
    10030    2    1    2    0    0  0.00000000000E+00  0.00000000000E+00  0.26923822701E+03  0.31720376241E+04  0.31605906830E+04 0.  0.
        5    1    3    3  502    0 -0.18970710300E+03  0.88412269624E+03 -0.11660876942E+04  0.14756165923E+04  0.46999998093E+01 0. -1.
       -5    1    3    3    0  502  0.18970710300E+03 -0.88412269624E+03  0.14353259212E+04  0.16964210318E+04  0.46999998093E+01 0.  1.
</event>
<event>
 5   0  0.5347280E-06  0.3077098E+04  0.7818609E-02  0.8222052E-01
       -2   -1    0    0    0  501  0.00000000000E+00  0.00000000000E+00  0.13924796591E+04  0.13924796591E+04  0.25500000920E-02 0.  1.
        2   -1    0    0  501    0  0.00000000000E+00  0.00000000000E+00 -0.16999403835E+04  0.16999403835E+04  0.25500000920E-02 0. -1.
    10030    2    1    2    0    0  0.00000000000E+00  0.00000000000E+00 -0.30746072435E+03  0.30924200426E+04  0.30770975972E+04 0.  0.
        2    1    3    3  502    0 -0.26508584347E+03  0.14980014278E+04 -0.38477430741E+03  0.15691813311E+04  0.25500000920E-02 0. -1.
       -2    1    3    3    0  502  0.26508584347E+03 -0.14980014278E+04  0.77313583067E+02  0.15232387115E+04  0.25500000920E-02 0.  1.
</event>
<event>
 5   0  0.1881144E-06  0.3264974E+04  0.7818609E-02  0.8171865E-01
        1   -1    0    0  501    0  0.00000000000E+00  0.00000000000E+00  0.18222404450E+04  0.18222404450E+04  0.50400001928E-02 0.  1.
       -1   -1    0    0    0  501  0.00000000000E+00  0.00000000000E+00 -0.14624927386E+04  0.14624927386E+04  0.50400001928E-02 0. -1.
    10030    2    1    2    0    0  0.00000000000E+00  0.00000000000E+00  0.35974770640E+03  0.32847331836E+04  0.32649737633E+04 0.  0.
        3    1    3    3  502    0 -0.13760742503E+04  0.16578856410E+03  0.10476175432E+04  0.17374028656E+04  0.10100000352E+00 0.  1.
       -3    1    3    3    0  502  0.13760742503E+04 -0.16578856410E+03 -0.68786983683E+03  0.15473303180E+04  0.10100000352E+00 0. -1.
</event>
<event>
 5   0  0.1886248E-06  0.3002802E+04  0.7818609E-02  0.8242931E-01
       -1   -1    0    0    0  501  0.00000000000E+00  0.00000000000E+00  0.14216960971E+04  0.14216960971E+04  0.50400001928E-02 0. -1.
        1   -1    0    0  501    0  0.00000000000E+00  0.00000000000E+00 -0.15855744031E+04  0.15855744031E+04  0.50400001928E-02 0.  1.
    10030    2    1    2    0    0  0.00000000000E+00  0.00000000000E+00 -0.16387830602E+03  0.30072705003E+04  0.30028019853E+04 0.  0.
        4    1    3    3  502    0  0.14467451629E+04  0.39304846532E+03 -0.30303271214E+00  0.14991865685E+04  0.12699999809E+01 0.  1.
       -4    1    3    3    0  502 -0.14467451629E+04 -0.39304846532E+03 -0.16357527331E+03  0.15080839318E+04  0.12699999809E+01 0. -1.
</event>
<event>
 5   0  0.5121624E-06  0.3196186E+04  0.7818609E-02  0.8189825E-01
       -2   -1    0    0    0  501  0.00000000000E+00  0.00000000000E+00  0.88692488306E+03  0.88692488306E+03  0.25500000920E-02 0. -1.
        2   -1    0    0  501    0  0.00000000000E+00  0.00000000000E+00 -0.28795013667E+04  0.28795013667E+04  0.25500000920E-02 0.  1.
    10030    2    1    2    0    0  0.00000000000E+00  0.00000000000E+00 -0.19925764836E+04  0.37664262497E+04  0.31961861103E+04 0.  0.
        4    1    3    3  502    0 -0.41155772921E+03  0.12689951257E+04 -0.20331383362E+04  0.24317445385E+04  0.12699999809E+01 0.  1.
       -4    1    3    3    0  502  0.41155772921E+03 -0.12689951257E+04  0.40561852559E+02  0.13346817112E+04  0.12699999809E+01 0. -1.
</event>
<event>
 5   0  0.1886248E-06  0.3164169E+04  0.7818609E-02  0.8198345E-01
        1   -1    0    0  501    0  0.00000000000E+00  0.00000000000E+00  0.19151665842E+04  0.19151665842E+04  0.50400001928E-02 0. -1.
       -1   -1    0    0    0  501  0.00000000000E+00  0.00000000000E+00 -0.13069316196E+04  0.13069316196E+04  0.50400001928E-02 0.  1.
    10030    2    1    2    0    0  0.00000000000E+00  0.00000000000E+00  0.60823496461E+03  0.32220982038E+04  0.31641692532E+04 0.  0.
        4    1    3    3  502    0  0.48634177233E+02  0.10430408728E+04 -0.90620916620E+03  0.13825759333E+04  0.12699999809E+01 0.  1.
       -4    1    3    3    0  502 -0.48634177233E+02 -0.10430408728E+04  0.15144441308E+04  0.18395222705E+04  0.12699999809E+01 0. -1.
</event>
<event>
 5   0  0.1886248E-06  0.3142897E+04  0.7818609E-02  0.8204063E-01
       -1   -1    0    0    0  501  0.00000000000E+00  0.00000000000E+00  0.14538800316E+04  0.14538800316E+04  0.50400001928E-02 0. -1.
        1   -1    0    0  501    0  0.00000000000E+00  0.00000000000E+00 -0.16985246393E+04  0.16985246393E+04  0.50400001928E-02 0.  1.
    10030    2    1    2    0    0  0.00000000000E+00  0.00000000000E+00 -0.24464460772E+03  0.31524046709E+04  0.31428974251E+04 0.  0.
        4    1    3    3  502    0  0.23388083354E+02 -0.33269333638E+02  0.14533516179E+04  0.14539210395E+04  0.12699999809E+01 0. -1.
       -4    1    3    3    0  502 -0.23388083354E+02  0.33269333638E+02 -0.16979962256E+04  0.16984836314E+04  0.12699999809E+01 0.  1.
</event>
<event>
 5   0  0.1977015E-06  0.3253344E+04  0.7818609E-02  0.8174869E-01
       -1   -1    0    0    0  501  0.00000000000E+00  0.00000000000E+00  0.24922469336E+04  0.24922469336E+04  0.50400001928E-02 0.  1.
        1   -1    0    0  501    0  0.00000000000E+00  0.00000000000E+00 -0.10617175013E+04  0.10617175014E+04  0.50400001928E-02 0. -1.
    10030    2    1    2    0    0  0.00000000000E+00  0.00000000000E+00  0.14305294323E+04  0.35539644350E+04  0.32533442407E+04 0.  0.
        1    1    3    3  502    0  0.38130962520E+02  0.14810202658E+04 -0.18507795731E+02  0.14816266522E+04  0.50400001928E-02 0. -1.
       -1    1    3    3    0  502 -0.38130962520E+02 -0.14810202658E+04  0.14490372280E+04  0.20723377828E+04  0.50400001928E-02 0.  1.
</event>
<event>
 5   0  0.5108810E-06  0.3169387E+04  0.7818609E-02  0.8196949E-01
       -2   -1    0    0    0  501  0.00000000000E+00  0.00000000000E+00  0.17646861667E+04  0.17646861667E+04  0.25500000920E-02 0. -1.
        2   -1    0    0  501    0  0.00000000000E+00  0.00000000000E+00 -0.14230596607E+04  0.14230596607E+04  0.25500000920E-02 0.  1.
    10030    2    1    2    0    0  0.00000000000E+00  0.00000000000E+00  0.34162650602E+03  0.31877458274E+04  0.31693871317E+04 0.  0.
        1    1    3    3  502    0 -0.38204402180E+03  0.37375199470E+03  0.16713011252E+04  0.17546782153E+04  0.50400001928E-02 0. -1.
       -1    1    3    3    0  502  0.38204402180E+03 -0.37375199470E+03 -0.13296746191E+04  0.14330676121E+04  0.50400001928E-02 0.  1.
</event>
<event>
 5   0  0.1881144E-06  0.3072069E+04  0.7818609E-02  0.8223445E-01
       -1   -1    0    0    0  501  0.00000000000E+00  0.00000000000E+00  0.12169934911E+04  0.12169934911E+04  0.50400001928E-02 0. -1.
        1   -1    0    0  501    0  0.00000000000E+00  0.00000000000E+00 -0.19387138268E+04  0.19387138268E+04  0.50400001928E-02 0.  1.
    10030    2    1    2    0    0  0.00000000000E+00  0.00000000000E+00 -0.72172033569E+03  0.31557073179E+04  0.30720690801E+04 0.  0.
        3    1    3    3  502    0  0.98972968464E+03 -0.78680573921E+03 -0.12568303661E+04  0.17827649029E+04  0.10100000352E+00 0. -1.
       -3    1    3    3    0  502 -0.98972968464E+03  0.78680573921E+03  0.53511003036E+03  0.13729424149E+04  0.10100000352E+00 0.  1.
</event>
<event>
 5   0  0.5347280E-06  0.3220525E+04  0.7818609E-02  0.8183418E-01
        2   -1    0    0  501    0  0.00000000000E+00  0.00000000000E+00  0.16826579183E+04  0.16826579183E+04  0.25500000920E-02 0. -1.
       -2   -1    0    0    0  501  0.00000000000E+00  0.00000000000E+00 -0.15409817529E+04  0.15409817529E+04  0.25500000920E-02 0.  1.
    10030    2    1    2    0    0  0.00000000000E+00  0.00000000000E+00  0.14167616539E+03  0.32236396712E+04  0.32205248942E+04 0.  0.
        2    1    3    3  502    0  0.16115339050E+03  0.11879591640E+04  0.11469256239E+04  0.16591129490E+04  0.25500000920E-02 0. -1.
       -2    1    3    3    0  502 -0.16115339050E+03 -0.11879591640E+04 -0.10052494585E+04  0.15645267222E+04  0.25500000920E-02 0.  1.
</event>
<event>
 5   0  0.5131083E-06  0.3201543E+04  0.7818609E-02  0.8188410E-01
        2   -1    0    0  501    0  0.00000000000E+00  0.00000000000E+00  0.16658868711E+04  0.16658868711E+04  0.25500000920E-02 0. -1.
       -2   -1    0    0    0  501  0.00000000000E+00  0.00000000000E+00 -0.15382010523E+04  0.15382010523E+04  0.25500000920E-02 0.  1.
    10030    2    1    2    0    0  0.00000000000E+00  0.00000000000E+00  0.12768581872E+03  0.32040879234E+04  0.32015427145E+04 0.  0.
        3    1    3    3  502    0 -0.46695367509E+03 -0.13000462709E+04 -0.74569006390E+03  0.15697833362E+04  0.10100000352E+00 0.  1.
       -3    1    3    3    0  502  0.46695367509E+03  0.13000462709E+04  0.87337588262E+03  0.16343045872E+04  0.10100000352E+00 0. -1.
</event>
<event>
 5   0  0.1846850E-06  0.3132066E+04  0.7818609E-02  0.8206992E-01
       -1   -1    0    0    0  501  0.00000000000E+00  0.00000000000E+00  0.12584106882E+04  0.12584106882E+04  0.50400001928E-02 0.  1.
        1   -1    0    0  501    0  0.00000000000E+00  0.00000000000E+00 -0.19488544106E+04  0.19488544106E+04  0.50400001928E-02 0. -1.
    10030    2    1    2    0    0  0.00000000000E+00  0.00000000000E+00 -0.69044372243E+03  0.32072650988E+04  0.31320659125E+04 0.  0.
        5    1    3    3  502    0  0.87621952369E+02 -0.15635372388E+04 -0.35600203765E+03  0.16059532510E+04  0.46999998093E+01 0.  1.
       -5    1    3    3    0  502 -0.87621952369E+02  0.15635372388E+04 -0.33444168478E+03  0.16013118478E+04  0.46999998093E+01 0. -1.
</event>
<event>
 5   0  0.5121624E-06  0.3272830E+04  0.7818609E-02  0.8169843E-01
       -2   -1    0    0    0  501  0.00000000000E+00  0.00000000000E+00  0.13264529317E+04  0.13264529317E+04  0.25500000920E-02 0. -1.
        2   -1    0    0  501    0  0.00000000000E+00  0.00000000000E+00 -0.20188077726E+04  0.20188077727E+04  0.25500000920E-02 0.  1.
    10030    2    1    2    0    0  0.00000000000E+00  0.00000000000E+00 -0.69235484100E+03  0.33452607043E+04  0.32728296555E+04 0.  0.
        4    1    3    3  502    0 -0.10594356455E+04  0.54632560563E+03  0.79978431284E+03  0.14354553683E+04  0.12699999809E+01 0. -1.
       -4    1    3    3    0  502  0.10594356455E+04 -0.54632560563E+03 -0.14921391538E+04  0.19098053360E+04  0.12699999809E+01 0.  1.
</event>
<event>
 5   0  0.5121624E-06  0.2685141E+04  0.7818609E-02  0.8339842E-01
       -2   -1    0    0    0  501  0.00000000000E+00  0.00000000000E+00  0.88910229991E+03  0.88910229991E+03  0.25500000920E-02 0.  1.
        2   -1    0    0  501    0  0.00000000000E+00  0.00000000000E+00 -0.20273201408E+04  0.20273201408E+04  0.25500000920E-02 0. -1.
    10030    2    1    2    0    0  0.00000000000E+00  0.00000000000E+00 -0.11382178409E+04  0.29164224407E+04  0.26851405921E+04 0.  0.
        4    1    3    3  502    0 -0.82589103693E+03 -0.56882758015E+03 -0.15386516163E+04  0.18366031771E+04  0.12699999809E+01 0. -1.
       -4    1    3    3    0  502  0.82589103693E+03  0.56882758015E+03  0.40043377537E+03  0.10798192637E+04  0.12699999809E+01 0.  1.
</event>
<event>
 5   0  0.5347280E-06  0.3142674E+04  0.7818609E-02  0.8204123E-01
       -2   -1    0    0    0  501  0.00000000000E+00  0.00000000000E+00  0.27004004552E+04  0.27004004552E+04  0.25500000920E-02 0. -1.
        2   -1    0    0  501    0  0.00000000000E+00  0.00000000000E+00 -0.91434587635E+03  0.91434587635E+03  0.25500000920E-02 0.  1.
    10030    2    1    2    0    0  0.00000000000E+00  0.00000000000E+00  0.17860545789E+04  0.36147463316E+04  0.31426740338E+04 0.  0.
        2    1    3    3  502    0  0.57984694481E+03 -0.54296111261E+03 -0.66638015430E+03  0.10368663170E+04  0.25500000920E-02 0.  1.
       -2    1    3    3    0  502 -0.57984694481E+03  0.54296111261E+03  0.24524347332E+04  0.25778800146E+04  0.25500000920E-02 0. -1.
</event>
<event>
 5   0  0.1846850E-06  0.3155566E+04  0.7818609E-02  0.8200652E-01
        1   -1    0    0  501    0  0.00000000000E+00  0.00000000000E+00  0.17950018429E+04  0.17950018429E+04  0.50400001928E-02 0. -1.
       -1   -1    0    0    0  501  0.00000000000E+00  0.00000000000E+00 -0.13868506979E+04  0.13868506979E+04  0.50400001928E-02 0.  1.
    10030    2    1    2    0    0  0.00000000000E+00  0.00000000000E+00  0.40815114495E+03  0.31818525408E+04  0.31555662303E+04 0.  0.
        5    1    3    3  502    0 -0.26187452584E+03  0.11280658686E+04  0.12845739396E+04  0.17295268623E+04  0.46999998093E+01 0. -1.
       -5    1    3    3    0  502  0.26187452584E+03 -0.11280658686E+04 -0.87642279466E+03  0.14523256784E+04  0.46999998093E+01 0.  1.
</event>
<event>
 5   0  0.5131083E-06  0.3128035E+04  0.7818609E-02  0.8208086E-01
       -2   -1    0    0    0  501  0.00000000000E+00  0.00000000000E+00  0.12772120875E+04  0.12772120875E+04  0.25500000920E-02 0. -1.
        2   -1    0    0  501    0  0.00000000000E+00  0.00000000000E+00 -0.19152268251E+04  0.19152268251E+04  0.25500000920E-02 0.  1.
    10030    2    1    2    0    0  0.00000000000E+00  0.00000000000E+00 -0.63801473755E+03  0.31924389126E+04  0.31280350710E+04 0.  0.
        3    1    3    3  502    0  0.68434057873E+03  0.13904979575E+04 -0.53392379366E+03  0.16391708957E+04  0.10100000352E+00 0.  1.
       -3    1    3    3    0  502 -0.68434057873E+03 -0.13904979575E+04 -0.10409094389E+03  0.15532680169E+04  0.10100000352E+00 0. -1.
</event>
<event>
 5   0  0.1729500E-06  0.3199077E+04  0.7818609E-02  0.8189061E-01
        3   -1    0    0  501    0  0.00000000000E+00  0.00000000000E+00  0.12242513608E+04  0.12242513650E+04  0.10100000352E+00 0.  1.
       -3   -1    0    0    0  501  0.00000000000E+00  0.00000000000E+00 -0.20898672625E+04  0.20898672649E+04  0.10100000352E+00 0. -1.
    10030    2    1    2    0    0  0.00000000000E+00  0.00000000000E+00 -0.86561590169E+03  0.33141186299E+04  0.31990766486E+04 0.  0.
        1    1    3    3  502    0  0.83844982944E+03  0.13488782936E+04 -0.62950986604E+03  0.17084359628E+04  0.50400001928E-02 0. -1.
       -1    1    3    3    0  502 -0.83844982944E+03 -0.13488782936E+04 -0.23610603565E+03  0.16056826671E+04  0.50400001928E-02 0.  1.
</event>
<event>
 5   0  0.1881144E-06  0.3155326E+04  0.7818609E-02  0.8200716E-01
       -1   -1    0    0    0  501  0.00000000000E+00  0.00000000000E+00  0.76200391479E+03  0.76200391481E+03  0.50400001928E-02 0.  1.
        1   -1    0    0  501    0  0.00000000000E+00  0.00000000000E+00 -0.32664133520E+04  0.32664133520E+04  0.50400001928E-02 0. -1.
    10030    2    1    2    0    0  0.00000000000E+00  0.00000000000E+00 -0.25044094372E+04  0.40284172668E+04  0.31553255056E+04 0.  0.
        3    1    3    3  502    0  0.14960024949E+04 -0.50039218495E+03 -0.12208292665E+04  0.19947029633E+04  0.10100000352E+00 0.  1.
       -3    1    3    3    0  502 -0.14960024949E+04  0.50039218495E+03 -0.12835801707E+04  0.20337143035E+04  0.10100000352E+00 0. -1.
</event>
<event>
 5   0  0.1729500E-06  0.2300492E+04  0.7818609E-02  0.8477727E-01
       -3   -1    0    0    0  501  0.00000000000E+00  0.00000000000E+00  0.14377201183E+04  0.14377201219E+04  0.10100000352E+00 0.  1.
        3   -1    0    0  501    0  0.00000000000E+00  0.00000000000E+00 -0.92025254345E+03  0.92025254900E+03  0.10100000352E+00 0. -1.
    10030    2    1    2    0    0  0.00000000000E+00  0.00000000000E+00  0.51746757489E+03  0.23579726709E+04  0.23004917791E+04 0.  0.
        3    1    3    3  502    0  0.42647966482E+03  0.68113651364E+03  0.11022382323E+04  0.13640971321E+04  0.10100000352E+00 0.  1.
       -3    1    3    3    0  502 -0.42647966482E+03 -0.68113651364E+03 -0.58477065742E+03  0.99387553883E+03  0.10100000352E+00 0. -1.
</event>
<event>
 5   0  0.5121624E-06  0.3159383E+04  0.7818609E-02  0.8199627E-01
       -2   -1    0    0    0  501  0.00000000000E+00  0.00000000000E+00  0.22182298515E+04  0.22182298515E+04  0.25500000920E-02 0. -1.
        2   -1    0    0  501    0  0.00000000000E+00  0.00000000000E+00 -0.11249623745E+04  0.11249623745E+04  0.25500000920E-02 0.  1.
    10030    2    1    2    0    0  0.00000000000E+00  0.00000000000E+00  0.10932674770E+04  0.33431922260E+04  0.31593829277E+04 0.  0.
        4    1    3    3  502    0 -0.71656890231E+03  0.11427081324E+04  0.14167699368E+04  0.19561420026E+04  0.12699999809E+01 0. -1.
       -4    1    3    3    0  502  0.71656890231E+03 -0.11427081324E+04 -0.32350245980E+03  0.13870502234E+04  0.12699999809E+01 0.  1.
</event>
<event>
 5   0  0.1886248E-06  0.3148425E+04  0.7818609E-02  0.8202572E-01
       -1   -1    0    0    0  501  0.00000000000E+00  0.00000000000E+00  0.11784059765E+04  0.11784059765E+04  0.50400001928E-02 0. -1.
        1   -1    0    0  501    0  0.00000000000E+00  0.00000000000E+00 -0.21029642691E+04  0.21029642691E+04  0.50400001928E-02 0.  1.
    10030    2    1    2    0    0  0.00000000000E+00  0.00000000000E+00 -0.92455829263E+03  0.32813702456E+04  0.31484254243E+04 0.  0.
        4    1    3    3  502    0 -0.13497874266E+04 -0.54801354592E+03  0.15948442572E+03  0.14654971301E+04  0.12699999809E+01 0. -1.
       -4    1    3    3    0  502  0.13497874266E+04  0.54801354592E+03 -0.10840427183E+04  0.18158731155E+04  0.12699999809E+01 0.  1.
</event>
<event>
 5   0  0.1881144E-06  0.2281811E+04  0.7818609E-02  0.8485127E-01
        1   -1    0    0  501    0  0.00000000000E+00  0.00000000000E+00  0.13308730384E+04  0.13308730384E+04  0.50400001928E-02 0. -1.
       -1   -1    0    0    0  501  0.00000000000E+00  0.00000000000E+00 -0.97805415072E+03  0.97805415073E+03  0.50400001928E-02 0.  1.
    10030    2    1    2    0    0  0.00000000000E+00  0.00000000000E+00  0.35281888763E+03  0.23089271891E+04  0.22818114727E+04 0.  0.
        3    1    3    3  502    0  0.57801018406E+03  0.24599721137E+03  0.11401217531E+04  0.13017250182E+04  0.10100000352E+00 0. -1.
       -3    1    3    3    0  502 -0.57801018406E+03 -0.24599721137E+03 -0.78730286548E+03  0.10072021709E+04  0.10100000352E+00 0.  1.
</event>
<event>
 5   0  0.5347280E-06  0.3237970E+04  0.7818609E-02  0.8178861E-01
       -2   -1    0    0    0  501  0.00000000000E+00  0.00000000000E+00  0.23673789576E+04  0.23673789576E+04  0.25500000920E-02 0.  1.
        2   -1    0    0  501    0  0.00000000000E+00  0.00000000000E+00 -0.11071792976E+04  0.11071792976E+04  0.25500000920E-02 0. -1.
    10030    2    1    2    0    0  0.00000000000E+00  0.00000000000E+00  0.12601996600E+04  0.34745582552E+04  0.32379703342E+04 0.  0.
        2    1    3    3  502    0  0.47476032678E+03 -0.62525311538E+02 -0.10294478125E+04  0.11353720012E+04  0.25500000920E-02 0. -1.
       -2    1    3    3    0  502 -0.47476032678E+03  0.62525311538E+02  0.22896474725E+04  0.23391862540E+04  0.25500000920E-02 0.  1.
</event>
<event>
 5   0  0.1881144E-06  0.3113323E+04  0.7818609E-02  0.8212091E-01
        1   -1    0    0  501    0  0.00000000000E+00  0.00000000000E+00  0.18050867715E+04  0.18050867715E+04  0.50400001928E-02 0.  1.
       -1   -1    0    0    0  501  0.00000000000E+00  0.00000000000E+00 -0.13424261946E+04  0.13424261946E+04  0.50400001928E-02 0. -1.
    10030    2    1    2    0    0  0.00000000000E+00  0.00000000000E+00  0.46266057685E+03  0.31475129661E+04  0.31133234754E+04 0.  0.
        3    1    3    3  502    0  0.12350713064E+04  0.83021076292E+03 -0.23035163766E+03  0.15058927352E+04  0.10100000352E+00 0. -1.
       -3    1    3    3    0  502 -0.12350713064E+04 -0.83021076292E+03  0.69301221451E+03  0.16416202309E+04  0.10100000352E+00 0.  1.
</event>
<event>
 5   0  0.5121624E-06  0.3165333E+04  0.7818609E-02  0.8198033E-01
        2   -1    0    0  501    0  0.00000000000E+00  0.00000000000E+00  0.18718327714E+04  0.18718327714E+04  0.25500000920E-02 0. -1.
       -2   -1    0    0    0  501  0.00000000000E+00  0.00000000000E+00 -0.13381717276E+04  0.13381717276E+04  0.25500000920E-02 0.  1.
    10030    2    1    2    0    0  0.00000000000E+00  0.00000000000E+00  0.53366104381E+03  0.32100044991E+04  0.31653332801E+04 0.  0.
        4    1    3    3  502    0  0.48063017067E+03 -0.74182822069E+03 -0.10645250489E+04  0.13836653001E+04  0.12699999809E+01 0.  1.
       -4    1    3    3    0  502 -0.48063017067E+03  0.74182822069E+03  0.15981860927E+04  0.18263391990E+04  0.12699999809E+01 0. -1.
</event>
<event>
 5   0  0.5108810E-06  0.3163962E+04  0.7818609E-02  0.8198400E-01
       -2   -1    0    0    0  501  0.00000000000E+00  0.00000000000E+00  0.11528367011E+04  0.11528367011E+04  0.25500000920E-02 0.  1.
        2   -1    0    0  501    0  0.00000000000E+00  0.00000000000E+00 -0.21708748669E+04  0.21708748669E+04  0.25500000920E-02 0. -1.
    10030    2    1    2    0    0  0.00000000000E+00  0.00000000000E+00 -0.10180381658E+04  0.33237115679E+04  0.31639622121E+04 0.  0.
        1    1    3    3  502    0 -0.15283075776E+04  0.29272335351E+03 -0.20957737249E+03  0.15701381113E+04  0.50400001928E-02 0.  1.
       -1    1    3    3    0  502  0.15283075776E+04 -0.29272335351E+03 -0.80846079332E+03  0.17535734566E+04  0.50400001928E-02 0. -1.
</event>
<event>
 5   0  0.5108810E-06  0.3249351E+04  0.7818609E-02  0.8175904E-01
        2   -1    0    0  501    0  0.00000000000E+00  0.00000000000E+00  0.31194485065E+04  0.31194485065E+04  0.25500000920E-02 0. -1.
       -2   -1    0    0    0  501  0.00000000000E+00  0.00000000000E+00 -0.84616565296E+03  0.84616565296E+03  0.25500000920E-02 0.  1.
    10030    2    1    2    0    0  0.00000000000E+00  0.00000000000E+00  0.22732828535E+04  0.39656141595E+04  0.32493508166E+04 0.  0.
        1    1    3    3  502    0 -0.11764842232E+04 -0.77278831806E+03  0.14647005247E+03  0.14151927036E+04  0.50400001928E-02 0.  1.
       -1    1    3    3    0  502  0.11764842232E+04  0.77278831806E+03  0.21268128011E+04  0.25504214559E+04  0.50400001928E-02 0. -1.
</event>
<event>
 5   0  0.5131083E-06  0.3176138E+04  0.7818609E-02  0.8195148E-01
       -2   -1    0    0    0  501  0.00000000000E+00  0.00000000000E+00  0.14471245110E+04  0.14471245110E+04  0.25500000920E-02 0.  1.
        2   -1    0    0  501    0  0.00000000000E+00  0.00000000000E+00 -0.17427413813E+04  0.17427413813E+04  0.25500000920E-02 0. -1.
    10030    2    1    2    0    0  0.00000000000E+00  0.00000000000E+00 -0.29561687036E+03  0.31898658923E+04  0.31761383907E+04 0.  0.
        3    1    3    3  502    0  0.47785535791E+03 -0.61858139775E+03 -0.15361634024E+04  0.17235970230E+04  0.10100000352E+00 0. -1.
       -3    1    3    3    0  502 -0.47785535791E+03  0.61858139775E+03  0.12405465320E+04  0.14662688693E+04  0.10100000352E+00 0.  1.
</event>
<event>
 5   0  0.5373060E-06  0.2825225E+04  0.7818609E-02  0.8295480E-01
        2   -1    0    0  501    0  0.00000000000E+00  0.00000000000E+00  0.27238019632E+04  0.27238019632E+04  0.25500000920E-02 0. -1.
       -2   -1    0    0    0  501  0.00000000000E+00  0.00000000000E+00 -0.73260596400E+03  0.73260596400E+03  0.25500000920E-02 0.  1.
    10030    2    1    2    0    0  0.00000000000E+00  0.00000000000E+00  0.19911959992E+04  0.34564079272E+04  0.28252246374E+04 0.  0.
        5    1    3    3  502    0  0.84814474417E+02 -0.11385288622E+03 -0.72384603455E+03  0.73765245644E+03  0.46999998093E+01 0.  1.
       -5    1    3    3    0  502 -0.84814474417E+02  0.11385288622E+03  0.27150420338E+04  0.27187554708E+04  0.46999998093E+01 0. -1.
</event>
<event>
 5   0  0.1881144E-06  0.3032618E+04  0.7818609E-02  0.8234478E-01
        1   -1    0    0  501    0  0.00000000000E+00  0.00000000000E+00  0.17520380541E+04  0.17520380541E+04  0.50400001928E-02 0. -1.
       -1   -1    0    0    0  501  0.00000000000E+00  0.00000000000E+00 -0.13122961449E+04  0.13122961449E+04  0.50400001928E-02 0.  1.
    10030    2    1    2    0    0  0.00000000000E+00  0.00000000000E+00  0.43974190915E+03  0.30643341990E+04  0.30326178685E+04 0.  0.
        3    1    3    3  502    0  0.13055527650E+03 -0.29681648754E+03 -0.12768523036E+04  0.13173824513E+04  0.10100000352E+00 0.  1.
       -3    1    3    3    0  502 -0.13055527650E+03  0.29681648754E+03  0.17165942127E+04  0.17469517477E+04  0.10100000352E+00 0. -1.
</event>
<event>
 5   0  0.1886248E-06  0.3229635E+04  0.7818609E-02  0.8181034E-01
       -1   -1    0    0    0  501  0.00000000000E+00  0.00000000000E+00  0.13382428343E+04  0.13382428344E+04  0.50400001928E-02 0.  1.
        1   -1    0    0  501    0  0.00000000000E+00  0.00000000000E+00 -0.19485523780E+04  0.19485523780E+04  0.50400001928E-02 0. -1.
    10030    2    1    2    0    0  0.00000000000E+00  0.00000000000E+00 -0.61030954363E+03  0.32867952123E+04  0.32296354328E+04 0.  0.
        4    1    3    3  502    0 -0.41042550978E+03  0.10665696193E+04  0.85592051778E+03  0.14278029967E+04  0.12699999809E+01 0.  1.
       -4    1    3    3    0  502  0.41042550978E+03 -0.10665696193E+04 -0.14662300614E+04  0.18589922156E+04  0.12699999809E+01 0. -1.
</event>
<event>
 5   0  0.5121624E-06  0.3125517E+04  0.7818609E-02  0.8208770E-01
        2   -1    0    0  501    0  0.00000000000E+00  0.00000000000E+00  0.18726236089E+04  0.18726236089E+04  0.25500000920E-02 0. -1.
       -2   -1    0    0    0  501  0.00000000000E+00  0.00000000000E+00 -0.13041670719E+04  0.13041670719E+04  0.25500000920E-02 0.  1.
    10030    2    1    2    0    0  0.00000000000E+00  0.00000000000E+00  0.56845653698E+03  0.31767906808E+04  0.31255169484E+04 0.  0.
        4    1    3    3  502    0 -0.54190206055E+03  0.90294877293E+03  0.14578296195E+04  0.17984001619E+04  0.12699999809E+01 0. -1.
       -4    1    3    3    0  502  0.54190206055E+03 -0.90294877293E+03 -0.88937308253E+03  0.13783905189E+04  0.12699999809E+01 0.  1.
</event>
<event>
 5   0  0.1881144E-06  0.3201415E+04  0.7818609E-02  0.8188444E-01
       -1   -1    0    0    0  501  0.00000000000E+00  0.00000000000E+00  0.16250138966E+04  0.16250138966E+04  0.50400001928E-02 0.  1.
        1   -1    0    0  501    0  0.00000000000E+00  0.00000000000E+00 -0.15767642954E+04  0.15767642954E+04  0.50400001928E-02 0. -1.
    10030    2    1    2    0    0  0.00000000000E+00  0.00000000000E+00  0.48249601152E+02  0.32017781920E+04  0.32014146197E+04 0.  0.
        3    1    3    3  502    0  0.29285633255E+03  0.30108393218E+03 -0.15206695060E+04  0.15776096230E+04  0.10100000352E+00 0. -1.
       -3    1    3    3    0  502 -0.29285633255E+03 -0.30108393218E+03  0.15689191072E+04  0.16241685691E+04  0.10100000352E+00 0.  1.
</event>
<event>
 5   0  0.1969465E-06  0.3179310E+04  0.7818609E-02  0.8194303E-01
        1   -1    0    0  501    0  0.00000000000E+00  0.00000000000E+00  0.15136458046E+04  0.15136458046E+04  0.50400001928E-02 0. -1.
       -1   -1    0    0    0  501  0.00000000000E+00  0.00000000000E+00 -0.16694808559E+04  0.16694808559E+04  0.50400001928E-02 0.  1.
    10030    2    1    2    0    0  0.00000000000E+00  0.00000000000E+00 -0.15583505133E+03  0.31831266606E+04  0.31793097952E+04 0.  0.
        2    1    3    3  502    0 -0.76480250389E+03  0.83066591968E+03  0.10423869282E+04  0.15367170358E+04  0.25500000920E-02 0. -1.
       -2    1    3    3    0  502  0.76480250389E+03 -0.83066591968E+03 -0.11982219796E+04  0.16464096247E+04  0.25500000920E-02 0.  1.
</event>
<event>
 5   0  0.1846850E-06  0.3122461E+04  0.7818609E-02  0.8209601E-01
        1   -1    0    0  501    0  0.00000000000E+00  0.00000000000E+00  0.20738761962E+04  0.20738761962E+04  0.50400001928E-02 0.  1.
       -1   -1    0    0    0  501  0.00000000000E+00  0.00000000000E+00 -0.11753067503E+04  0.11753067503E+04  0.50400001928E-02 0. -1.
    10030    2    1    2    0    0  0.00000000000E+00  0.00000000000E+00  0.89856944596E+03  0.32491829465E+04  0.31224610119E+04 0.  0.
        5    1    3    3  502    0  0.13129106752E+04  0.78469213405E+03  0.12362612556E+03  0.15345297961E+04  0.46999998093E+01 0. -1.
       -5    1    3    3    0  502 -0.13129106752E+04 -0.78469213405E+03  0.77494332040E+03  0.17146531504E+04  0.46999998093E+01 0.  1.
</event>
<event>
 5   0  0.1881144E-06  0.3190579E+04  0.7818609E-02  0.8191310E-01
        1   -1    0    0  501    0  0.00000000000E+00  0.00000000000E+00  0.10956408310E+04  0.10956408310E+04  0.50400001928E-02 0.  1.
       -1   -1    0    0    0  501  0.00000000000E+00  0.00000000000E+00 -0.23227952415E+04  0.23227952415E+04  0.50400001928E-02 0. -1.
    10030    2    1    2    0    0  0.00000000000E+00  0.00000000000E+00 -0.12271544106E+04  0.34184360725E+04  0.31905794512E+04 0.  0.
        3    1    3    3  502    0 -0.81591227262E+03 -0.66769866363E+02  0.85343204292E+03  0.11825892414E+04  0.10100000352E+00 0.  1.
       -3    1    3    3    0  502  0.81591227262E+03  0.66769866363E+02 -0.20805864535E+04  0.22358468311E+04  0.10100000352E+00 0. -1.
</event>
<event>
 5   0  0.1846850E-06  0.3170545E+04  0.7818609E-02  0.8196640E-01
        1   -1    0    0  501    0  0.00000000000E+00  0.00000000000E+00  0.16459007151E+04  0.16459007151E+04  0.50400001928E-02 0. -1.
       -1   -1    0    0    0  501  0.00000000000E+00  0.00000000000E+00 -0.15268771287E+04  0.15268771287E+04  0.50400001928E-02 0.  1.
    10030    2    1    2    0    0  0.00000000000E+00  0.00000000000E+00  0.11902358640E+03  0.31727778438E+04  0.31705445324E+04 0.  0.
        5    1    3    3  502    0 -0.11584281620E+04 -0.85819493535E+03 -0.60020345264E+03  0.15616403645E+04  0.46999998093E+01 0.  1.
       -5    1    3    3    0  502  0.11584281620E+04  0.85819493535E+03  0.71922703904E+03  0.16111374793E+04  0.46999998093E+01 0. -1.
</event>
<event>
 5   0  0.1969465E-06  0.3214478E+04  0.7818609E-02  0.8185004E-01
       -1   -1    0    0    0  501  0.00000000000E+00  0.00000000000E+00  0.13669111124E+04  0.13669111124E+04  0.50400001928E-02 0.  1.
        1   -1    0    0  501    0  0.00000000000E+00  0.00000000000E+00 -0.18898206333E+04  0.18898206333E+04  0.50400001928E-02 0. -1.
    10030    2    1    2    0    0  0.00000000000E+00  0.00000000000E+00 -0.52290952087E+03  0.32567317457E+04  0.32144777642E+04 0.  0.
        2    1    3    3  502    0  0.15508032491E+04  0.28301036292E+03  0.55922062235E+02  0.15774070051E+04  0.25500000920E-02 0.  1.
       -2    1    3    3    0  502 -0.15508032491E+04 -0.28301036292E+03 -0.57883158310E+03  0.16793247406E+04  0.25500000920E-02 0. -1.
</event>
<event>
 5   0  0.1969465E-06  0.2882750E+04  0.7818609E-02  0.8278028E-01
       -1   -1    0    0    0  501  0.00000000000E+00  0.00000000000E+00  0.16748063310E+04  0.16748063310E+04  0.50400001928E-02 0.  1.
        1   -1    0    0  501    0  0.00000000000E+00  0.00000000000E+00 -0.12404789152E+04  0.12404789152E+04  0.50400001928E-02 0. -1.
    10030    2    1    2    0    0  0.00000000000E+00  0.00000000000E+00  0.43432741580E+03  0.29152852462E+04  0.28827500347E+04 0.  0.
        2    1    3    3  502    0 -0.32860464685E+03 -0.13194968924E+04  0.70058481370E+03  0.15296640625E+04  0.25500000920E-02 0.  1.
       -2    1    3    3    0  502  0.32860464685E+03  0.13194968924E+04 -0.26625739790E+03  0.13856211837E+04  0.25500000920E-02 0. -1.
</event>
<event>
 5   0  0.5373060E-06  0.3200611E+04  0.7818609E-02  0.8188656E-01
       -2   -1    0    0    0  501  0.00000000000E+00  0.00000000000E+00  0.12066141729E+04  0.12066141729E+04  0.25500000920E-02 0.  1.
        2   -1    0    0  501    0  0.00000000000E+00  0.00000000000E+00 -0.21224498224E+04  0.21224498224E+04  0.25500000920E-02 0. -1.
    10030    2    1    2    0    0  0.00000000000E+00  0.00000000000E+00 -0.91583564950E+03  0.33290639952E+04  0.32006112147E+04 0.  0.
        5    1    3    3  502    0 -0.37868545993E+02  0.75707765711E+03  0.10080272287E+04  0.12612460463E+04  0.46999998093E+01 0.  1.
       -5    1    3    3    0  502  0.37868545993E+02 -0.75707765711E+03 -0.19238628782E+04  0.20678179489E+04  0.46999998093E+01 0. -1.
</event>
<event>
 5   0  0.1881144E-06  0.3157414E+04  0.7818609E-02  0.8200155E-01
       -1   -1    0    0    0  501  0.00000000000E+00  0.00000000000E+00  0.10947027729E+04  0.10947027730E+04  0.50400001928E-02 0. -1.
        1   -1    0    0  501    0  0.00000000000E+00  0.00000000000E+00 -0.22767060036E+04  0.22767060036E+04  0.50400001928E-02 0.  1.
    10030    2    1    2    0    0  0.00000000000E+00  0.00000000000E+00 -0.11820032307E+04  0.33714087765E+04  0.31574143696E+04 0.  0.
        3    1    3    3  502    0 -0.14746303049E+04  0.50555643135E+03 -0.32471097327E+03  0.15923438912E+04  0.10100000352E+00 0.  1.
       -3    1    3    3    0  502  0.14746303049E+04 -0.50555643135E+03 -0.85729225738E+03  0.17790648853E+04  0.10100000352E+00 0. -1.
</event>
<event>
 5   0  0.5373060E-06  0.3325175E+04  0.7818609E-02  0.8156519E-01
       -2   -1    0    0    0  501  0.00000000000E+00  0.00000000000E+00  0.16967386302E+04  0.16967386302E+04  0.25500000920E-02 0.  1.
        2   -1    0    0  501    0  0.00000000000E+00  0.00000000000E+00 -0.16291239927E+04  0.16291239927E+04  0.25500000920E-02 0. -1.
    10030    2    1    2    0    0  0.00000000000E+00  0.00000000000E+00  0.67614637466E+02  0.33258626229E+04  0.33251752506E+04 0.  0.
        5    1    3    3  502    0 -0.50990931832E+03 -0.95252924994E+02  0.16137207834E+04  0.16950508811E+04  0.46999998093E+01 0.  1.
       -5    1    3    3    0  502  0.50990931832E+03  0.95252924994E+02 -0.15461061460E+04  0.16308117418E+04  0.46999998093E+01 0. -1.
</event>
<event>
 5   0  0.1881144E-06  0.3121785E+04  0.7818609E-02  0.8209785E-01
        1   -1    0    0  501    0  0.00000000000E+00  0.00000000000E+00  0.19269206114E+04  0.19269206114E+04  0.50400001928E-02 0. -1.
       -1   -1    0    0    0  501  0.00000000000E+00  0.00000000000E+00 -0.12643928797E+04  0.12643928797E+04  0.50400001928E-02 0.  1.
    10030    2    1    2    0    0  0.00000000000E+00  0.00000000000E+00  0.66252773169E+03  0.31913134910E+04  0.31217845542E+04 0.  0.
        3    1    3    3  502    0  0.43118089124E+03  0.12393862387E+04 -0.53277656774E+03  0.14162789595E+04  0.10100000352E+00 0.  1.
       -3    1    3    3    0  502 -0.43118089124E+03 -0.12393862387E+04  0.11953042994E+04  0.17750345316E+04  0.10100000352E+00 0. -1.
</event>
<event>
 5   0  0.5121624E-06  0.2748060E+04  0.7818609E-02  0.8319578E-01
       -2   -1    0    0    0  501  0.00000000000E+00  0.00000000000E+00  0.22718653009E+04  0.22718653009E+04  0.25500000920E-02 0. -1.
        2   -1    0    0  501    0  0.00000000000E+00  0.00000000000E+00 -0.83101689152E+03  0.83101689152E+03  0.25500000920E-02 0.  1.
    10030    2    1    2    0    0  0.00000000000E+00  0.00000000000E+00  0.14408484094E+04  0.31028821925E+04  0.27480599996E+04 0.  0.
        4    1    3    3  502    0  0.81179135681E+03 -0.92417868010E+03  0.29126424942E+02  0.12304313883E+04  0.12699999809E+01 0. -1.
       -4    1    3    3    0  502 -0.81179135681E+03  0.92417868010E+03  0.14117219845E+04  0.18724508042E+04  0.12699999809E+01 0.  1.
</event>
<event>
 5   0  0.1886248E-06  0.3191410E+04  0.7818609E-02  0.8191090E-01
       -1   -1    0    0    0  501  0.00000000000E+00  0.00000000000E+00  0.17638021121E+04  0.17638021121E+04  0.50400001928E-02 0.  1.
        1   -1    0    0  501    0  0.00000000000E+00  0.00000000000E+00 -0.14436280305E+04  0.14436280305E+04  0.50400001928E-02 0. -1.
    10030    2    1    2    0    0  0.00000000000E+00  0.00000000000E+00  0.32017408155E+03  0.32074301426E+04  0.31914098260E+04 0.  0.
        4    1    3    3  502    0 -0.37633484331E+02  0.15516418862E+04  0.53243804810E+03  0.16408841246E+04  0.12699999809E+01 0. -1.
       -4    1    3    3    0  502  0.37633484331E+02 -0.15516418862E+04 -0.21226396655E+03  0.15665460181E+04  0.12699999809E+01 0.  1.
</event>
<event>
 5   0  0.5121624E-06  0.3294689E+04  0.7818609E-02  0.8164248E-01
        2   -1    0    0  501    0  0.00000000000E+00  0.00000000000E+00  0.15740556897E+04  0.15740556897E+04  0.25500000920E-02 0.  1.
       -2   -1    0    0    0  501  0.00000000000E+00  0.00000000000E+00 -0.17240453896E+04  0.17240453896E+04  0.25500000920E-02 0. -1.
    10030    2    1    2    0    0  0.00000000000E+00  0.00000000000E+00 -0.14998969989E+03  0.32981010792E+04  0.32946887287E+04 0.  0.
        4    1    3    3  502    0 -0.14855885360E+04 -0.43478286318E+03  0.48926653024E+03  0.16233892900E+04  0.12699999809E+01 0.  1.
       -4    1    3    3    0  502  0.14855885360E+04  0.43478286318E+03 -0.63925623012E+03  0.16747117892E+04  0.12699999809E+01 0. -1.
</event>
<event>
 5   0  0.5347280E-06  0.3236315E+04  0.7818609E-02  0.8179292E-01
        2   -1    0    0  501    0  0.00000000000E+00  0.00000000000E+00  0.97377082539E+03  0.97377082540E+03  0.25500000920E-02 0. -1.
       -2   -1    0    0    0  501  0.00000000000E+00  0.00000000000E+00 -0.26889627050E+04  0.26889627050E+04  0.25500000920E-02 0.  1.
    10030    2    1    2    0    0  0.00000000000E+00  0.00000000000E+00 -0.17151918796E+04  0.36627335304E+04  0.32363148380E+04 0.  0.
        2    1    3    3  502    0 -0.79400509498E+03  0.72532584721E+03 -0.22259931134E+04  0.24721624170E+04  0.25500000920E-02 0.  1.
       -2    1    3    3    0  502  0.79400509498E+03 -0.72532584721E+03  0.51080123377E+03  0.11905711133E+04  0.25500000920E-02 0. -1.
</event>
<event>
 5   0  0.1977015E-06  0.3118929E+04  0.7818609E-02  0.8210562E-01
       -1   -1    0    0    0  501  0.00000000000E+00  0.00000000000E+00  0.10937688433E+04  0.10937688433E+04  0.50400001928E-02 0.  1.
        1   -1    0    0  501    0  0.00000000000E+00  0.00000000000E+00 -0.22234400448E+04  0.22234400448E+04  0.50400001928E-02 0. -1.
    10030    2    1    2    0    0  0.00000000000E+00  0.00000000000E+00 -0.11296712016E+04  0.33172088881E+04  0.31189289482E+04 0.  0.
        1    1    3    3  502    0  0.69353986660E+03 -0.92835248849E+03 -0.16747767013E+04  0.20365934520E+04  0.50400001928E-02 0. -1.
       -1    1    3    3    0  502 -0.69353986660E+03  0.92835248849E+03  0.54510549973E+03  0.12806154361E+04  0.50400001928E-02 0.  1.
</event>
<event>
 5   0  0.1729500E-06  0.3145147E+04  0.7818609E-02  0.8203456E-01
       -3   -1    0    0    0  501  0.00000000000E+00  0.00000000000E+00  0.13537317124E+04  0.13537317162E+04  0.10100000352E+00 0.  1.
        3   -1    0    0  501    0  0.00000000000E+00  0.00000000000E+00 -0.18267925688E+04  0.18267925716E+04  0.10100000352E+00 0. -1.
    10030    2    1    2    0    0  0.00000000000E+00  0.00000000000E+00 -0.47306085633E+03  0.31805242878E+04  0.31451467647E+04 0.  0.
        5    1    3    3  502    0  0.90089250060E+03 -0.24081580211E+03  0.10439532723E+04  0.13998071556E+04  0.46999998093E+01 0.  1.
       -5    1    3    3    0  502 -0.90089250060E+03  0.24081580211E+03 -0.15170141286E+04  0.17807171321E+04  0.46999998093E+01 0. -1.
</event>
<event>
 5   0  0.1977015E-06  0.3085828E+04  0.7818609E-02  0.8219638E-01
        1   -1    0    0  501    0  0.00000000000E+00  0.00000000000E+00  0.16056155494E+04  0.16056155494E+04  0.50400001928E-02 0.  1.
       -1   -1    0    0    0  501  0.00000000000E+00  0.00000000000E+00 -0.14826609833E+04  0.14826609833E+04  0.50400001928E-02 0. -1.
    10030    2    1    2    0    0  0.00000000000E+00  0.00000000000E+00  0.12295456617E+03  0.30882765327E+04  0.30858279468E+04 0.  0.
        1    1    3    3  502    0  0.19757913732E+03 -0.46096716774E+03 -0.13988087881E+04  0.14859994182E+04  0.50400001928E-02 0. -1.
       -1    1    3    3    0  502 -0.19757913732E+03  0.46096716774E+03  0.15217633543E+04  0.16022771145E+04  0.50400001928E-02 0.  1.
</event>
<event>
 5   0  0.5373060E-06  0.2999112E+04  0.7818609E-02  0.8243985E-01
        2   -1    0    0  501    0  0.00000000000E+00  0.00000000000E+00  0.12787236791E+04  0.12787236791E+04  0.25500000920E-02 0. -1.
       -2   -1    0    0    0  501  0.00000000000E+00  0.00000000000E+00 -0.17585251707E+04  0.17585251707E+04  0.25500000920E-02 0.  1.
    10030    2    1    2    0    0  0.00000000000E+00  0.00000000000E+00 -0.47980149157E+03  0.30372488498E+04  0.29991117193E+04 0.  0.
        5    1    3    3  502    0 -0.14707406521E+04  0.28963262250E+03 -0.28141672833E+03  0.15251828043E+04  0.46999998093E+01 0. -1.
       -5    1    3    3    0  502  0.14707406521E+04 -0.28963262250E+03 -0.19838476324E+03  0.15120660455E+04  0.46999998093E+01 0.  1.
</event>
<event>
 5   0  0.5131083E-06  0.2953209E+04  0.7818609E-02  0.8257220E-01
       -2   -1    0    0    0  501  0.00000000000E+00  0.00000000000E+00  0.14490653759E+04  0.14490653759E+04  0.25500000920E-02 0.  1.
        2   -1    0    0  501    0  0.00000000000E+00  0.00000000000E+00 -0.15046666130E+04  0.15046666130E+04  0.25500000920E-02 0. -1.
    10030    2    1    2    0    0  0.00000000000E+00  0.00000000000E+00 -0.55601237139E+02  0.29537319888E+04  0.29532086219E+04 0.  0.
        3    1    3    3  502    0 -0.53887482190E+02  0.78889565401E+02  0.14459709023E+04  0.14491236264E+04  0.10100000352E+00 0.  1.
       -3    1    3    3    0  502  0.53887482190E+02 -0.78889565401E+02 -0.15015721394E+04  0.15046083624E+04  0.10100000352E+00 0. -1.
</event>
<event>
 5   0  0.5131083E-06  0.3190654E+04  0.7818609E-02  0.8191290E-01
       -2   -1    0    0    0  501  0.00000000000E+00  0.00000000000E+00  0.10656646892E+04  0.10656646892E+04  0.25500000920E-02 0. -1.
        2   -1    0    0  501    0  0.00000000000E+00  0.00000000000E+00 -0.23882447915E+04  0.23882447915E+04  0.25500000920E-02 0.  1.
    10030    2    1    2    0    0  0.00000000000E+00  0.00000000000E+00 -0.13225801023E+04  0.34539094807E+04  0.31906539414E+04 0.  0.
        3    1    3    3  502    0 -0.68110000157E+03 -0.13877144908E+04 -0.10880502224E+04  0.18903708675E+04  0.10100000352E+00 0. -1.
       -3    1    3    3    0  502  0.68110000157E+03  0.13877144908E+04 -0.23452987987E+03  0.15635386132E+04  0.10100000352E+00 0.  1.
</event>
<event>
 5   0  0.1969465E-06  0.3272816E+04  0.7818609E-02  0.8169847E-01
        1   -1    0    0  501    0  0.00000000000E+00  0.00000000000E+00  0.11850104654E+04  0.11850104654E+04  0.50400001928E-02 0. -1.
       -1   -1    0    0    0  501  0.00000000000E+00  0.00000000000E+00 -0.22597530605E+04  0.22597530605E+04  0.50400001928E-02 0.  1.
    10030    2    1    2    0    0  0.00000000000E+00  0.00000000000E+00 -0.10747425951E+04  0.34447635260E+04  0.32728159289E+04 0.  0.
        2    1    3    3  502    0 -0.24293738702E+02 -0.15883593422E+04 -0.12384912147E+03  0.15933656801E+04  0.25500000920E-02 0. -1.
       -2    1    3    3    0  502  0.24293738702E+02  0.15883593422E+04 -0.95089347363E+03  0.18513978459E+04  0.25500000920E-02 0.  1.
</event>
<event>
 5   0  0.5121624E-06  0.3078348E+04  0.7818609E-02  0.8221705E-01
       -2   -1    0    0    0  501  0.00000000000E+00  0.00000000000E+00  0.12487598646E+04  0.12487598646E+04  0.25500000920E-02 0. -1.
        2   -1    0    0  501    0  0.00000000000E+00  0.00000000000E+00 -0.18971276432E+04  0.18971276432E+04  0.25500000920E-02 0.  1.
    10030    2    1    2    0    0  0.00000000000E+00  0.00000000000E+00 -0.64836777858E+03  0.31458875079E+04  0.30783481668E+04 0.  0.
        4    1    3    3  502    0  0.65639288306E+03 -0.84723226473E+03 -0.14531391968E+04  0.18056215732E+04  0.12699999809E+01 0.  1.
       -4    1    3    3    0  502 -0.65639288306E+03  0.84723226473E+03  0.80477141819E+03  0.13402659347E+04  0.12699999809E+01 0. -1.
</event>
<event>
 5   0  0.1977015E-06  0.3173033E+04  0.7818609E-02  0.8195976E-01
       -1   -1    0    0    0  501  0.00000000000E+00  0.00000000000E+00  0.11884126443E+04  0.11884126443E+04  0.50400001928E-02 0. -1.
        1   -1    0    0  501    0  0.00000000000E+00  0.00000000000E+00 -0.21179797764E+04  0.21179797765E+04  0.50400001928E-02 0.  1.
    10030    2    1    2    0    0  0.00000000000E+00  0.00000000000E+00 -0.92956713214E+03  0.33063924208E+04  0.31730325852E+04 0.  0.
        1    1    3    3  502    0  0.50063918263E+03 -0.14467152043E+04 -0.89871016657E+03  0.17751913804E+04  0.50400001928E-02 0.  1.
       -1    1    3    3    0  502 -0.50063918263E+03  0.14467152043E+04 -0.30856965566E+02  0.15312010404E+04  0.50400001928E-02 0. -1.
</event>
<event>
 5   0  0.5131083E-06  0.3299770E+04  0.7818609E-02  0.8162954E-01
        2   -1    0    0  501    0  0.00000000000E+00  0.00000000000E+00  0.16156169411E+04  0.16156169411E+04  0.25500000920E-02 0. -1.
       -2   -1    0    0    0  501  0.00000000000E+00  0.00000000000E+00 -0.16848800191E+04  0.16848800191E+04  0.25500000920E-02 0.  1.
    10030    2    1    2    0    0  0.00000000000E+00  0.00000000000E+00 -0.69263078054E+02  0.33004969602E+04  0.32997701148E+04 0.  0.
        3    1    3    3  502    0 -0.37284596635E+03  0.32294686003E+03 -0.16094026485E+04  0.16832960774E+04  0.10100000352E+00 0.  1.
       -3    1    3    3    0  502  0.37284596635E+03 -0.32294686003E+03  0.15401395704E+04  0.16172008829E+04  0.10100000352E+00 0. -1.
</event>
<event>
 5   0  0.1977015E-06  0.3132242E+04  0.7818609E-02  0.8206945E-01
        1   -1    0    0  501    0  0.00000000000E+00  0.00000000000E+00  0.18162801379E+04  0.18162801379E+04  0.50400001928E-02 0.  1.
       -1   -1    0    0    0  501  0.00000000000E+00  0.00000000000E+00 -0.13504169263E+04  0.13504169263E+04  0.50400001928E-02 0. -1.
    10030    2    1    2    0    0  0.00000000000E+00  0.00000000000E+00  0.46586321156E+03  0.31666970642E+04  0.31322422902E+04 0.  0.
        1    1    3    3  502    0  0.43373108353E+03  0.55112877172E+03  0.16486457031E+04  0.17916188853E+04  0.50400001928E-02 0.  1.
       -1    1    3    3    0  502 -0.43373108353E+03 -0.55112877172E+03 -0.11827824915E+04  0.13750781789E+04  0.50400001928E-02 0. -1.
</event>
<event>
 5   0  0.5373060E-06  0.3221081E+04  0.7818609E-02  0.8183272E-01
       -2   -1    0    0    0  501  0.00000000000E+00  0.00000000000E+00  0.15415878589E+04  0.15415878589E+04  0.25500000920E-02 0.  1.
        2   -1    0    0  501    0  0.00000000000E+00  0.00000000000E+00 -0.16825772867E+04  0.16825772867E+04  0.25500000920E-02 0. -1.
    10030    2    1    2    0    0  0.00000000000E+00  0.00000000000E+00 -0.14098942772E+03  0.32241651456E+04  0.32210810091E+04 0.  0.
        5    1    3    3  502    0 -0.61526873080E+03 -0.11976763239E+04  0.81399973453E+03  0.15734045397E+04  0.46999998093E+01 0.  1.
       -5    1    3    3    0  502  0.61526873080E+03  0.11976763239E+04 -0.95498916224E+03  0.16507606059E+04  0.46999998093E+01 0. -1.
</event>
<event>
 5   0  0.1886248E-06  0.3150464E+04  0.7818609E-02  0.8202023E-01
        1   -1    0    0  501    0  0.00000000000E+00  0.00000000000E+00  0.20137193626E+04  0.20137193626E+04  0.50400001928E-02 0. -1.
       -1   -1    0    0    0  501  0.00000000000E+00  0.00000000000E+00 -0.12322255394E+04  0.12322255394E+04  0.50400001928E-02 0.  1.
    10030    2    1    2    0    0  0.00000000000E+00  0.00000000000E+00  0.78149382324E+03  0.32459449020E+04  0.31504643643E+04 0.  0.
        4    1    3    3  502    0  0.49457534961E+03  0.19065757913E+03 -0.11375838805E+04  0.12550114689E+04  0.12699999809E+01 0.  1.
       -4    1    3    3    0  502 -0.49457534961E+03 -0.19065757913E+03  0.19190777038E+04  0.19909334331E+04  0.12699999809E+01 0. -1.
</event>
<event>
 5   0  0.5347280E-06  0.3253862E+04  0.7818609E-02  0.8174735E-01
        2   -1    0    0  501    0  0.00000000000E+00  0.00000000000E+00  0.20995159699E+04  0.20995159699E+04  0.25500000920E-02 0.  1.
       -2   -1    0    0    0  501  0.00000000000E+00  0.00000000000E+00 -0.12607210933E+04  0.12607210933E+04  0.25500000920E-02 0. -1.
    10030    2    1    2    0    0  0.00000000000E+00  0.00000000000E+00  0.83879487660E+03  0.33602370632E+04  0.32538617481E+04 0.  0.
        2    1    3    3  502    0  0.40247260575E+03 -0.11753174296E+04 -0.66544482164E+03  0.14093161708E+04  0.25500000920E-02 0. -1.
       -2    1    3    3    0  502 -0.40247260575E+03  0.11753174296E+04  0.15042396982E+04  0.19509208924E+04  0.25500000920E-02 0.  1.
</event>
<event>
 5   0  0.5131083E-06  0.3227110E+04  0.7818609E-02  0.8181694E-01
        2   -1    0    0  501    0  0.00000000000E+00  0.00000000000E+00  0.29201092349E+04  0.29201092349E+04  0.25500000920E-02 0.  1.
       -2   -1    0    0    0  501  0.00000000000E+00  0.00000000000E+00 -0.89159668464E+03  0.89159668464E+03  0.25500000920E-02 0. -1.
    10030    2    1    2    0    0  0.00000000000E+00  0.00000000000E+00  0.20285125502E+04  0.38117059195E+04  0.32271099842E+04 0.  0.
        3    1    3    3  502    0 -0.10432551605E+04 -0.98011942896E+03  0.18938330101E+04  0.23739458514E+04  0.10100000352E+00 0.  1.
       -3    1    3    3    0  502  0.10432551605E+04  0.98011942896E+03  0.13467954013E+03  0.14377600681E+04  0.10100000352E+00 0. -1.
</event>
<event>
 5   0  0.1846850E-06  0.3178437E+04  0.7818609E-02  0.8194535E-01
       -1   -1    0    0    0  501  0.00000000000E+00  0.00000000000E+00  0.89222375530E+03  0.89222375532E+03  0.50400001928E-02 0.  1.
        1   -1    0    0  501    0  0.00000000000E+00  0.00000000000E+00 -0.28306968479E+04  0.28306968479E+04  0.50400001928E-02 0. -1.
    10030    2    1    2    0    0  0.00000000000E+00  0.00000000000E+00 -0.19384730926E+04  0.37229206032E+04  0.31784367049E+04 0.  0.
        5    1    3    3  502    0 -0.14156010163E+02  0.15177332366E+04 -0.41750523242E+03  0.15741814632E+04  0.46999998093E+01 0.  1.
       -5    1    3    3    0  502  0.14156010163E+02 -0.15177332366E+04 -0.15209678601E+04  0.21487391400E+04  0.46999998093E+01 0. -1.
</event>
<event>
 5   0  0.5373060E-06  0.3095040E+04  0.7818609E-02  0.8217100E-01
       -2   -1    0    0    0  501  0.00000000000E+00  0.00000000000E+00  0.21164646512E+04  0.21164646512E+04  0.25500000920E-02 0.  1.
        2   -1    0    0  501    0  0.00000000000E+00  0.00000000000E+00 -0.11315182252E+04  0.11315182252E+04  0.25500000920E-02 0. -1.
    10030    2    1    2    0    0  0.00000000000E+00  0.00000000000E+00  0.98494642603E+03  0.32479828764E+04  0.30950401134E+04 0.  0.
        5    1    3    3  502    0 -0.15147077695E+04  0.27369095086E+03  0.66021521296E+03  0.16748589734E+04  0.46999998093E+01 0. -1.
       -5    1    3    3    0  502  0.15147077695E+04 -0.27369095086E+03  0.32473121307E+03  0.15731239030E+04  0.46999998093E+01 0.  1.
</event>
<event>
 5   0  0.5121624E-06  0.3237604E+04  0.7818609E-02  0.8178956E-01
        2   -1    0    0  501    0  0.00000000000E+00  0.00000000000E+00  0.21563989492E+04  0.21563989492E+04  0.25500000920E-02 0. -1.
       -2   -1    0    0    0  501  0.00000000000E+00  0.00000000000E+00 -0.12152294725E+04  0.12152294725E+04  0.25500000920E-02 0.  1.
    10030    2    1    2    0    0  0.00000000000E+00  0.00000000000E+00  0.94116947665E+03  0.33716284217E+04  0.32376037790E+04 0.  0.
        4    1    3    3  502    0  0.76553442403E+03  0.50172063249E+03  0.18610540255E+04  0.20739552180E+04  0.12699999809E+01 0. -1.
       -4    1    3    3    0  502 -0.76553442403E+03 -0.50172063249E+03 -0.91988454885E+03  0.12976732037E+04  0.12699999809E+01 0.  1.
</event>
<event>
 5   0  0.5347280E-06  0.2933959E+04  0.7818609E-02  0.8262845E-01
        2   -1    0    0  501    0  0.00000000000E+00  0.00000000000E+00  0.21824955874E+04  0.21824955874E+04  0.25500000920E-02 0.  1.
       -2   -1    0    0    0  501  0.00000000000E+00  0.00000000000E+00 -0.98604073822E+03  0.98604073822E+03  0.25500000920E-02 0. -1.
    10030    2    1    2    0    0  0.00000000000E+00  0.00000000000E+00  0.11964548492E+04  0.31685363256E+04  0.29339594818E+04 0.  0.
        2    1    3    3  502    0  0.47593684591E+03 -0.63413407933E+03  0.19311649468E+04  0.20875919055E+04  0.25500000920E-02 0.  1.
       -2    1    3    3    0  502 -0.47593684591E+03  0.63413407933E+03 -0.73471009766E+03  0.10809444202E+04  0.25500000920E-02 0. -1.
</event>
<event>
 5   0  0.1969465E-06  0.3194820E+04  0.7818609E-02  0.8190186E-01
       -1   -1    0    0    0  501  0.00000000000E+00  0.00000000000E+00  0.22698579843E+04  0.22698579843E+04  0.50400001928E-02 0.  1.
        1   -1    0    0  501    0  0.00000000000E+00  0.00000000000E+00 -0.11241757722E+04  0.11241757722E+04  0.50400001928E-02 0. -1.
    10030    2    1    2    0    0  0.00000000000E+00  0.00000000000E+00  0.11456822121E+04  0.33940337565E+04  0.31948204032E+04 0.  0.
        2    1    3    3  502    0 -0.34632374647E+02  0.94897850963E+03 -0.79176208219E+03  0.12363845712E+04  0.25500000920E-02 0. -1.
       -2    1    3    3    0  502  0.34632374647E+02 -0.94897850963E+03  0.19374442943E+04  0.21576491853E+04  0.25500000920E-02 0.  1.
</event>
<event>
 5   0  0.5347280E-06  0.2742683E+04  0.7818609E-02  0.8321287E-01
        2   -1    0    0  501    0  0.00000000000E+00  0.00000000000E+00  0.20183598422E+04  0.20183598422E+04  0.25500000920E-02 0.  1.
       -2   -1    0    0    0  501  0.00000000000E+00  0.00000000000E+00 -0.93173532054E+03  0.93173532054E+03  0.25500000920E-02 0. -1.
    10030    2    1    2    0    0  0.00000000000E+00  0.00000000000E+00  0.10866245216E+04  0.29500951627E+04  0.27426827411E+04 0.  0.
        2    1    3    3  502    0 -0.83956313736E+03 -0.93971628595E+03  0.11251882124E+04  0.16893731006E+04  0.25500000920E-02 0.  1.
       -2    1    3    3    0  502  0.83956313736E+03  0.93971628595E+03 -0.38563690748E+02  0.12607220621E+04  0.25500000920E-02 0. -1.
</event>
<event>
 5   0  0.5373060E-06  0.3162487E+04  0.7818609E-02  0.8198795E-01
        2   -1    0    0  501    0  0.00000000000E+00  0.00000000000E+00  0.14069090381E+04  0.14069090381E+04  0.25500000920E-02 0.  1.
       -2   -1    0    0    0  501  0.00000000000E+00  0.00000000000E+00 -0.17771807103E+04  0.17771807103E+04  0.25500000920E-02 0. -1.
    10030    2    1    2    0    0  0.00000000000E+00  0.00000000000E+00 -0.37027167226E+03  0.31840897484E+04  0.31624873777E+04 0.  0.
        5    1    3    3  502    0 -0.95563552276E+03  0.50209297939E+03 -0.13484385056E+04  0.17273231040E+04  0.46999998093E+01 0. -1.
       -5    1    3    3    0  502  0.95563552276E+03 -0.50209297939E+03  0.97816683333E+03  0.14567666444E+04  0.46999998093E+01 0.  1.
</event>
<event>
 5   0  0.5121624E-06  0.3121719E+04  0.7818609E-02  0.8209802E-01
       -2   -1    0    0    0  501  0.00000000000E+00  0.00000000000E+00  0.17711044425E+04  0.17711044425E+04  0.25500000920E-02 0.  1.
        2   -1    0    0  501    0  0.00000000000E+00  0.00000000000E+00 -0.13755727213E+04  0.13755727213E+04  0.25500000920E-02 0. -1.
    10030    2    1    2    0    0  0.00000000000E+00  0.00000000000E+00  0.39553172123E+03  0.31466771638E+04  0.31217193709E+04 0.  0.
        4    1    3    3  502    0  0.10348401068E+04 -0.10740917929E+04  0.66156852532E+03  0.16316377517E+04  0.12699999809E+01 0. -1.
       -4    1    3    3    0  502 -0.10348401068E+04  0.10740917929E+04 -0.26603680409E+03  0.15150394121E+04  0.12699999809E+01 0.  1.
</event>
<event>
 5   0  0.5347280E-06  0.3125134E+04  0.7818609E-02  0.8208874E-01
        2   -1    0    0  501    0  0.00000000000E+00  0.00000000000E+00  0.16286681707E+04  0.16286681707E+04  0.25500000920E-02 0.  1.
       -2   -1    0    0    0  501  0.00000000000E+00  0.00000000000E+00 -0.14991483231E+04  0.14991483231E+04  0.25500000920E-02 0. -1.
    10030    2    1    2    0    0  0.00000000000E+00  0.00000000000E+00  0.12951984757E+03  0.31278164938E+04  0.31251336977E+04 0.  0.
        2    1    3    3  502    0 -0.89144209645E+03  0.82659381176E+03  0.10472791852E+04  0.16045934167E+04  0.25500000920E-02 0.  1.
       -2    1    3    3    0  502  0.89144209645E+03 -0.82659381176E+03 -0.91775933768E+03  0.15232230772E+04  0.25500000920E-02 0. -1.
</event>
<event>
 5   0  0.5373060E-06  0.3108911E+04  0.7818609E-02  0.8213296E-01
       -2   -1    0    0    0  501  0.00000000000E+00  0.00000000000E+00  0.13230138224E+04  0.13230138224E+04  0.25500000920E-02 0.  1.
        2   -1    0    0  501    0  0.00000000000E+00  0.00000000000E+00 -0.18263850409E+04  0.18263850409E+04  0.25500000920E-02 0. -1.
    10030    2    1    2    0    0  0.00000000000E+00  0.00000000000E+00 -0.50337121846E+03  0.31493988633E+04  0.31089114842E+04 0.  0.
        5    1    3    3  502    0 -0.10177647505E+04 -0.70604997371E+03 -0.12030425383E+04  0.17267556549E+04  0.46999998093E+01 0. -1.
       -5    1    3    3    0  502  0.10177647505E+04  0.70604997371E+03  0.69967131982E+03  0.14226432084E+04  0.46999998093E+01 0.  1.
</event>
<event>
 5   0  0.1977015E-06  0.3358508E+04  0.7818609E-02  0.8148166E-01
        1   -1    0    0  501    0  0.00000000000E+00  0.00000000000E+00  0.21834046988E+04  0.21834046988E+04  0.50400001928E-02 0. -1.
       -1   -1    0    0    0  501  0.00000000000E+00  0.00000000000E+00 -0.12915122868E+04  0.12915122868E+04  0.50400001928E-02 0.  1.
    10030    2    1    2    0    0  0.00000000000E+00  0.00000000000E+00  0.89189241198E+03  0.34749169856E+04  0.33585079994E+04 0.  0.
        1    1    3    3  502    0 -0.11271456000E+04 -0.51947411982E+03 -0.72444850556E+03  0.14370581763E+04  0.50400001928E-02 0.  1.
       -1    1    3    3    0  502  0.11271456000E+04  0.51947411982E+03  0.16163409175E+04  0.20378588093E+04  0.50400001928E-02 0. -1.
</event>
<event>
 5   0  0.5131083E-06  0.2748029E+04  0.7818609E-02  0.8319587E-01
       -2   -1    0    0    0  501  0.00000000000E+00  0.00000000000E+00  0.18963796410E+04  0.18963796410E+04  0.25500000920E-02 0.  1.
        2   -1    0    0  501    0  0.00000000000E+00  0.00000000000E+00 -0.99553677632E+03  0.99553677632E+03  0.25500000920E-02 0. -1.
    10030    2    1    2    0    0  0.00000000000E+00  0.00000000000E+00  0.90084286472E+03  0.28919164174E+04  0.27480288750E+04 0.  0.
        3    1    3    3  502    0 -0.68621104598E+03  0.32993466540E+03  0.16540626897E+04  0.18208969973E+04  0.10100000352E+00 0.  1.
       -3    1    3    3    0  502  0.68621104598E+03 -0.32993466540E+03 -0.75321982503E+03  0.10710194200E+04  0.10100000352E+00 0. -1.
</event>
<event>
 5   0  0.1977015E-06  0.3207629E+04  0.7818609E-02  0.8186805E-01
        1   -1    0    0  501    0  0.00000000000E+00  0.00000000000E+00  0.23075059963E+04  0.23075059963E+04  0.50400001928E-02 0. -1.
       -1   -1    0    0    0  501  0.00000000000E+00  0.00000000000E+00 -0.11147190822E+04  0.11147190822E+04  0.50400001928E-02 0.  1.
    10030    2    1    2    0    0  0.00000000000E+00  0.00000000000E+00  0.11927869140E+04  0.34222250785E+04  0.32076290100E+04 0.  0.
        1    1    3    3  502    0 -0.12766959551E+04 -0.66993312243E+03  0.13458553249E+04  0.19723309828E+04  0.50400001928E-02 0. -1.
       -1    1    3    3    0  502  0.12766959551E+04  0.66993312243E+03 -0.15306841084E+03  0.14498940957E+04  0.50400001928E-02 0.  1.
</event>
<event>
 5   0  0.5347280E-06  0.2971043E+04  0.7818609E-02  0.8252048E-01
        2   -1    0    0  501    0  0.00000000000E+00  0.00000000000E+00  0.22945134901E+04  0.22945134901E+04  0.25500000920E-02 0. -1.
       -2   -1    0    0    0  501  0.00000000000E+00  0.00000000000E+00 -0.96176154208E+03  0.96176154208E+03  0.25500000920E-02 0.  1.
    10030    2    1    2    0    0  0.00000000000E+00  0.00000000000E+00  0.13327519481E+04  0.32562750322E+04  0.29710434750E+04 0.  0.
        2    1    3    3  502    0 -0.58218998616E+03 -0.82733540119E+03  0.18586275544E+04  0.21161109215E+04  0.25500000920E-02 0. -1.
       -2    1    3    3    0  502  0.58218998616E+03  0.82733540119E+03 -0.52587560634E+03  0.11401641107E+04  0.25500000920E-02 0.  1.
</event>
<event>
 5   0  0.5373060E-06  0.3150706E+04  0.7818609E-02  0.8201958E-01
        2   -1    0    0  501    0  0.00000000000E+00  0.00000000000E+00  0.24549519662E+04  0.24549519662E+04  0.25500000920E-02 0.  1.
       -2   -1    0    0    0  501  0.00000000000E+00  0.00000000000E+00 -0.10109103434E+04  0.10109103434E+04  0.25500000920E-02 0. -1.
    10030    2    1    2    0    0  0.00000000000E+00  0.00000000000E+00  0.14440416228E+04  0.34658623096E+04  0.31507055306E+04 0.  0.
        5    1    3    3  502    0 -0.68435719630E+03 -0.15953125451E+03 -0.82894726838E+03  0.10867247384E+04  0.46999998093E+01 0. -1.
       -5    1    3    3    0  502  0.68435719630E+03  0.15953125451E+03  0.22729888912E+04  0.23791375712E+04  0.46999998093E+01 0.  1.
</event>
<event>
 5   0  0.1881144E-06  0.3225751E+04  0.7818609E-02  0.8182049E-01
        1   -1    0    0  501    0  0.00000000000E+00  0.00000000000E+00  0.14393848961E+04  0.14393848961E+04  0.50400001928E-02 0. -1.
       -1   -1    0    0    0  501  0.00000000000E+00  0.00000000000E+00 -0.18072773023E+04  0.18072773023E+04  0.50400001928E-02 0.  1.
    10030    2    1    2    0    0  0.00000000000E+00  0.00000000000E+00 -0.36789240621E+03  0.32466621985E+04  0.32257511696E+04 0.  0.
        3    1    3    3  502    0 -0.50204576059E+03  0.44365239819E+03 -0.16605937120E+04  0.17906559923E+04  0.10100000352E+00 0.  1.
       -3    1    3    3    0  502  0.50204576059E+03 -0.44365239819E+03  0.12927013058E+04  0.14560062062E+04  0.10100000352E+00 0. -1.
</event>
<event>
 5   0  0.1977015E-06  0.2122672E+04  0.7818609E-02  0.8551322E-01
       -1   -1    0    0    0  501  0.00000000000E+00  0.00000000000E+00  0.11330707641E+04  0.11330707641E+04  0.50400001928E-02 0. -1.
        1   -1    0    0  501    0  0.00000000000E+00  0.00000000000E+00 -0.99414253936E+03  0.99414253937E+03  0.50400001928E-02 0.  1.
    10030    2    1    2    0    0  0.00000000000E+00  0.00000000000E+00  0.13892822473E+03  0.21272133035E+04  0.21226717567E+04 0.  0.
        1    1    3    3  502    0 -0.20299811411E+03  0.21995323615E+02  0.11132018603E+04  0.11317731267E+04  0.50400001928E-02 0. -1.
       -1    1    3    3    0  502  0.20299811411E+03 -0.21995323615E+02 -0.97427363554E+03  0.99544017677E+03  0.50400001928E-02 0.  1.
</event>
<event>
 5   0  0.1846850E-06  0.3201985E+04  0.7818609E-02  0.8188293E-01
       -1   -1    0    0    0  501  0.00000000000E+00  0.00000000000E+00  0.12926378595E+04  0.12926378596E+04  0.50400001928E-02 0. -1.
        1   -1    0    0  501    0  0.00000000000E+00  0.00000000000E+00 -0.19829043090E+04  0.19829043090E+04  0.50400001928E-02 0.  1.
    10030    2    1    2    0    0  0.00000000000E+00  0.00000000000E+00 -0.69026644949E+03  0.32755421686E+04  0.32019851228E+04 0.  0.
        5    1    3    3  502    0 -0.84639564947E+03  0.10070402114E+04 -0.12785860882E+04  0.18344808687E+04  0.46999998093E+01 0.  1.
       -5    1    3    3    0  502  0.84639564947E+03 -0.10070402114E+04  0.58831963870E+03  0.14410612999E+04  0.46999998093E+01 0. -1.
</event>
<event>
 5   0  0.1729500E-06  0.3186689E+04  0.7818609E-02  0.8192341E-01
       -3   -1    0    0    0  501  0.00000000000E+00  0.00000000000E+00  0.11402700948E+04  0.11402700992E+04  0.10100000352E+00 0. -1.
        3   -1    0    0  501    0  0.00000000000E+00  0.00000000000E+00 -0.22264438968E+04  0.22264438991E+04  0.10100000352E+00 0.  1.
    10030    2    1    2    0    0  0.00000000000E+00  0.00000000000E+00 -0.10861738020E+04  0.33667139983E+04  0.31866894449E+04 0.  0.
        1    1    3    3  502    0 -0.10272802654E+04 -0.41134173861E+03 -0.17542536194E+04  0.20741052362E+04  0.50400001928E-02 0.  1.
       -1    1    3    3    0  502  0.10272802654E+04  0.41134173861E+03  0.66807981734E+03  0.12926087621E+04  0.50400001928E-02 0. -1.
</event>
<event>
 5   0  0.1881144E-06  0.3034004E+04  0.7818609E-02  0.8234087E-01
       -1   -1    0    0    0  501  0.00000000000E+00  0.00000000000E+00  0.10964679447E+04  0.10964679447E+04  0.50400001928E-02 0. -1.
        1   -1    0    0  501    0  0.00000000000E+00  0.00000000000E+00 -0.20988249889E+04  0.20988249889E+04  0.50400001928E-02 0.  1.
    10030    2    1    2    0    0  0.00000000000E+00  0.00000000000E+00 -0.10023570442E+04  0.31952929336E+04  0.30340035081E+04 0.  0.
        3    1    3    3  502    0  0.11398001472E+04  0.36864037004E+03 -0.14813843501E+04  0.19051350874E+04  0.10100000352E+00 0.  1.
       -3    1    3    3    0  502 -0.11398001472E+04 -0.36864037004E+03  0.47902730594E+03  0.12901578462E+04  0.10100000352E+00 0. -1.
</event>
<event>
 5   0  0.5373060E-06  0.3261429E+04  0.7818609E-02  0.8172780E-01
       -2   -1    0    0    0  501  0.00000000000E+00  0.00000000000E+00  0.21249853838E+04  0.21249853838E+04  0.25500000920E-02 0. -1.
        2   -1    0    0  501    0  0.00000000000E+00  0.00000000000E+00 -0.12514105986E+04  0.12514105986E+04  0.25500000920E-02 0.  1.
    10030    2    1    2    0    0  0.00000000000E+00  0.00000000000E+00  0.87357478521E+03  0.33763959823E+04  0.32614286630E+04 0.  0.
        5    1    3    3  502    0  0.54920905445E+03 -0.53380761837E+03 -0.10536233087E+04  0.13025840954E+04  0.46999998093E+01 0.  1.
       -5    1    3    3    0  502 -0.54920905445E+03  0.53380761837E+03  0.19271980940E+04  0.20738118869E+04  0.46999998093E+01 0. -1.
</event>
<event>
 5   0  0.1729500E-06  0.3190228E+04  0.7818609E-02  0.8191403E-01
       -3   -1    0    0    0  501  0.00000000000E+00  0.00000000000E+00  0.15240236041E+04  0.15240236074E+04  0.10100000352E+00 0.  1.
        3   -1    0    0  501    0  0.00000000000E+00  0.00000000000E+00 -0.16695204705E+04  0.16695204736E+04  0.10100000352E+00 0. -1.
    10030    2    1    2    0    0  0.00000000000E+00  0.00000000000E+00 -0.14549686643E+03  0.31935440810E+04  0.31902279635E+04 0.  0.
        1    1    3    3  502    0  0.18144957055E+03 -0.12407973412E+03  0.15087890204E+04  0.15247176903E+04  0.50400001928E-02 0.  1.
       -1    1    3    3    0  502 -0.18144957055E+03  0.12407973412E+03 -0.16542858868E+04  0.16688263907E+04  0.50400001928E-02 0. -1.
</event>
<event>
 5   0  0.5373060E-06  0.3115521E+04  0.7818609E-02  0.8211491E-01
       -2   -1    0    0    0  501  0.00000000000E+00  0.00000000000E+00  0.14054748932E+04  0.14054748932E+04  0.25500000920E-02 0. -1.
        2   -1    0    0  501    0  0.00000000000E+00  0.00000000000E+00 -0.17265464845E+04  0.17265464845E+04  0.25500000920E-02 0.  1.
    10030    2    1    2    0    0  0.00000000000E+00  0.00000000000E+00 -0.32107159134E+03  0.31320213778E+04  0.31155209747E+04 0.  0.
        5    1    3    3  502    0  0.95350659457E+02  0.43238439382E+03  0.13408758818E+04  0.14120971045E+04  0.46999998093E+01 0. -1.
       -5    1    3    3    0  502 -0.95350659457E+02 -0.43238439382E+03 -0.16619474731E+04  0.17199242732E+04  0.46999998093E+01 0.  1.
</event>
<event>
 5   0  0.1977015E-06  0.3157991E+04  0.7818609E-02  0.8200000E-01
       -1   -1    0    0    0  501  0.00000000000E+00  0.00000000000E+00  0.91313874217E+03  0.91313874218E+03  0.50400001928E-02 0. -1.
        1   -1    0    0  501    0  0.00000000000E+00  0.00000000000E+00 -0.27303926500E+04  0.27303926501E+04  0.50400001928E-02 0.  1.
    10030    2    1    2    0    0  0.00000000000E+00  0.00000000000E+00 -0.18172539079E+04  0.36435313922E+04  0.31579913300E+04 0.  0.
        1    1    3    3  502    0  0.10238749817E+04 -0.33471314160E+03  0.42337911319E+03  0.11574120869E+04  0.50400001928E-02 0. -1.
       -1    1    3    3    0  502 -0.10238749817E+04  0.33471314160E+03 -0.22406330211E+04  0.24861193054E+04  0.50400001928E-02 0.  1.
</event>
<event>
 5   0  0.1846850E-06  0.3213635E+04  0.7818609E-02  0.8185226E-01
       -1   -1    0    0    0  501  0.00000000000E+00  0.00000000000E+00  0.99323709144E+03  0.99323709146E+03  0.50400001928E-02 0. -1.
        1   -1    0    0  501    0  0.00000000000E+00  0.00000000000E+00 -0.25994418984E+04  0.25994418984E+04  0.50400001928E-02 0.  1.
    10030    2    1    2    0    0  0.00000000000E+00  0.00000000000E+00 -0.16062048069E+04  0.35926789898E+04  0.32136347711E+04 0.  0.
        5    1    3    3  502    0  0.72360908918E+03 -0.46193659807E+03 -0.23215568851E+04  0.24752058491E+04  0.46999998093E+01 0.  1.
       -5    1    3    3    0  502 -0.72360908918E+03  0.46193659807E+03  0.71535207816E+03  0.11174731408E+04  0.46999998093E+01 0. -1.
</event>
<event>
 5   0  0.5131083E-06  0.3273400E+04  0.7818609E-02  0.8169697E-01
       -2   -1    0    0    0  501  0.00000000000E+00  0.00000000000E+00  0.20976835926E+04  0.20976835926E+04  0.25500000920E-02 0.  1.
        2   -1    0    0  501    0  0.00000000000E+00  0.00000000000E+00 -0.12770211990E+04  0.12770211990E+04  0.25500000920E-02 0. -1.
    10030    2    1    2    0    0  0.00000000000E+00  0.00000000000E+00  0.82066239360E+03  0.33747047917E+04  0.32733997108E+04 0.  0.
        3    1    3    3  502    0  0.57221558366E+03  0.12405789827E+04 -0.51884953024E+03  0.14613937634E+04  0.10100000352E+00 0. -1.
       -3    1    3    3    0  502 -0.57221558366E+03 -0.12405789827E+04  0.13395119238E+04  0.19133110283E+04  0.10100000352E+00 0.  1.
</event>
<event>
 5   0  0.5373060E-06  0.3188000E+04  0.7818609E-02  0.8191994E-01
        2   -1    0    0  501    0  0.00000000000E+00  0.00000000000E+00  0.17735975327E+04  0.17735975327E+04  0.25500000920E-02 0. -1.
       -2   -1    0    0    0  501  0.00000000000E+00  0.00000000000E+00 -0.14325888937E+04  0.14325888937E+04  0.25500000920E-02 0.  1.
    10030    2    1    2    0    0  0.00000000000E+00  0.00000000000E+00  0.34100863906E+03  0.32061864264E+04  0.31880000798E+04 0.  0.
        5    1    3    3  502    0  0.86079483930E+02 -0.70081674426E+03  0.16077333797E+04  0.17559562912E+04  0.46999998093E+01 0. -1.
       -5    1    3    3    0  502 -0.86079483930E+02  0.70081674426E+03 -0.12667247406E+04  0.14502301352E+04  0.46999998093E+01 0.  1.
</event>
<event>
 5   0  0.1729500E-06  0.3167677E+04  0.7818609E-02  0.8197406E-01
       -3   -1    0    0    0  501  0.00000000000E+00  0.00000000000E+00  0.23145893323E+04  0.23145893345E+04  0.10100000352E+00 0.  1.
        3   -1    0    0  501    0  0.00000000000E+00  0.00000000000E+00 -0.10837968657E+04  0.10837968704E+04  0.10100000352E+00 0. -1.
    10030    2    1    2    0    0  0.00000000000E+00  0.00000000000E+00  0.12307924666E+04  0.33983862049E+04  0.31676771777E+04 0.  0.
        5    1    3    3  502    0  0.32698340055E+03 -0.13854848330E+04 -0.12945862029E+03  0.14294292536E+04  0.46999998093E+01 0. -1.
       -5    1    3    3    0  502 -0.32698340055E+03  0.13854848330E+04  0.13602510869E+04  0.19689569513E+04  0.46999998093E+01 0.  1.
</event>
<event>
 5   0  0.5121624E-06  0.3205108E+04  0.7818609E-02  0.8187469E-01
        2   -1    0    0  501    0  0.00000000000E+00  0.00000000000E+00  0.19911972723E+04  0.19911972723E+04  0.25500000920E-02 0.  1.
       -2   -1    0    0    0  501  0.00000000000E+00  0.00000000000E+00 -0.12897666627E+04  0.12897666627E+04  0.25500000920E-02 0. -1.
    10030    2    1    2    0    0  0.00000000000E+00  0.00000000000E+00  0.70143060968E+03  0.32809639350E+04  0.32051083356E+04 0.  0.
        4    1    3    3  502    0  0.15843636235E+04  0.52359016851E+02  0.11014550202E+03  0.15890510384E+04  0.12699999809E+01 0.  1.
       -4    1    3    3    0  502 -0.15843636235E+04 -0.52359016851E+02  0.59128510766E+03  0.16919128966E+04  0.12699999809E+01 0. -1.
</event>
<event>
 5   0  0.1881144E-06  0.2582531E+04  0.7818609E-02  0.8374159E-01
        1   -1    0    0  501    0  0.00000000000E+00  0.00000000000E+00  0.14438942833E+04  0.14438942833E+04  0.50400001928E-02 0. -1.
       -1   -1    0    0    0  501  0.00000000000E+00  0.00000000000E+00 -0.11547708199E+04  0.11547708199E+04  0.50400001928E-02 0.  1.
    10030    2    1    2    0    0  0.00000000000E+00  0.00000000000E+00  0.28912346343E+03  0.25986651032E+04  0.25825313050E+04 0.  0.
        3    1    3    3  502    0 -0.95763579221E+03  0.62212157036E+03  0.75104209920E+03  0.13668086200E+04  0.10100000352E+00 0. -1.
       -3    1    3    3    0  502  0.95763579221E+03 -0.62212157036E+03 -0.46191863576E+03  0.12318564832E+04  0.10100000352E+00 0.  1.
</event>
<event>
 5   0  0.1886248E-06  0.3219048E+04  0.7818609E-02  0.8183805E-01
        1   -1    0    0  501    0  0.00000000000E+00  0.00000000000E+00  0.14889055397E+04  0.14889055397E+04  0.50400001928E-02 0.  1.
       -1   -1    0    0    0  501  0.00000000000E+00  0.00000000000E+00 -0.17399140167E+04  0.17399140167E+04  0.50400001928E-02 0. -1.
    10030    2    1    2    0    0  0.00000000000E+00  0.00000000000E+00 -0.25100847702E+03  0.32288195563E+04  0.32190480692E+04 0.  0.
        4    1    3    3  502    0 -0.12981675647E+03 -0.15055363314E+04 -0.68132890321E+03  0.16576195953E+04  0.12699999809E+01 0. -1.
       -4    1    3    3    0  502  0.12981675647E+03  0.15055363314E+04  0.43032042618E+03  0.15711999610E+04  0.12699999809E+01 0.  1.
</event>
<event>
 5   0  0.1886248E-06  0.2816495E+04  0.7818609E-02  0.8298166E-01
       -1   -1    0    0    0  501  0.00000000000E+00  0.00000000000E+00  0.11931264332E+04  0.11931264332E+04  0.50400001928E-02 0. -1.
        1   -1    0    0  501    0  0.00000000000E+00  0.00000000000E+00 -0.16621545516E+04  0.16621545516E+04  0.50400001928E-02 0.  1.
    10030    2    1    2    0    0  0.00000000000E+00  0.00000000000E+00 -0.46902811843E+03  0.28552809849E+04  0.28164946523E+04 0.  0.
        4    1    3    3  502    0  0.60513127794E+03  0.28951593552E+03 -0.14897721690E+04  0.16338378343E+04  0.12699999809E+01 0.  1.
       -4    1    3    3    0  502 -0.60513127794E+03 -0.28951593552E+03  0.10207440505E+04  0.12214431506E+04  0.12699999809E+01 0. -1.
</event>
<event>
 5   0  0.1886248E-06  0.3223097E+04  0.7818609E-02  0.8182744E-01
       -1   -1    0    0    0  501  0.00000000000E+00  0.00000000000E+00  0.14583727067E+04  0.14583727067E+04  0.50400001928E-02 0. -1.
        1   -1    0    0  501    0  0.00000000000E+00  0.00000000000E+00 -0.17808123104E+04  0.17808123104E+04  0.50400001928E-02 0.  1.
    10030    2    1    2    0    0  0.00000000000E+00  0.00000000000E+00 -0.32243960373E+03  0.32391850171E+04  0.32230966906E+04 0.  0.
        4    1    3    3  502    0 -0.91648547926E+03 -0.22847700926E+02  0.11707708735E+04  0.14870015811E+04  0.12699999809E+01 0. -1.
       -4    1    3    3    0  502  0.91648547926E+03  0.22847700926E+02 -0.14932104772E+04  0.17521834360E+04  0.12699999809E+01 0.  1.
</event>
<event>
 5   0  0.1977015E-06  0.2678298E+04  0.7818609E-02  0.8342081E-01
        1   -1    0    0  501    0  0.00000000000E+00  0.00000000000E+00  0.26138149963E+04  0.26138149963E+04  0.50400001928E-02 0. -1.
       -1   -1    0    0    0  501  0.00000000000E+00  0.00000000000E+00 -0.68609309256E+03  0.68609309258E+03  0.50400001928E-02 0.  1.
    10030    2    1    2    0    0  0.00000000000E+00  0.00000000000E+00  0.19277219037E+04  0.32999080889E+04  0.26782982763E+04 0.  0.
        1    1    3    3  502    0  0.39009870595E+03 -0.96652879135E+03  0.19998186338E+04  0.22551340255E+04  0.50400001928E-02 0. -1.
       -1    1    3    3    0  502 -0.39009870595E+03  0.96652879135E+03 -0.72096730104E+02  0.10447740633E+04  0.50400001928E-02 0.  1.
</event>
<event>
 5   0  0.1846850E-06  0.3151336E+04  0.7818609E-02  0.8201789E-01
        1   -1    0    0  501    0  0.00000000000E+00  0.00000000000E+00  0.18115250706E+04  0.18115250706E+04  0.50400001928E-02 0. -1.
       -1   -1    0    0    0  501  0.00000000000E+00  0.00000000000E+00 -0.13705187996E+04  0.13705187996E+04  0.50400001928E-02 0.  1.
    10030    2    1    2    0    0  0.00000000000E+00  0.00000000000E+00  0.44100627095E+03  0.31820438702E+04  0.31513356948E+04 0.  0.
        5    1    3    3  502    0 -0.94584524065E+03  0.11746588614E+04  0.68130567022E+03  0.16548855447E+04  0.46999998093E+01 0. -1.
       -5    1    3    3    0  502  0.94584524065E+03 -0.11746588614E+04 -0.24029939927E+03  0.15271583255E+04  0.46999998093E+01 0.  1.
</event>
<event>
 5   0  0.5121624E-06  0.2388268E+04  0.7818609E-02  0.8443909E-01
       -2   -1    0    0    0  501  0.00000000000E+00  0.00000000000E+00  0.10683015414E+04  0.10683015414E+04  0.25500000920E-02 0. -1.
        2   -1    0    0  501    0  0.00000000000E+00  0.00000000000E+00 -0.13347880407E+04  0.13347880407E+04  0.25500000920E-02 0.  1.
    10030    2    1    2    0    0  0.00000000000E+00  0.00000000000E+00 -0.26648649929E+03  0.24030895821E+04  0.23882680932E+04 0.  0.
        4    1    3    3  502    0 -0.73704839571E+03  0.64429985311E+03  0.55480732177E+03  0.11252446025E+04  0.12699999809E+01 0.  1.
       -4    1    3    3    0  502  0.73704839571E+03 -0.64429985311E+03 -0.82129382106E+03  0.12778449795E+04  0.12699999809E+01 0. -1.
</event>
<event>
 5   0  0.1846850E-06  0.3256342E+04  0.7818609E-02  0.8174094E-01
       -1   -1    0    0    0  501  0.00000000000E+00  0.00000000000E+00  0.17682527295E+04  0.17682527295E+04  0.50400001928E-02 0. -1.
        1   -1    0    0  501    0  0.00000000000E+00  0.00000000000E+00 -0.14991863741E+04  0.14991863741E+04  0.50400001928E-02 0.  1.
    10030    2    1    2    0    0  0.00000000000E+00  0.00000000000E+00  0.26906635537E+03  0.32674391036E+04  0.32563417499E+04 0.  0.
        5    1    3    3  502    0 -0.11204574755E+04 -0.10165766084E+04 -0.46923609740E+03  0.15840004926E+04  0.46999998093E+01 0.  1.
       -5    1    3    3    0  502  0.11204574755E+04  0.10165766084E+04  0.73830245277E+03  0.16834386110E+04  0.46999998093E+01 0. -1.
</event>
<event>
 5   0  0.5121624E-06  0.2985171E+04  0.7818609E-02  0.8247978E-01
       -2   -1    0    0    0  501  0.00000000000E+00  0.00000000000E+00  0.12413460877E+04  0.12413460877E+04  0.25500000920E-02 0.  1.
        2   -1    0    0  501    0  0.00000000000E+00  0.00000000000E+00 -0.17946736702E+04  0.17946736702E+04  0.25500000920E-02 0. -1.
    10030    2    1    2    0    0  0.00000000000E+00  0.00000000000E+00 -0.55332758246E+03  0.30360197580E+04  0.29851707752E+04 0.  0.
        4    1    3    3  502    0 -0.33945664478E+03  0.10102723114E+04 -0.13394172496E+04  0.17117012409E+04  0.12699999809E+01 0. -1.
       -4    1    3    3    0  502  0.33945664478E+03 -0.10102723114E+04  0.78608966714E+03  0.13243185170E+04  0.12699999809E+01 0.  1.
</event>
<event>
 5   0  0.1977015E-06  0.2253624E+04  0.7818609E-02  0.8496434E-01
        1   -1    0    0  501    0  0.00000000000E+00  0.00000000000E+00  0.19723199747E+04  0.19723199747E+04  0.50400001928E-02 0. -1.
       -1   -1    0    0    0  501  0.00000000000E+00  0.00000000000E+00 -0.64376221219E+03  0.64376221221E+03  0.50400001928E-02 0.  1.
    10030    2    1    2    0    0  0.00000000000E+00  0.00000000000E+00  0.13285577625E+04  0.26160821869E+04  0.22536238107E+04 0.  0.
        1    1    3    3  502    0 -0.17011275914E+03 -0.10097992105E+04  0.11847439620E+03  0.10308583700E+04  0.50400001928E-02 0.  1.
       -1    1    3    3    0  502  0.17011275914E+03  0.10097992105E+04  0.12100833663E+04  0.15852238169E+04  0.50400001928E-02 0. -1.
</event>
<event>
 5   0  0.5108810E-06  0.3148287E+04  0.7818609E-02  0.8202610E-01
        2   -1    0    0  501    0  0.00000000000E+00  0.00000000000E+00  0.17023844049E+04  0.17023844049E+04  0.25500000920E-02 0.  1.
       -2   -1    0    0    0  501  0.00000000000E+00  0.00000000000E+00 -0.14555628120E+04  0.14555628120E+04  0.25500000920E-02 0. -1.
    10030    2    1    2    0    0  0.00000000000E+00  0.00000000000E+00  0.24682159287E+03  0.31579472169E+04  0.31482867922E+04 0.  0.
        1    1    3    3  502    0 -0.14253729490E+04  0.23198525469E+03 -0.50494753767E+03  0.15298618297E+04  0.50400001928E-02 0. -1.
       -1    1    3    3    0  502  0.14253729490E+04 -0.23198525469E+03  0.75176913054E+03  0.16280853872E+04  0.50400001928E-02 0.  1.
</event>
<event>
 5   0  0.1881144E-06  0.3172614E+04  0.7818609E-02  0.8196088E-01
       -1   -1    0    0    0  501  0.00000000000E+00  0.00000000000E+00  0.99242485307E+03  0.99242485309E+03  0.50400001928E-02 0. -1.
        1   -1    0    0  501    0  0.00000000000E+00  0.00000000000E+00 -0.25355766919E+04  0.25355766919E+04  0.50400001928E-02 0.  1.
    10030    2    1    2    0    0  0.00000000000E+00  0.00000000000E+00 -0.15431518388E+04  0.35280015450E+04  0.31726136392E+04 0.  0.
        3    1    3    3  502    0 -0.28668118009E+03 -0.43304749058E+03  0.89520909867E+03  0.10349471333E+04  0.10100000352E+00 0. -1.
       -3    1    3    3    0  502  0.28668118009E+03  0.43304749058E+03 -0.24383609375E+04  0.24930544117E+04  0.10100000352E+00 0.  1.
</event>
<event>
 5   0  0.5347280E-06  0.3224131E+04  0.7818609E-02  0.8182473E-01
        2   -1    0    0  501    0  0.00000000000E+00  0.00000000000E+00  0.16196891950E+04  0.16196891950E+04  0.25500000920E-02 0.  1.
       -2   -1    0    0    0  501  0.00000000000E+00  0.00000000000E+00 -0.16044772350E+04  0.16044772350E+04  0.25500000920E-02 0. -1.
    10030    2    1    2    0    0  0.00000000000E+00  0.00000000000E+00  0.15211960007E+02  0.32241664300E+04  0.32241305440E+04 0.  0.
        2    1    3    3  502    0 -0.36571097351E+03 -0.97930351555E+03  0.12348011861E+04  0.16178732524E+04  0.25500000920E-02 0.  1.
       -2    1    3    3    0  502  0.36571097351E+03  0.97930351555E+03 -0.12195892261E+04  0.16062931775E+04  0.25500000920E-02 0. -1.
</event>
<event>
 5   0  0.1977015E-06  0.3288327E+04  0.7818609E-02  0.8165872E-01
        1   -1    0    0  501    0  0.00000000000E+00  0.00000000000E+00  0.17433692370E+04  0.17433692370E+04  0.50400001928E-02 0.  1.
       -1   -1    0    0    0  501  0.00000000000E+00  0.00000000000E+00 -0.15506027252E+04  0.15506027252E+04  0.50400001928E-02 0. -1.
    10030    2    1    2    0    0  0.00000000000E+00  0.00000000000E+00  0.19276651177E+03  0.32939719623E+04  0.32883266809E+04 0.  0.
        1    1    3    3  502    0 -0.51635234957E+03 -0.73141186466E+03  0.14777684797E+04  0.17278260168E+04  0.50400001928E-02 0.  1.
       -1    1    3    3    0  502  0.51635234957E+03  0.73141186466E+03 -0.12850019680E+04  0.15661459454E+04  0.50400001928E-02 0. -1.
</event>
<event>
 5   0  0.1881144E-06  0.3184058E+04  0.7818609E-02  0.8193040E-01
       -1   -1    0    0    0  501  0.00000000000E+00  0.00000000000E+00  0.99970444426E+03  0.99970444428E+03  0.50400001928E-02 0. -1.
        1   -1    0    0  501    0  0.00000000000E+00  0.00000000000E+00 -0.25353052656E+04  0.25353052656E+04  0.50400001928E-02 0.  1.
    10030    2    1    2    0    0  0.00000000000E+00  0.00000000000E+00 -0.15356008213E+04  0.35350097099E+04  0.31840577517E+04 0.  0.
        3    1    3    3  502    0  0.10272562489E+04  0.11609830141E+04 -0.11702752232E+04  0.19423390713E+04  0.10100000352E+00 0.  1.
       -3    1    3    3    0  502 -0.10272562489E+04 -0.11609830141E+04 -0.36532559815E+03  0.15926706385E+04  0.10100000352E+00 0. -1.
</event>
<event>
 5   0  0.1977015E-06  0.3163091E+04  0.7818609E-02  0.8198633E-01
       -1   -1    0    0    0  501  0.00000000000E+00  0.00000000000E+00  0.13329484016E+04  0.13329484016E+04  0.50400001928E-02 0. -1.
        1   -1    0    0  501    0  0.00000000000E+00  0.00000000000E+00 -0.18765061891E+04  0.18765061891E+04  0.50400001928E-02 0.  1.
    10030    2    1    2    0    0  0.00000000000E+00  0.00000000000E+00 -0.54355778755E+03  0.32094545907E+04  0.31630908462E+04 0.  0.
        1    1    3    3  502    0 -0.70384512821E+03  0.31763636511E+03  0.11286675387E+04  0.13675456986E+04  0.50400001928E-02 0. -1.
       -1    1    3    3    0  502  0.70384512821E+03 -0.31763636511E+03 -0.16722253262E+04  0.18419088921E+04  0.50400001928E-02 0.  1.
</event>
<event>
 5   0  0.5373060E-06  0.3314589E+04  0.7818609E-02  0.8159193E-01
        2   -1    0    0  501    0  0.00000000000E+00  0.00000000000E+00  0.22233693007E+04  0.22233693007E+04  0.25500000920E-02 0.  1.
       -2   -1    0    0    0  501  0.00000000000E+00  0.00000000000E+00 -0.12353435035E+04  0.12353435035E+04  0.25500000920E-02 0. -1.
    10030    2    1    2    0    0  0.00000000000E+00  0.00000000000E+00  0.98802579715E+03  0.34587128042E+04  0.33145888562E+04 0.  0.
        5    1    3    3  502    0  0.27798456929E+03  0.49617931241E+03  0.21183400273E+04  0.21933663379E+04  0.46999998093E+01 0.  1.
       -5    1    3    3    0  502 -0.27798456929E+03 -0.49617931241E+03 -0.11303142302E+04  0.12653464663E+04  0.46999998093E+01 0. -1.
</event>
<event>
 5   0  0.5131083E-06  0.3085769E+04  0.7818609E-02  0.8219654E-01
       -2   -1    0    0    0  501  0.00000000000E+00  0.00000000000E+00  0.18533017792E+04  0.18533017792E+04  0.25500000920E-02 0.  1.
        2   -1    0    0  501    0  0.00000000000E+00  0.00000000000E+00 -0.12844605997E+04  0.12844605997E+04  0.25500000920E-02 0. -1.
    10030    2    1    2    0    0  0.00000000000E+00  0.00000000000E+00  0.56884117952E+03  0.31377623790E+04  0.30857693464E+04 0.  0.
        3    1    3    3  502    0 -0.11656691751E+04  0.90819967530E+03 -0.16676935084E+03  0.14870855061E+04  0.10100000352E+00 0. -1.
       -3    1    3    3    0  502  0.11656691751E+04 -0.90819967530E+03  0.73561053036E+03  0.16506768728E+04  0.10100000352E+00 0.  1.
</event>
<event>
 5   0  0.5108810E-06  0.3162418E+04  0.7818609E-02  0.8198814E-01
       -2   -1    0    0    0  501  0.00000000000E+00  0.00000000000E+00  0.10695982253E+04  0.10695982253E+04  0.25500000920E-02 0.  1.
        2   -1    0    0  501    0  0.00000000000E+00  0.00000000000E+00 -0.23375339968E+04  0.23375339968E+04  0.25500000920E-02 0. -1.
    10030    2    1    2    0    0  0.00000000000E+00  0.00000000000E+00 -0.12679357715E+04  0.34071322221E+04  0.31624181978E+04 0.  0.
        1    1    3    3  502    0  0.12383927277E+04 -0.10360843435E+03  0.41937391938E+03  0.13115737646E+04  0.50400001928E-02 0.  1.
       -1    1    3    3    0  502 -0.12383927277E+04  0.10360843435E+03 -0.16873096909E+04  0.20955584575E+04  0.50400001928E-02 0. -1.
</event>
<event>
 5   0  0.1969465E-06  0.3188623E+04  0.7818609E-02  0.8191828E-01
       -1   -1    0    0    0  501  0.00000000000E+00  0.00000000000E+00  0.16119175602E+04  0.16119175602E+04  0.50400001928E-02 0. -1.
        1   -1    0    0  501    0  0.00000000000E+00  0.00000000000E+00 -0.15768974879E+04  0.15768974879E+04  0.50400001928E-02 0.  1.
    10030    2    1    2    0    0  0.00000000000E+00  0.00000000000E+00  0.35020072277E+02  0.31888150481E+04  0.31886227443E+04 0.  0.
        2    1    3    3  502    0  0.71945242345E+03 -0.12966626513E+04 -0.56808734243E+03  0.15879764008E+04  0.25500000920E-02 0.  1.
       -2    1    3    3    0  502 -0.71945242345E+03  0.12966626513E+04  0.60310741471E+03  0.16008386473E+04  0.25500000920E-02 0. -1.
</event>
<event>
 5   0  0.1977015E-06  0.2954058E+04  0.7818609E-02  0.8256973E-01
        1   -1    0    0  501    0  0.00000000000E+00  0.00000000000E+00  0.25464901522E+04  0.25464901522E+04  0.50400001928E-02 0. -1.
       -1   -1    0    0    0  501  0.00000000000E+00  0.00000000000E+00 -0.85671411191E+03  0.85671411192E+03  0.50400001928E-02 0.  1.
    10030    2    1    2    0    0  0.00000000000E+00  0.00000000000E+00  0.16897760403E+04  0.34032042641E+04  0.29540575819E+04 0.  0.
        1    1    3    3  502    0  0.53313330746E+03  0.11590648085E+04  0.17023305245E+04  0.21273437824E+04  0.50400001928E-02 0. -1.
       -1    1    3    3    0  502 -0.53313330746E+03 -0.11590648085E+04 -0.12554484154E+02  0.12758604818E+04  0.50400001928E-02 0.  1.
</event>
<event>
 5   0  0.5373060E-06  0.3130118E+04  0.7818609E-02  0.8207521E-01
        2   -1    0    0  501    0  0.00000000000E+00  0.00000000000E+00  0.18551985695E+04  0.18551985695E+04  0.25500000920E-02 0. -1.
       -2   -1    0    0    0  501  0.00000000000E+00  0.00000000000E+00 -0.13202952275E+04  0.13202952275E+04  0.25500000920E-02 0.  1.
    10030    2    1    2    0    0  0.00000000000E+00  0.00000000000E+00  0.53490334203E+03  0.31754937971E+04  0.31301180920E+04 0.  0.
        5    1    3    3  502    0 -0.74404237978E+03  0.11671682606E+04 -0.47355236388E+03  0.14629267729E+04  0.46999998093E+01 0.  1.
       -5    1    3    3    0  502  0.74404237978E+03 -0.11671682606E+04  0.10084557059E+04  0.17125670242E+04  0.46999998093E+01 0. -1.
</event>
<event>
 5   0  0.1846850E-06  0.3242591E+04  0.7818609E-02  0.8177659E-01
        1   -1    0    0  501    0  0.00000000000E+00  0.00000000000E+00  0.10305020307E+04  0.10305020307E+04  0.50400001928E-02 0. -1.
       -1   -1    0    0    0  501  0.00000000000E+00  0.00000000000E+00 -0.25507941992E+04  0.25507941992E+04  0.50400001928E-02 0.  1.
    10030    2    1    2    0    0  0.00000000000E+00  0.00000000000E+00 -0.15202921685E+04  0.35812962299E+04  0.32425906940E+04 0.  0.
        5    1    3    3  502    0  0.14607143253E+04 -0.75386890348E+02  0.12346715089E+02  0.14627180367E+04  0.46999998093E+01 0. -1.
       -5    1    3    3    0  502 -0.14607143253E+04  0.75386890348E+02 -0.15326388836E+04  0.21185781933E+04  0.46999998093E+01 0.  1.
</event>
<event>
 5   0  0.1886248E-06  0.3216731E+04  0.7818609E-02  0.8184412E-01
        1   -1    0    0  501    0  0.00000000000E+00  0.00000000000E+00  0.27284921331E+04  0.27284921331E+04  0.50400001928E-02 0.  1.
       -1   -1    0    0    0  501  0.00000000000E+00  0.00000000000E+00 -0.94808395555E+03  0.94808395557E+03  0.50400001928E-02 0. -1.
    10030    2    1    2    0    0  0.00000000000E+00  0.00000000000E+00  0.17804081776E+04  0.36765760887E+04  0.32167310203E+04 0.  0.
        4    1    3    3  502    0  0.37956090168E+03  0.34157051155E+03 -0.85297940674E+03  0.99413901124E+03  0.12699999809E+01 0. -1.
       -4    1    3    3    0  502 -0.37956090168E+03 -0.34157051155E+03  0.26333875843E+04  0.26824370775E+04  0.12699999809E+01 0.  1.
</event>
<event>
 5   0  0.5131083E-06  0.2198350E+04  0.7818609E-02  0.8519115E-01
        2   -1    0    0  501    0  0.00000000000E+00  0.00000000000E+00  0.26617699271E+04  0.26617699271E+04  0.25500000920E-02 0.  1.
       -2   -1    0    0    0  501  0.00000000000E+00  0.00000000000E+00 -0.45390292536E+03  0.45390292537E+03  0.25500000920E-02 0. -1.
    10030    2    1    2    0    0  0.00000000000E+00  0.00000000000E+00  0.22078670017E+04  0.31156728525E+04  0.21983495232E+04 0.  0.
        3    1    3    3  502    0  0.78729979214E+03 -0.76698638284E+03  0.10915720889E+04  0.15490767281E+04  0.10100000352E+00 0. -1.
       -3    1    3    3    0  502 -0.78729979214E+03  0.76698638284E+03  0.11162949128E+04  0.15665961243E+04  0.10100000352E+00 0.  1.
</event>
<event>
 5   0  0.1729500E-06  0.3307832E+04  0.7818609E-02  0.8160905E-01
        3   -1    0    0  501    0  0.00000000000E+00  0.00000000000E+00  0.81993229183E+03  0.81993229805E+03  0.10100000352E+00 0.  1.
       -3   -1    0    0    0  501  0.00000000000E+00  0.00000000000E+00 -0.33361764464E+04  0.33361764479E+04  0.10100000352E+00 0. -1.
    10030    2    1    2    0    0  0.00000000000E+00  0.00000000000E+00 -0.25162441545E+04  0.41561087459E+04  0.33078324115E+04 0.  0.
        2    1    3    3  502    0 -0.12778919665E+04  0.75437981328E+03 -0.34053706554E+03  0.15225183985E+04  0.25500000920E-02 0.  1.
       -2    1    3    3    0  502  0.12778919665E+04 -0.75437981328E+03 -0.21757070890E+04  0.26335903474E+04  0.25500000920E-02 0. -1.
</event>
<event>
 5   0  0.5373060E-06  0.2975389E+04  0.7818609E-02  0.8250794E-01
       -2   -1    0    0    0  501  0.00000000000E+00  0.00000000000E+00  0.86590850230E+03  0.86590850230E+03  0.25500000920E-02 0. -1.
        2   -1    0    0  501    0  0.00000000000E+00  0.00000000000E+00 -0.25559689599E+04  0.25559689599E+04  0.25500000920E-02 0.  1.
    10030    2    1    2    0    0  0.00000000000E+00  0.00000000000E+00 -0.16900604576E+04  0.34218774622E+04  0.29753892209E+04 0.  0.
        5    1    3    3  502    0 -0.14811675806E+04 -0.43635977688E+02 -0.99695867152E+03  0.17859759749E+04  0.46999998093E+01 0. -1.
       -5    1    3    3    0  502  0.14811675806E+04  0.43635977688E+02 -0.69310178611E+03  0.16359014873E+04  0.46999998093E+01 0.  1.
</event>
<event>
 5   0  0.5121624E-06  0.2104624E+04  0.7818609E-02  0.8559209E-01
       -2   -1    0    0    0  501  0.00000000000E+00  0.00000000000E+00  0.12045861765E+04  0.12045861765E+04  0.25500000920E-02 0.  1.
        2   -1    0    0  501    0  0.00000000000E+00  0.00000000000E+00 -0.91928712267E+03  0.91928712267E+03  0.25500000920E-02 0. -1.
    10030    2    1    2    0    0  0.00000000000E+00  0.00000000000E+00  0.28529905381E+03  0.21238732992E+04  0.21046240141E+04 0.  0.
        4    1    3    3  502    0  0.61991094266E+03 -0.14785755170E+02  0.10006319724E+04  0.11771890895E+04  0.12699999809E+01 0.  1.
       -4    1    3    3    0  502 -0.61991094266E+03  0.14785755170E+02 -0.71533291862E+03  0.94668420962E+03  0.12699999809E+01 0. -1.
</event>
<event>
 5   0  0.5108810E-06  0.3171714E+04  0.7818609E-02  0.8196328E-01
        2   -1    0    0  501    0  0.00000000000E+00  0.00000000000E+00  0.22326423349E+04  0.22326423349E+04  0.25500000920E-02 0.  1.
       -2   -1    0    0    0  501  0.00000000000E+00  0.00000000000E+00 -0.11264419264E+04  0.11264419264E+04  0.25500000920E-02 0. -1.
    10030    2    1    2    0    0  0.00000000000E+00  0.00000000000E+00  0.11062004086E+04  0.33590842613E+04  0.31717136899E+04 0.  0.
        1    1    3    3  502    0 -0.10711195569E+04 -0.11040946203E+04  0.96138706043E+03  0.18139975512E+04  0.50400001928E-02 0.  1.
       -1    1    3    3    0  502  0.10711195569E+04  0.11040946203E+04  0.14481334815E+03  0.15450867101E+04  0.50400001928E-02 0. -1.
</event>
<event>
 5   0  0.5108810E-06  0.3128552E+04  0.7818609E-02  0.8207945E-01
       -2   -1    0    0    0  501  0.00000000000E+00  0.00000000000E+00  0.16136824352E+04  0.16136824352E+04  0.25500000920E-02 0. -1.
        2   -1    0    0  501    0  0.00000000000E+00  0.00000000000E+00 -0.15163824808E+04  0.15163824808E+04  0.25500000920E-02 0.  1.
    10030    2    1    2    0    0  0.00000000000E+00  0.00000000000E+00  0.97299954360E+02  0.31300649160E+04  0.31285522366E+04 0.  0.
        1    1    3    3  502    0 -0.12409986880E+04 -0.77427824985E+03  0.60333234654E+03  0.15822750937E+04  0.50400001928E-02 0. -1.
       -1    1    3    3    0  502  0.12409986880E+04  0.77427824985E+03 -0.50603239218E+03  0.15477898222E+04  0.50400001928E-02 0.  1.
</event>
<event>
 5   0  0.1969465E-06  0.2142366E+04  0.7818609E-02  0.8542807E-01
       -1   -1    0    0    0  501  0.00000000000E+00  0.00000000000E+00  0.52317645045E+03  0.52317645048E+03  0.50400001928E-02 0.  1.
        1   -1    0    0  501    0  0.00000000000E+00  0.00000000000E+00 -0.21932052273E+04  0.21932052273E+04  0.50400001928E-02 0. -1.
    10030    2    1    2    0    0  0.00000000000E+00  0.00000000000E+00 -0.16700287769E+04  0.27163816778E+04  0.21423662861E+04 0.  0.
        2    1    3    3  502    0 -0.26460568481E+03 -0.82728175481E+03 -0.40127142793E+02  0.86949494413E+03  0.25500000920E-02 0.  1.
       -2    1    3    3    0  502  0.26460568481E+03  0.82728175481E+03 -0.16299016341E+04  0.18468867337E+04  0.25500000920E-02 0. -1.
</event>
<event>
 5   0  0.5108810E-06  0.2842966E+04  0.7818609E-02  0.8290052E-01
        2   -1    0    0  501    0  0.00000000000E+00  0.00000000000E+00  0.17894994849E+04  0.17894994849E+04  0.25500000920E-02 0. -1.
       -2   -1    0    0    0  501  0.00000000000E+00  0.00000000000E+00 -0.11291503198E+04  0.11291503198E+04  0.25500000920E-02 0.  1.
    10030    2    1    2    0    0  0.00000000000E+00  0.00000000000E+00  0.66034916506E+03  0.29186498047E+04  0.28429659975E+04 0.  0.
        1    1    3    3  502    0  0.31175977337E+03 -0.13862949905E+04  0.28903332900E+03  0.14500166283E+04  0.50400001928E-02 0.  1.
       -1    1    3    3    0  502 -0.31175977337E+03  0.13862949905E+04  0.37131583606E+03  0.14686331765E+04  0.50400001928E-02 0. -1.
</event>
<event>
 5   0  0.1846850E-06  0.2020487E+04  0.7818609E-02  0.8597102E-01
        1   -1    0    0  501    0  0.00000000000E+00  0.00000000000E+00  0.90634274848E+03  0.90634274849E+03  0.50400001928E-02 0. -1.
       -1   -1    0    0    0  501  0.00000000000E+00  0.00000000000E+00 -0.11260551003E+04  0.11260551003E+04  0.50400001928E-02 0.  1.
    10030    2    1    2    0    0  0.00000000000E+00  0.00000000000E+00 -0.21971235182E+03  0.20323978488E+04  0.20204869458E+04 0.  0.
        5    1    3    3  502    0  0.38346164273E+03  0.43519472277E+01  0.83026995586E+03  0.91456659708E+03  0.46999998093E+01 0. -1.
       -5    1    3    3    0  502 -0.38346164273E+03 -0.43519472277E+01 -0.10499823077E+04  0.11178312517E+04  0.46999998093E+01 0.  1.
</event>
<event>
 5   0  0.1881144E-06  0.2956772E+04  0.7818609E-02  0.8256184E-01
        1   -1    0    0  501    0  0.00000000000E+00  0.00000000000E+00  0.15309902893E+04  0.15309902894E+04  0.50400001928E-02 0.  1.
       -1   -1    0    0    0  501  0.00000000000E+00  0.00000000000E+00 -0.14275889112E+04  0.14275889112E+04  0.50400001928E-02 0. -1.
    10030    2    1    2    0    0  0.00000000000E+00  0.00000000000E+00  0.10340137814E+03  0.29585792006E+04  0.29567717262E+04 0.  0.
        3    1    3    3  502    0  0.56705512710E+03 -0.28253846333E+02  0.14175534224E+04  0.15270257078E+04  0.10100000352E+00 0.  1.
       -3    1    3    3    0  502 -0.56705512710E+03  0.28253846333E+02 -0.13141520442E+04  0.14315534927E+04  0.10100000352E+00 0. -1.
</event>
<event>
 5   0  0.5121624E-06  0.2191723E+04  0.7818609E-02  0.8521881E-01
       -2   -1    0    0    0  501  0.00000000000E+00  0.00000000000E+00  0.14310067597E+04  0.14310067597E+04  0.25500000920E-02 0.  1.
        2   -1    0    0  501    0  0.00000000000E+00  0.00000000000E+00 -0.83920783481E+03  0.83920783481E+03  0.25500000920E-02 0. -1.
    10030    2    1    2    0    0  0.00000000000E+00  0.00000000000E+00  0.59179892492E+03  0.22702145945E+04  0.21917226872E+04 0.  0.
        4    1    3    3  502    0 -0.95379860508E+03  0.52643458791E+03  0.17314223162E+03  0.11031069756E+04  0.12699999809E+01 0. -1.
       -4    1    3    3    0  502  0.95379860508E+03 -0.52643458791E+03  0.41865669330E+03  0.11671076189E+04  0.12699999809E+01 0.  1.
</event>
<event>
 5   0  0.1977015E-06  0.3165401E+04  0.7818609E-02  0.8198015E-01
        1   -1    0    0  501    0  0.00000000000E+00  0.00000000000E+00  0.15551788407E+04  0.15551788408E+04  0.50400001928E-02 0.  1.
       -1   -1    0    0    0  501  0.00000000000E+00  0.00000000000E+00 -0.16107088218E+04  0.16107088218E+04  0.50400001928E-02 0. -1.
    10030    2    1    2    0    0  0.00000000000E+00  0.00000000000E+00 -0.55529981017E+02  0.31658876625E+04  0.31654006244E+04 0.  0.
        1    1    3    3  502    0 -0.78308982114E+03  0.62885542953E+03  0.11956367955E+04  0.15614852436E+04  0.50400001928E-02 0.  1.
       -1    1    3    3    0  502  0.78308982114E+03 -0.62885542953E+03 -0.12511667765E+04  0.16044024189E+04  0.50400001928E-02 0. -1.
</event>
<event>
 5   0  0.5108810E-06  0.3158878E+04  0.7818609E-02  0.8199762E-01
       -2   -1    0    0    0  501  0.00000000000E+00  0.00000000000E+00  0.12351146426E+04  0.12351146426E+04  0.25500000920E-02 0.  1.
        2   -1    0    0  501    0  0.00000000000E+00  0.00000000000E+00 -0.20197543455E+04  0.20197543455E+04  0.25500000920E-02 0. -1.
    10030    2    1    2    0    0  0.00000000000E+00  0.00000000000E+00 -0.78463970288E+03  0.32548689881E+04  0.31588783874E+04 0.  0.
        1    1    3    3  502    0 -0.14518199286E+03  0.63646133826E+03 -0.18742404609E+04  0.19846758303E+04  0.50400001928E-02 0. -1.
       -1    1    3    3    0  502  0.14518199286E+03 -0.63646133826E+03  0.10896007580E+04  0.12701931578E+04  0.50400001928E-02 0.  1.
</event>
<event>
 5   0  0.5131083E-06  0.2265050E+04  0.7818609E-02  0.8491830E-01
       -2   -1    0    0    0  501  0.00000000000E+00  0.00000000000E+00  0.10106146547E+04  0.10106146547E+04  0.25500000920E-02 0. -1.
        2   -1    0    0  501    0  0.00000000000E+00  0.00000000000E+00 -0.12691416067E+04  0.12691416067E+04  0.25500000920E-02 0.  1.
    10030    2    1    2    0    0  0.00000000000E+00  0.00000000000E+00 -0.25852695207E+03  0.22797562614E+04  0.22650502040E+04 0.  0.
        3    1    3    3  502    0 -0.85385171975E+03  0.15117430681E+03  0.60395561522E+03  0.10567302521E+04  0.10100000352E+00 0.  1.
       -3    1    3    3    0  502  0.85385171975E+03 -0.15117430681E+03 -0.86248256729E+03  0.12230260093E+04  0.10100000352E+00 0. -1.
</event>
<event>
 5   0  0.5131083E-06  0.3321873E+04  0.7818609E-02  0.8157352E-01
       -2   -1    0    0    0  501  0.00000000000E+00  0.00000000000E+00  0.17071925281E+04  0.17071925281E+04  0.25500000920E-02 0. -1.
        2   -1    0    0  501    0  0.00000000000E+00  0.00000000000E+00 -0.16159336206E+04  0.16159336206E+04  0.25500000920E-02 0.  1.
    10030    2    1    2    0    0  0.00000000000E+00  0.00000000000E+00  0.91258907464E+02  0.33231261487E+04  0.33218728471E+04 0.  0.
        3    1    3    3  502    0 -0.14662440273E+04 -0.36310582319E+03 -0.64527748710E+03  0.16425895507E+04  0.10100000352E+00 0.  1.
       -3    1    3    3    0  502  0.14662440273E+04  0.36310582319E+03  0.73653639457E+03  0.16805365980E+04  0.10100000352E+00 0. -1.
</event>
<event>
 5   0  0.1969465E-06  0.3192172E+04  0.7818609E-02  0.8190888E-01
       -1   -1    0    0    0  501  0.00000000000E+00  0.00000000000E+00  0.84375604580E+03  0.84375604582E+03  0.50400001928E-02 0. -1.
        1   -1    0    0  501    0  0.00000000000E+00  0.00000000000E+00 -0.30192257471E+04  0.30192257471E+04  0.50400001928E-02 0.  1.
    10030    2    1    2    0    0  0.00000000000E+00  0.00000000000E+00 -0.21754697013E+04  0.38629817929E+04  0.31921716607E+04 0.  0.
        2    1    3    3  502    0  0.10368965785E+04 -0.11152030101E+04 -0.50906700891E+03  0.16056093820E+04  0.25500000920E-02 0. -1.
       -2    1    3    3    0  502 -0.10368965785E+04  0.11152030101E+04 -0.16664026924E+04  0.22573724109E+04  0.25500000920E-02 0.  1.
</event>
<event>
 5   0  0.5373060E-06  0.2216966E+04  0.7818609E-02  0.8511400E-01
       -2   -1    0    0    0  501  0.00000000000E+00  0.00000000000E+00  0.82547391689E+03  0.82547391689E+03  0.25500000920E-02 0. -1.
        2   -1    0    0  501    0  0.00000000000E+00  0.00000000000E+00 -0.14885196318E+04  0.14885196318E+04  0.25500000920E-02 0.  1.
    10030    2    1    2    0    0  0.00000000000E+00  0.00000000000E+00 -0.66304571491E+03  0.23139935487E+04  0.22169656117E+04 0.  0.
        5    1    3    3  502    0  0.19007053840E+02 -0.74202399078E+03  0.52776430805E+03  0.91077885672E+03  0.46999998093E+01 0. -1.
       -5    1    3    3    0  502 -0.19007053840E+02  0.74202399078E+03 -0.11908100230E+04  0.14032146920E+04  0.46999998093E+01 0.  1.
</event>
<event>
 5   0  0.5373060E-06  0.3260241E+04  0.7818609E-02  0.8173086E-01
       -2   -1    0    0    0  501  0.00000000000E+00  0.00000000000E+00  0.14145757831E+04  0.14145757831E+04  0.25500000920E-02 0.  1.
        2   -1    0    0  501    0  0.00000000000E+00  0.00000000000E+00 -0.18785089195E+04  0.18785089195E+04  0.25500000920E-02 0. -1.
    10030    2    1    2    0    0  0.00000000000E+00  0.00000000000E+00 -0.46393313637E+03  0.32930847026E+04  0.32602412340E+04 0.  0.
        5    1    3    3  502    0 -0.16291782143E+04  0.54715365259E+02 -0.23950572955E+03  0.16476044761E+04  0.46999998093E+01 0. -1.
       -5    1    3    3    0  502  0.16291782143E+04 -0.54715365259E+02 -0.22442740681E+03  0.16454802266E+04  0.46999998093E+01 0.  1.
</event>
<event>
 5   0  0.5121624E-06  0.3172071E+04  0.7818609E-02  0.8196232E-01
       -2   -1    0    0    0  501  0.00000000000E+00  0.00000000000E+00  0.14505704621E+04  0.14505704621E+04  0.25500000920E-02 0. -1.
        2   -1    0    0  501    0  0.00000000000E+00  0.00000000000E+00 -0.17341515802E+04  0.17341515802E+04  0.25500000920E-02 0.  1.
    10030    2    1    2    0    0  0.00000000000E+00  0.00000000000E+00 -0.28358111814E+03  0.31847220423E+04  0.31720712848E+04 0.  0.
        4    1    3    3  502    0 -0.91233267692E+03  0.34191828659E+03 -0.13982802160E+04  0.17042441736E+04  0.12699999809E+01 0.  1.
       -4    1    3    3    0  502  0.91233267692E+03 -0.34191828659E+03  0.11146990978E+04  0.14804778687E+04  0.12699999809E+01 0. -1.
</event>
<event>
 5   0  0.5121624E-06  0.3193671E+04  0.7818609E-02  0.8190491E-01
        2   -1    0    0  501    0  0.00000000000E+00  0.00000000000E+00  0.17767979655E+04  0.17767979655E+04  0.25500000920E-02 0. -1.
       -2   -1    0    0    0  501  0.00000000000E+00  0.00000000000E+00 -0.14351007646E+04  0.14351007646E+04  0.25500000920E-02 0.  1.
    10030    2    1    2    0    0  0.00000000000E+00  0.00000000000E+00  0.34169720089E+03  0.32118987301E+04  0.31936713161E+04 0.  0.
        4    1    3    3  502    0  0.12954460600E+04  0.78826287470E+03  0.67404777211E+03  0.16594821078E+04  0.12699999809E+01 0. -1.
       -4    1    3    3    0  502 -0.12954460600E+04 -0.78826287470E+03 -0.33235057122E+03  0.15524166223E+04  0.12699999809E+01 0.  1.
</event>
<event>
 5   0  0.1969465E-06  0.3281999E+04  0.7818609E-02  0.8167491E-01
        1   -1    0    0  501    0  0.00000000000E+00  0.00000000000E+00  0.14476847248E+04  0.14476847248E+04  0.50400001928E-02 0. -1.
       -1   -1    0    0    0  501  0.00000000000E+00  0.00000000000E+00 -0.18601282063E+04  0.18601282063E+04  0.50400001928E-02 0.  1.
    10030    2    1    2    0    0  0.00000000000E+00  0.00000000000E+00 -0.41244348150E+03  0.33078129312E+04  0.32819988974E+04 0.  0.
        2    1    3    3  502    0 -0.10925609834E+04 -0.12241817763E+04 -0.18218744503E+03  0.16509096853E+04  0.25500000920E-02 0.  1.
       -2    1    3    3    0  502  0.10925609834E+04  0.12241817763E+04 -0.23025603647E+03  0.16569032459E+04  0.25500000920E-02 0. -1.
</event>
<event>
 5   0  0.5131083E-06  0.3341702E+04  0.7818609E-02  0.8152365E-01
        2   -1    0    0  501    0  0.00000000000E+00  0.00000000000E+00  0.11702400730E+04  0.11702400730E+04  0.25500000920E-02 0.  1.
       -2   -1    0    0    0  501  0.00000000000E+00  0.00000000000E+00 -0.23856156709E+04  0.23856156709E+04  0.25500000920E-02 0. -1.
    10030    2    1    2    0    0  0.00000000000E+00  0.00000000000E+00 -0.12153755979E+04  0.35558557439E+04  0.33417019956E+04 0.  0.
        3    1    3    3  502    0 -0.70013394387E+03 -0.11977745409E+04 -0.15984258141E+04  0.21165576967E+04  0.10100000352E+00 0. -1.
       -3    1    3    3    0  502  0.70013394387E+03  0.11977745409E+04  0.38305021616E+03  0.14392980472E+04  0.10100000352E+00 0.  1.
</event>
<event>
 5   0  0.1886248E-06  0.2807346E+04  0.7818609E-02  0.8300991E-01
        1   -1    0    0  501    0  0.00000000000E+00  0.00000000000E+00  0.11406481926E+04  0.11406481926E+04  0.50400001928E-02 0. -1.
       -1   -1    0    0    0  501  0.00000000000E+00  0.00000000000E+00 -0.17273497562E+04  0.17273497562E+04  0.50400001928E-02 0.  1.
    10030    2    1    2    0    0  0.00000000000E+00  0.00000000000E+00 -0.58670156359E+03  0.28679979488E+04  0.28073463465E+04 0.  0.
        4    1    3    3  502    0  0.12546970329E+04  0.77688750311E+02 -0.93133985281E+03  0.15645113360E+04  0.12699999809E+01 0.  1.
       -4    1    3    3    0  502 -0.12546970329E+04 -0.77688750311E+02  0.34463828923E+03  0.13034866127E+04  0.12699999809E+01 0. -1.
</event>
<event>
 5   0  0.5108810E-06  0.3179950E+04  0.7818609E-02  0.8194133E-01
       -2   -1    0    0    0  501  0.00000000000E+00  0.00000000000E+00  0.18181709428E+04  0.18181709428E+04  0.25500000920E-02 0. -1.
        2   -1    0    0  501    0  0.00000000000E+00  0.00000000000E+00 -0.13904193084E+04  0.13904193084E+04  0.25500000920E-02 0.  1.
    10030    2    1    2    0    0  0.00000000000E+00  0.00000000000E+00  0.42775163433E+03  0.32085902512E+04  0.31799496756E+04 0.  0.
        1    1    3    3  502    0 -0.12891965917E+04 -0.17092704352E+03 -0.70911767869E+03  0.14812467008E+04  0.50400001928E-02 0.  1.
       -1    1    3    3    0  502  0.12891965917E+04  0.17092704352E+03  0.11368693130E+04  0.17273435504E+04  0.50400001928E-02 0. -1.
</event>
<event>
 5   0  0.5347280E-06  0.3222142E+04  0.7818609E-02  0.8182994E-01
       -2   -1    0    0    0  501  0.00000000000E+00  0.00000000000E+00  0.20741812575E+04  0.20741812575E+04  0.25500000920E-02 0.  1.
        2   -1    0    0  501    0  0.00000000000E+00  0.00000000000E+00 -0.12513610032E+04  0.12513610033E+04  0.25500000920E-02 0. -1.
    10030    2    1    2    0    0  0.00000000000E+00  0.00000000000E+00  0.82282025428E+03  0.33255422608E+04  0.32221418587E+04 0.  0.
        2    1    3    3  502    0  0.13040932554E+04  0.23347181316E+03 -0.53473114410E+03  0.14286727066E+04  0.25500000920E-02 0. -1.
       -2    1    3    3    0  502 -0.13040932554E+04 -0.23347181316E+03  0.13575513984E+04  0.18968695542E+04  0.25500000920E-02 0.  1.
</event>
<event>
 5   0  0.1886248E-06  0.3198235E+04  0.7818609E-02  0.8189283E-01
       -1   -1    0    0    0  501  0.00000000000E+00  0.00000000000E+00  0.29914260489E+04  0.29914260489E+04  0.50400001928E-02 0. -1.
        1   -1    0    0  501    0  0.00000000000E+00  0.00000000000E+00 -0.85483537969E+03  0.85483537971E+03  0.50400001928E-02 0.  1.
    10030    2    1    2    0    0  0.00000000000E+00  0.00000000000E+00  0.21365906692E+04  0.38462614286E+04  0.31982350272E+04 0.  0.
        4    1    3    3  502    0 -0.86494776037E+03  0.12704757814E+04  0.15992651694E+04  0.22180834146E+04  0.12699999809E+01 0.  1.
       -4    1    3    3    0  502  0.86494776037E+03 -0.12704757814E+04  0.53732549978E+03  0.16281780139E+04  0.12699999809E+01 0. -1.
</event>
<event>
 5   0  0.1969465E-06  0.3208751E+04  0.7818609E-02  0.8186510E-01
       -1   -1    0    0    0  501  0.00000000000E+00  0.00000000000E+00  0.84509329087E+03  0.84509329088E+03  0.50400001928E-02 0.  1.
        1   -1    0    0  501    0  0.00000000000E+00  0.00000000000E+00 -0.30458411987E+04  0.30458411988E+04  0.50400001928E-02 0. -1.
    10030    2    1    2    0    0  0.00000000000E+00  0.00000000000E+00 -0.22007479079E+04  0.38909344896E+04  0.32087505121E+04 0.  0.
        2    1    3    3  502    0 -0.10803092796E+04  0.89011680696E+02 -0.25346451820E+04  0.27567040860E+04  0.25500000920E-02 0. -1.
       -2    1    3    3    0  502  0.10803092796E+04 -0.89011680696E+02  0.33389727411E+03  0.11342304037E+04  0.25500000920E-02 0.  1.
</event>
<event>
 5   0  0.5121624E-06  0.3167877E+04  0.7818609E-02  0.8197353E-01
       -2   -1    0    0    0  501  0.00000000000E+00  0.00000000000E+00  0.15983178458E+04  0.15983178458E+04  0.25500000920E-02 0. -1.
        2   -1    0    0  501    0  0.00000000000E+00  0.00000000000E+00 -0.15696880590E+04  0.15696880590E+04  0.25500000920E-02 0.  1.
    10030    2    1    2    0    0  0.00000000000E+00  0.00000000000E+00  0.28629786827E+02  0.31680059047E+04  0.31678765361E+04 0.  0.
        4    1    3    3  502    0  0.15140366248E+04  0.10913475990E+03 -0.43807679696E+03  0.15799146148E+04  0.12699999809E+01 0.  1.
       -4    1    3    3    0  502 -0.15140366248E+04 -0.10913475990E+03  0.46670658379E+03  0.15880912900E+04  0.12699999809E+01 0. -1.
</event>
<event>
 5   0  0.5121624E-06  0.3072386E+04  0.7818609E-02  0.8223358E-01
       -2   -1    0    0    0  501  0.00000000000E+00  0.00000000000E+00  0.96188121835E+03  0.96188121835E+03  0.25500000920E-02 0.  1.
        2   -1    0    0  501    0  0.00000000000E+00  0.00000000000E+00 -0.24534092945E+04  0.24534092945E+04  0.25500000920E-02 0. -1.
    10030    2    1    2    0    0  0.00000000000E+00  0.00000000000E+00 -0.14915280761E+04  0.34152905128E+04  0.30723856016E+04 0.  0.
        4    1    3    3  502    0 -0.15203586405E+04  0.97644851071E+00 -0.50122185264E+03  0.16008486211E+04  0.12699999809E+01 0.  1.
       -4    1    3    3    0  502  0.15203586405E+04 -0.97644851071E+00 -0.99030622350E+03  0.18144418917E+04  0.12699999809E+01 0. -1.
</event>
<event>
 5   0  0.1886248E-06  0.2008271E+04  0.7818609E-02  0.8602763E-01
       -1   -1    0    0    0  501  0.00000000000E+00  0.00000000000E+00  0.34621662186E+03  0.34621662189E+03  0.50400001928E-02 0. -1.
        1   -1    0    0  501    0  0.00000000000E+00  0.00000000000E+00 -0.29123046873E+04  0.29123046873E+04  0.50400001928E-02 0.  1.
    10030    2    1    2    0    0  0.00000000000E+00  0.00000000000E+00 -0.25660880654E+04  0.32585213092E+04  0.20082711876E+04 0.  0.
        4    1    3    3  502    0  0.54917002007E+03  0.10797276517E+02  0.80846802981E+02  0.55519556066E+03  0.12699999809E+01 0. -1.
       -4    1    3    3    0  502 -0.54917002007E+03 -0.10797276517E+02 -0.26469348684E+04  0.27033257485E+04  0.12699999809E+01 0.  1.
</event>
<event>
 5   0  0.1969465E-06  0.3181969E+04  0.7818609E-02  0.8193595E-01
        1   -1    0    0  501    0  0.00000000000E+00  0.00000000000E+00  0.21839268697E+04  0.21839268697E+04  0.50400001928E-02 0. -1.
       -1   -1    0    0    0  501  0.00000000000E+00  0.00000000000E+00 -0.11590274467E+04  0.11590274467E+04  0.50400001928E-02 0.  1.
    10030    2    1    2    0    0  0.00000000000E+00  0.00000000000E+00  0.10248994230E+04  0.33429543164E+04  0.31819686884E+04 0.  0.
        2    1    3    3  502    0  0.13223163959E+04 -0.73793758395E+03  0.10251549139E+04  0.18286648480E+04  0.25500000920E-02 0. -1.
       -2    1    3    3    0  502 -0.13223163959E+04  0.73793758395E+03 -0.25549091292E+00  0.15142894684E+04  0.25500000920E-02 0.  1.
</event>
<event>
 5   0  0.5373060E-06  0.2430030E+04  0.7818609E-02  0.8428346E-01
       -2   -1    0    0    0  501  0.00000000000E+00  0.00000000000E+00  0.73668356386E+03  0.73668356387E+03  0.25500000920E-02 0. -1.
        2   -1    0    0  501    0  0.00000000000E+00  0.00000000000E+00 -0.20039292337E+04  0.20039292338E+04  0.25500000920E-02 0.  1.
    10030    2    1    2    0    0  0.00000000000E+00  0.00000000000E+00 -0.12672456699E+04  0.27406127976E+04  0.24300302300E+04 0.  0.
        5    1    3    3  502    0  0.92292488641E+02 -0.37904954432E+03 -0.19313610069E+04  0.19703740481E+04  0.46999998093E+01 0.  1.
       -5    1    3    3    0  502 -0.92292488641E+02  0.37904954432E+03  0.66411533697E+03  0.77023874955E+03  0.46999998093E+01 0. -1.
</event>
<event>
 5   0  0.5373060E-06  0.3247142E+04  0.7818609E-02  0.8176477E-01
       -2   -1    0    0    0  501  0.00000000000E+00  0.00000000000E+00  0.14225969555E+04  0.14225969555E+04  0.25500000920E-02 0. -1.
        2   -1    0    0  501    0  0.00000000000E+00  0.00000000000E+00 -0.18529367658E+04  0.18529367658E+04  0.25500000920E-02 0.  1.
    10030    2    1    2    0    0  0.00000000000E+00  0.00000000000E+00 -0.43033981027E+03  0.32755337213E+04  0.32471416364E+04 0.  0.
        5    1    3    3  502    0 -0.11219857055E+04 -0.92107294326E+03  0.51832816849E+03  0.15413998412E+04  0.46999998093E+01 0.  1.
       -5    1    3    3    0  502  0.11219857055E+04  0.92107294326E+03 -0.94866797876E+03  0.17341338801E+04  0.46999998093E+01 0. -1.
</event>
<event>
 5   0  0.1846850E-06  0.3191903E+04  0.7818609E-02  0.8190959E-01
       -1   -1    0    0    0  501  0.00000000000E+00  0.00000000000E+00  0.18246638678E+04  0.18246638678E+04  0.50400001928E-02 0. -1.
        1   -1    0    0  501    0  0.00000000000E+00  0.00000000000E+00 -0.13959069922E+04  0.13959069922E+04  0.50400001928E-02 0.  1.
    10030    2    1    2    0    0  0.00000000000E+00  0.00000000000E+00  0.42875687561E+03  0.32205708601E+04  0.31919029131E+04 0.  0.
        5    1    3    3  502    0 -0.12359341330E+04  0.72922800247E+03  0.91902923116E+03  0.17040960884E+04  0.46999998093E+01 0. -1.
       -5    1    3    3    0  502  0.12359341330E+04 -0.72922800247E+03 -0.49027235555E+03  0.15164747717E+04  0.46999998093E+01 0.  1.
</event>
<event>
 5   0  0.5347280E-06  0.3292429E+04  0.7818609E-02  0.8164825E-01
        2   -1    0    0  501    0  0.00000000000E+00  0.00000000000E+00  0.11916039167E+04  0.11916039167E+04  0.25500000920E-02 0. -1.
       -2   -1    0    0    0  501  0.00000000000E+00  0.00000000000E+00 -0.22742636115E+04  0.22742636115E+04  0.25500000920E-02 0.  1.
    10030    2    1    2    0    0  0.00000000000E+00  0.00000000000E+00 -0.10826596948E+04  0.34658675282E+04  0.32924285426E+04 0.  0.
        2    1    3    3  502    0  0.92720835461E+03  0.12278093163E+04  0.74995333691E+02  0.15404075273E+04  0.25500000920E-02 0. -1.
       -2    1    3    3    0  502 -0.92720835461E+03 -0.12278093163E+04 -0.11576550285E+04  0.19254600009E+04  0.25500000920E-02 0.  1.
</event>
<event>
 5   0  0.1886248E-06  0.3188377E+04  0.7818609E-02  0.8191893E-01
       -1   -1    0    0    0  501  0.00000000000E+00  0.00000000000E+00  0.11712247932E+04  0.11712247932E+04  0.50400001928E-02 0.  1.
        1   -1    0    0  501    0  0.00000000000E+00  0.00000000000E+00 -0.21698973881E+04  0.21698973882E+04  0.50400001928E-02 0. -1.
    10030    2    1    2    0    0  0.00000000000E+00  0.00000000000E+00 -0.99867259499E+03  0.33411221813E+04  0.31883774053E+04 0.  0.
        4    1    3    3  502    0  0.62292752420E+03  0.69791128558E+03  0.85336362795E+03  0.12662345586E+04  0.12699999809E+01 0.  1.
       -4    1    3    3    0  502 -0.62292752420E+03 -0.69791128558E+03 -0.18520362229E+04  0.20748876227E+04  0.12699999809E+01 0. -1.
</event>
<event>
 5   0  0.5131083E-06  0.3108373E+04  0.7818609E-02  0.8213444E-01
       -2   -1    0    0    0  501  0.00000000000E+00  0.00000000000E+00  0.14237400760E+04  0.14237400760E+04  0.25500000920E-02 0. -1.
        2   -1    0    0  501    0  0.00000000000E+00  0.00000000000E+00 -0.16965850743E+04  0.16965850743E+04  0.25500000920E-02 0.  1.
    10030    2    1    2    0    0  0.00000000000E+00  0.00000000000E+00 -0.27284499822E+03  0.31203251503E+04  0.31083733126E+04 0.  0.
        3    1    3    3  502    0 -0.26427495852E+03  0.33770999999E+03 -0.16360228154E+04  0.16912894372E+04  0.10100000352E+00 0.  1.
       -3    1    3    3    0  502  0.26427495852E+03 -0.33770999999E+03  0.13631778172E+04  0.14290357131E+04  0.10100000352E+00 0. -1.
</event>
<event>
 5   0  0.5373060E-06  0.3043740E+04  0.7818609E-02  0.8231350E-01
        2   -1    0    0  501    0  0.00000000000E+00  0.00000000000E+00  0.20106805755E+04  0.20106805755E+04  0.25500000920E-02 0. -1.
       -2   -1    0    0    0  501  0.00000000000E+00  0.00000000000E+00 -0.11518930270E+04  0.11518930270E+04  0.25500000920E-02 0.  1.
    10030    2    1    2    0    0  0.00000000000E+00  0.00000000000E+00  0.85878754854E+03  0.31625736024E+04  0.30437404189E+04 0.  0.
        5    1    3    3  502    0 -0.47683192342E+03  0.88434298848E+03  0.16171034106E+04  0.19038058554E+04  0.46999998093E+01 0. -1.
       -5    1    3    3    0  502  0.47683192342E+03 -0.88434298848E+03 -0.75831586203E+03  0.12587677471E+04  0.46999998093E+01 0.  1.
</event>
<event>
 5   0  0.5347280E-06  0.3190809E+04  0.7818609E-02  0.8191249E-01
        2   -1    0    0  501    0  0.00000000000E+00  0.00000000000E+00  0.33126923184E+04  0.33126923184E+04  0.25500000920E-02 0. -1.
       -2   -1    0    0    0  501  0.00000000000E+00  0.00000000000E+00 -0.76835274395E+03  0.76835274396E+03  0.25500000920E-02 0.  1.
    10030    2    1    2    0    0  0.00000000000E+00  0.00000000000E+00  0.25443395744E+04  0.40810450624E+04  0.31908094476E+04 0.  0.
        2    1    3    3  502    0 -0.79602650371E+01 -0.17282531908E+03  0.33006589500E+04  0.33051900794E+04  0.25500000920E-02 0. -1.
       -2    1    3    3    0  502  0.79602650371E+01  0.17282531908E+03 -0.75631937555E+03  0.77585498296E+03  0.25500000920E-02 0.  1.
</event>
<event>
 5   0  0.1881144E-06  0.3196839E+04  0.7818609E-02  0.8189653E-01
        1   -1    0    0  501    0  0.00000000000E+00  0.00000000000E+00  0.24986042048E+04  0.24986042048E+04  0.50400001928E-02 0.  1.
       -1   -1    0    0    0  501  0.00000000000E+00  0.00000000000E+00 -0.10225487446E+04  0.10225487446E+04  0.50400001928E-02 0. -1.
    10030    2    1    2    0    0  0.00000000000E+00  0.00000000000E+00  0.14760554602E+04  0.35211529494E+04  0.31968388091E+04 0.  0.
        3    1    3    3  502    0  0.49191093950E+03 -0.92956233001E+03 -0.58778038356E+03  0.12048021776E+04  0.10100000352E+00 0. -1.
       -3    1    3    3    0  502 -0.49191093950E+03  0.92956233001E+03  0.20638358437E+04  0.23163507718E+04  0.10100000352E+00 0.  1.
</event>
<event>
 5   0  0.5347280E-06  0.3174316E+04  0.7818609E-02  0.8195633E-01
        2   -1    0    0  501    0  0.00000000000E+00  0.00000000000E+00  0.29667448889E+04  0.29667448889E+04  0.25500000920E-02 0. -1.
       -2   -1    0    0    0  501  0.00000000000E+00  0.00000000000E+00 -0.84910245395E+03  0.84910245395E+03  0.25500000920E-02 0.  1.
    10030    2    1    2    0    0  0.00000000000E+00  0.00000000000E+00  0.21176424349E+04  0.38158473428E+04  0.31743159045E+04 0.  0.
        2    1    3    3  502    0  0.12758760667E+04 -0.20143702957E+02 -0.75750975954E+02  0.12782815483E+04  0.25500000920E-02 0.  1.
       -2    1    3    3    0  502 -0.12758760667E+04  0.20143702957E+02  0.21933934109E+04  0.25375657945E+04  0.25500000920E-02 0. -1.
</event>
<event>
 5   0  0.1846850E-06  0.3130129E+04  0.7818609E-02  0.8207518E-01
        1   -1    0    0  501    0  0.00000000000E+00  0.00000000000E+00  0.15202367123E+04  0.15202367123E+04  0.50400001928E-02 0. -1.
       -1   -1    0    0    0  501  0.00000000000E+00  0.00000000000E+00 -0.16112140366E+04  0.16112140366E+04  0.50400001928E-02 0.  1.
    10030    2    1    2    0    0  0.00000000000E+00  0.00000000000E+00 -0.90977324289E+02  0.31314507489E+04  0.31301288981E+04 0.  0.
        5    1    3    3  502    0 -0.10879460613E+04 -0.77638834761E+03  0.76910278590E+03  0.15420592349E+04  0.46999998093E+01 0. -1.
       -5    1    3    3    0  502  0.10879460613E+04  0.77638834761E+03 -0.86008011019E+03  0.15893915140E+04  0.46999998093E+01 0.  1.
</event>
<event>
 5   0  0.1886248E-06  0.3241443E+04  0.7818609E-02  0.8177957E-01
       -1   -1    0    0    0  501  0.00000000000E+00  0.00000000000E+00  0.14973184913E+04  0.14973184913E+04  0.50400001928E-02 0. -1.
        1   -1    0    0  501    0  0.00000000000E+00  0.00000000000E+00 -0.17542948351E+04  0.17542948351E+04  0.50400001928E-02 0.  1.
    10030    2    1    2    0    0  0.00000000000E+00  0.00000000000E+00 -0.25697634380E+03  0.32516133263E+04  0.32414429476E+04 0.  0.
        4    1    3    3  502    0 -0.14541897014E+04 -0.16052149575E+03  0.57105316379E+03  0.15705216226E+04  0.12699999809E+01 0.  1.
       -4    1    3    3    0  502  0.14541897014E+04  0.16052149575E+03 -0.82802950759E+03  0.16810917038E+04  0.12699999809E+01 0. -1.
</event>
<event>
 5   0  0.5131083E-06  0.3184154E+04  0.7818609E-02  0.8193015E-01
        2   -1    0    0  501    0  0.00000000000E+00  0.00000000000E+00  0.17330758340E+04  0.17330758340E+04  0.25500000920E-02 0. -1.
       -2   -1    0    0    0  501  0.00000000000E+00  0.00000000000E+00 -0.14625495708E+04  0.14625495708E+04  0.25500000920E-02 0.  1.
    10030    2    1    2    0    0  0.00000000000E+00  0.00000000000E+00  0.27052626322E+03  0.31956254048E+04  0.31841540900E+04 0.  0.
        3    1    3    3  502    0  0.73646652490E+03  0.70386373588E+03 -0.10926241557E+04  0.14938656756E+04  0.10100000352E+00 0.  1.
       -3    1    3    3    0  502 -0.73646652490E+03 -0.70386373588E+03  0.13631504190E+04  0.17017597292E+04  0.10100000352E+00 0. -1.
</event>
<event>
 5   0  0.1881144E-06  0.3199299E+04  0.7818609E-02  0.8189002E-01
       -1   -1    0    0    0  501  0.00000000000E+00  0.00000000000E+00  0.14941665606E+04  0.14941665606E+04  0.50400001928E-02 0.  1.
        1   -1    0    0  501    0  0.00000000000E+00  0.00000000000E+00 -0.17125788699E+04  0.17125788699E+04  0.50400001928E-02 0. -1.
    10030    2    1    2    0    0  0.00000000000E+00  0.00000000000E+00 -0.21841230931E+03  0.32067454305E+04  0.31992987230E+04 0.  0.
        3    1    3    3  502    0 -0.91485836704E+03 -0.21075829536E+03  0.11889892675E+04  0.15149522696E+04  0.10100000352E+00 0.  1.
       -3    1    3    3    0  502  0.91485836704E+03  0.21075829536E+03 -0.14074015768E+04  0.16917931609E+04  0.10100000352E+00 0. -1.
</event>
<event>
 5   0  0.1969465E-06  0.2528283E+04  0.7818609E-02  0.8392978E-01
       -1   -1    0    0    0  501  0.00000000000E+00  0.00000000000E+00  0.12098179184E+04  0.12098179184E+04  0.50400001928E-02 0. -1.
        1   -1    0    0  501    0  0.00000000000E+00  0.00000000000E+00 -0.13209040083E+04  0.13209040083E+04  0.50400001928E-02 0.  1.
    10030    2    1    2    0    0  0.00000000000E+00  0.00000000000E+00 -0.11108608990E+03  0.25307219267E+04  0.25282826881E+04 0.  0.
        2    1    3    3  502    0 -0.41515926378E+03  0.25495615003E+02  0.11393616114E+04  0.12129105994E+04  0.25500000920E-02 0. -1.
       -2    1    3    3    0  502  0.41515926378E+03 -0.25495615003E+02 -0.12504477013E+04  0.13178113273E+04  0.25500000920E-02 0.  1.
</event>
<event>
 5   0  0.1969465E-06  0.3182570E+04  0.7818609E-02  0.8193436E-01
        1   -1    0    0  501    0  0.00000000000E+00  0.00000000000E+00  0.18142028524E+04  0.18142028524E+04  0.50400001928E-02 0. -1.
       -1   -1    0    0    0  501  0.00000000000E+00  0.00000000000E+00 -0.13957575943E+04  0.13957575943E+04  0.50400001928E-02 0.  1.
    10030    2    1    2    0    0  0.00000000000E+00  0.00000000000E+00  0.41844525811E+03  0.32099604467E+04  0.31825696591E+04 0.  0.
        2    1    3    3  502    0 -0.14324159759E+04 -0.62448023967E+03  0.51247005074E+03  0.16445110673E+04  0.25500000920E-02 0. -1.
       -2    1    3    3    0  502  0.14324159759E+04  0.62448023967E+03 -0.94024792629E+02  0.15654493793E+04  0.25500000920E-02 0.  1.
</event>
<event>
 5   0  0.5121624E-06  0.3193316E+04  0.7818609E-02  0.8190585E-01
        2   -1    0    0  501    0  0.00000000000E+00  0.00000000000E+00  0.24841124663E+04  0.24841124663E+04  0.25500000920E-02 0.  1.
       -2   -1    0    0    0  501  0.00000000000E+00  0.00000000000E+00 -0.10262488186E+04  0.10262488186E+04  0.25500000920E-02 0. -1.
    10030    2    1    2    0    0  0.00000000000E+00  0.00000000000E+00  0.14578636476E+04  0.35103612849E+04  0.31933164477E+04 0.  0.
        4    1    3    3  502    0 -0.10819610272E+04 -0.10856017820E+04  0.12207246693E+04  0.19594236970E+04  0.12699999809E+01 0. -1.
       -4    1    3    3    0  502  0.10819610272E+04  0.10856017820E+04  0.23713897833E+03  0.15509375878E+04  0.12699999809E+01 0.  1.
</event>
<event>
 5   0  0.1977015E-06  0.3231516E+04  0.7818609E-02  0.8180543E-01
       -1   -1    0    0    0  501  0.00000000000E+00  0.00000000000E+00  0.18462595733E+04  0.18462595733E+04  0.50400001928E-02 0.  1.
        1   -1    0    0  501    0  0.00000000000E+00  0.00000000000E+00 -0.14140336955E+04  0.14140336955E+04  0.50400001928E-02 0. -1.
    10030    2    1    2    0    0  0.00000000000E+00  0.00000000000E+00  0.43222587776E+03  0.32602932688E+04  0.32315155870E+04 0.  0.
        1    1    3    3  502    0  0.78675144728E+02  0.97380150474E+03  0.15145055299E+04  0.18022780444E+04  0.50400001928E-02 0.  1.
       -1    1    3    3    0  502 -0.78675144728E+02 -0.97380150474E+03 -0.10822796522E+04  0.14580152244E+04  0.50400001928E-02 0. -1.
</event>
<event>
 5   0  0.1977015E-06  0.3257632E+04  0.7818609E-02  0.8173760E-01
        1   -1    0    0  501    0  0.00000000000E+00  0.00000000000E+00  0.16547718893E+04  0.16547718893E+04  0.50400001928E-02 0.  1.
       -1   -1    0    0    0  501  0.00000000000E+00  0.00000000000E+00 -0.16032671921E+04  0.16032671921E+04  0.50400001928E-02 0. -1.
    10030    2    1    2    0    0  0.00000000000E+00  0.00000000000E+00  0.51504697220E+02  0.32580390814E+04  0.32576319501E+04 0.  0.
        1    1    3    3  502    0 -0.94791465310E+03 -0.93305916392E+03 -0.91452465151E+03  0.16141551757E+04  0.50400001928E-02 0.  1.
       -1    1    3    3    0  502  0.94791465310E+03  0.93305916392E+03  0.96602934873E+03  0.16438839057E+04  0.50400001928E-02 0. -1.
</event>
<event>
 5   0  0.5373060E-06  0.3208869E+04  0.7818609E-02  0.8186479E-01
        2   -1    0    0  501    0  0.00000000000E+00  0.00000000000E+00  0.15568904516E+04  0.15568904516E+04  0.25500000920E-02 0. -1.
       -2   -1    0    0    0  501  0.00000000000E+00  0.00000000000E+00 -0.16534308045E+04  0.16534308045E+04  0.25500000920E-02 0.  1.
    10030    2    1    2    0    0  0.00000000000E+00  0.00000000000E+00 -0.96540352885E+02  0.32103212561E+04  0.32088693534E+04 0.  0.
        5    1    3    3  502    0 -0.12185375893E+04 -0.14883506248E+03 -0.10817926836E+04  0.16362405791E+04  0.46999998093E+01 0.  1.
       -5    1    3    3    0  502  0.12185375893E+04  0.14883506248E+03  0.98525233071E+03  0.15740806770E+04  0.46999998093E+01 0. -1.
</event>
<event>
 5   0  0.5108810E-06  0.3227214E+04  0.7818609E-02  0.8181667E-01
       -2   -1    0    0    0  501  0.00000000000E+00  0.00000000000E+00  0.15264715872E+04  0.15264715872E+04  0.25500000920E-02 0. -1.
        2   -1    0    0  501    0  0.00000000000E+00  0.00000000000E+00 -0.17057165878E+04  0.17057165878E+04  0.25500000920E-02 0.  1.
    10030    2    1    2    0    0  0.00000000000E+00  0.00000000000E+00 -0.17924500058E+03  0.32321881750E+04  0.32272142210E+04 0.  0.
        1    1    3    3  502    0  0.42776285553E+02  0.10020707926E+04  0.11763479179E+04  0.15458881292E+04  0.50400001928E-02 0. -1.
       -1    1    3    3    0  502 -0.42776285553E+02 -0.10020707926E+04 -0.13555929185E+04  0.16863000458E+04  0.50400001928E-02 0.  1.
</event>
<event>
 5   0  0.5108810E-06  0.3125611E+04  0.7818609E-02  0.8208744E-01
        2   -1    0    0  501    0  0.00000000000E+00  0.00000000000E+00  0.26111980145E+04  0.26111980145E+04  0.25500000920E-02 0. -1.
       -2   -1    0    0    0  501  0.00000000000E+00  0.00000000000E+00 -0.93534108655E+03  0.93534108656E+03  0.25500000920E-02 0.  1.
    10030    2    1    2    0    0  0.00000000000E+00  0.00000000000E+00  0.16758569279E+04  0.35465391010E+04  0.31256108447E+04 0.  0.
        1    1    3    3  502    0  0.39252083059E+03  0.43680404678E+03 -0.80538282712E+03  0.99675065888E+03  0.50400001928E-02 0.  1.
       -1    1    3    3    0  502 -0.39252083059E+03 -0.43680404678E+03  0.24812397550E+04  0.25497884421E+04  0.50400001928E-02 0. -1.
</event>
<event>
 5   0  0.1881144E-06  0.3257251E+04  0.7818609E-02  0.8173859E-01
        1   -1    0    0  501    0  0.00000000000E+00  0.00000000000E+00  0.21130853028E+04  0.21130853028E+04  0.50400001928E-02 0. -1.
       -1   -1    0    0    0  501  0.00000000000E+00  0.00000000000E+00 -0.12552364380E+04  0.12552364380E+04  0.50400001928E-02 0.  1.
    10030    2    1    2    0    0  0.00000000000E+00  0.00000000000E+00  0.85784886474E+03  0.33683217408E+04  0.32572513988E+04 0.  0.
        3    1    3    3  502    0  0.26913700348E+03  0.15323582438E+04  0.92686788103E+03  0.18109778003E+04  0.10100000352E+00 0. -1.
       -3    1    3    3    0  502 -0.26913700348E+03 -0.15323582438E+04 -0.69019016285E+02  0.15573439405E+04  0.10100000352E+00 0.  1.
</event>
<event>
 5   0  0.5373060E-06  0.3150089E+04  0.7818609E-02  0.8202124E-01
       -2   -1    0    0    0  501  0.00000000000E+00  0.00000000000E+00  0.22254288624E+04  0.22254288624E+04  0.25500000920E-02 0. -1.
        2   -1    0    0  501    0  0.00000000000E+00  0.00000000000E+00 -0.11147354798E+04  0.11147354798E+04  0.25500000920E-02 0.  1.
    10030    2    1    2    0    0  0.00000000000E+00  0.00000000000E+00  0.11106933826E+04  0.33401643423E+04  0.31500885771E+04 0.  0.
        5    1    3    3  502    0  0.47949846083E+03  0.14987875776E+04  0.62615519748E+03  0.16936278806E+04  0.46999998093E+01 0. -1.
       -5    1    3    3    0  502 -0.47949846083E+03 -0.14987875776E+04  0.48453818511E+03  0.16465364617E+04  0.46999998093E+01 0.  1.
</event>
<event>
 5   0  0.5347280E-06  0.3188762E+04  0.7818609E-02  0.8191792E-01
        2   -1    0    0  501    0  0.00000000000E+00  0.00000000000E+00  0.20259609828E+04  0.20259609828E+04  0.25500000920E-02 0. -1.
       -2   -1    0    0    0  501  0.00000000000E+00  0.00000000000E+00 -0.12547378869E+04  0.12547378869E+04  0.25500000920E-02 0.  1.
    10030    2    1    2    0    0  0.00000000000E+00  0.00000000000E+00  0.77122309587E+03  0.32806988697E+04  0.31887615167E+04 0.  0.
        2    1    3    3  502    0  0.72614232274E+03  0.99206031175E+03  0.14300574654E+04  0.18858766368E+04  0.25500000920E-02 0. -1.
       -2    1    3    3    0  502 -0.72614232274E+03 -0.99206031175E+03 -0.65883436950E+03  0.13948222329E+04  0.25500000920E-02 0.  1.
</event>
<event>
 5   0  0.1846850E-06  0.2854660E+04  0.7818609E-02  0.8286497E-01
        1   -1    0    0  501    0  0.00000000000E+00  0.00000000000E+00  0.22043173050E+04  0.22043173050E+04  0.50400001928E-02 0. -1.
       -1   -1    0    0    0  501  0.00000000000E+00  0.00000000000E+00 -0.92421854435E+03  0.92421854436E+03  0.50400001928E-02 0.  1.
    10030    2    1    2    0    0  0.00000000000E+00  0.00000000000E+00  0.12800987606E+04  0.31285358494E+04  0.28546600014E+04 0.  0.
        5    1    3    3  502    0  0.54906273273E+02 -0.10364634348E+04  0.17138343388E+04  0.20036270565E+04  0.46999998093E+01 0. -1.
       -5    1    3    3    0  502 -0.54906273273E+02  0.10364634348E+04 -0.43373557818E+03  0.11249087929E+04  0.46999998093E+01 0.  1.
</event>
<event>
 5   0  0.5108810E-06  0.2898784E+04  0.7818609E-02  0.8273239E-01
        2   -1    0    0  501    0  0.00000000000E+00  0.00000000000E+00  0.20853389915E+04  0.20853389915E+04  0.25500000920E-02 0. -1.
       -2   -1    0    0    0  501  0.00000000000E+00  0.00000000000E+00 -0.10073837264E+04  0.10073837264E+04  0.25500000920E-02 0.  1.
    10030    2    1    2    0    0  0.00000000000E+00  0.00000000000E+00  0.10779552651E+04  0.30927227180E+04  0.28987835822E+04 0.  0.
        1    1    3    3  502    0 -0.54569595712E+03 -0.10709453439E+04  0.14031225180E+04  0.18475553599E+04  0.50400001928E-02 0. -1.
       -1    1    3    3    0  502  0.54569595712E+03  0.10709453439E+04 -0.32516725290E+03  0.12451673581E+04  0.50400001928E-02 0.  1.
</event>
<event>
 5   0  0.5121624E-06  0.2027136E+04  0.7818609E-02  0.8594038E-01
       -2   -1    0    0    0  501  0.00000000000E+00  0.00000000000E+00  0.43806044753E+03  0.43806044753E+03  0.25500000920E-02 0.  1.
        2   -1    0    0  501    0  0.00000000000E+00  0.00000000000E+00 -0.23451550193E+04  0.23451550193E+04  0.25500000920E-02 0. -1.
    10030    2    1    2    0    0  0.00000000000E+00  0.00000000000E+00 -0.19070945718E+04  0.27832154669E+04  0.20271355725E+04 0.  0.
        4    1    3    3  502    0  0.60033540608E+03 -0.48981695033E+03 -0.56376078669E+02  0.77685463233E+03  0.12699999809E+01 0.  1.
       -4    1    3    3    0  502 -0.60033540608E+03  0.48981695033E+03 -0.18507184931E+04  0.20063608345E+04  0.12699999809E+01 0. -1.
</event>
<event>
 5   0  0.5108810E-06  0.3281901E+04  0.7818609E-02  0.8167516E-01
       -2   -1    0    0    0  501  0.00000000000E+00  0.00000000000E+00  0.93515627894E+03  0.93515627895E+03  0.25500000920E-02 0.  1.
        2   -1    0    0  501    0  0.00000000000E+00  0.00000000000E+00 -0.28794312102E+04  0.28794312102E+04  0.25500000920E-02 0. -1.
    10030    2    1    2    0    0  0.00000000000E+00  0.00000000000E+00 -0.19442749313E+04  0.38145874892E+04  0.32819007761E+04 0.  0.
        1    1    3    3  502    0 -0.66179693642E+03  0.55893530686E+03 -0.25920222450E+04  0.27329403911E+04  0.50400001928E-02 0. -1.
       -1    1    3    3    0  502  0.66179693642E+03 -0.55893530686E+03  0.64774731377E+03  0.10816470981E+04  0.50400001928E-02 0.  1.
</event>
<event>
 5   0  0.5347280E-06  0.3065914E+04  0.7818609E-02  0.8225155E-01
       -2   -1    0    0    0  501  0.00000000000E+00  0.00000000000E+00  0.12907366965E+04  0.12907366965E+04  0.25500000920E-02 0.  1.
        2   -1    0    0  501    0  0.00000000000E+00  0.00000000000E+00 -0.18206328863E+04  0.18206328864E+04  0.25500000920E-02 0. -1.
    10030    2    1    2    0    0  0.00000000000E+00  0.00000000000E+00 -0.52989618988E+03  0.31113695828E+04  0.30659143349E+04 0.  0.
        2    1    3    3  502    0 -0.36386721601E+03  0.48345197395E+03  0.11644200124E+04  0.13122496437E+04  0.25500000920E-02 0.  1.
       -2    1    3    3    0  502  0.36386721601E+03 -0.48345197395E+03 -0.16943162023E+04  0.17991199391E+04  0.25500000920E-02 0. -1.
</event>
<event>
 5   0  0.1969465E-06  0.3139624E+04  0.7818609E-02  0.8204947E-01
       -1   -1    0    0    0  501  0.00000000000E+00  0.00000000000E+00  0.15958965939E+04  0.15958965939E+04  0.50400001928E-02 0.  1.
        1   -1    0    0  501    0  0.00000000000E+00  0.00000000000E+00 -0.15441541709E+04  0.15441541709E+04  0.50400001928E-02 0. -1.
    10030    2    1    2    0    0  0.00000000000E+00  0.00000000000E+00  0.51742423008E+02  0.31400507648E+04  0.31396244245E+04 0.  0.
        2    1    3    3  502    0 -0.97240319585E+02  0.32319614246E+03  0.15591804876E+04  0.15952915781E+04  0.25500000920E-02 0.  1.
       -2    1    3    3    0  502  0.97240319585E+02 -0.32319614246E+03 -0.15074380646E+04  0.15447591867E+04  0.25500000920E-02 0. -1.
</event>
<event>
 5   0  0.1969465E-06  0.3203618E+04  0.7818609E-02  0.8187862E-01
       -1   -1    0    0    0  501  0.00000000000E+00  0.00000000000E+00  0.12382753715E+04  0.12382753715E+04  0.50400001928E-02 0.  1.
        1   -1    0    0  501    0  0.00000000000E+00  0.00000000000E+00 -0.20720688260E+04  0.20720688260E+04  0.50400001928E-02 0. -1.
    10030    2    1    2    0    0  0.00000000000E+00  0.00000000000E+00 -0.83379345445E+03  0.33103441975E+04  0.32036178269E+04 0.  0.
        2    1    3    3  502    0 -0.59107571844E+03  0.13083633303E+04 -0.11509185150E+04  0.18400539496E+04  0.25500000920E-02 0. -1.
       -2    1    3    3    0  502  0.59107571844E+03 -0.13083633303E+04  0.31712506057E+03  0.14702902479E+04  0.25500000920E-02 0.  1.
</event>
<event>
 5   0  0.5108810E-06  0.3150973E+04  0.7818609E-02  0.8201886E-01
        2   -1    0    0  501    0  0.00000000000E+00  0.00000000000E+00  0.16568693326E+04  0.16568693326E+04  0.25500000920E-02 0. -1.
       -2   -1    0    0    0  501  0.00000000000E+00  0.00000000000E+00 -0.14981010470E+04  0.14981010470E+04  0.25500000920E-02 0.  1.
    10030    2    1    2    0    0  0.00000000000E+00  0.00000000000E+00  0.15876828561E+03  0.31549703797E+04  0.31509729812E+04 0.  0.
        1    1    3    3  502    0  0.11314057652E+04 -0.36302788793E+03 -0.95647624364E+03  0.15253573541E+04  0.50400001928E-02 0.  1.
       -1    1    3    3    0  502 -0.11314057652E+04  0.36302788793E+03  0.11152445293E+04  0.16296130256E+04  0.50400001928E-02 0. -1.
</event>
<event>
 5   0  0.1977015E-06  0.3219182E+04  0.7818609E-02  0.8183769E-01
        1   -1    0    0  501    0  0.00000000000E+00  0.00000000000E+00  0.15246674003E+04  0.15246674003E+04  0.50400001928E-02 0.  1.
       -1   -1    0    0    0  501  0.00000000000E+00  0.00000000000E+00 -0.16992452312E+04  0.16992452312E+04  0.50400001928E-02 0. -1.
    10030    2    1    2    0    0  0.00000000000E+00  0.00000000000E+00 -0.17457783086E+03  0.32239126315E+04  0.32191823863E+04 0.  0.
        1    1    3    3  502    0 -0.86249235689E+03 -0.61472428561E+03 -0.13010949376E+04  0.16776850270E+04  0.50400001928E-02 0. -1.
       -1    1    3    3    0  502  0.86249235689E+03  0.61472428561E+03  0.11265171068E+04  0.15462276045E+04  0.50400001928E-02 0.  1.
</event>
<event>
 5   0  0.1846850E-06  0.3033165E+04  0.7818609E-02  0.8234323E-01
       -1   -1    0    0    0  501  0.00000000000E+00  0.00000000000E+00  0.28431980627E+04  0.28431980627E+04  0.50400001928E-02 0.  1.
        1   -1    0    0  501    0  0.00000000000E+00  0.00000000000E+00 -0.80895629817E+03  0.80895629819E+03  0.50400001928E-02 0. -1.
    10030    2    1    2    0    0  0.00000000000E+00  0.00000000000E+00  0.20342417645E+04  0.36521543609E+04  0.30331653300E+04 0.  0.
        5    1    3    3  502    0  0.14279654003E+04  0.50654266508E+03  0.10963543602E+04  0.18702100494E+04  0.46999998093E+01 0. -1.
       -5    1    3    3    0  502 -0.14279654003E+04 -0.50654266508E+03  0.93788740437E+03  0.17819443115E+04  0.46999998093E+01 0.  1.
</event>
<event>
 5   0  0.5108810E-06  0.3118744E+04  0.7818609E-02  0.8210613E-01
        2   -1    0    0  501    0  0.00000000000E+00  0.00000000000E+00  0.18570866335E+04  0.18570866335E+04  0.25500000920E-02 0. -1.
       -2   -1    0    0    0  501  0.00000000000E+00  0.00000000000E+00 -0.13093845369E+04  0.13093845369E+04  0.25500000920E-02 0.  1.
    10030    2    1    2    0    0  0.00000000000E+00  0.00000000000E+00  0.54770209659E+03  0.31664711703E+04  0.31187436711E+04 0.  0.
        1    1    3    3  502    0 -0.10315974058E+04  0.71258703708E+03 -0.66752033417E+03  0.14204072971E+04  0.50400001928E-02 0.  1.
       -1    1    3    3    0  502  0.10315974058E+04 -0.71258703708E+03  0.12152224308E+04  0.17460638732E+04  0.50400001928E-02 0. -1.
</event>
<event>
 5   0  0.1886248E-06  0.3049852E+04  0.7818609E-02  0.8229637E-01
        1   -1    0    0  501    0  0.00000000000E+00  0.00000000000E+00  0.10181444459E+04  0.10181444459E+04  0.50400001928E-02 0.  1.
       -1   -1    0    0    0  501  0.00000000000E+00  0.00000000000E+00 -0.22839586773E+04  0.22839586773E+04  0.50400001928E-02 0. -1.
    10030    2    1    2    0    0  0.00000000000E+00  0.00000000000E+00 -0.12658142314E+04  0.33021031232E+04  0.30498523518E+04 0.  0.
        4    1    3    3  502    0  0.12088413940E+04 -0.69111521496E+03 -0.13059835068E+04  0.19090658158E+04  0.12699999809E+01 0. -1.
       -4    1    3    3    0  502 -0.12088413940E+04  0.69111521496E+03  0.40169275448E+02  0.13930373074E+04  0.12699999809E+01 0.  1.
</event>
<event>
 5   0  0.5347280E-06  0.3152352E+04  0.7818609E-02  0.8201516E-01
       -2   -1    0    0    0  501  0.00000000000E+00  0.00000000000E+00  0.18883210128E+04  0.18883210128E+04  0.25500000920E-02 0.  1.
        2   -1    0    0  501    0  0.00000000000E+00  0.00000000000E+00 -0.13156292312E+04  0.13156292312E+04  0.25500000920E-02 0. -1.
    10030    2    1    2    0    0  0.00000000000E+00  0.00000000000E+00  0.57269178161E+03  0.32039502441E+04  0.31523517078E+04 0.  0.
        2    1    3    3  502    0 -0.28470099718E+03 -0.11225672385E+04  0.13730134857E+04  0.17962120962E+04  0.25500000920E-02 0.  1.
       -2    1    3    3    0  502  0.28470099718E+03  0.11225672385E+04 -0.80032170406E+03  0.14077381478E+04  0.25500000920E-02 0. -1.
</event>
<event>
 5   0  0.1886248E-06  0.3229093E+04  0.7818609E-02  0.8181176E-01
       -1   -1    0    0    0  501  0.00000000000E+00  0.00000000000E+00  0.10992212169E+04  0.10992212169E+04  0.50400001928E-02 0. -1.
        1   -1    0    0  501    0  0.00000000000E+00  0.00000000000E+00 -0.23714604712E+04  0.23714604712E+04  0.50400001928E-02 0.  1.
    10030    2    1    2    0    0  0.00000000000E+00  0.00000000000E+00 -0.12722392544E+04  0.34706816881E+04  0.32290925444E+04 0.  0.
        4    1    3    3  502    0 -0.10549342115E+04  0.80176100924E+03 -0.16276639285E+04  0.20988088011E+04  0.12699999809E+01 0.  1.
       -4    1    3    3    0  502  0.10549342115E+04 -0.80176100924E+03  0.35542467412E+03  0.13718728871E+04  0.12699999809E+01 0. -1.
</event>
<event>
 5   0  0.1977015E-06  0.3217020E+04  0.7818609E-02  0.8184337E-01
       -1   -1    0    0    0  501  0.00000000000E+00  0.00000000000E+00  0.16453416082E+04  0.16453416082E+04  0.50400001928E-02 0.  1.
        1   -1    0    0  501    0  0.00000000000E+00  0.00000000000E+00 -0.15725030281E+04  0.15725030282E+04  0.50400001928E-02 0. -1.
    10030    2    1    2    0    0  0.00000000000E+00  0.00000000000E+00  0.72838580090E+02  0.32178446364E+04  0.32170201500E+04 0.  0.
        1    1    3    3  502    0  0.33127740839E+03  0.14001266561E+04 -0.68293488468E+03  0.15926391403E+04  0.50400001928E-02 0. -1.
       -1    1    3    3    0  502 -0.33127740839E+03 -0.14001266561E+04  0.75577346477E+03  0.16252054961E+04  0.50400001928E-02 0.  1.
</event>
<event>
 5   0  0.5373060E-06  0.3361494E+04  0.7818609E-02  0.8147422E-01
       -2   -1    0    0    0  501  0.00000000000E+00  0.00000000000E+00  0.17663624969E+04  0.17663624969E+04  0.25500000920E-02 0.  1.
        2   -1    0    0  501    0  0.00000000000E+00  0.00000000000E+00 -0.15992815624E+04  0.15992815624E+04  0.25500000920E-02 0. -1.
    10030    2    1    2    0    0  0.00000000000E+00  0.00000000000E+00  0.16708093459E+03  0.33656440593E+04  0.33614942950E+04 0.  0.
        5    1    3    3  502    0 -0.84948538504E+03 -0.85022356756E+03  0.12598880432E+04  0.17412195455E+04  0.46999998093E+01 0.  1.
       -5    1    3    3    0  502  0.84948538504E+03  0.85022356756E+03 -0.10928071087E+04  0.16244245138E+04  0.46999998093E+01 0. -1.
</event>
<event>
 5   0  0.1881144E-06  0.2221915E+04  0.7818609E-02  0.8509362E-01
       -1   -1    0    0    0  501  0.00000000000E+00  0.00000000000E+00  0.97631259216E+03  0.97631259217E+03  0.50400001928E-02 0.  1.
        1   -1    0    0  501    0  0.00000000000E+00  0.00000000000E+00 -0.12641716201E+04  0.12641716201E+04  0.50400001928E-02 0. -1.
    10030    2    1    2    0    0  0.00000000000E+00  0.00000000000E+00 -0.28785902789E+03  0.22404842122E+04  0.22219150941E+04 0.  0.
        3    1    3    3  502    0  0.32649231643E+03  0.53780336679E+03  0.77936292281E+03  0.10016168278E+04  0.10100000352E+00 0.  1.
       -3    1    3    3    0  502 -0.32649231643E+03 -0.53780336679E+03 -0.10672219507E+04  0.12388673845E+04  0.10100000352E+00 0. -1.
</event>
<event>
 5   0  0.1846850E-06  0.2587667E+04  0.7818609E-02  0.8372403E-01
        1   -1    0    0  501    0  0.00000000000E+00  0.00000000000E+00  0.15970391122E+04  0.15970391122E+04  0.50400001928E-02 0.  1.
       -1   -1    0    0    0  501  0.00000000000E+00  0.00000000000E+00 -0.10481929805E+04  0.10481929805E+04  0.50400001928E-02 0. -1.
    10030    2    1    2    0    0  0.00000000000E+00  0.00000000000E+00  0.54884613171E+03  0.26452320927E+04  0.25876670474E+04 0.  0.
        5    1    3    3  502    0 -0.61896778285E+03 -0.72604050734E+03  0.11677789580E+04  0.15079740446E+04  0.46999998093E+01 0.  1.
       -5    1    3    3    0  502  0.61896778285E+03  0.72604050734E+03 -0.61893282630E+03  0.11372580481E+04  0.46999998093E+01 0. -1.
</event>
<event>
 5   0  0.5347280E-06  0.3008730E+04  0.7818609E-02  0.8241242E-01
        2   -1    0    0  501    0  0.00000000000E+00  0.00000000000E+00  0.13439719334E+04  0.13439719334E+04  0.25500000920E-02 0. -1.
       -2   -1    0    0    0  501  0.00000000000E+00  0.00000000000E+00 -0.16838994789E+04  0.16838994789E+04  0.25500000920E-02 0.  1.
    10030    2    1    2    0    0  0.00000000000E+00  0.00000000000E+00 -0.33992754552E+03  0.30278714123E+04  0.30087297242E+04 0.  0.
        2    1    3    3  502    0  0.10980885049E+04  0.22167651909E+03 -0.11804308516E+04  0.16273769813E+04  0.25500000920E-02 0.  1.
       -2    1    3    3    0  502 -0.10980885049E+04 -0.22167651909E+03  0.84050330610E+03  0.14004944310E+04  0.25500000920E-02 0. -1.
</event>
<event>
 5   0  0.5121624E-06  0.3183363E+04  0.7818609E-02  0.8193225E-01
        2   -1    0    0  501    0  0.00000000000E+00  0.00000000000E+00  0.17593735089E+04  0.17593735089E+04  0.25500000920E-02 0.  1.
       -2   -1    0    0    0  501  0.00000000000E+00  0.00000000000E+00 -0.14399727621E+04  0.14399727621E+04  0.25500000920E-02 0. -1.
    10030    2    1    2    0    0  0.00000000000E+00  0.00000000000E+00  0.31940074676E+03  0.31993462709E+04  0.31833629583E+04 0.  0.
        4    1    3    3  502    0  0.38246799555E+03  0.96929628322E+03 -0.10495161300E+04  0.14789532691E+04  0.12699999809E+01 0. -1.
       -4    1    3    3    0  502 -0.38246799555E+03 -0.96929628322E+03  0.13689168768E+04  0.17203930018E+04  0.12699999809E+01 0.  1.
</event>
<event>
 5   0  0.1881144E-06  0.2604120E+04  0.7818609E-02  0.8366803E-01
       -1   -1    0    0    0  501  0.00000000000E+00  0.00000000000E+00  0.80926296003E+03  0.80926296005E+03  0.50400001928E-02 0. -1.
        1   -1    0    0  501    0  0.00000000000E+00  0.00000000000E+00 -0.20949428251E+04  0.20949428251E+04  0.50400001928E-02 0.  1.
    10030    2    1    2    0    0  0.00000000000E+00  0.00000000000E+00 -0.12856798650E+04  0.29042057851E+04  0.26041195301E+04 0.  0.
        3    1    3    3  502    0  0.11115161718E+04  0.53949627993E+03 -0.18459470456E+03  0.12492396293E+04  0.10100000352E+00 0. -1.
       -3    1    3    3    0  502 -0.11115161718E+04 -0.53949627993E+03 -0.11010851605E+04  0.16549661558E+04  0.10100000352E+00 0.  1.
</event>
<event>
 5   0  0.5347280E-06  0.3247708E+04  0.7818609E-02  0.8176330E-01
        2   -1    0    0  501    0  0.00000000000E+00  0.00000000000E+00  0.13537157596E+04  0.13537157596E+04  0.25500000920E-02 0.  1.
       -2   -1    0    0    0  501  0.00000000000E+00  0.00000000000E+00 -0.19478991571E+04  0.19478991571E+04  0.25500000920E-02 0. -1.
    10030    2    1    2    0    0  0.00000000000E+00  0.00000000000E+00 -0.59418339752E+03  0.33016149167E+04  0.32477079839E+04 0.  0.
        2    1    3    3  502    0  0.41231761276E+03 -0.15406037842E+04  0.13654951314E+02  0.15948831592E+04  0.25500000920E-02 0. -1.
       -2    1    3    3    0  502 -0.41231761276E+03  0.15406037842E+04 -0.60783834883E+03  0.17067317575E+04  0.25500000920E-02 0.  1.
</event>
<event>
 5   0  0.5121624E-06  0.2528460E+04  0.7818609E-02  0.8392916E-01
       -2   -1    0    0    0  501  0.00000000000E+00  0.00000000000E+00  0.81144205923E+03  0.81144205923E+03  0.25500000920E-02 0.  1.
        2   -1    0    0  501    0  0.00000000000E+00  0.00000000000E+00 -0.19696760083E+04  0.19696760083E+04  0.25500000920E-02 0. -1.
    10030    2    1    2    0    0  0.00000000000E+00  0.00000000000E+00 -0.11582339491E+04  0.27811180676E+04  0.25284603665E+04 0.  0.
        4    1    3    3  502    0 -0.38531531810E+03 -0.23390251194E+03 -0.18782859592E+04  0.19316153957E+04  0.12699999809E+01 0. -1.
       -4    1    3    3    0  502  0.38531531810E+03  0.23390251194E+03  0.72005201007E+03  0.84950267190E+03  0.12699999809E+01 0.  1.
</event>
<event>
 5   0  0.5131083E-06  0.3211996E+04  0.7818609E-02  0.8185656E-01
       -2   -1    0    0    0  501  0.00000000000E+00  0.00000000000E+00  0.10510032267E+04  0.10510032267E+04  0.25500000920E-02 0. -1.
        2   -1    0    0  501    0  0.00000000000E+00  0.00000000000E+00 -0.24540651382E+04  0.24540651382E+04  0.25500000920E-02 0.  1.
    10030    2    1    2    0    0  0.00000000000E+00  0.00000000000E+00 -0.14030619116E+04  0.35050683649E+04  0.32119964999E+04 0.  0.
        3    1    3    3  502    0  0.58064320382E+03  0.86258945283E+03  0.63408226772E+03  0.12178946698E+04  0.10100000352E+00 0. -1.
       -3    1    3    3    0  502 -0.58064320382E+03 -0.86258945283E+03 -0.20371441793E+04  0.22871736951E+04  0.10100000352E+00 0.  1.
</event>
<event>
 5   0  0.1846850E-06  0.2507733E+04  0.7818609E-02  0.8400236E-01
       -1   -1    0    0    0  501  0.00000000000E+00  0.00000000000E+00  0.98374987913E+03  0.98374987914E+03  0.50400001928E-02 0. -1.
        1   -1    0    0  501    0  0.00000000000E+00  0.00000000000E+00 -0.15981512476E+04  0.15981512476E+04  0.50400001928E-02 0.  1.
    10030    2    1    2    0    0  0.00000000000E+00  0.00000000000E+00 -0.61440136848E+03  0.25819011268E+04  0.25077329177E+04 0.  0.
        5    1    3    3  502    0  0.38948466944E+03  0.68026658308E+03  0.70036329637E+03  0.10511858868E+04  0.46999998093E+01 0. -1.
       -5    1    3    3    0  502 -0.38948466944E+03 -0.68026658308E+03 -0.13147646648E+04  0.15307152399E+04  0.46999998093E+01 0.  1.
</event>
<event>
 5   0  0.5347280E-06  0.2937477E+04  0.7818609E-02  0.8261814E-01
        2   -1    0    0  501    0  0.00000000000E+00  0.00000000000E+00  0.80512272331E+03  0.80512272331E+03  0.25500000920E-02 0. -1.
       -2   -1    0    0    0  501  0.00000000000E+00  0.00000000000E+00 -0.26793339692E+04  0.26793339692E+04  0.25500000920E-02 0.  1.
    10030    2    1    2    0    0  0.00000000000E+00  0.00000000000E+00 -0.18742112459E+04  0.34844566925E+04  0.29374769187E+04 0.  0.
        2    1    3    3  502    0  0.75404198098E+03 -0.30266829086E+03 -0.23884560040E+04  0.25228772238E+04  0.25500000920E-02 0.  1.
       -2    1    3    3    0  502 -0.75404198098E+03  0.30266829086E+03  0.51424475811E+03  0.96157946870E+03  0.25500000920E-02 0. -1.
</event>
<event>
 5   0  0.1729500E-06  0.2026388E+04  0.7818609E-02  0.8594382E-01
       -3   -1    0    0    0  501  0.00000000000E+00  0.00000000000E+00  0.15563302548E+04  0.15563302581E+04  0.10100000352E+00 0. -1.
        3   -1    0    0  501    0  0.00000000000E+00  0.00000000000E+00 -0.65960394628E+03  0.65960395402E+03  0.10100000352E+00 0.  1.
    10030    2    1    2    0    0  0.00000000000E+00  0.00000000000E+00  0.89672630853E+03  0.22159342121E+04  0.20263875148E+04 0.  0.
        4    1    3    3  502    0 -0.40505978937E+03  0.97256355435E+02 -0.56162420967E+03  0.69925360022E+03  0.12699999809E+01 0.  1.
       -4    1    3    3    0  502  0.40505978937E+03 -0.97256355435E+02  0.14583505182E+04  0.15166806119E+04  0.12699999809E+01 0. -1.
</event>
<event>
 5   0  0.1886248E-06  0.3226743E+04  0.7818609E-02  0.8181790E-01
        1   -1    0    0  501    0  0.00000000000E+00  0.00000000000E+00  0.16745114061E+04  0.16745114061E+04  0.50400001928E-02 0. -1.
       -1   -1    0    0    0  501  0.00000000000E+00  0.00000000000E+00 -0.15544640814E+04  0.15544640814E+04  0.50400001928E-02 0.  1.
    10030    2    1    2    0    0  0.00000000000E+00  0.00000000000E+00  0.12004732475E+03  0.32289754875E+04  0.32267431473E+04 0.  0.
        4    1    3    3  502    0  0.13081514530E+04 -0.48094920671E+03  0.87323207835E+03  0.16447213256E+04  0.12699999809E+01 0. -1.
       -4    1    3    3    0  502 -0.13081514530E+04  0.48094920671E+03 -0.75318475360E+03  0.15842541619E+04  0.12699999809E+01 0.  1.
</event>
<event>
 5   0  0.5347280E-06  0.3270681E+04  0.7818609E-02  0.8170396E-01
        2   -1    0    0  501    0  0.00000000000E+00  0.00000000000E+00  0.16485356416E+04  0.16485356416E+04  0.25500000920E-02 0.  1.
       -2   -1    0    0    0  501  0.00000000000E+00  0.00000000000E+00 -0.16222513102E+04  0.16222513102E+04  0.25500000920E-02 0. -1.
    10030    2    1    2    0    0  0.00000000000E+00  0.00000000000E+00  0.26284331312E+02  0.32707869518E+04  0.32706813385E+04 0.  0.
        2    1    3    3  502    0  0.11930966173E+04  0.45932541552E+03 -0.10066356961E+04  0.16271984514E+04  0.25500000920E-02 0. -1.
       -2    1    3    3    0  502 -0.11930966173E+04 -0.45932541552E+03  0.10329200274E+04  0.16435885004E+04  0.25500000920E-02 0.  1.
</event>
<event>
 5   0  0.1846850E-06  0.3282702E+04  0.7818609E-02  0.8167311E-01
       -1   -1    0    0    0  501  0.00000000000E+00  0.00000000000E+00  0.86345403571E+03  0.86345403572E+03  0.50400001928E-02 0.  1.
        1   -1    0    0  501    0  0.00000000000E+00  0.00000000000E+00 -0.31200648649E+04  0.31200648649E+04  0.50400001928E-02 0. -1.
    10030    2    1    2    0    0  0.00000000000E+00  0.00000000000E+00 -0.22566108292E+04  0.39835189006E+04  0.32827016918E+04 0.  0.
        5    1    3    3  502    0 -0.27363319190E+03 -0.70563859481E+03 -0.28956744870E+04  0.29929506804E+04  0.46999998093E+01 0. -1.
       -5    1    3    3    0  502  0.27363319190E+03  0.70563859481E+03  0.63906365786E+03  0.99056822026E+03  0.46999998093E+01 0.  1.
</event>
<event>
 5   0  0.1846850E-06  0.3201428E+04  0.7818609E-02  0.8188440E-01
       -1   -1    0    0    0  501  0.00000000000E+00  0.00000000000E+00  0.16390999353E+04  0.16390999353E+04  0.50400001928E-02 0.  1.
        1   -1    0    0  501    0  0.00000000000E+00  0.00000000000E+00 -0.15632268508E+04  0.15632268508E+04  0.50400001928E-02 0. -1.
    10030    2    1    2    0    0  0.00000000000E+00  0.00000000000E+00  0.75873084501E+02  0.32023267861E+04  0.32014278252E+04 0.  0.
        5    1    3    3  502    0  0.15032115933E+04  0.54997519919E+03  0.49986748407E+02  0.16014488999E+04  0.46999998093E+01 0.  1.
       -5    1    3    3    0  502 -0.15032115933E+04 -0.54997519919E+03  0.25886336094E+02  0.16008778862E+04  0.46999998093E+01 0. -1.
</event>
<event>
 5   0  0.1881144E-06  0.3179481E+04  0.7818609E-02  0.8194257E-01
        1   -1    0    0  501    0  0.00000000000E+00  0.00000000000E+00  0.28350556230E+04  0.28350556230E+04  0.50400001928E-02 0. -1.
       -1   -1    0    0    0  501  0.00000000000E+00  0.00000000000E+00 -0.89143730148E+03  0.89143730149E+03  0.50400001928E-02 0.  1.
    10030    2    1    2    0    0  0.00000000000E+00  0.00000000000E+00  0.19436183215E+04  0.37264929245E+04  0.31794806709E+04 0.  0.
        3    1    3    3  502    0 -0.14203460840E+04 -0.52554238680E+03  0.15384009014E+04  0.21587624099E+04  0.10100000352E+00 0.  1.
       -3    1    3    3    0  502  0.14203460840E+04  0.52554238680E+03  0.40521742010E+03  0.15677305146E+04  0.10100000352E+00 0. -1.
</event>
<event>
 5   0  0.1969465E-06  0.3193162E+04  0.7818609E-02  0.8190625E-01
        1   -1    0    0  501    0  0.00000000000E+00  0.00000000000E+00  0.90087290975E+03  0.90087290977E+03  0.50400001928E-02 0.  1.
       -1   -1    0    0    0  501  0.00000000000E+00  0.00000000000E+00 -0.28295574500E+04  0.28295574500E+04  0.50400001928E-02 0. -1.
    10030    2    1    2    0    0  0.00000000000E+00  0.00000000000E+00 -0.19286845402E+04  0.37304303597E+04  0.31931624784E+04 0.  0.
        2    1    3    3  502    0  0.36393745200E+03  0.17027423945E+03 -0.27695252874E+04  0.27985199844E+04  0.25500000920E-02 0. -1.
       -2    1    3    3    0  502 -0.36393745200E+03 -0.17027423945E+03  0.84084074716E+03  0.93191037535E+03  0.25500000920E-02 0.  1.
</event>
<event>
 5   0  0.5373060E-06  0.3234327E+04  0.7818609E-02  0.8179810E-01
       -2   -1    0    0    0  501  0.00000000000E+00  0.00000000000E+00  0.11896380137E+04  0.11896380137E+04  0.25500000920E-02 0. -1.
        2   -1    0    0  501    0  0.00000000000E+00  0.00000000000E+00 -0.21983302638E+04  0.21983302638E+04  0.25500000920E-02 0.  1.
    10030    2    1    2    0    0  0.00000000000E+00  0.00000000000E+00 -0.10086922501E+04  0.33879682775E+04  0.32343266678E+04 0.  0.
        5    1    3    3  502    0 -0.46278347507E+03 -0.58661515279E+03  0.99797585732E+03  0.12467011607E+04  0.46999998093E+01 0. -1.
       -5    1    3    3    0  502  0.46278347507E+03  0.58661515279E+03 -0.20066681074E+04  0.21412671168E+04  0.46999998093E+01 0.  1.
</event>
<event>
 5   0  0.1886248E-06  0.3168725E+04  0.7818609E-02  0.8197126E-01
       -1   -1    0    0    0  501  0.00000000000E+00  0.00000000000E+00  0.13929542110E+04  0.13929542110E+04  0.50400001928E-02 0. -1.
        1   -1    0    0  501    0  0.00000000000E+00  0.00000000000E+00 -0.18020720874E+04  0.18020720874E+04  0.50400001928E-02 0.  1.
    10030    2    1    2    0    0  0.00000000000E+00  0.00000000000E+00 -0.40911787640E+03  0.31950262984E+04  0.31687246032E+04 0.  0.
        4    1    3    3  502    0  0.44278555659E+03  0.80551777088E+03  0.10966113662E+04  0.14309004262E+04  0.12699999809E+01 0. -1.
       -4    1    3    3    0  502 -0.44278555659E+03 -0.80551777088E+03 -0.15057292426E+04  0.17641258722E+04  0.12699999809E+01 0.  1.
</event>
<event>
 5   0  0.1846850E-06  0.3185731E+04  0.7818609E-02  0.8192596E-01
        1   -1    0    0  501    0  0.00000000000E+00  0.00000000000E+00  0.93659772028E+03  0.93659772030E+03  0.50400001928E-02 0.  1.
       -1   -1    0    0    0  501  0.00000000000E+00  0.00000000000E+00 -0.27089752952E+04  0.27089752952E+04  0.50400001928E-02 0. -1.
    10030    2    1    2    0    0  0.00000000000E+00  0.00000000000E+00 -0.17723775750E+04  0.36455730155E+04  0.31857307393E+04 0.  0.
        5    1    3    3  502    0  0.53871064459E+03  0.42246268245E+03  0.75964502250E+03  0.10226272668E+04  0.46999998093E+01 0.  1.
       -5    1    3    3    0  502 -0.53871064459E+03 -0.42246268245E+03 -0.25320225974E+04  0.26229457487E+04  0.46999998093E+01 0. -1.
</event>
<event>
 5   0  0.5347280E-06  0.3203678E+04  0.7818609E-02  0.8187847E-01
        2   -1    0    0  501    0  0.00000000000E+00  0.00000000000E+00  0.14279153280E+04  0.14279153280E+04  0.25500000920E-02 0. -1.
       -2   -1    0    0    0  501  0.00000000000E+00  0.00000000000E+00 -0.17969466011E+04  0.17969466011E+04  0.25500000920E-02 0.  1.
    10030    2    1    2    0    0  0.00000000000E+00  0.00000000000E+00 -0.36903127310E+03  0.32248619291E+04  0.32036776338E+04 0.  0.
        2    1    3    3  502    0 -0.68751596787E+03 -0.37907444214E+03  0.12209662974E+04  0.14515971680E+04  0.25500000920E-02 0. -1.
       -2    1    3    3    0  502  0.68751596787E+03  0.37907444214E+03 -0.15899975705E+04  0.17732647611E+04  0.25500000920E-02 0.  1.
</event>
<event>
 5   0  0.1969465E-06  0.3200893E+04  0.7818609E-02  0.8188581E-01
        1   -1    0    0  501    0  0.00000000000E+00  0.00000000000E+00  0.25940785377E+04  0.25940785377E+04  0.50400001928E-02 0. -1.
       -1   -1    0    0    0  501  0.00000000000E+00  0.00000000000E+00 -0.98741384456E+03  0.98741384457E+03  0.50400001928E-02 0.  1.
    10030    2    1    2    0    0  0.00000000000E+00  0.00000000000E+00  0.16066646931E+04  0.35814923822E+04  0.32008930391E+04 0.  0.
        2    1    3    3  502    0  0.13632504081E+04  0.73682905271E+03  0.35568632498E+03  0.15899312846E+04  0.25500000920E-02 0.  1.
       -2    1    3    3    0  502 -0.13632504081E+04 -0.73682905271E+03  0.12509783681E+04  0.19915610976E+04  0.25500000920E-02 0. -1.
</event>
<event>
 5   0  0.5373060E-06  0.3191136E+04  0.7818609E-02  0.8191162E-01
        2   -1    0    0  501    0  0.00000000000E+00  0.00000000000E+00  0.19041904405E+04  0.19041904405E+04  0.25500000920E-02 0. -1.
       -2   -1    0    0    0  501  0.00000000000E+00  0.00000000000E+00 -0.13369655311E+04  0.13369655311E+04  0.25500000920E-02 0.  1.
    10030    2    1    2    0    0  0.00000000000E+00  0.00000000000E+00  0.56722490946E+03  0.32411559716E+04  0.31911358376E+04 0.  0.
        5    1    3    3  502    0  0.68091043286E+03 -0.81165426622E+03 -0.92814886981E+03  0.14085112992E+04  0.46999998093E+01 0.  1.
       -5    1    3    3    0  502 -0.68091043286E+03  0.81165426622E+03  0.14953737793E+04  0.18326446724E+04  0.46999998093E+01 0. -1.
</event>
<event>
 5   0  0.1977015E-06  0.3133191E+04  0.7818609E-02  0.8206688E-01
        1   -1    0    0  501    0  0.00000000000E+00  0.00000000000E+00  0.14932547177E+04  0.14932547177E+04  0.50400001928E-02 0. -1.
       -1   -1    0    0    0  501  0.00000000000E+00  0.00000000000E+00 -0.16435379952E+04  0.16435379952E+04  0.50400001928E-02 0.  1.
    10030    2    1    2    0    0  0.00000000000E+00  0.00000000000E+00 -0.15028327745E+03  0.31367927129E+04  0.31331906198E+04 0.  0.
        1    1    3    3  502    0  0.93009856060E+03  0.33087496415E+03 -0.12929525626E+04  0.16267414987E+04  0.50400001928E-02 0.  1.
       -1    1    3    3    0  502 -0.93009856060E+03 -0.33087496415E+03  0.11426692851E+04  0.15100512142E+04  0.50400001928E-02 0. -1.
</event>
<event>
 5   0  0.5131083E-06  0.3292935E+04  0.7818609E-02  0.8164695E-01
       -2   -1    0    0    0  501  0.00000000000E+00  0.00000000000E+00  0.17233832390E+04  0.17233832390E+04  0.25500000920E-02 0. -1.
        2   -1    0    0  501    0  0.00000000000E+00  0.00000000000E+00 -0.15729849188E+04  0.15729849188E+04  0.25500000920E-02 0.  1.
    10030    2    1    2    0    0  0.00000000000E+00  0.00000000000E+00  0.15039832014E+03  0.32963681578E+04  0.32929353739E+04 0.  0.
        3    1    3    3  502    0 -0.65568063764E+03 -0.11880815279E+04 -0.85818961804E+03  0.16055977847E+04  0.10100000352E+00 0.  1.
       -3    1    3    3    0  502  0.65568063764E+03  0.11880815279E+04  0.10085879382E+04  0.16907703731E+04  0.10100000352E+00 0. -1.
</event>
<event>
 5   0  0.5373060E-06  0.3276045E+04  0.7818609E-02  0.8169018E-01
        2   -1    0    0  501    0  0.00000000000E+00  0.00000000000E+00  0.20816350722E+04  0.20816350722E+04  0.25500000920E-02 0.  1.
       -2   -1    0    0    0  501  0.00000000000E+00  0.00000000000E+00 -0.12889471641E+04  0.12889471641E+04  0.25500000920E-02 0. -1.
    10030    2    1    2    0    0  0.00000000000E+00  0.00000000000E+00  0.79268790808E+03  0.33705822362E+04  0.32760449465E+04 0.  0.
        5    1    3    3  502    0 -0.37658088903E+03  0.27161567217E+03 -0.12198158407E+04  0.13052053534E+04  0.46999998093E+01 0. -1.
       -5    1    3    3    0  502  0.37658088903E+03 -0.27161567217E+03  0.20125037488E+04  0.20653768828E+04  0.46999998093E+01 0.  1.
</event>
<event>
 5   0  0.1977015E-06  0.3229550E+04  0.7818609E-02  0.8181056E-01
        1   -1    0    0  501    0  0.00000000000E+00  0.00000000000E+00  0.16850555142E+04  0.16850555142E+04  0.50400001928E-02 0. -1.
       -1   -1    0    0    0  501  0.00000000000E+00  0.00000000000E+00 -0.15474260766E+04  0.15474260766E+04  0.50400001928E-02 0.  1.
    10030    2    1    2    0    0  0.00000000000E+00  0.00000000000E+00  0.13762943760E+03  0.32324815908E+04  0.32295503360E+04 0.  0.
        1    1    3    3  502    0 -0.12216618160E+03 -0.11424282588E+04  0.12044951490E+04  0.16645946853E+04  0.50400001928E-02 0. -1.
       -1    1    3    3    0  502  0.12216618160E+03  0.11424282588E+04 -0.10668657114E+04  0.15678869055E+04  0.50400001928E-02 0.  1.
</event>
<event>
 5   0  0.5347280E-06  0.3092182E+04  0.7818609E-02  0.8217887E-01
        2   -1    0    0  501    0  0.00000000000E+00  0.00000000000E+00  0.18135315638E+04  0.18135315638E+04  0.25500000920E-02 0. -1.
       -2   -1    0    0    0  501  0.00000000000E+00  0.00000000000E+00 -0.13180901827E+04  0.13180901827E+04  0.25500000920E-02 0.  1.
    10030    2    1    2    0    0  0.00000000000E+00  0.00000000000E+00  0.49544138109E+03  0.31316217465E+04  0.30921824980E+04 0.  0.
        2    1    3    3  502    0 -0.14830816829E+04  0.24043155707E+03 -0.12170508069E+03  0.15073654960E+04  0.25500000920E-02 0.  1.
       -2    1    3    3    0  502  0.14830816829E+04 -0.24043155707E+03  0.61714646178E+03  0.16242562505E+04  0.25500000920E-02 0. -1.
</event>
<event>
 5   0  0.5373060E-06  0.3218117E+04  0.7818609E-02  0.8184049E-01
       -2   -1    0    0    0  501  0.00000000000E+00  0.00000000000E+00  0.13780528504E+04  0.13780528504E+04  0.25500000920E-02 0.  1.
        2   -1    0    0  501    0  0.00000000000E+00  0.00000000000E+00 -0.18787883572E+04  0.18787883572E+04  0.25500000920E-02 0. -1.
    10030    2    1    2    0    0  0.00000000000E+00  0.00000000000E+00 -0.50073550683E+03  0.32568412076E+04  0.32181172452E+04 0.  0.
        5    1    3    3  502    0  0.69709687344E+03 -0.13991819188E+04  0.13552548576E+03  0.15690899720E+04  0.46999998093E+01 0. -1.
       -5    1    3    3    0  502 -0.69709687344E+03  0.13991819188E+04 -0.63626099259E+03  0.16877512357E+04  0.46999998093E+01 0.  1.
</event>
<event>
 5   0  0.1969465E-06  0.3214821E+04  0.7818609E-02  0.8184914E-01
        1   -1    0    0  501    0  0.00000000000E+00  0.00000000000E+00  0.16578770425E+04  0.16578770425E+04  0.50400001928E-02 0. -1.
       -1   -1    0    0    0  501  0.00000000000E+00  0.00000000000E+00 -0.15584805749E+04  0.15584805749E+04  0.50400001928E-02 0.  1.
    10030    2    1    2    0    0  0.00000000000E+00  0.00000000000E+00  0.99396467641E+02  0.32163576174E+04  0.32148214049E+04 0.  0.
        2    1    3    3  502    0  0.10509557469E+04  0.19848274551E+03 -0.11508192387E+04  0.15710787066E+04  0.25500000920E-02 0.  1.
       -2    1    3    3    0  502 -0.10509557469E+04 -0.19848274551E+03  0.12502157063E+04  0.16452789109E+04  0.25500000920E-02 0. -1.
</event>
<event>
 5   0  0.5131083E-06  0.3334796E+04  0.7818609E-02  0.8154097E-01
        2   -1    0    0  501    0  0.00000000000E+00  0.00000000000E+00  0.16583463081E+04  0.16583463081E+04  0.25500000920E-02 0.  1.
       -2   -1    0    0    0  501  0.00000000000E+00  0.00000000000E+00 -0.16764995824E+04  0.16764995824E+04  0.25500000920E-02 0. -1.
    10030    2    1    2    0    0  0.00000000000E+00  0.00000000000E+00 -0.18153274276E+02  0.33348458905E+04  0.33347964814E+04 0.  0.
        3    1    3    3  502    0  0.74971685447E+03 -0.13762359483E+04 -0.57839705655E+03  0.16705220479E+04  0.10100000352E+00 0. -1.
       -3    1    3    3    0  502 -0.74971685447E+03  0.13762359483E+04  0.56024378227E+03  0.16643238426E+04  0.10100000352E+00 0.  1.
</event>
<event>
 5   0  0.1886248E-06  0.2992968E+04  0.7818609E-02  0.8245742E-01
       -1   -1    0    0    0  501  0.00000000000E+00  0.00000000000E+00  0.26016579317E+04  0.26016579317E+04  0.50400001928E-02 0. -1.
        1   -1    0    0  501    0  0.00000000000E+00  0.00000000000E+00 -0.86078358745E+03  0.86078358746E+03  0.50400001928E-02 0.  1.
    10030    2    1    2    0    0  0.00000000000E+00  0.00000000000E+00  0.17408743442E+04  0.34624415191E+04  0.29929680571E+04 0.  0.
        4    1    3    3  502    0  0.11866825311E+04 -0.63031315337E+03  0.10835539052E+03  0.13480551192E+04  0.12699999809E+01 0.  1.
       -4    1    3    3    0  502 -0.11866825311E+04  0.63031315337E+03  0.16325189537E+04  0.21143863999E+04  0.12699999809E+01 0. -1.
</event>
<event>
 5   0  0.1846850E-06  0.3178112E+04  0.7818609E-02  0.8194622E-01
       -1   -1    0    0    0  501  0.00000000000E+00  0.00000000000E+00  0.20714124839E+04  0.20714124839E+04  0.50400001928E-02 0. -1.
        1   -1    0    0  501    0  0.00000000000E+00  0.00000000000E+00 -0.12190229593E+04  0.12190229593E+04  0.50400001928E-02 0.  1.
    10030    2    1    2    0    0  0.00000000000E+00  0.00000000000E+00  0.85238952459E+03  0.32904354433E+04  0.31781122549E+04 0.  0.
        5    1    3    3  502    0 -0.44654027658E+03 -0.11932235436E+04  0.14094415285E+04  0.18999284607E+04  0.46999998093E+01 0. -1.
       -5    1    3    3    0  502  0.44654027658E+03  0.11932235436E+04 -0.55705200387E+03  0.13905069826E+04  0.46999998093E+01 0.  1.
</event>
<event>
 5   0  0.1846850E-06  0.3525369E+04  0.7818609E-02  0.8107804E-01
        1   -1    0    0  501    0  0.00000000000E+00  0.00000000000E+00  0.20687975855E+04  0.20687975855E+04  0.50400001928E-02 0. -1.
       -1   -1    0    0    0  501  0.00000000000E+00  0.00000000000E+00 -0.15018657132E+04  0.15018657133E+04  0.50400001928E-02 0.  1.
    10030    2    1    2    0    0  0.00000000000E+00  0.00000000000E+00  0.56693187224E+03  0.35706632987E+04  0.35253687247E+04 0.  0.
        5    1    3    3  502    0  0.15483084858E+04 -0.67212924180E+03 -0.23101426924E+03  0.17036450826E+04  0.46999998093E+01 0.  1.
       -5    1    3    3    0  502 -0.15483084858E+04  0.67212924180E+03  0.79794614148E+03  0.18670182162E+04  0.46999998093E+01 0. -1.
</event>
<event>
 5   0  0.1729500E-06  0.3311051E+04  0.7818609E-02  0.8160089E-01
       -3   -1    0    0    0  501  0.00000000000E+00  0.00000000000E+00  0.16345090884E+04  0.16345090915E+04  0.10100000352E+00 0.  1.
        3   -1    0    0  501    0  0.00000000000E+00  0.00000000000E+00 -0.16768119119E+04  0.16768119149E+04  0.10100000352E+00 0. -1.
    10030    2    1    2    0    0  0.00000000000E+00  0.00000000000E+00 -0.42302823540E+02  0.33113210064E+04  0.33110507817E+04 0.  0.
        1    1    3    3  502    0 -0.37217356587E+02 -0.48407437676E+03  0.15617131093E+04  0.16354390755E+04  0.50400001928E-02 0.  1.
       -1    1    3    3    0  502  0.37217356587E+02  0.48407437676E+03 -0.16040159328E+04  0.16758819310E+04  0.50400001928E-02 0. -1.
</event>
<event>
 5   0  0.5131083E-06  0.3175958E+04  0.7818609E-02  0.8195196E-01
       -2   -1    0    0    0  501  0.00000000000E+00  0.00000000000E+00  0.31682269611E+04  0.31682269611E+04  0.25500000920E-02 0.  1.
        2   -1    0    0  501    0  0.00000000000E+00  0.00000000000E+00 -0.79592679955E+03  0.79592679955E+03  0.25500000920E-02 0. -1.
    10030    2    1    2    0    0  0.00000000000E+00  0.00000000000E+00  0.23723001615E+04  0.39641537606E+04  0.31759576479E+04 0.  0.
        3    1    3    3  502    0 -0.82070651281E+03  0.59077409859E+03 -0.34209005389E+03  0.10675199440E+04  0.10100000352E+00 0. -1.
       -3    1    3    3    0  502  0.82070651281E+03 -0.59077409859E+03  0.27143902154E+04  0.28966338166E+04  0.10100000352E+00 0.  1.
</event>
<event>
 5   0  0.1846850E-06  0.3192045E+04  0.7818609E-02  0.8190921E-01
       -1   -1    0    0    0  501  0.00000000000E+00  0.00000000000E+00  0.19634289130E+04  0.19634289130E+04  0.50400001928E-02 0. -1.
        1   -1    0    0  501    0  0.00000000000E+00  0.00000000000E+00 -0.12973669954E+04  0.12973669954E+04  0.50400001928E-02 0.  1.
    10030    2    1    2    0    0  0.00000000000E+00  0.00000000000E+00  0.66606191758E+03  0.32607959084E+04  0.31920450308E+04 0.  0.
        5    1    3    3  502    0  0.90928122491E+03  0.57949673865E+03 -0.86902782152E+03  0.13848610980E+04  0.46999998093E+01 0.  1.
       -5    1    3    3    0  502 -0.90928122491E+03 -0.57949673865E+03  0.15350897391E+04  0.18759348105E+04  0.46999998093E+01 0. -1.
</event>
<event>
 5   0  0.1846850E-06  0.3284447E+04  0.7818609E-02  0.8166864E-01
       -1   -1    0    0    0  501  0.00000000000E+00  0.00000000000E+00  0.26408856645E+04  0.26408856646E+04  0.50400001928E-02 0. -1.
        1   -1    0    0  501    0  0.00000000000E+00  0.00000000000E+00 -0.10212095387E+04  0.10212095387E+04  0.50400001928E-02 0.  1.
    10030    2    1    2    0    0  0.00000000000E+00  0.00000000000E+00  0.16196761259E+04  0.36620952033E+04  0.32844467609E+04 0.  0.
        5    1    3    3  502    0  0.52824887151E+02 -0.14339935419E+04  0.17002517321E+04  0.22248608921E+04  0.46999998093E+01 0. -1.
       -5    1    3    3    0  502 -0.52824887151E+02  0.14339935419E+04 -0.80575606227E+02  0.14372343111E+04  0.46999998093E+01 0.  1.
</event>
<event>
 5   0  0.5131083E-06  0.3204530E+04  0.7818609E-02  0.8187622E-01
       -2   -1    0    0    0  501  0.00000000000E+00  0.00000000000E+00  0.13859879242E+04  0.13859879242E+04  0.25500000920E-02 0.  1.
        2   -1    0    0  501    0  0.00000000000E+00  0.00000000000E+00 -0.18522910954E+04  0.18522910954E+04  0.25500000920E-02 0. -1.
    10030    2    1    2    0    0  0.00000000000E+00  0.00000000000E+00 -0.46630317123E+03  0.32382790196E+04  0.32045299751E+04 0.  0.
        3    1    3    3  502    0 -0.66468401001E+03  0.63323594831E+03 -0.15601687823E+04  0.18102262949E+04  0.10100000352E+00 0. -1.
       -3    1    3    3    0  502  0.66468401001E+03 -0.63323594831E+03  0.10938656110E+04  0.14280527247E+04  0.10100000352E+00 0.  1.
</event>
<event>
 5   0  0.5108810E-06  0.3256525E+04  0.7818609E-02  0.8174046E-01
       -2   -1    0    0    0  501  0.00000000000E+00  0.00000000000E+00  0.19455779579E+04  0.19455779579E+04  0.25500000920E-02 0. -1.
        2   -1    0    0  501    0  0.00000000000E+00  0.00000000000E+00 -0.13626999826E+04  0.13626999826E+04  0.25500000920E-02 0.  1.
    10030    2    1    2    0    0  0.00000000000E+00  0.00000000000E+00  0.58287797532E+03  0.33082779404E+04  0.32565251722E+04 0.  0.
        1    1    3    3  502    0  0.79627727404E+02  0.94970145751E+03 -0.10497561164E+04  0.14178368515E+04  0.50400001928E-02 0.  1.
       -1    1    3    3    0  502 -0.79627727404E+02 -0.94970145751E+03  0.16326340917E+04  0.18904410890E+04  0.50400001928E-02 0. -1.
</event>
<event>
 5   0  0.5121624E-06  0.3176484E+04  0.7818609E-02  0.8195055E-01
       -2   -1    0    0    0  501  0.00000000000E+00  0.00000000000E+00  0.10086054736E+04  0.10086054736E+04  0.25500000920E-02 0.  1.
        2   -1    0    0  501    0  0.00000000000E+00  0.00000000000E+00 -0.25009905096E+04  0.25009905096E+04  0.25500000920E-02 0. -1.
    10030    2    1    2    0    0  0.00000000000E+00  0.00000000000E+00 -0.14923850360E+04  0.35095959832E+04  0.31764840421E+04 0.  0.
        4    1    3    3  502    0  0.97215736358E+03 -0.26085917372E+03  0.61121055917E+03  0.11775896605E+04  0.12699999809E+01 0.  1.
       -4    1    3    3    0  502 -0.97215736358E+03  0.26085917372E+03 -0.21035955952E+04  0.23320063227E+04  0.12699999809E+01 0. -1.
</event>
<event>
 5   0  0.1969465E-06  0.3157391E+04  0.7818609E-02  0.8200162E-01
       -1   -1    0    0    0  501  0.00000000000E+00  0.00000000000E+00  0.18062201342E+04  0.18062201342E+04  0.50400001928E-02 0.  1.
        1   -1    0    0  501    0  0.00000000000E+00  0.00000000000E+00 -0.13798314492E+04  0.13798314492E+04  0.50400001928E-02 0. -1.
    10030    2    1    2    0    0  0.00000000000E+00  0.00000000000E+00  0.42638868497E+03  0.31860515835E+04  0.31573909137E+04 0.  0.
        2    1    3    3  502    0  0.33845608334E+03 -0.15106135912E+04  0.52547631063E+03  0.16348184289E+04  0.25500000920E-02 0. -1.
       -2    1    3    3    0  502 -0.33845608334E+03  0.15106135912E+04 -0.99087625656E+02  0.15512331546E+04  0.25500000920E-02 0.  1.
</event>
<event>
 5   0  0.5373060E-06  0.3199172E+04  0.7818609E-02  0.8189036E-01
        2   -1    0    0  501    0  0.00000000000E+00  0.00000000000E+00  0.19525913434E+04  0.19525913434E+04  0.25500000920E-02 0.  1.
       -2   -1    0    0    0  501  0.00000000000E+00  0.00000000000E+00 -0.13103995263E+04  0.13103995263E+04  0.25500000920E-02 0. -1.
    10030    2    1    2    0    0  0.00000000000E+00  0.00000000000E+00  0.64219181716E+03  0.32629908697E+04  0.31991716249E+04 0.  0.
        5    1    3    3  502    0  0.31404160259E+03  0.14288154755E+04  0.98093009719E+03  0.17613579241E+04  0.46999998093E+01 0. -1.
       -5    1    3    3    0  502 -0.31404160259E+03 -0.14288154755E+04 -0.33873828003E+03  0.15016329457E+04  0.46999998093E+01 0.  1.
</event>
<event>
 5   0  0.1886248E-06  0.3063078E+04  0.7818609E-02  0.8225944E-01
       -1   -1    0    0    0  501  0.00000000000E+00  0.00000000000E+00  0.11068576424E+04  0.11068576424E+04  0.50400001928E-02 0.  1.
        1   -1    0    0  501    0  0.00000000000E+00  0.00000000000E+00 -0.21191628507E+04  0.21191628507E+04  0.50400001928E-02 0. -1.
    10030    2    1    2    0    0  0.00000000000E+00  0.00000000000E+00 -0.10123052083E+04  0.32260204931E+04  0.30630779271E+04 0.  0.
        4    1    3    3  502    0  0.12537644028E+04 -0.46595994848E+03 -0.12918719819E+04  0.18595641107E+04  0.12699999809E+01 0. -1.
       -4    1    3    3    0  502 -0.12537644028E+04  0.46595994848E+03  0.27956677362E+03  0.13664563824E+04  0.12699999809E+01 0.  1.
</event>
<event>
 5   0  0.5108810E-06  0.3274118E+04  0.7818609E-02  0.8169512E-01
       -2   -1    0    0    0  501  0.00000000000E+00  0.00000000000E+00  0.16375172151E+04  0.16375172151E+04  0.25500000920E-02 0. -1.
        2   -1    0    0  501    0  0.00000000000E+00  0.00000000000E+00 -0.16366010487E+04  0.16366010487E+04  0.25500000920E-02 0.  1.
    10030    2    1    2    0    0  0.00000000000E+00  0.00000000000E+00  0.91616643636E+00  0.32741182638E+04  0.32741181356E+04 0.  0.
        1    1    3    3  502    0 -0.59444041015E+03  0.14137970089E+04  0.57297972776E+03  0.16372193354E+04  0.50400001928E-02 0. -1.
       -1    1    3    3    0  502  0.59444041015E+03 -0.14137970089E+04 -0.57206356133E+03  0.16368989284E+04  0.50400001928E-02 0.  1.
</event>
<event>
 5   0  0.5373060E-06  0.3215786E+04  0.7818609E-02  0.8184661E-01
        2   -1    0    0  501    0  0.00000000000E+00  0.00000000000E+00  0.99540876175E+03  0.99540876175E+03  0.25500000920E-02 0.  1.
       -2   -1    0    0    0  501  0.00000000000E+00  0.00000000000E+00 -0.25972442055E+04  0.25972442055E+04  0.25500000920E-02 0. -1.
    10030    2    1    2    0    0  0.00000000000E+00  0.00000000000E+00 -0.16018354437E+04  0.35926529672E+04  0.32157858377E+04 0.  0.
        5    1    3    3  502    0 -0.75782427376E+03 -0.81714310377E+03  0.49390690352E+03  0.12190105009E+04  0.46999998093E+01 0.  1.
       -5    1    3    3    0  502  0.75782427376E+03  0.81714310377E+03 -0.20957423473E+04  0.23736424663E+04  0.46999998093E+01 0. -1.
</event>
<event>
 5   0  0.5347280E-06  0.3134223E+04  0.7818609E-02  0.8206408E-01
       -2   -1    0    0    0  501  0.00000000000E+00  0.00000000000E+00  0.12237703544E+04  0.12237703544E+04  0.25500000920E-02 0. -1.
        2   -1    0    0  501    0  0.00000000000E+00  0.00000000000E+00 -0.20067801508E+04  0.20067801509E+04  0.25500000920E-02 0.  1.
    10030    2    1    2    0    0  0.00000000000E+00  0.00000000000E+00 -0.78300979645E+03  0.32305505053E+04  0.31342227467E+04 0.  0.
        2    1    3    3  502    0  0.89556397434E+03  0.11573883532E+04  0.18630911220E+03  0.14752266665E+04  0.25500000920E-02 0. -1.
       -2    1    3    3    0  502 -0.89556397434E+03 -0.11573883532E+04 -0.96931890865E+03  0.17553238388E+04  0.25500000920E-02 0.  1.
</event>
<event>
 5   0  0.1977015E-06  0.2995068E+04  0.7818609E-02  0.8245141E-01
        1   -1    0    0  501    0  0.00000000000E+00  0.00000000000E+00  0.21636500103E+04  0.21636500103E+04  0.50400001928E-02 0. -1.
       -1   -1    0    0    0  501  0.00000000000E+00  0.00000000000E+00 -0.10364929902E+04  0.10364929902E+04  0.50400001928E-02 0.  1.
    10030    2    1    2    0    0  0.00000000000E+00  0.00000000000E+00  0.11271570200E+04  0.32001430005E+04  0.29950679919E+04 0.  0.
        1    1    3    3  502    0  0.93820833516E+01  0.84529281805E+03 -0.75718295875E+03  0.11348718010E+04  0.50400001928E-02 0.  1.
       -1    1    3    3    0  502 -0.93820833516E+01 -0.84529281805E+03  0.18843399788E+04  0.20652711995E+04  0.50400001928E-02 0. -1.
</event>
<event>
 5   0  0.1886248E-06  0.3247854E+04  0.7818609E-02  0.8176292E-01
        1   -1    0    0  501    0  0.00000000000E+00  0.00000000000E+00  0.23507389494E+04  0.23507389494E+04  0.50400001928E-02 0.  1.
       -1   -1    0    0    0  501  0.00000000000E+00  0.00000000000E+00 -0.11218338026E+04  0.11218338026E+04  0.50400001928E-02 0. -1.
    10030    2    1    2    0    0  0.00000000000E+00  0.00000000000E+00  0.12289051469E+04  0.34725727520E+04  0.32478537002E+04 0.  0.
        4    1    3    3  502    0 -0.84698279910E+03 -0.31400453194E+03 -0.82842246128E+03  0.12256688359E+04  0.12699999809E+01 0. -1.
       -4    1    3    3    0  502  0.84698279910E+03  0.31400453194E+03  0.20573276081E+04  0.22469039161E+04  0.12699999809E+01 0.  1.
</event>
<event>
 5   0  0.5347280E-06  0.3356244E+04  0.7818609E-02  0.8148730E-01
        2   -1    0    0  501    0  0.00000000000E+00  0.00000000000E+00  0.19166537273E+04  0.19166537273E+04  0.25500000920E-02 0. -1.
       -2   -1    0    0    0  501  0.00000000000E+00  0.00000000000E+00 -0.14692757977E+04  0.14692757977E+04  0.25500000920E-02 0.  1.
    10030    2    1    2    0    0  0.00000000000E+00  0.00000000000E+00  0.44737792958E+03  0.33859295251E+04  0.33562436945E+04 0.  0.
        2    1    3    3  502    0 -0.69251293796E+02 -0.15339081816E+04  0.90674694762E+03  0.17832162175E+04  0.25500000920E-02 0. -1.
       -2    1    3    3    0  502  0.69251293796E+02  0.15339081816E+04 -0.45936901804E+03  0.16027133075E+04  0.25500000920E-02 0.  1.
</event>
<event>
 5   0  0.5373060E-06  0.3290633E+04  0.7818609E-02  0.8165283E-01
        2   -1    0    0  501    0  0.00000000000E+00  0.00000000000E+00  0.13837831667E+04  0.13837831667E+04  0.25500000920E-02 0.  1.
       -2   -1    0    0    0  501  0.00000000000E+00  0.00000000000E+00 -0.19562788587E+04  0.19562788587E+04  0.25500000920E-02 0. -1.
    10030    2    1    2    0    0  0.00000000000E+00  0.00000000000E+00 -0.57249569206E+03  0.33400620254E+04  0.32906326164E+04 0.  0.
        5    1    3    3  502    0  0.10509919476E+04 -0.11943283422E+04 -0.71212081461E+03  0.17430267948E+04  0.46999998093E+01 0. -1.
       -5    1    3    3    0  502 -0.10509919476E+04  0.11943283422E+04  0.13962512254E+03  0.15970352306E+04  0.46999998093E+01 0.  1.
</event>
<event>
 5   0  0.1886248E-06  0.3130987E+04  0.7818609E-02  0.8207285E-01
       -1   -1    0    0    0  501  0.00000000000E+00  0.00000000000E+00  0.13522515402E+04  0.13522515402E+04  0.50400001928E-02 0. -1.
        1   -1    0    0  501    0  0.00000000000E+00  0.00000000000E+00 -0.18123624809E+04  0.18123624809E+04  0.50400001928E-02 0.  1.
    10030    2    1    2    0    0  0.00000000000E+00  0.00000000000E+00 -0.46011094065E+03  0.31646140211E+04  0.31309870369E+04 0.  0.
        4    1    3    3  502    0 -0.69054197457E+03  0.10545043824E+04 -0.11684342008E+04  0.17187401798E+04  0.12699999809E+01 0.  1.
       -4    1    3    3    0  502  0.69054197457E+03 -0.10545043824E+04  0.70832326016E+03  0.14458738413E+04  0.12699999809E+01 0. -1.
</event>
<event>
 5   0  0.1969465E-06  0.3201091E+04  0.7818609E-02  0.8188529E-01
        1   -1    0    0  501    0  0.00000000000E+00  0.00000000000E+00  0.20811199278E+04  0.20811199279E+04  0.50400001928E-02 0.  1.
       -1   -1    0    0    0  501  0.00000000000E+00  0.00000000000E+00 -0.12309460439E+04  0.12309460439E+04  0.50400001928E-02 0. -1.
    10030    2    1    2    0    0  0.00000000000E+00  0.00000000000E+00  0.85017388398E+03  0.33120659717E+04  0.32010912777E+04 0.  0.
        2    1    3    3  502    0 -0.85098260964E+03  0.10829303423E+04  0.12687294429E+04  0.18725874953E+04  0.25500000920E-02 0.  1.
       -2    1    3    3    0  502  0.85098260964E+03 -0.10829303423E+04 -0.41855555888E+03  0.14394784764E+04  0.25500000920E-02 0. -1.
</event>
<event>
 5   0  0.5121624E-06  0.3190867E+04  0.7818609E-02  0.8191233E-01
       -2   -1    0    0    0  501  0.00000000000E+00  0.00000000000E+00  0.14262334002E+04  0.14262334002E+04  0.25500000920E-02 0.  1.
        2   -1    0    0  501    0  0.00000000000E+00  0.00000000000E+00 -0.17847061791E+04  0.17847061791E+04  0.25500000920E-02 0. -1.
    10030    2    1    2    0    0  0.00000000000E+00  0.00000000000E+00 -0.35847277889E+03  0.32109395793E+04  0.31908666924E+04 0.  0.
        4    1    3    3  502    0  0.54073587723E+03 -0.12286438866E+04 -0.10468929490E+04  0.17023359094E+04  0.12699999809E+01 0. -1.
       -4    1    3    3    0  502 -0.54073587723E+03  0.12286438866E+04  0.68842017006E+03  0.15086036698E+04  0.12699999809E+01 0.  1.
</event>
<event>
 5   0  0.1729500E-06  0.3193078E+04  0.7818609E-02  0.8190648E-01
       -3   -1    0    0    0  501  0.00000000000E+00  0.00000000000E+00  0.16561900935E+04  0.16561900965E+04  0.10100000352E+00 0.  1.
        3   -1    0    0  501    0  0.00000000000E+00  0.00000000000E+00 -0.15390363801E+04  0.15390363835E+04  0.10100000352E+00 0. -1.
    10030    2    1    2    0    0  0.00000000000E+00  0.00000000000E+00  0.11715371332E+03  0.31952264800E+04  0.31930780238E+04 0.  0.
        2    1    3    3  502    0 -0.34698747351E+03 -0.99263526612E+03 -0.11435689398E+04  0.15535362881E+04  0.25500000920E-02 0. -1.
       -2    1    3    3    0  502  0.34698747351E+03  0.99263526612E+03  0.12607226531E+04  0.16416901919E+04  0.25500000920E-02 0.  1.
</event>
<event>
 5   0  0.5121624E-06  0.3179402E+04  0.7818609E-02  0.8194278E-01
        2   -1    0    0  501    0  0.00000000000E+00  0.00000000000E+00  0.19016557994E+04  0.19016557994E+04  0.25500000920E-02 0. -1.
       -2   -1    0    0    0  501  0.00000000000E+00  0.00000000000E+00 -0.13289206502E+04  0.13289206502E+04  0.25500000920E-02 0.  1.
    10030    2    1    2    0    0  0.00000000000E+00  0.00000000000E+00  0.57273514927E+03  0.32305764496E+04  0.31794022466E+04 0.  0.
        4    1    3    3  502    0  0.49456699572E+03 -0.11259856635E+04 -0.73717296814E+03  0.14338290782E+04  0.12699999809E+01 0.  1.
       -4    1    3    3    0  502 -0.49456699572E+03  0.11259856635E+04  0.13099081174E+04  0.17967473714E+04  0.12699999809E+01 0. -1.
</event>
<event>
 5   0  0.5121624E-06  0.3092567E+04  0.7818609E-02  0.8217781E-01
       -2   -1    0    0    0  501  0.00000000000E+00  0.00000000000E+00  0.13158156145E+04  0.13158156145E+04  0.25500000920E-02 0. -1.
        2   -1    0    0  501    0  0.00000000000E+00  0.00000000000E+00 -0.18171178717E+04  0.18171178717E+04  0.25500000920E-02 0.  1.
    10030    2    1    2    0    0  0.00000000000E+00  0.00000000000E+00 -0.50130225720E+03  0.31329334862E+04  0.30925666163E+04 0.  0.
        4    1    3    3  502    0  0.14524098751E+04  0.44032514396E+03  0.49201874331E+02  0.15184871139E+04  0.12699999809E+01 0. -1.
       -4    1    3    3    0  502 -0.14524098751E+04 -0.44032514396E+03 -0.55050413153E+03  0.16144463724E+04  0.12699999809E+01 0.  1.
</event>
<event>
 5   0  0.5131083E-06  0.3217834E+04  0.7818609E-02  0.8184123E-01
       -2   -1    0    0    0  501  0.00000000000E+00  0.00000000000E+00  0.15339778514E+04  0.15339778515E+04  0.25500000920E-02 0.  1.
        2   -1    0    0  501    0  0.00000000000E+00  0.00000000000E+00 -0.16875169360E+04  0.16875169360E+04  0.25500000920E-02 0. -1.
    10030    2    1    2    0    0  0.00000000000E+00  0.00000000000E+00 -0.15353908452E+03  0.32214947874E+04  0.32178338078E+04 0.  0.
        3    1    3    3  502    0  0.15394761491E+02 -0.43873623987E+03  0.14728568269E+04  0.15368909296E+04  0.10100000352E+00 0.  1.
       -3    1    3    3    0  502 -0.15394761491E+02  0.43873623987E+03 -0.16263959114E+04  0.16846038578E+04  0.10100000352E+00 0. -1.
</event>
<event>
 5   0  0.1969465E-06  0.3403726E+04  0.7818609E-02  0.8136992E-01
       -1   -1    0    0    0  501  0.00000000000E+00  0.00000000000E+00  0.13898989087E+04  0.13898989087E+04  0.50400001928E-02 0. -1.
        1   -1    0    0  501    0  0.00000000000E+00  0.00000000000E+00 -0.20838475622E+04  0.20838475622E+04  0.50400001928E-02 0.  1.
    10030    2    1    2    0    0  0.00000000000E+00  0.00000000000E+00 -0.69394865349E+03  0.34737464709E+04  0.34037258718E+04 0.  0.
        2    1    3    3  502    0 -0.55154545591E+02 -0.10346678213E+04  0.10308950270E+04  0.14616169406E+04  0.25500000920E-02 0. -1.
       -2    1    3    3    0  502  0.55154545591E+02  0.10346678213E+04 -0.17248436805E+04  0.20121295303E+04  0.25500000920E-02 0.  1.
</event>
<event>
 5   0  0.1977015E-06  0.3147203E+04  0.7818609E-02  0.8202902E-01
       -1   -1    0    0    0  501  0.00000000000E+00  0.00000000000E+00  0.31982485381E+04  0.31982485381E+04  0.50400001928E-02 0.  1.
        1   -1    0    0  501    0  0.00000000000E+00  0.00000000000E+00 -0.77424304218E+03  0.77424304219E+03  0.50400001928E-02 0. -1.
    10030    2    1    2    0    0  0.00000000000E+00  0.00000000000E+00  0.24240054959E+04  0.39724915803E+04  0.31472029981E+04 0.  0.
        1    1    3    3  502    0  0.13443231272E+04 -0.43692158866E+03  0.33922209672E+03  0.14536769848E+04  0.50400001928E-02 0. -1.
       -1    1    3    3    0  502 -0.13443231272E+04  0.43692158866E+03  0.20847833992E+04  0.25188145955E+04  0.50400001928E-02 0.  1.
</event>
<event>
 5   0  0.1846850E-06  0.2050861E+04  0.7818609E-02  0.8583204E-01
        1   -1    0    0  501    0  0.00000000000E+00  0.00000000000E+00  0.91191499832E+03  0.91191499834E+03  0.50400001928E-02 0.  1.
       -1   -1    0    0    0  501  0.00000000000E+00  0.00000000000E+00 -0.11530768637E+04  0.11530768637E+04  0.50400001928E-02 0. -1.
    10030    2    1    2    0    0  0.00000000000E+00  0.00000000000E+00 -0.24116186537E+03  0.20649918620E+04  0.20508613666E+04 0.  0.
        5    1    3    3  502    0  0.23136213989E+03  0.28361260190E+03  0.84389224236E+03  0.91985909488E+03  0.46999998093E+01 0.  1.
       -5    1    3    3    0  502 -0.23136213989E+03 -0.28361260190E+03 -0.10850541077E+04  0.11451327672E+04  0.46999998093E+01 0. -1.
</event>
<event>
 5   0  0.5108810E-06  0.3127867E+04  0.7818609E-02  0.8208131E-01
        2   -1    0    0  501    0  0.00000000000E+00  0.00000000000E+00  0.24303880560E+04  0.24303880560E+04  0.25500000920E-02 0. -1.
       -2   -1    0    0    0  501  0.00000000000E+00  0.00000000000E+00 -0.10063778122E+04  0.10063778122E+04  0.25500000920E-02 0.  1.
    10030    2    1    2    0    0  0.00000000000E+00  0.00000000000E+00  0.14240102438E+04  0.34367658682E+04  0.31278673978E+04 0.  0.
        1    1    3    3  502    0 -0.13078581765E+04  0.63307544448E+03  0.76422848432E+02  0.14550319515E+04  0.50400001928E-02 0.  1.
       -1    1    3    3    0  502  0.13078581765E+04 -0.63307544448E+03  0.13475873954E+04  0.19817339167E+04  0.50400001928E-02 0. -1.
</event>
<event>
 5   0  0.5373060E-06  0.3175592E+04  0.7818609E-02  0.8195293E-01
        2   -1    0    0  501    0  0.00000000000E+00  0.00000000000E+00  0.24598460851E+04  0.24598460851E+04  0.25500000920E-02 0. -1.
       -2   -1    0    0    0  501  0.00000000000E+00  0.00000000000E+00 -0.10248996653E+04  0.10248996653E+04  0.25500000920E-02 0.  1.
    10030    2    1    2    0    0  0.00000000000E+00  0.00000000000E+00  0.14349464198E+04  0.34847457504E+04  0.31755915539E+04 0.  0.
        5    1    3    3  502    0 -0.59145457657E+03 -0.82407917641E+03  0.20579288863E+04  0.22943448730E+04  0.46999998093E+01 0. -1.
       -5    1    3    3    0  502  0.59145457657E+03  0.82407917641E+03 -0.62298246658E+03  0.11904008773E+04  0.46999998093E+01 0.  1.
</event>
<event>
 5   0  0.5121624E-06  0.3150636E+04  0.7818609E-02  0.8201977E-01
       -2   -1    0    0    0  501  0.00000000000E+00  0.00000000000E+00  0.16899494968E+04  0.16899494968E+04  0.25500000920E-02 0. -1.
        2   -1    0    0  501    0  0.00000000000E+00  0.00000000000E+00 -0.14684625096E+04  0.14684625096E+04  0.25500000920E-02 0.  1.
    10030    2    1    2    0    0  0.00000000000E+00  0.00000000000E+00  0.22148698729E+03  0.31584120064E+04  0.31506364304E+04 0.  0.
        4    1    3    3  502    0  0.19267945827E+03 -0.21011152837E+03 -0.14423875720E+04  0.14702910422E+04  0.12699999809E+01 0.  1.
       -4    1    3    3    0  502 -0.19267945827E+03  0.21011152837E+03  0.16638745593E+04  0.16881209642E+04  0.12699999809E+01 0. -1.
</event>
<event>
 5   0  0.1846850E-06  0.2952381E+04  0.7818609E-02  0.8257461E-01
        1   -1    0    0  501    0  0.00000000000E+00  0.00000000000E+00  0.22219371114E+04  0.22219371114E+04  0.50400001928E-02 0. -1.
       -1   -1    0    0    0  501  0.00000000000E+00  0.00000000000E+00 -0.98073807467E+03  0.98073807468E+03  0.50400001928E-02 0.  1.
    10030    2    1    2    0    0  0.00000000000E+00  0.00000000000E+00  0.12411990367E+04  0.32026751861E+04  0.29523809542E+04 0.  0.
        5    1    3    3  502    0  0.60241604947E+02 -0.53542805257E+02  0.22195404550E+04  0.22210082855E+04  0.46999998093E+01 0. -1.
       -5    1    3    3    0  502 -0.60241604947E+02  0.53542805257E+02 -0.97834141827E+03  0.98166690057E+03  0.46999998093E+01 0.  1.
</event>
<event>
 5   0  0.1977015E-06  0.2740272E+04  0.7818609E-02  0.8322055E-01
        1   -1    0    0  501    0  0.00000000000E+00  0.00000000000E+00  0.11446726645E+04  0.11446726646E+04  0.50400001928E-02 0. -1.
       -1   -1    0    0    0  501  0.00000000000E+00  0.00000000000E+00 -0.16400083170E+04  0.16400083170E+04  0.50400001928E-02 0.  1.
    10030    2    1    2    0    0  0.00000000000E+00  0.00000000000E+00 -0.49533565247E+03  0.27846809816E+04  0.27402720231E+04 0.  0.
        1    1    3    3  502    0 -0.11169943710E+04  0.51777599347E+02  0.55694364925E+03  0.12492171841E+04  0.50400001928E-02 0. -1.
       -1    1    3    3    0  502  0.11169943710E+04 -0.51777599347E+02 -0.10522793017E+04  0.15354637975E+04  0.50400001928E-02 0.  1.
</event>
<event>
 5   0  0.1969465E-06  0.2987759E+04  0.7818609E-02  0.8247235E-01
        1   -1    0    0  501    0  0.00000000000E+00  0.00000000000E+00  0.16831170688E+04  0.16831170688E+04  0.50400001928E-02 0. -1.
       -1   -1    0    0    0  501  0.00000000000E+00  0.00000000000E+00 -0.13259187706E+04  0.13259187706E+04  0.50400001928E-02 0.  1.
    10030    2    1    2    0    0  0.00000000000E+00  0.00000000000E+00  0.35719829819E+03  0.30090358393E+04  0.29877593709E+04 0.  0.
        2    1    3    3  502    0  0.73489991276E+03 -0.30472240384E+01  0.14884722208E+04  0.16600110600E+04  0.25500000920E-02 0. -1.
       -2    1    3    3    0  502 -0.73489991276E+03  0.30472240384E+01 -0.11312739226E+04  0.13490247793E+04  0.25500000920E-02 0.  1.
</event>
<event>
 5   0  0.1969465E-06  0.3109063E+04  0.7818609E-02  0.8213255E-01
       -1   -1    0    0    0  501  0.00000000000E+00  0.00000000000E+00  0.12190189476E+04  0.12190189476E+04  0.50400001928E-02 0. -1.
        1   -1    0    0  501    0  0.00000000000E+00  0.00000000000E+00 -0.19823880454E+04  0.19823880454E+04  0.50400001928E-02 0.  1.
    10030    2    1    2    0    0  0.00000000000E+00  0.00000000000E+00 -0.76336909782E+03  0.32014069930E+04  0.31090632601E+04 0.  0.
        2    1    3    3  502    0 -0.70963599057E+03 -0.57420969668E+03 -0.16773373144E+04  0.19096493084E+04  0.25500000920E-02 0.  1.
       -2    1    3    3    0  502  0.70963599057E+03  0.57420969668E+03  0.91396821654E+03  0.12917576846E+04  0.25500000920E-02 0. -1.
</event>
<event>
 5   0  0.1846850E-06  0.3062783E+04  0.7818609E-02  0.8226027E-01
        1   -1    0    0  501    0  0.00000000000E+00  0.00000000000E+00  0.15098461306E+04  0.15098461306E+04  0.50400001928E-02 0. -1.
       -1   -1    0    0    0  501  0.00000000000E+00  0.00000000000E+00 -0.15532438578E+04  0.15532438578E+04  0.50400001928E-02 0.  1.
    10030    2    1    2    0    0  0.00000000000E+00  0.00000000000E+00 -0.43397727231E+02  0.30630899885E+04  0.30627825445E+04 0.  0.
        5    1    3    3  502    0 -0.43705843607E+03 -0.96237266158E+03 -0.11299418246E+04  0.15472465328E+04  0.46999998093E+01 0.  1.
       -5    1    3    3    0  502  0.43705843607E+03  0.96237266158E+03  0.10865440974E+04  0.15158434556E+04  0.46999998093E+01 0. -1.
</event>
<event>
 5   0  0.5108810E-06  0.3263808E+04  0.7818609E-02  0.8172166E-01
       -2   -1    0    0    0  501  0.00000000000E+00  0.00000000000E+00  0.14888852953E+04  0.14888852953E+04  0.25500000920E-02 0.  1.
        2   -1    0    0  501    0  0.00000000000E+00  0.00000000000E+00 -0.17886603976E+04  0.17886603976E+04  0.25500000920E-02 0. -1.
    10030    2    1    2    0    0  0.00000000000E+00  0.00000000000E+00 -0.29977510225E+03  0.32775456929E+04  0.32638076931E+04 0.  0.
        1    1    3    3  502    0 -0.10943837603E+04 -0.32126826890E+03 -0.13219425367E+04  0.17459728480E+04  0.50400001928E-02 0. -1.
       -1    1    3    3    0  502  0.10943837603E+04  0.32126826890E+03  0.10221674345E+04  0.15315728450E+04  0.50400001928E-02 0.  1.
</event>
<event>
 5   0  0.1886248E-06  0.3201948E+04  0.7818609E-02  0.8188303E-01
       -1   -1    0    0    0  501  0.00000000000E+00  0.00000000000E+00  0.14190654738E+04  0.14190654738E+04  0.50400001928E-02 0.  1.
        1   -1    0    0  501    0  0.00000000000E+00  0.00000000000E+00 -0.18062013624E+04  0.18062013625E+04  0.50400001928E-02 0. -1.
    10030    2    1    2    0    0  0.00000000000E+00  0.00000000000E+00 -0.38713588868E+03  0.32252668362E+04  0.32019481521E+04 0.  0.
        4    1    3    3  502    0  0.14883469570E+04 -0.13518015151E+03  0.38477902255E+03  0.15432131567E+04  0.12699999809E+01 0.  1.
       -4    1    3    3    0  502 -0.14883469570E+04  0.13518015151E+03 -0.77191491123E+03  0.16820536796E+04  0.12699999809E+01 0. -1.
</event>
<event>
 5   0  0.1977015E-06  0.2831456E+04  0.7818609E-02  0.8293568E-01
        1   -1    0    0  501    0  0.00000000000E+00  0.00000000000E+00  0.22919530172E+04  0.22919530172E+04  0.50400001928E-02 0. -1.
       -1   -1    0    0    0  501  0.00000000000E+00  0.00000000000E+00 -0.87448836330E+03  0.87448836331E+03  0.50400001928E-02 0.  1.
    10030    2    1    2    0    0  0.00000000000E+00  0.00000000000E+00  0.14174646539E+04  0.31664413805E+04  0.28314563340E+04 0.  0.
        1    1    3    3  502    0 -0.19593945099E+03  0.10938535626E+04  0.16896477587E+04  0.20223297044E+04  0.50400001928E-02 0. -1.
       -1    1    3    3    0  502  0.19593945099E+03 -0.10938535626E+04 -0.27218310481E+03  0.11441116761E+04  0.50400001928E-02 0.  1.
</event>
<event>
 5   0  0.5121624E-06  0.3105267E+04  0.7818609E-02  0.8214294E-01
       -2   -1    0    0    0  501  0.00000000000E+00  0.00000000000E+00  0.13680909183E+04  0.13680909183E+04  0.25500000920E-02 0.  1.
        2   -1    0    0  501    0  0.00000000000E+00  0.00000000000E+00 -0.17620696421E+04  0.17620696421E+04  0.25500000920E-02 0. -1.
    10030    2    1    2    0    0  0.00000000000E+00  0.00000000000E+00 -0.39397872383E+03  0.31301605604E+04  0.31052674440E+04 0.  0.
        4    1    3    3  502    0  0.44402168030E+03 -0.29350595121E+03  0.12732532458E+04  0.13800276942E+04  0.12699999809E+01 0.  1.
       -4    1    3    3    0  502 -0.44402168030E+03  0.29350595121E+03 -0.16672319696E+04  0.17501328662E+04  0.12699999809E+01 0. -1.
</event>
<event>
 5   0  0.1846850E-06  0.3204905E+04  0.7818609E-02  0.8187523E-01
       -1   -1    0    0    0  501  0.00000000000E+00  0.00000000000E+00  0.96017860897E+03  0.96017860898E+03  0.50400001928E-02 0. -1.
        1   -1    0    0  501    0  0.00000000000E+00  0.00000000000E+00 -0.26743511407E+04  0.26743511407E+04  0.50400001928E-02 0.  1.
    10030    2    1    2    0    0  0.00000000000E+00  0.00000000000E+00 -0.17141725317E+04  0.36345297497E+04  0.32049054639E+04 0.  0.
        5    1    3    3  502    0  0.12221419651E+04 -0.36987239854E+03  0.24089410053E+03  0.12994185745E+04  0.46999998093E+01 0. -1.
       -5    1    3    3    0  502 -0.12221419651E+04  0.36987239854E+03 -0.19550666322E+04  0.23351111752E+04  0.46999998093E+01 0.  1.
</event>
<event>
 5   0  0.1846850E-06  0.3203413E+04  0.7818609E-02  0.8187916E-01
       -1   -1    0    0    0  501  0.00000000000E+00  0.00000000000E+00  0.16577866947E+04  0.16577866947E+04  0.50400001928E-02 0.  1.
        1   -1    0    0  501    0  0.00000000000E+00  0.00000000000E+00 -0.15475231846E+04  0.15475231846E+04  0.50400001928E-02 0. -1.
    10030    2    1    2    0    0  0.00000000000E+00  0.00000000000E+00  0.11026351008E+03  0.32053098793E+04  0.32034127709E+04 0.  0.
        5    1    3    3  502    0 -0.87513990999E+03  0.11185559753E+04  0.79611330770E+03  0.16281449016E+04  0.46999998093E+01 0. -1.
       -5    1    3    3    0  502  0.87513990999E+03 -0.11185559753E+04 -0.68584979762E+03  0.15771649777E+04  0.46999998093E+01 0.  1.
</event>
<event>
 5   0  0.1969465E-06  0.3167127E+04  0.7818609E-02  0.8197553E-01
       -1   -1    0    0    0  501  0.00000000000E+00  0.00000000000E+00  0.13055718976E+04  0.13055718976E+04  0.50400001928E-02 0. -1.
        1   -1    0    0  501    0  0.00000000000E+00  0.00000000000E+00 -0.19207465186E+04  0.19207465186E+04  0.50400001928E-02 0.  1.
    10030    2    1    2    0    0  0.00000000000E+00  0.00000000000E+00 -0.61517462097E+03  0.32263184162E+04  0.31671265697E+04 0.  0.
        2    1    3    3  502    0 -0.53149316856E+03  0.88406159530E+03  0.91637676608E+03  0.13797812399E+04  0.25500000920E-02 0. -1.
       -2    1    3    3    0  502  0.53149316856E+03 -0.88406159530E+03 -0.15315513870E+04  0.18465371764E+04  0.25500000920E-02 0.  1.
</event>
<event>
 5   0  0.5108810E-06  0.3201199E+04  0.7818609E-02  0.8188501E-01
        2   -1    0    0  501    0  0.00000000000E+00  0.00000000000E+00  0.19117784539E+04  0.19117784539E+04  0.25500000920E-02 0.  1.
       -2   -1    0    0    0  501  0.00000000000E+00  0.00000000000E+00 -0.13400712195E+04  0.13400712195E+04  0.25500000920E-02 0. -1.
    10030    2    1    2    0    0  0.00000000000E+00  0.00000000000E+00  0.57170723441E+03  0.32518496733E+04  0.32011993278E+04 0.  0.
        1    1    3    3  502    0 -0.11678940714E+04 -0.10089551212E+04  0.71677339489E+03  0.17016847823E+04  0.50400001928E-02 0.  1.
       -1    1    3    3    0  502  0.11678940714E+04  0.10089551212E+04 -0.14506616048E+03  0.15501648911E+04  0.50400001928E-02 0. -1.
</event>
<event>
 5   0  0.1886248E-06  0.3083757E+04  0.7818609E-02  0.8220210E-01
        1   -1    0    0  501    0  0.00000000000E+00  0.00000000000E+00  0.71864016909E+03  0.71864016911E+03  0.50400001928E-02 0. -1.
       -1   -1    0    0    0  501  0.00000000000E+00  0.00000000000E+00 -0.33081777462E+04  0.33081777462E+04  0.50400001928E-02 0.  1.
    10030    2    1    2    0    0  0.00000000000E+00  0.00000000000E+00 -0.25895375772E+04  0.40268179154E+04  0.30837570689E+04 0.  0.
        4    1    3    3  502    0 -0.58003258251E+03  0.59242911818E+03 -0.29923178190E+04  0.31050567788E+04  0.12699999809E+01 0.  1.
       -4    1    3    3    0  502  0.58003258251E+03 -0.59242911818E+03  0.40278024180E+03  0.92176113659E+03  0.12699999809E+01 0. -1.
</event>
<event>
 5   0  0.5108810E-06  0.3191387E+04  0.7818609E-02  0.8191096E-01
        2   -1    0    0  501    0  0.00000000000E+00  0.00000000000E+00  0.26663517329E+04  0.26663517329E+04  0.25500000920E-02 0. -1.
       -2   -1    0    0    0  501  0.00000000000E+00  0.00000000000E+00 -0.95495164440E+03  0.95495164440E+03  0.25500000920E-02 0.  1.
    10030    2    1    2    0    0  0.00000000000E+00  0.00000000000E+00  0.17114000885E+04  0.36213033773E+04  0.31913865149E+04 0.  0.
        1    1    3    3  502    0  0.71805129309E+03  0.11507358893E+04 -0.98029109758E+02  0.13599266351E+04  0.50400001928E-02 0.  1.
       -1    1    3    3    0  502 -0.71805129309E+03 -0.11507358893E+04  0.18094291982E+04  0.22613767421E+04  0.50400001928E-02 0. -1.
</event>
<event>
 5   0  0.5131083E-06  0.3199953E+04  0.7818609E-02  0.8188830E-01
        2   -1    0    0  501    0  0.00000000000E+00  0.00000000000E+00  0.16173552744E+04  0.16173552744E+04  0.25500000920E-02 0.  1.
       -2   -1    0    0    0  501  0.00000000000E+00  0.00000000000E+00 -0.15827842391E+04  0.15827842391E+04  0.25500000920E-02 0. -1.
    10030    2    1    2    0    0  0.00000000000E+00  0.00000000000E+00  0.34571035346E+02  0.32001395135E+04  0.31999527730E+04 0.  0.
        3    1    3    3  502    0 -0.15314379618E+04  0.29799160457E+03 -0.33745084314E+03  0.15962375478E+04  0.10100000352E+00 0. -1.
       -3    1    3    3    0  502  0.15314379618E+04 -0.29799160457E+03  0.37202187848E+03  0.16039019657E+04  0.10100000352E+00 0.  1.
</event>
<event>
 5   0  0.5131083E-06  0.3202355E+04  0.7818609E-02  0.8188196E-01
       -2   -1    0    0    0  501  0.00000000000E+00  0.00000000000E+00  0.13334708097E+04  0.13334708097E+04  0.25500000920E-02 0.  1.
        2   -1    0    0  501    0  0.00000000000E+00  0.00000000000E+00 -0.19226285635E+04  0.19226285635E+04  0.25500000920E-02 0. -1.
    10030    2    1    2    0    0  0.00000000000E+00  0.00000000000E+00 -0.58915775375E+03  0.32560993732E+04  0.32023548007E+04 0.  0.
        3    1    3    3  502    0 -0.85443892993E+02 -0.14493018951E+04 -0.98118395765E+03  0.17522838271E+04  0.10100000352E+00 0. -1.
       -3    1    3    3    0  502  0.85443892993E+02  0.14493018951E+04  0.39202620390E+03  0.15038155461E+04  0.10100000352E+00 0.  1.
</event>
<event>
 5   0  0.1977015E-06  0.3070452E+04  0.7818609E-02  0.8223894E-01
        1   -1    0    0  501    0  0.00000000000E+00  0.00000000000E+00  0.18114931459E+04  0.18114931459E+04  0.50400001928E-02 0. -1.
       -1   -1    0    0    0  501  0.00000000000E+00  0.00000000000E+00 -0.13010916565E+04  0.13010916565E+04  0.50400001928E-02 0.  1.
    10030    2    1    2    0    0  0.00000000000E+00  0.00000000000E+00  0.51040148939E+03  0.31125848024E+04  0.30704518352E+04 0.  0.
        1    1    3    3  502    0  0.23964372879E+03  0.32849358978E+03  0.17559139795E+04  0.18023792772E+04  0.50400001928E-02 0. -1.
       -1    1    3    3    0  502 -0.23964372879E+03 -0.32849358978E+03 -0.12455124902E+04  0.13102055253E+04  0.50400001928E-02 0.  1.
</event>
<event>
 5   0  0.1846850E-06  0.3099330E+04  0.7818609E-02  0.8215922E-01
        1   -1    0    0  501    0  0.00000000000E+00  0.00000000000E+00  0.83001001944E+03  0.83001001946E+03  0.50400001928E-02 0.  1.
       -1   -1    0    0    0  501  0.00000000000E+00  0.00000000000E+00 -0.28932918383E+04  0.28932918383E+04  0.50400001928E-02 0. -1.
    10030    2    1    2    0    0  0.00000000000E+00  0.00000000000E+00 -0.20632818189E+04  0.37233018578E+04  0.30993297437E+04 0.  0.
        5    1    3    3  502    0  0.12621574422E+04  0.79033238457E+03 -0.15466331094E+04  0.21470358060E+04  0.46999998093E+01 0.  1.
       -5    1    3    3    0  502 -0.12621574422E+04 -0.79033238457E+03 -0.51664870950E+03  0.15762660518E+04  0.46999998093E+01 0. -1.
</event>
<event>
 5   0  0.5131083E-06  0.3051586E+04  0.7818609E-02  0.8229152E-01
        2   -1    0    0  501    0  0.00000000000E+00  0.00000000000E+00  0.12844867432E+04  0.12844867432E+04  0.25500000920E-02 0. -1.
       -2   -1    0    0    0  501  0.00000000000E+00  0.00000000000E+00 -0.18124315923E+04  0.18124315923E+04  0.25500000920E-02 0.  1.
    10030    2    1    2    0    0  0.00000000000E+00  0.00000000000E+00 -0.52794484911E+03  0.30969183355E+04  0.30515860487E+04 0.  0.
        3    1    3    3  502    0 -0.33651948201E+03 -0.29060629784E+03 -0.17452256297E+04  0.18009747058E+04  0.10100000352E+00 0.  1.
       -3    1    3    3    0  502  0.33651948201E+03  0.29060629784E+03  0.12172807806E+04  0.12959436296E+04  0.10100000352E+00 0. -1.
</event>
<event>
 5   0  0.1846850E-06  0.3137530E+04  0.7818609E-02  0.8205513E-01
        1   -1    0    0  501    0  0.00000000000E+00  0.00000000000E+00  0.22603639870E+04  0.22603639870E+04  0.50400001928E-02 0.  1.
       -1   -1    0    0    0  501  0.00000000000E+00  0.00000000000E+00 -0.10887732487E+04  0.10887732488E+04  0.50400001928E-02 0. -1.
    10030    2    1    2    0    0  0.00000000000E+00  0.00000000000E+00  0.11715907383E+04  0.33491372358E+04  0.31375301379E+04 0.  0.
        5    1    3    3  502    0 -0.20822069217E+03 -0.12815155875E+04 -0.35413951567E+03  0.13457618453E+04  0.46999998093E+01 0. -1.
       -5    1    3    3    0  502  0.20822069217E+03  0.12815155875E+04  0.15257302539E+04  0.20033753905E+04  0.46999998093E+01 0.  1.
</event>
<event>
 5   0  0.5347280E-06  0.3008954E+04  0.7818609E-02  0.8241179E-01
        2   -1    0    0  501    0  0.00000000000E+00  0.00000000000E+00  0.17687643841E+04  0.17687643841E+04  0.25500000920E-02 0.  1.
       -2   -1    0    0    0  501  0.00000000000E+00  0.00000000000E+00 -0.12796789784E+04  0.12796789784E+04  0.25500000920E-02 0. -1.
    10030    2    1    2    0    0  0.00000000000E+00  0.00000000000E+00  0.48908540576E+03  0.30484433625E+04  0.30089537052E+04 0.  0.
        2    1    3    3  502    0 -0.11469342806E+04  0.22297535814E+03  0.12047546894E+04  0.16782759356E+04  0.25500000920E-02 0.  1.
       -2    1    3    3    0  502  0.11469342806E+04 -0.22297535814E+03 -0.71566928365E+03  0.13701674269E+04  0.25500000920E-02 0. -1.
</event>
<event>
 5   0  0.1881144E-06  0.3070534E+04  0.7818609E-02  0.8223872E-01
       -1   -1    0    0    0  501  0.00000000000E+00  0.00000000000E+00  0.13361535831E+04  0.13361535831E+04  0.50400001928E-02 0. -1.
        1   -1    0    0  501    0  0.00000000000E+00  0.00000000000E+00 -0.17640517360E+04  0.17640517360E+04  0.50400001928E-02 0.  1.
    10030    2    1    2    0    0  0.00000000000E+00  0.00000000000E+00 -0.42789815289E+03  0.31002053191E+04  0.30705335353E+04 0.  0.
        3    1    3    3  502    0 -0.37055263719E+03  0.76516751716E+03 -0.15046817905E+04  0.17282528423E+04  0.10100000352E+00 0.  1.
       -3    1    3    3    0  502  0.37055263719E+03 -0.76516751716E+03  0.10767836376E+04  0.13719524768E+04  0.10100000352E+00 0. -1.
</event>
<event>
 5   0  0.1977015E-06  0.3130249E+04  0.7818609E-02  0.8207485E-01
        1   -1    0    0  501    0  0.00000000000E+00  0.00000000000E+00  0.16127374101E+04  0.16127374101E+04  0.50400001928E-02 0. -1.
       -1   -1    0    0    0  501  0.00000000000E+00  0.00000000000E+00 -0.15189170356E+04  0.15189170356E+04  0.50400001928E-02 0.  1.
    10030    2    1    2    0    0  0.00000000000E+00  0.00000000000E+00  0.93820374553E+02  0.31316544457E+04  0.31302487608E+04 0.  0.
        1    1    3    3  502    0 -0.12458246682E+04  0.84808923486E+03  0.46933180878E+03  0.15784824361E+04  0.50400001928E-02 0. -1.
       -1    1    3    3    0  502  0.12458246682E+04 -0.84808923486E+03 -0.37551143423E+03  0.15531720096E+04  0.50400001928E-02 0.  1.
</event>
<event>
 5   0  0.1886248E-06  0.3214380E+04  0.7818609E-02  0.8185030E-01
       -1   -1    0    0    0  501  0.00000000000E+00  0.00000000000E+00  0.17399501019E+04  0.17399501019E+04  0.50400001928E-02 0. -1.
        1   -1    0    0  501    0  0.00000000000E+00  0.00000000000E+00 -0.14845596106E+04  0.14845596106E+04  0.50400001928E-02 0.  1.
    10030    2    1    2    0    0  0.00000000000E+00  0.00000000000E+00  0.25539049128E+03  0.32245097126E+04  0.32143799687E+04 0.  0.
        4    1    3    3  502    0  0.75307760300E+01  0.34675344518E+03 -0.14465696782E+04  0.14875685231E+04  0.12699999809E+01 0.  1.
       -4    1    3    3    0  502 -0.75307760300E+01 -0.34675344518E+03  0.17019601694E+04  0.17369411894E+04  0.12699999809E+01 0. -1.
</event>
<event>
 5   0  0.5121624E-06  0.3177476E+04  0.7818609E-02  0.8194791E-01
       -2   -1    0    0    0  501  0.00000000000E+00  0.00000000000E+00  0.16855821922E+04  0.16855821923E+04  0.25500000920E-02 0. -1.
        2   -1    0    0  501    0  0.00000000000E+00  0.00000000000E+00 -0.14974578128E+04  0.14974578128E+04  0.25500000920E-02 0.  1.
    10030    2    1    2    0    0  0.00000000000E+00  0.00000000000E+00  0.18812437942E+03  0.31830400051E+04  0.31774758680E+04 0.  0.
        4    1    3    3  502    0  0.76788938396E+03 -0.51484840036E+03 -0.12002388785E+04  0.15150240789E+04  0.12699999809E+01 0.  1.
       -4    1    3    3    0  502 -0.76788938396E+03  0.51484840036E+03  0.13883632579E+04  0.16680159262E+04  0.12699999809E+01 0. -1.
</event>
<event>
 5   0  0.1881144E-06  0.2435532E+04  0.7818609E-02  0.8426319E-01
       -1   -1    0    0    0  501  0.00000000000E+00  0.00000000000E+00  0.10072103496E+04  0.10072103496E+04  0.50400001928E-02 0.  1.
        1   -1    0    0  501    0  0.00000000000E+00  0.00000000000E+00 -0.14723383850E+04  0.14723383850E+04  0.50400001928E-02 0. -1.
    10030    2    1    2    0    0  0.00000000000E+00  0.00000000000E+00 -0.46512803539E+03  0.24795487346E+04  0.24355323521E+04 0.  0.
        3    1    3    3  502    0 -0.33912625612E+03  0.82488802373E+03  0.61158183509E+03  0.10814246254E+04  0.10100000352E+00 0.  1.
       -3    1    3    3    0  502  0.33912625612E+03 -0.82488802373E+03 -0.10767098705E+04  0.13981241092E+04  0.10100000352E+00 0. -1.
</event>
<event>
 5   0  0.1846850E-06  0.3194221E+04  0.7818609E-02  0.8190345E-01
        1   -1    0    0  501    0  0.00000000000E+00  0.00000000000E+00  0.21190884418E+04  0.21190884418E+04  0.50400001928E-02 0.  1.
       -1   -1    0    0    0  501  0.00000000000E+00  0.00000000000E+00 -0.12037069481E+04  0.12037069481E+04  0.50400001928E-02 0. -1.
    10030    2    1    2    0    0  0.00000000000E+00  0.00000000000E+00  0.91538149371E+03  0.33227953899E+04  0.31942207069E+04 0.  0.
        5    1    3    3  502    0  0.13994467210E+03 -0.17722854751E+03  0.21023901163E+04  0.21144882976E+04  0.46999998093E+01 0.  1.
       -5    1    3    3    0  502 -0.13994467210E+03  0.17722854751E+03 -0.11870086226E+04  0.12083070924E+04  0.46999998093E+01 0. -1.
</event>
<event>
 5   0  0.1886248E-06  0.3218156E+04  0.7818609E-02  0.8184039E-01
        1   -1    0    0  501    0  0.00000000000E+00  0.00000000000E+00  0.13706884165E+04  0.13706884165E+04  0.50400001928E-02 0. -1.
       -1   -1    0    0    0  501  0.00000000000E+00  0.00000000000E+00 -0.18889280300E+04  0.18889280300E+04  0.50400001928E-02 0.  1.
    10030    2    1    2    0    0  0.00000000000E+00  0.00000000000E+00 -0.51823961347E+03  0.32596164465E+04  0.32181558510E+04 0.  0.
        4    1    3    3  502    0 -0.17135029426E+03  0.13483626378E+04 -0.11314278711E+04  0.17684946612E+04  0.12699999809E+01 0.  1.
       -4    1    3    3    0  502  0.17135029426E+03 -0.13483626378E+04  0.61318825764E+03  0.14911217853E+04  0.12699999809E+01 0. -1.
</event>
<event>
 5   0  0.5347280E-06  0.3197651E+04  0.7818609E-02  0.8189438E-01
       -2   -1    0    0    0  501  0.00000000000E+00  0.00000000000E+00  0.14507285000E+04  0.14507285001E+04  0.25500000920E-02 0. -1.
        2   -1    0    0  501    0  0.00000000000E+00  0.00000000000E+00 -0.17620407261E+04  0.17620407261E+04  0.25500000920E-02 0.  1.
    10030    2    1    2    0    0  0.00000000000E+00  0.00000000000E+00 -0.31131222601E+03  0.32127692261E+04  0.31976508249E+04 0.  0.
        2    1    3    3  502    0  0.18395135830E+03  0.14951004161E+04  0.38267498042E+03  0.15542211867E+04  0.25500000920E-02 0. -1.
       -2    1    3    3    0  502 -0.18395135830E+03 -0.14951004161E+04 -0.69398720643E+03  0.16585480394E+04  0.25500000920E-02 0.  1.
</event>
<event>
 5   0  0.5121624E-06  0.3210527E+04  0.7818609E-02  0.8186043E-01
       -2   -1    0    0    0  501  0.00000000000E+00  0.00000000000E+00  0.12316025815E+04  0.12316025815E+04  0.25500000920E-02 0.  1.
        2   -1    0    0  501    0  0.00000000000E+00  0.00000000000E+00 -0.20922908898E+04  0.20922908898E+04  0.25500000920E-02 0. -1.
    10030    2    1    2    0    0  0.00000000000E+00  0.00000000000E+00 -0.86068830836E+03  0.33238934713E+04  0.32105269730E+04 0.  0.
        4    1    3    3  502    0 -0.11408133867E+04  0.18093519719E+03  0.72377279668E+03  0.13630999240E+04  0.12699999809E+01 0.  1.
       -4    1    3    3    0  502  0.11408133867E+04 -0.18093519719E+03 -0.15844611050E+04  0.19607935473E+04  0.12699999809E+01 0. -1.
</event>
<event>
 5   0  0.5121624E-06  0.3049668E+04  0.7818609E-02  0.8229689E-01
       -2   -1    0    0    0  501  0.00000000000E+00  0.00000000000E+00  0.19384908364E+04  0.19384908364E+04  0.25500000920E-02 0. -1.
        2   -1    0    0  501    0  0.00000000000E+00  0.00000000000E+00 -0.11994475110E+04  0.11994475110E+04  0.25500000920E-02 0.  1.
    10030    2    1    2    0    0  0.00000000000E+00  0.00000000000E+00  0.73904332533E+03  0.31379383474E+04  0.30496675287E+04 0.  0.
        4    1    3    3  502    0  0.14651781965E+04 -0.51374200608E+02  0.80085675364E+03  0.16705566763E+04  0.12699999809E+01 0. -1.
       -4    1    3    3    0  502 -0.14651781965E+04  0.51374200608E+02 -0.61813428310E+02  0.14673816711E+04  0.12699999809E+01 0.  1.
</event>
<event>
 5   0  0.1886248E-06  0.3270660E+04  0.7818609E-02  0.8170401E-01
        1   -1    0    0  501    0  0.00000000000E+00  0.00000000000E+00  0.19557124910E+04  0.19557124910E+04  0.50400001928E-02 0. -1.
       -1   -1    0    0    0  501  0.00000000000E+00  0.00000000000E+00 -0.13674319040E+04  0.13674319040E+04  0.50400001928E-02 0.  1.
    10030    2    1    2    0    0  0.00000000000E+00  0.00000000000E+00  0.58828058704E+03  0.33231443950E+04  0.32706596615E+04 0.  0.
        4    1    3    3  502    0  0.96060487248E+03  0.92052241540E+03 -0.67200183244E+03  0.14905406113E+04  0.12699999809E+01 0.  1.
       -4    1    3    3    0  502 -0.96060487248E+03 -0.92052241540E+03  0.12602824195E+04  0.18326037837E+04  0.12699999809E+01 0. -1.
</event>
<event>
 5   0  0.5347280E-06  0.3177672E+04  0.7818609E-02  0.8194739E-01
        2   -1    0    0  501    0  0.00000000000E+00  0.00000000000E+00  0.26860845852E+04  0.26860845852E+04  0.25500000920E-02 0.  1.
       -2   -1    0    0    0  501  0.00000000000E+00  0.00000000000E+00 -0.93980655379E+03  0.93980655379E+03  0.25500000920E-02 0. -1.
    10030    2    1    2    0    0  0.00000000000E+00  0.00000000000E+00  0.17462780315E+04  0.36258911390E+04  0.31776720392E+04 0.  0.
        2    1    3    3  502    0  0.10977786515E+04  0.29680730520E+03 -0.39296026283E+03  0.12031750963E+04  0.25500000920E-02 0. -1.
       -2    1    3    3    0  502 -0.10977786515E+04 -0.29680730520E+03  0.21392382943E+04  0.24227160428E+04  0.25500000920E-02 0.  1.
</event>
<event>
 5   0  0.5121624E-06  0.3165332E+04  0.7818609E-02  0.8198033E-01
       -2   -1    0    0    0  501  0.00000000000E+00  0.00000000000E+00  0.15460413029E+04  0.15460413029E+04  0.25500000920E-02 0.  1.
        2   -1    0    0  501    0  0.00000000000E+00  0.00000000000E+00 -0.16201585653E+04  0.16201585653E+04  0.25500000920E-02 0. -1.
    10030    2    1    2    0    0  0.00000000000E+00  0.00000000000E+00 -0.74117262388E+02  0.31661998681E+04  0.31653322474E+04 0.  0.
        4    1    3    3  502    0  0.97576932171E+03 -0.59332778709E+03 -0.11331084075E+04  0.16087572559E+04  0.12699999809E+01 0. -1.
       -4    1    3    3    0  502 -0.97576932171E+03  0.59332778709E+03  0.10589911452E+04  0.15574426123E+04  0.12699999809E+01 0.  1.
</event>
<event>
 5   0  0.5373060E-06  0.3191084E+04  0.7818609E-02  0.8191176E-01
        2   -1    0    0  501    0  0.00000000000E+00  0.00000000000E+00  0.13183134257E+04  0.13183134257E+04  0.25500000920E-02 0.  1.
       -2   -1    0    0    0  501  0.00000000000E+00  0.00000000000E+00 -0.19310695174E+04  0.19310695174E+04  0.25500000920E-02 0. -1.
    10030    2    1    2    0    0  0.00000000000E+00  0.00000000000E+00 -0.61275609172E+03  0.32493829431E+04  0.31910843741E+04 0.  0.
        5    1    3    3  502    0 -0.15395448397E+04  0.18643684393E+03 -0.68843364211E+03  0.16967380410E+04  0.46999998093E+01 0. -1.
       -5    1    3    3    0  502  0.15395448397E+04 -0.18643684393E+03  0.75677550395E+02  0.15526449021E+04  0.46999998093E+01 0.  1.
</event>
<event>
 5   0  0.1729500E-06  0.2203735E+04  0.7818609E-02  0.8516875E-01
       -4   -1    0    0    0  501  0.00000000000E+00  0.00000000000E+00  0.84604657964E+03  0.84604753284E+03  0.12699999809E+01 0. -1.
        4   -1    0    0  501    0  0.00000000000E+00  0.00000000000E+00 -0.14350392877E+04  0.14350398497E+04  0.12699999809E+01 0.  1.
    10030    2    1    2    0    0  0.00000000000E+00  0.00000000000E+00 -0.58899270805E+03  0.22810873825E+04  0.22037348381E+04 0.  0.
        2    1    3    3  502    0  0.96410767704E+02  0.87778579084E+03  0.38765687420E+03  0.96440695915E+03  0.25500000920E-02 0. -1.
       -2    1    3    3    0  502 -0.96410767704E+02 -0.87778579084E+03 -0.97664958225E+03  0.13166804234E+04  0.25500000920E-02 0.  1.
</event>
<event>
 5   0  0.5131083E-06  0.3197502E+04  0.7818609E-02  0.8189477E-01
        2   -1    0    0  501    0  0.00000000000E+00  0.00000000000E+00  0.16697740374E+04  0.16697740374E+04  0.25500000920E-02 0.  1.
       -2   -1    0    0    0  501  0.00000000000E+00  0.00000000000E+00 -0.15307486401E+04  0.15307486401E+04  0.25500000920E-02 0. -1.
    10030    2    1    2    0    0  0.00000000000E+00  0.00000000000E+00  0.13902539727E+03  0.32005226775E+04  0.31975017355E+04 0.  0.
        3    1    3    3  502    0 -0.11950943402E+04 -0.26875179253E+03 -0.95884606449E+03  0.15555911396E+04  0.10100000352E+00 0. -1.
       -3    1    3    3    0  502  0.11950943402E+04  0.26875179253E+03  0.10978714618E+04  0.16449315380E+04  0.10100000352E+00 0.  1.
</event>
<event>
 5   0  0.1846850E-06  0.3375404E+04  0.7818609E-02  0.8143969E-01
        1   -1    0    0  501    0  0.00000000000E+00  0.00000000000E+00  0.13184197425E+04  0.13184197425E+04  0.50400001928E-02 0. -1.
       -1   -1    0    0    0  501  0.00000000000E+00  0.00000000000E+00 -0.21604185720E+04  0.21604185720E+04  0.50400001928E-02 0.  1.
    10030    2    1    2    0    0  0.00000000000E+00  0.00000000000E+00 -0.84199882947E+03  0.34788383145E+04  0.33754042705E+04 0.  0.
        5    1    3    3  502    0 -0.68119768145E+03 -0.15798005612E+03  0.11620798094E+04  0.13562593973E+04  0.46999998093E+01 0. -1.
       -5    1    3    3    0  502  0.68119768145E+03  0.15798005612E+03 -0.20040786388E+04  0.21225789172E+04  0.46999998093E+01 0.  1.
</event>
<event>
 5   0  0.1969465E-06  0.3266096E+04  0.7818609E-02  0.8171576E-01
        1   -1    0    0  501    0  0.00000000000E+00  0.00000000000E+00  0.17280796898E+04  0.17280796898E+04  0.50400001928E-02 0. -1.
       -1   -1    0    0    0  501  0.00000000000E+00  0.00000000000E+00 -0.15432424551E+04  0.15432424551E+04  0.50400001928E-02 0.  1.
    10030    2    1    2    0    0  0.00000000000E+00  0.00000000000E+00  0.18483723472E+03  0.32713221449E+04  0.32660961058E+04 0.  0.
        2    1    3    3  502    0 -0.40448637026E+03  0.50931568659E+02 -0.14914537230E+04  0.15461686377E+04  0.25500000920E-02 0.  1.
       -2    1    3    3    0  502  0.40448637026E+03 -0.50931568659E+02  0.16762909577E+04  0.17251535072E+04  0.25500000920E-02 0. -1.
</event>
<event>
 5   0  0.5108810E-06  0.2829947E+04  0.7818609E-02  0.8294031E-01
        2   -1    0    0  501    0  0.00000000000E+00  0.00000000000E+00  0.97502565612E+03  0.97502565612E+03  0.25500000920E-02 0. -1.
       -2   -1    0    0    0  501  0.00000000000E+00  0.00000000000E+00 -0.20534330808E+04  0.20534330808E+04  0.25500000920E-02 0.  1.
    10030    2    1    2    0    0  0.00000000000E+00  0.00000000000E+00 -0.10784074246E+04  0.30284587369E+04  0.28299469514E+04 0.  0.
        1    1    3    3  502    0  0.48219173401E+02 -0.14055772107E+04 -0.37280516261E+03  0.14549763137E+04  0.50400001928E-02 0.  1.
       -1    1    3    3    0  502 -0.48219173401E+02  0.14055772107E+04 -0.70560226203E+03  0.15734824232E+04  0.50400001928E-02 0. -1.
</event>
<event>
 5   0  0.1886248E-06  0.3194081E+04  0.7818609E-02  0.8190382E-01
        1   -1    0    0  501    0  0.00000000000E+00  0.00000000000E+00  0.19363861412E+04  0.19363861412E+04  0.50400001928E-02 0. -1.
       -1   -1    0    0    0  501  0.00000000000E+00  0.00000000000E+00 -0.13171644626E+04  0.13171644626E+04  0.50400001928E-02 0.  1.
    10030    2    1    2    0    0  0.00000000000E+00  0.00000000000E+00  0.61922167860E+03  0.32535506039E+04  0.31940814086E+04 0.  0.
        4    1    3    3  502    0  0.70000289995E+03  0.38552686919E+02  0.17712653056E+04  0.19049600430E+04  0.12699999809E+01 0. -1.
       -4    1    3    3    0  502 -0.70000289995E+03 -0.38552686919E+02 -0.11520436270E+04  0.13485905609E+04  0.12699999809E+01 0.  1.
</event>
<event>
 5   0  0.5131083E-06  0.3172238E+04  0.7818609E-02  0.8196188E-01
        2   -1    0    0  501    0  0.00000000000E+00  0.00000000000E+00  0.20937606244E+04  0.20937606244E+04  0.25500000920E-02 0.  1.
       -2   -1    0    0    0  501  0.00000000000E+00  0.00000000000E+00 -0.12015577076E+04  0.12015577076E+04  0.25500000920E-02 0. -1.
    10030    2    1    2    0    0  0.00000000000E+00  0.00000000000E+00  0.89220291678E+03  0.32953183320E+04  0.31722384627E+04 0.  0.
        3    1    3    3  502    0 -0.12425358252E+04 -0.44715926319E+03  0.13587841417E+04  0.18947667502E+04  0.10100000352E+00 0.  1.
       -3    1    3    3    0  502  0.12425358252E+04  0.44715926319E+03 -0.46658122491E+03  0.14005515818E+04  0.10100000352E+00 0. -1.
</event>
<event>
 5   0  0.1846850E-06  0.3198332E+04  0.7818609E-02  0.8189258E-01
        1   -1    0    0  501    0  0.00000000000E+00  0.00000000000E+00  0.16257681149E+04  0.16257681149E+04  0.50400001928E-02 0. -1.
       -1   -1    0    0    0  501  0.00000000000E+00  0.00000000000E+00 -0.15729989938E+04  0.15729989938E+04  0.50400001928E-02 0.  1.
    10030    2    1    2    0    0  0.00000000000E+00  0.00000000000E+00  0.52769121165E+02  0.31987671087E+04  0.31983318208E+04 0.  0.
        5    1    3    3  502    0  0.28067690428E+03  0.43142470125E+03 -0.14878897702E+04  0.15744030156E+04  0.46999998093E+01 0.  1.
       -5    1    3    3    0  502 -0.28067690428E+03 -0.43142470125E+03  0.15406588913E+04  0.16243640931E+04  0.46999998093E+01 0. -1.
</event>
<event>
 5   0  0.1881144E-06  0.3155572E+04  0.7818609E-02  0.8200650E-01
       -1   -1    0    0    0  501  0.00000000000E+00  0.00000000000E+00  0.12876999655E+04  0.12876999655E+04  0.50400001928E-02 0. -1.
        1   -1    0    0  501    0  0.00000000000E+00  0.00000000000E+00 -0.19332213403E+04  0.19332213403E+04  0.50400001928E-02 0.  1.
    10030    2    1    2    0    0  0.00000000000E+00  0.00000000000E+00 -0.64552137475E+03  0.32209213058E+04  0.31555722481E+04 0.  0.
        3    1    3    3  502    0 -0.79273674368E+03  0.95685226609E+03 -0.13152192126E+04  0.18093643611E+04  0.10100000352E+00 0.  1.
       -3    1    3    3    0  502  0.79273674368E+03 -0.95685226609E+03  0.66969783782E+03  0.14115569447E+04  0.10100000352E+00 0. -1.
</event>
<event>
 5   0  0.1729500E-06  0.3072684E+04  0.7818609E-02  0.8223275E-01
       -3   -1    0    0    0  501  0.00000000000E+00  0.00000000000E+00  0.10249395045E+04  0.10249395095E+04  0.10100000352E+00 0. -1.
        3   -1    0    0  501    0  0.00000000000E+00  0.00000000000E+00 -0.23029136439E+04  0.23029136461E+04  0.10100000352E+00 0.  1.
    10030    2    1    2    0    0  0.00000000000E+00  0.00000000000E+00 -0.12779741394E+04  0.33278531556E+04  0.30726842865E+04 0.  0.
        3    1    3    3  502    0  0.10809469698E+04  0.63707565530E+03 -0.15991993935E+04  0.20326707684E+04  0.10100000352E+00 0.  1.
       -3    1    3    3    0  502 -0.10809469698E+04 -0.63707565530E+03  0.32122525411E+03  0.12951823873E+04  0.10100000352E+00 0. -1.
</event>
<event>
 5   0  0.5347280E-06  0.3232656E+04  0.7818609E-02  0.8180246E-01
       -2   -1    0    0    0  501  0.00000000000E+00  0.00000000000E+00  0.14252336915E+04  0.14252336915E+04  0.25500000920E-02 0.  1.
        2   -1    0    0  501    0  0.00000000000E+00  0.00000000000E+00 -0.18330437580E+04  0.18330437580E+04  0.25500000920E-02 0. -1.
    10030    2    1    2    0    0  0.00000000000E+00  0.00000000000E+00 -0.40781006641E+03  0.32582774495E+04  0.32326557020E+04 0.  0.
        2    1    3    3  502    0 -0.61465486037E+03  0.25979742465E+03  0.12799113194E+04  0.14434224208E+04  0.25500000920E-02 0.  1.
       -2    1    3    3    0  502  0.61465486037E+03 -0.25979742465E+03 -0.16877213858E+04  0.18148550287E+04  0.25500000920E-02 0. -1.
</event>
<event>
 5   0  0.5373060E-06  0.3155196E+04  0.7818609E-02  0.8200751E-01
        2   -1    0    0  501    0  0.00000000000E+00  0.00000000000E+00  0.13859548382E+04  0.13859548382E+04  0.25500000920E-02 0.  1.
       -2   -1    0    0    0  501  0.00000000000E+00  0.00000000000E+00 -0.17957402029E+04  0.17957402029E+04  0.25500000920E-02 0. -1.
    10030    2    1    2    0    0  0.00000000000E+00  0.00000000000E+00 -0.40978536474E+03  0.31816950411E+04  0.31551956024E+04 0.  0.
        5    1    3    3  502    0  0.13969319710E+04 -0.41262686810E+03 -0.81587981951E+03  0.16695394076E+04  0.46999998093E+01 0. -1.
       -5    1    3    3    0  502 -0.13969319710E+04  0.41262686810E+03  0.40609445477E+03  0.15121556335E+04  0.46999998093E+01 0.  1.
</event>
<event>
 5   0  0.1886248E-06  0.3255842E+04  0.7818609E-02  0.8174223E-01
        1   -1    0    0  501    0  0.00000000000E+00  0.00000000000E+00  0.11985623553E+04  0.11985623553E+04  0.50400001928E-02 0. -1.
       -1   -1    0    0    0  501  0.00000000000E+00  0.00000000000E+00 -0.22110879296E+04  0.22110879296E+04  0.50400001928E-02 0.  1.
    10030    2    1    2    0    0  0.00000000000E+00  0.00000000000E+00 -0.10125255743E+04  0.34096502850E+04  0.32558419844E+04 0.  0.
        4    1    3    3  502    0  0.86958242535E+03  0.60605588779E+03 -0.18002081775E+04  0.20890735815E+04  0.12699999809E+01 0.  1.
       -4    1    3    3    0  502 -0.86958242535E+03 -0.60605588779E+03  0.78768260316E+03  0.13205767035E+04  0.12699999809E+01 0. -1.
</event>
<event>
 5   0  0.5121624E-06  0.3217988E+04  0.7818609E-02  0.8184083E-01
       -2   -1    0    0    0  501  0.00000000000E+00  0.00000000000E+00  0.27009497235E+04  0.27009497235E+04  0.25500000920E-02 0.  1.
        2   -1    0    0  501    0  0.00000000000E+00  0.00000000000E+00 -0.95850038056E+03  0.95850038057E+03  0.25500000920E-02 0. -1.
    10030    2    1    2    0    0  0.00000000000E+00  0.00000000000E+00  0.17424493429E+04  0.36594501041E+04  0.32179877799E+04 0.  0.
        4    1    3    3  502    0 -0.84182344534E+03 -0.22815279469E+03 -0.66634953035E+03  0.10976081816E+04  0.12699999809E+01 0. -1.
       -4    1    3    3    0  502  0.84182344534E+03  0.22815279469E+03  0.24087988733E+04  0.25618419225E+04  0.12699999809E+01 0.  1.
</event>
<event>
 5   0  0.1846850E-06  0.3105677E+04  0.7818609E-02  0.8214182E-01
       -1   -1    0    0    0  501  0.00000000000E+00  0.00000000000E+00  0.10748692121E+04  0.10748692121E+04  0.50400001928E-02 0. -1.
        1   -1    0    0  501    0  0.00000000000E+00  0.00000000000E+00 -0.22433501846E+04  0.22433501846E+04  0.50400001928E-02 0.  1.
    10030    2    1    2    0    0  0.00000000000E+00  0.00000000000E+00 -0.11684809725E+04  0.33182193967E+04  0.31056774111E+04 0.  0.
        5    1    3    3  502    0 -0.12456010653E+04 -0.92504868258E+03 -0.65222594218E+03  0.16830501622E+04  0.46999998093E+01 0. -1.
       -5    1    3    3    0  502  0.12456010653E+04  0.92504868258E+03 -0.51625503030E+03  0.16351692345E+04  0.46999998093E+01 0.  1.
</event>
<event>
 5   0  0.5347280E-06  0.3112255E+04  0.7818609E-02  0.8212383E-01
       -2   -1    0    0    0  501  0.00000000000E+00  0.00000000000E+00  0.13729970951E+04  0.13729970951E+04  0.25500000920E-02 0. -1.
        2   -1    0    0  501    0  0.00000000000E+00  0.00000000000E+00 -0.17636834667E+04  0.17636834667E+04  0.25500000920E-02 0.  1.
    10030    2    1    2    0    0  0.00000000000E+00  0.00000000000E+00 -0.39068637160E+03  0.31366805617E+04  0.31122546659E+04 0.  0.
        2    1    3    3  502    0  0.25247193058E+03 -0.21042142574E+03 -0.17283043062E+04  0.17592768478E+04  0.25500000920E-02 0.  1.
       -2    1    3    3    0  502 -0.25247193058E+03  0.21042142574E+03  0.13376179346E+04  0.13774037139E+04  0.25500000920E-02 0. -1.
</event>
<event>
 5   0  0.5131083E-06  0.3190927E+04  0.7818609E-02  0.8191217E-01
       -2   -1    0    0    0  501  0.00000000000E+00  0.00000000000E+00  0.11219166871E+04  0.11219166872E+04  0.25500000920E-02 0. -1.
        2   -1    0    0  501    0  0.00000000000E+00  0.00000000000E+00 -0.22688882082E+04  0.22688882082E+04  0.25500000920E-02 0.  1.
    10030    2    1    2    0    0  0.00000000000E+00  0.00000000000E+00 -0.11469715210E+04  0.33908048953E+04  0.31909268510E+04 0.  0.
        3    1    3    3  502    0  0.39334863048E+02 -0.14540111048E+03  0.11143439971E+04  0.11244782205E+04  0.10100000352E+00 0. -1.
       -3    1    3    3    0  502 -0.39334863048E+02  0.14540111048E+03 -0.22613155181E+04  0.22663266748E+04  0.10100000352E+00 0.  1.
</event>
<event>
 5   0  0.1969465E-06  0.2940806E+04  0.7818609E-02  0.8260839E-01
       -1   -1    0    0    0  501  0.00000000000E+00  0.00000000000E+00  0.11772843942E+04  0.11772843942E+04  0.50400001928E-02 0.  1.
        1   -1    0    0  501    0  0.00000000000E+00  0.00000000000E+00 -0.18365024495E+04  0.18365024495E+04  0.50400001928E-02 0. -1.
    10030    2    1    2    0    0  0.00000000000E+00  0.00000000000E+00 -0.65921805529E+03  0.30137868436E+04  0.29408064701E+04 0.  0.
        2    1    3    3  502    0 -0.79882092686E+03  0.67018388652E+03  0.73285647459E+03  0.12744959503E+04  0.25500000920E-02 0.  1.
       -2    1    3    3    0  502  0.79882092686E+03 -0.67018388652E+03 -0.13920745299E+04  0.17392908934E+04  0.25500000920E-02 0. -1.
</event>
<event>
 5   0  0.1846850E-06  0.1974209E+04  0.7818609E-02  0.8618775E-01
       -1   -1    0    0    0  501  0.00000000000E+00  0.00000000000E+00  0.79992634922E+03  0.79992634923E+03  0.50400001928E-02 0. -1.
        1   -1    0    0  501    0  0.00000000000E+00  0.00000000000E+00 -0.12180806878E+04  0.12180806879E+04  0.50400001928E-02 0.  1.
    10030    2    1    2    0    0  0.00000000000E+00  0.00000000000E+00 -0.41815433863E+03  0.20180070371E+04  0.19742085378E+04 0.  0.
        5    1    3    3  502    0 -0.37897241673E+03 -0.90625051867E+03 -0.10974803421E+03  0.98842137585E+03  0.46999998093E+01 0. -1.
       -5    1    3    3    0  502  0.37897241673E+03  0.90625051867E+03 -0.30840630442E+03  0.10295856612E+04  0.46999998093E+01 0.  1.
</event>
<event>
 5   0  0.5131083E-06  0.2959552E+04  0.7818609E-02  0.8255376E-01
       -2   -1    0    0    0  501  0.00000000000E+00  0.00000000000E+00  0.14741577668E+04  0.14741577668E+04  0.25500000920E-02 0. -1.
        2   -1    0    0  501    0  0.00000000000E+00  0.00000000000E+00 -0.14854153381E+04  0.14854153381E+04  0.25500000920E-02 0.  1.
    10030    2    1    2    0    0  0.00000000000E+00  0.00000000000E+00 -0.11257571301E+02  0.29595731048E+04  0.29595516941E+04 0.  0.
        3    1    3    3  502    0  0.14022200579E+04  0.15545603168E+03 -0.45211704192E+03  0.14814848965E+04  0.10100000352E+00 0.  1.
       -3    1    3    3    0  502 -0.14022200579E+04 -0.15545603168E+03  0.44085947062E+03  0.14780882084E+04  0.10100000352E+00 0. -1.
</event>
<event>
 5   0  0.5131083E-06  0.3369407E+04  0.7818609E-02  0.8145456E-01
        2   -1    0    0  501    0  0.00000000000E+00  0.00000000000E+00  0.22317391424E+04  0.22317391424E+04  0.25500000920E-02 0.  1.
       -2   -1    0    0    0  501  0.00000000000E+00  0.00000000000E+00 -0.12717551968E+04  0.12717551968E+04  0.25500000920E-02 0. -1.
    10030    2    1    2    0    0  0.00000000000E+00  0.00000000000E+00  0.95998394560E+03  0.35034943392E+04  0.33694069818E+04 0.  0.
        3    1    3    3  502    0  0.86829388520E+03  0.14198055656E+04  0.75202070243E+03  0.18262850988E+04  0.10100000352E+00 0. -1.
       -3    1    3    3    0  502 -0.86829388520E+03 -0.14198055656E+04  0.20796324317E+03  0.16772092403E+04  0.10100000352E+00 0.  1.
</event>
<event>
 5   0  0.5347280E-06  0.2999078E+04  0.7818609E-02  0.8243994E-01
        2   -1    0    0  501    0  0.00000000000E+00  0.00000000000E+00  0.21584575664E+04  0.21584575664E+04  0.25500000920E-02 0. -1.
       -2   -1    0    0    0  501  0.00000000000E+00  0.00000000000E+00 -0.10417707478E+04  0.10417707478E+04  0.25500000920E-02 0.  1.
    10030    2    1    2    0    0  0.00000000000E+00  0.00000000000E+00  0.11166868186E+04  0.32002283143E+04  0.29990784939E+04 0.  0.
        2    1    3    3  502    0  0.12770167888E+04  0.10478739539E+03  0.13896082620E+04  0.18901754942E+04  0.25500000920E-02 0. -1.
       -2    1    3    3    0  502 -0.12770167888E+04 -0.10478739539E+03 -0.27292144345E+03  0.13100528201E+04  0.25500000920E-02 0.  1.
</event>
<event>
 5   0  0.1977015E-06  0.3202564E+04  0.7818609E-02  0.8188140E-01
       -1   -1    0    0    0  501  0.00000000000E+00  0.00000000000E+00  0.12265087040E+04  0.12265087041E+04  0.50400001928E-02 0.  1.
        1   -1    0    0  501    0  0.00000000000E+00  0.00000000000E+00 -0.20905720446E+04  0.20905720446E+04  0.50400001928E-02 0. -1.
    10030    2    1    2    0    0  0.00000000000E+00  0.00000000000E+00 -0.86406334059E+03  0.33170807487E+04  0.32025644782E+04 0.  0.
        1    1    3    3  502    0 -0.44130107802E+03  0.32432911148E+02 -0.20259904796E+04  0.20737492516E+04  0.50400001928E-02 0. -1.
       -1    1    3    3    0  502  0.44130107802E+03 -0.32432911148E+02  0.11619271390E+04  0.12433314971E+04  0.50400001928E-02 0.  1.
</event>
<event>
 5   0  0.5121624E-06  0.3162275E+04  0.7818609E-02  0.8198852E-01
       -2   -1    0    0    0  501  0.00000000000E+00  0.00000000000E+00  0.22630112014E+04  0.22630112015E+04  0.25500000920E-02 0. -1.
        2   -1    0    0  501    0  0.00000000000E+00  0.00000000000E+00 -0.11047207009E+04  0.11047207009E+04  0.25500000920E-02 0.  1.
    10030    2    1    2    0    0  0.00000000000E+00  0.00000000000E+00  0.11582905006E+04  0.33677319023E+04  0.31622747006E+04 0.  0.
        4    1    3    3  502    0 -0.11666938499E+04  0.10486059043E+03 -0.55184398861E+03  0.12948759336E+04  0.12699999809E+01 0.  1.
       -4    1    3    3    0  502  0.11666938499E+04 -0.10486059043E+03  0.17101344892E+04  0.20728559687E+04  0.12699999809E+01 0. -1.
</event>
<event>
 5   0  0.5131083E-06  0.3179835E+04  0.7818609E-02  0.8194163E-01
        2   -1    0    0  501    0  0.00000000000E+00  0.00000000000E+00  0.21573572486E+04  0.21573572486E+04  0.25500000920E-02 0.  1.
       -2   -1    0    0    0  501  0.00000000000E+00  0.00000000000E+00 -0.11717287739E+04  0.11717287739E+04  0.25500000920E-02 0. -1.
    10030    2    1    2    0    0  0.00000000000E+00  0.00000000000E+00  0.98562847466E+03  0.33290860225E+04  0.31798349415E+04 0.  0.
        3    1    3    3  502    0  0.14808126989E+04 -0.12430304008E+03  0.10846623622E+04  0.18397689924E+04  0.10100000352E+00 0.  1.
       -3    1    3    3    0  502 -0.14808126989E+04  0.12430304008E+03 -0.99033887559E+02  0.14893170301E+04  0.10100000352E+00 0. -1.
</event>
<event>
 5   0  0.1969465E-06  0.3082275E+04  0.7818609E-02  0.8220619E-01
       -1   -1    0    0    0  501  0.00000000000E+00  0.00000000000E+00  0.10366166500E+04  0.10366166500E+04  0.50400001928E-02 0. -1.
        1   -1    0    0  501    0  0.00000000000E+00  0.00000000000E+00 -0.22912085970E+04  0.22912085970E+04  0.50400001928E-02 0.  1.
    10030    2    1    2    0    0  0.00000000000E+00  0.00000000000E+00 -0.12545919471E+04  0.33278252470E+04  0.30822751209E+04 0.  0.
        2    1    3    3  502    0 -0.39283580187E+03 -0.13547490037E+04 -0.12975934545E+04  0.19166151422E+04  0.25500000920E-02 0. -1.
       -2    1    3    3    0  502  0.39283580187E+03  0.13547490037E+04  0.43001507404E+02  0.14112101048E+04  0.25500000920E-02 0.  1.
</event>
<event>
 5   0  0.1977015E-06  0.3195532E+04  0.7818609E-02  0.8189998E-01
       -1   -1    0    0    0  501  0.00000000000E+00  0.00000000000E+00  0.13283267625E+04  0.13283267625E+04  0.50400001928E-02 0.  1.
        1   -1    0    0  501    0  0.00000000000E+00  0.00000000000E+00 -0.19218587363E+04  0.19218587363E+04  0.50400001928E-02 0. -1.
    10030    2    1    2    0    0  0.00000000000E+00  0.00000000000E+00 -0.59353197378E+03  0.32501854988E+04  0.31955321267E+04 0.  0.
        1    1    3    3  502    0 -0.99298287736E+03 -0.76549028210E+03  0.71055946281E+03  0.14411402142E+04  0.50400001928E-02 0.  1.
       -1    1    3    3    0  502  0.99298287736E+03  0.76549028210E+03 -0.13040914366E+04  0.18090452846E+04  0.50400001928E-02 0. -1.
</event>
<event>
 5   0  0.5108810E-06  0.3176404E+04  0.7818609E-02  0.8195077E-01
       -2   -1    0    0    0  501  0.00000000000E+00  0.00000000000E+00  0.12830693584E+04  0.12830693584E+04  0.25500000920E-02 0.  1.
        2   -1    0    0  501    0  0.00000000000E+00  0.00000000000E+00 -0.19658993768E+04  0.19658993768E+04  0.25500000920E-02 0. -1.
    10030    2    1    2    0    0  0.00000000000E+00  0.00000000000E+00 -0.68283001843E+03  0.32489687352E+04  0.31764037854E+04 0.  0.
        1    1    3    3  502    0  0.37017011308E+02 -0.22148531285E+03  0.12667495272E+04  0.12864992684E+04  0.50400001928E-02 0.  1.
       -1    1    3    3    0  502 -0.37017011308E+02  0.22148531285E+03 -0.19495795457E+04  0.19624694667E+04  0.50400001928E-02 0. -1.
</event>
<event>
 5   0  0.1846850E-06  0.2840696E+04  0.7818609E-02  0.8290744E-01
       -1   -1    0    0    0  501  0.00000000000E+00  0.00000000000E+00  0.70160509055E+03  0.70160509057E+03  0.50400001928E-02 0. -1.
        1   -1    0    0  501    0  0.00000000000E+00  0.00000000000E+00 -0.28753893157E+04  0.28753893157E+04  0.50400001928E-02 0.  1.
    10030    2    1    2    0    0  0.00000000000E+00  0.00000000000E+00 -0.21737842251E+04  0.35769944062E+04  0.28406955354E+04 0.  0.
        5    1    3    3  502    0  0.49491426833E+01  0.11019038949E+04  0.41582088440E+02  0.11027093215E+04  0.46999998093E+01 0. -1.
       -5    1    3    3    0  502 -0.49491426833E+01 -0.11019038949E+04 -0.22153663136E+04  0.24742850848E+04  0.46999998093E+01 0.  1.
</event>
<event>
 5   0  0.1977015E-06  0.3184499E+04  0.7818609E-02  0.8192923E-01
       -1   -1    0    0    0  501  0.00000000000E+00  0.00000000000E+00  0.11859516872E+04  0.11859516872E+04  0.50400001928E-02 0.  1.
        1   -1    0    0  501    0  0.00000000000E+00  0.00000000000E+00 -0.21377418218E+04  0.21377418218E+04  0.50400001928E-02 0. -1.
    10030    2    1    2    0    0  0.00000000000E+00  0.00000000000E+00 -0.95179013461E+03  0.33236935091E+04  0.31844990316E+04 0.  0.
        1    1    3    3  502    0  0.14806547752E+04  0.53755790206E+03 -0.23346781178E+03  0.15924240266E+04  0.50400001928E-02 0. -1.
       -1    1    3    3    0  502 -0.14806547752E+04 -0.53755790206E+03 -0.71832232283E+03  0.17312694825E+04  0.50400001928E-02 0.  1.
</event>
<event>
 5   0  0.5131083E-06  0.3099245E+04  0.7818609E-02  0.8215945E-01
        2   -1    0    0  501    0  0.00000000000E+00  0.00000000000E+00  0.19327031342E+04  0.19327031342E+04  0.25500000920E-02 0. -1.
       -2   -1    0    0    0  501  0.00000000000E+00  0.00000000000E+00 -0.12424722905E+04  0.12424722905E+04  0.25500000920E-02 0.  1.
    10030    2    1    2    0    0  0.00000000000E+00  0.00000000000E+00  0.69023084373E+03  0.31751754248E+04  0.30992451275E+04 0.  0.
        3    1    3    3  502    0 -0.74029952539E+03  0.63835578522E+03  0.15769834766E+04  0.18553755392E+04  0.10100000352E+00 0. -1.
       -3    1    3    3    0  502  0.74029952539E+03 -0.63835578522E+03 -0.88675263286E+03  0.13197998856E+04  0.10100000352E+00 0.  1.
</event>
<event>
 5   0  0.1977015E-06  0.3526353E+04  0.7818609E-02  0.8107573E-01
       -1   -1    0    0    0  501  0.00000000000E+00  0.00000000000E+00  0.23314407520E+04  0.23314407520E+04  0.50400001928E-02 0.  1.
        1   -1    0    0  501    0  0.00000000000E+00  0.00000000000E+00 -0.13334210415E+04  0.13334210416E+04  0.50400001928E-02 0. -1.
    10030    2    1    2    0    0  0.00000000000E+00  0.00000000000E+00  0.99801971042E+03  0.36648617935E+04  0.35263534456E+04 0.  0.
        1    1    3    3  502    0  0.16308417564E+04 -0.57856707244E+03  0.14748264949E+03  0.17367025720E+04  0.50400001928E-02 0. -1.
       -1    1    3    3    0  502 -0.16308417564E+04  0.57856707244E+03  0.85053706093E+03  0.19281592215E+04  0.50400001928E-02 0.  1.
</event>
<event>
 5   0  0.1977015E-06  0.3324921E+04  0.7818609E-02  0.8156583E-01
        1   -1    0    0  501    0  0.00000000000E+00  0.00000000000E+00  0.16769018922E+04  0.16769018922E+04  0.50400001928E-02 0.  1.
       -1   -1    0    0    0  501  0.00000000000E+00  0.00000000000E+00 -0.16481436253E+04  0.16481436254E+04  0.50400001928E-02 0. -1.
    10030    2    1    2    0    0  0.00000000000E+00  0.00000000000E+00  0.28758266851E+02  0.33250455176E+04  0.33249211503E+04 0.  0.
        1    1    3    3  502    0  0.96124029953E+03  0.11457852653E+04  0.74033216156E+03  0.16688015152E+04  0.50400001928E-02 0.  1.
       -1    1    3    3    0  502 -0.96124029953E+03 -0.11457852653E+04 -0.71157389471E+03  0.16562440024E+04  0.50400001928E-02 0. -1.
</event>
<event>
 5   0  0.1969465E-06  0.2550442E+04  0.7818609E-02  0.8385233E-01
       -1   -1    0    0    0  501  0.00000000000E+00  0.00000000000E+00  0.14356797899E+04  0.14356797899E+04  0.50400001928E-02 0.  1.
        1   -1    0    0  501    0  0.00000000000E+00  0.00000000000E+00 -0.11326956236E+04  0.11326956236E+04  0.50400001928E-02 0. -1.
    10030    2    1    2    0    0  0.00000000000E+00  0.00000000000E+00  0.30298416632E+03  0.25683754135E+04  0.25504416990E+04 0.  0.
        2    1    3    3  502    0  0.99206865001E+03  0.64534901255E+03 -0.32672883386E+03  0.12277733037E+04  0.25500000920E-02 0. -1.
       -2    1    3    3    0  502 -0.99206865001E+03 -0.64534901255E+03  0.62971300018E+03  0.13406021099E+04  0.25500000920E-02 0.  1.
</event>
<event>
 5   0  0.5108810E-06  0.3247072E+04  0.7818609E-02  0.8176495E-01
       -2   -1    0    0    0  501  0.00000000000E+00  0.00000000000E+00  0.27837987070E+04  0.27837987070E+04  0.25500000920E-02 0.  1.
        2   -1    0    0  501    0  0.00000000000E+00  0.00000000000E+00 -0.94686026830E+03  0.94686026830E+03  0.25500000920E-02 0. -1.
    10030    2    1    2    0    0  0.00000000000E+00  0.00000000000E+00  0.18369384387E+04  0.37306589753E+04  0.32470715364E+04 0.  0.
        1    1    3    3  502    0  0.17300867263E+03 -0.97687858794E+03  0.23950322733E+04  0.25923740792E+04  0.50400001928E-02 0.  1.
       -1    1    3    3    0  502 -0.17300867263E+03  0.97687858794E+03 -0.55809383461E+03  0.11382848961E+04  0.50400001928E-02 0. -1.
</event>
<event>
 5   0  0.1729500E-06  0.3193117E+04  0.7818609E-02  0.8190637E-01
       -3   -1    0    0    0  501  0.00000000000E+00  0.00000000000E+00  0.15360279347E+04  0.15360279380E+04  0.10100000352E+00 0.  1.
        3   -1    0    0  501    0  0.00000000000E+00  0.00000000000E+00 -0.16594747764E+04  0.16594747795E+04  0.10100000352E+00 0. -1.
    10030    2    1    2    0    0  0.00000000000E+00  0.00000000000E+00 -0.12344684171E+03  0.31955027176E+04  0.31931173632E+04 0.  0.
        3    1    3    3  502    0  0.11335518221E+04 -0.92808870901E+03 -0.69679280903E+03  0.16222849978E+04  0.10100000352E+00 0. -1.
       -3    1    3    3    0  502 -0.11335518221E+04  0.92808870901E+03  0.57334596731E+03  0.15732177197E+04  0.10100000352E+00 0.  1.
</event>
<event>
 5   0  0.5131083E-06  0.3245925E+04  0.7818609E-02  0.8176793E-01
       -2   -1    0    0    0  501  0.00000000000E+00  0.00000000000E+00  0.24077430554E+04  0.24077430554E+04  0.25500000920E-02 0. -1.
        2   -1    0    0  501    0  0.00000000000E+00  0.00000000000E+00 -0.10939735160E+04  0.10939735160E+04  0.25500000920E-02 0.  1.
    10030    2    1    2    0    0  0.00000000000E+00  0.00000000000E+00  0.13137695394E+04  0.35017165714E+04  0.32459249134E+04 0.  0.
        3    1    3    3  502    0 -0.48981627602E+03 -0.46416269144E+02  0.23253493735E+04  0.23768306993E+04  0.10100000352E+00 0. -1.
       -3    1    3    3    0  502  0.48981627602E+03  0.46416269144E+02 -0.10115798340E+04  0.11248858720E+04  0.10100000352E+00 0.  1.
</event>
<event>
 5   0  0.5347280E-06  0.3236142E+04  0.7818609E-02  0.8179337E-01
       -2   -1    0    0    0  501  0.00000000000E+00  0.00000000000E+00  0.15728351579E+04  0.15728351579E+04  0.25500000920E-02 0. -1.
        2   -1    0    0  501    0  0.00000000000E+00  0.00000000000E+00 -0.16646081398E+04  0.16646081398E+04  0.25500000920E-02 0.  1.
    10030    2    1    2    0    0  0.00000000000E+00  0.00000000000E+00 -0.91772981865E+02  0.32374432977E+04  0.32361422752E+04 0.  0.
        2    1    3    3  502    0  0.10683942534E+04 -0.47936932999E+03 -0.11629790325E+04  0.16503882772E+04  0.25500000920E-02 0.  1.
       -2    1    3    3    0  502 -0.10683942534E+04  0.47936932999E+03  0.10712060507E+04  0.15870550205E+04  0.25500000920E-02 0. -1.
</event>
<event>
 5   0  0.5121624E-06  0.2448521E+04  0.7818609E-02  0.8421558E-01
       -2   -1    0    0    0  501  0.00000000000E+00  0.00000000000E+00  0.12174587778E+04  0.12174587778E+04  0.25500000920E-02 0. -1.
        2   -1    0    0  501    0  0.00000000000E+00  0.00000000000E+00 -0.12311003285E+04  0.12311003285E+04  0.25500000920E-02 0.  1.
    10030    2    1    2    0    0  0.00000000000E+00  0.00000000000E+00 -0.13641550734E+02  0.24485591062E+04  0.24485211057E+04 0.  0.
        4    1    3    3  502    0 -0.76063774485E+02  0.10966377913E+04 -0.54572815116E+03  0.12272819443E+04  0.12699999809E+01 0.  1.
       -4    1    3    3    0  502  0.76063774485E+02 -0.10966377913E+04  0.53208660042E+03  0.12212771619E+04  0.12699999809E+01 0. -1.
</event>
<event>
 5   0  0.5131083E-06  0.3242873E+04  0.7818609E-02  0.8177585E-01
       -2   -1    0    0    0  501  0.00000000000E+00  0.00000000000E+00  0.12683085728E+04  0.12683085728E+04  0.25500000920E-02 0. -1.
        2   -1    0    0  501    0  0.00000000000E+00  0.00000000000E+00 -0.20728835025E+04  0.20728835025E+04  0.25500000920E-02 0.  1.
    10030    2    1    2    0    0  0.00000000000E+00  0.00000000000E+00 -0.80457492968E+03  0.33411920753E+04  0.32428727491E+04 0.  0.
        3    1    3    3  502    0 -0.10050881186E+04  0.92415695454E+03  0.49874820466E+03  0.14536223666E+04  0.10100000352E+00 0. -1.
       -3    1    3    3    0  502  0.10050881186E+04 -0.92415695454E+03 -0.13033231343E+04  0.18875697088E+04  0.10100000352E+00 0.  1.
</event>
<event>
 5   0  0.1977015E-06  0.3199428E+04  0.7818609E-02  0.8188968E-01
        1   -1    0    0  501    0  0.00000000000E+00  0.00000000000E+00  0.14810608571E+04  0.14810608571E+04  0.50400001928E-02 0. -1.
       -1   -1    0    0    0  501  0.00000000000E+00  0.00000000000E+00 -0.17278725512E+04  0.17278725512E+04  0.50400001928E-02 0.  1.
    10030    2    1    2    0    0  0.00000000000E+00  0.00000000000E+00 -0.24681169412E+03  0.32089334084E+04  0.31994276999E+04 0.  0.
        1    1    3    3  502    0 -0.11297127567E+04 -0.10591302006E+04  0.27913019863E+03  0.15735060731E+04  0.50400001928E-02 0. -1.
       -1    1    3    3    0  502  0.11297127567E+04  0.10591302006E+04 -0.52594189274E+03  0.16354273352E+04  0.50400001928E-02 0.  1.
</event>
<event>
 5   0  0.1729500E-06  0.3038586E+04  0.7818609E-02  0.8232797E-01
       -3   -1    0    0    0  501  0.00000000000E+00  0.00000000000E+00  0.22323553390E+04  0.22323553413E+04  0.10100000352E+00 0. -1.
        3   -1    0    0  501    0  0.00000000000E+00  0.00000000000E+00 -0.10339984254E+04  0.10339984303E+04  0.10100000352E+00 0.  1.
    10030    2    1    2    0    0  0.00000000000E+00  0.00000000000E+00  0.11983569137E+04  0.32663537716E+04  0.30385864590E+04 0.  0.
        1    1    3    3  502    0 -0.11001327482E+04  0.23177715094E+03 -0.49930019125E+03  0.12301680342E+04  0.50400001928E-02 0.  1.
       -1    1    3    3    0  502  0.11001327482E+04 -0.23177715094E+03  0.16976571049E+04  0.20361857374E+04  0.50400001928E-02 0. -1.
</event>
<event>
 5   0  0.5121624E-06  0.3093118E+04  0.7818609E-02  0.8217629E-01
       -2   -1    0    0    0  501  0.00000000000E+00  0.00000000000E+00  0.18226622444E+04  0.18226622444E+04  0.25500000920E-02 0.  1.
        2   -1    0    0  501    0  0.00000000000E+00  0.00000000000E+00 -0.13122806845E+04  0.13122806845E+04  0.25500000920E-02 0. -1.
    10030    2    1    2    0    0  0.00000000000E+00  0.00000000000E+00  0.51038155984E+03  0.31349429289E+04  0.30931178172E+04 0.  0.
        4    1    3    3  502    0  0.11175882489E+03  0.11221963709E+04  0.13278150973E+04  0.17420991003E+04  0.12699999809E+01 0.  1.
       -4    1    3    3    0  502 -0.11175882489E+03 -0.11221963709E+04 -0.81743353745E+03  0.13928438286E+04  0.12699999809E+01 0. -1.
</event>
<event>
 5   0  0.5347280E-06  0.2551662E+04  0.7818609E-02  0.8384808E-01
       -2   -1    0    0    0  501  0.00000000000E+00  0.00000000000E+00  0.14392079345E+04  0.14392079345E+04  0.25500000920E-02 0. -1.
        2   -1    0    0  501    0  0.00000000000E+00  0.00000000000E+00 -0.11310002500E+04  0.11310002500E+04  0.25500000920E-02 0.  1.
    10030    2    1    2    0    0  0.00000000000E+00  0.00000000000E+00  0.30820768450E+03  0.25702081846E+04  0.25516618380E+04 0.  0.
        2    1    3    3  502    0 -0.76961249522E+03 -0.60185229330E+03 -0.67235658271E+03  0.11859987142E+04  0.25500000920E-02 0.  1.
       -2    1    3    3    0  502  0.76961249522E+03  0.60185229330E+03  0.98056426721E+03  0.13842094704E+04  0.25500000920E-02 0. -1.
</event>
<event>
 5   0  0.1969465E-06  0.2985580E+04  0.7818609E-02  0.8247861E-01
       -1   -1    0    0    0  501  0.00000000000E+00  0.00000000000E+00  0.25168017358E+04  0.25168017358E+04  0.50400001928E-02 0.  1.
        1   -1    0    0  501    0  0.00000000000E+00  0.00000000000E+00 -0.88541795453E+03  0.88541795454E+03  0.50400001928E-02 0. -1.
    10030    2    1    2    0    0  0.00000000000E+00  0.00000000000E+00  0.16313837813E+04  0.34022196904E+04  0.29855796388E+04 0.  0.
        2    1    3    3  502    0  0.34624158964E+03 -0.56018162556E+03  0.23423220215E+04  0.24331377159E+04  0.25500000920E-02 0.  1.
       -2    1    3    3    0  502 -0.34624158964E+03  0.56018162556E+03 -0.71093824017E+03  0.96908197453E+03  0.25500000920E-02 0. -1.
</event>
<event>
 5   0  0.1729500E-06  0.2842923E+04  0.7818609E-02  0.8290065E-01
        4   -1    0    0  501    0  0.00000000000E+00  0.00000000000E+00  0.12902708004E+04  0.12902714254E+04  0.12699999809E+01 0. -1.
       -4   -1    0    0    0  501  0.00000000000E+00  0.00000000000E+00 -0.15659900193E+04  0.15659905342E+04  0.12699999809E+01 0.  1.
    10030    2    1    2    0    0  0.00000000000E+00  0.00000000000E+00 -0.27571921888E+03  0.28562619597E+04  0.28429230195E+04 0.  0.
        3    1    3    3  502    0  0.12286474588E+04  0.61589700922E+03  0.22667762851E+03  0.13929416576E+04  0.10100000352E+00 0.  1.
       -3    1    3    3    0  502 -0.12286474588E+04 -0.61589700922E+03 -0.50239684739E+03  0.14633203021E+04  0.10100000352E+00 0. -1.
</event>
<event>
 5   0  0.5108810E-06  0.3218187E+04  0.7818609E-02  0.8184031E-01
        2   -1    0    0  501    0  0.00000000000E+00  0.00000000000E+00  0.18359195144E+04  0.18359195144E+04  0.25500000920E-02 0. -1.
       -2   -1    0    0    0  501  0.00000000000E+00  0.00000000000E+00 -0.14102912531E+04  0.14102912531E+04  0.25500000920E-02 0.  1.
    10030    2    1    2    0    0  0.00000000000E+00  0.00000000000E+00  0.42562826129E+03  0.32462107674E+04  0.32181865903E+04 0.  0.
        1    1    3    3  502    0  0.19164155766E+03  0.10754740474E+03 -0.13950830731E+04  0.14122852798E+04  0.50400001928E-02 0.  1.
       -1    1    3    3    0  502 -0.19164155766E+03 -0.10754740474E+03  0.18207113344E+04  0.18339254876E+04  0.50400001928E-02 0. -1.
</event>
<event>
 5   0  0.1977015E-06  0.2393234E+04  0.7818609E-02  0.8442041E-01
        1   -1    0    0  501    0  0.00000000000E+00  0.00000000000E+00  0.16419854477E+04  0.16419854477E+04  0.50400001928E-02 0. -1.
       -1   -1    0    0    0  501  0.00000000000E+00  0.00000000000E+00 -0.87204929579E+03  0.87204929580E+03  0.50400001928E-02 0.  1.
    10030    2    1    2    0    0  0.00000000000E+00  0.00000000000E+00  0.76993615192E+03  0.25140347435E+04  0.23932340073E+04 0.  0.
        1    1    3    3  502    0  0.71747420378E+03 -0.24750429920E+03  0.13567943857E+04  0.15546442089E+04  0.50400001928E-02 0. -1.
       -1    1    3    3    0  502 -0.71747420378E+03  0.24750429920E+03 -0.58685823381E+03  0.95939053458E+03  0.50400001928E-02 0.  1.
</event>
<event>
 5   0  0.1846850E-06  0.3192385E+04  0.7818609E-02  0.8190831E-01
       -1   -1    0    0    0  501  0.00000000000E+00  0.00000000000E+00  0.10027094932E+04  0.10027094932E+04  0.50400001928E-02 0. -1.
        1   -1    0    0  501    0  0.00000000000E+00  0.00000000000E+00 -0.25409462137E+04  0.25409462137E+04  0.50400001928E-02 0.  1.
    10030    2    1    2    0    0  0.00000000000E+00  0.00000000000E+00 -0.15382367205E+04  0.35436557070E+04  0.31923852464E+04 0.  0.
        5    1    3    3  502    0 -0.78916887615E+03 -0.10737880929E+03  0.76638031412E+03  0.11052957069E+04  0.46999998093E+01 0. -1.
       -5    1    3    3    0  502  0.78916887615E+03  0.10737880929E+03 -0.23046170346E+04  0.24383600001E+04  0.46999998093E+01 0.  1.
</event>
<event>
 5   0  0.1977015E-06  0.2997950E+04  0.7818609E-02  0.8244316E-01
       -1   -1    0    0    0  501  0.00000000000E+00  0.00000000000E+00  0.68852917779E+03  0.68852917781E+03  0.50400001928E-02 0. -1.
        1   -1    0    0  501    0  0.00000000000E+00  0.00000000000E+00 -0.32633710064E+04  0.32633710064E+04  0.50400001928E-02 0.  1.
    10030    2    1    2    0    0  0.00000000000E+00  0.00000000000E+00 -0.25748418286E+04  0.39519001842E+04  0.29979500702E+04 0.  0.
        1    1    3    3  502    0 -0.59090550671E+03 -0.50587522289E+03 -0.29764919937E+04  0.30764563458E+04  0.50400001928E-02 0.  1.
       -1    1    3    3    0  502  0.59090550671E+03  0.50587522289E+03  0.40165016512E+03  0.87544383838E+03  0.50400001928E-02 0. -1.
</event>
<event>
 5   0  0.1881144E-06  0.3119444E+04  0.7818609E-02  0.8210422E-01
        1   -1    0    0  501    0  0.00000000000E+00  0.00000000000E+00  0.17663780965E+04  0.17663780965E+04  0.50400001928E-02 0. -1.
       -1   -1    0    0    0  501  0.00000000000E+00  0.00000000000E+00 -0.13772437315E+04  0.13772437315E+04  0.50400001928E-02 0.  1.
    10030    2    1    2    0    0  0.00000000000E+00  0.00000000000E+00  0.38913436495E+03  0.31436218280E+04  0.31194442844E+04 0.  0.
        3    1    3    3  502    0  0.57985141444E+03  0.19499885782E+03 -0.12512936290E+04  0.13928345105E+04  0.10100000352E+00 0.  1.
       -3    1    3    3    0  502 -0.57985141444E+03 -0.19499885782E+03  0.16404279940E+04  0.17507873175E+04  0.10100000352E+00 0. -1.
</event>
<event>
 5   0  0.5108810E-06  0.3200832E+04  0.7818609E-02  0.8188597E-01
        2   -1    0    0  501    0  0.00000000000E+00  0.00000000000E+00  0.14382298534E+04  0.14382298534E+04  0.25500000920E-02 0.  1.
       -2   -1    0    0    0  501  0.00000000000E+00  0.00000000000E+00 -0.17808920692E+04  0.17808920692E+04  0.25500000920E-02 0. -1.
    10030    2    1    2    0    0  0.00000000000E+00  0.00000000000E+00 -0.34266221575E+03  0.32191219226E+04  0.32008324790E+04 0.  0.
        1    1    3    3  502    0  0.10048674454E+04 -0.11850879284E+04  0.21444923120E+03  0.15684962396E+04  0.50400001928E-02 0.  1.
       -1    1    3    3    0  502 -0.10048674454E+04  0.11850879284E+04 -0.55711144695E+03  0.16506256830E+04  0.50400001928E-02 0. -1.
</event>
<event>
 5   0  0.5108810E-06  0.3212181E+04  0.7818609E-02  0.8185608E-01
        2   -1    0    0  501    0  0.00000000000E+00  0.00000000000E+00  0.16868518027E+04  0.16868518027E+04  0.25500000920E-02 0. -1.
       -2   -1    0    0    0  501  0.00000000000E+00  0.00000000000E+00 -0.15291956430E+04  0.15291956430E+04  0.25500000920E-02 0.  1.
    10030    2    1    2    0    0  0.00000000000E+00  0.00000000000E+00  0.15765615975E+03  0.32160474457E+04  0.32121808337E+04 0.  0.
        1    1    3    3  502    0  0.11909560065E+04  0.10656413816E+04 -0.81235132710E+02  0.16001771497E+04  0.50400001928E-02 0. -1.
       -1    1    3    3    0  502 -0.11909560065E+04 -0.10656413816E+04  0.23889129246E+03  0.16158702960E+04  0.50400001928E-02 0.  1.
</event>
<event>
 5   0  0.1729500E-06  0.2003779E+04  0.7818609E-02  0.8604856E-01
       -3   -1    0    0    0  501  0.00000000000E+00  0.00000000000E+00  0.15253071742E+04  0.15253071775E+04  0.10100000352E+00 0. -1.
        3   -1    0    0  501    0  0.00000000000E+00  0.00000000000E+00 -0.65808564142E+03  0.65808564917E+03  0.10100000352E+00 0.  1.
    10030    2    1    2    0    0  0.00000000000E+00  0.00000000000E+00  0.86722153277E+03  0.21833928267E+04  0.20037791916E+04 0.  0.
        5    1    3    3  502    0  0.23597195926E+03 -0.32659342509E+03  0.14331205493E+04  0.14886915832E+04  0.46999998093E+01 0. -1.
       -5    1    3    3    0  502 -0.23597195926E+03  0.32659342509E+03 -0.56589901654E+03  0.69470124355E+03  0.46999998093E+01 0.  1.
</event>
<event>
 5   0  0.5121624E-06  0.3223128E+04  0.7818609E-02  0.8182736E-01
        2   -1    0    0  501    0  0.00000000000E+00  0.00000000000E+00  0.14326168549E+04  0.14326168549E+04  0.25500000920E-02 0.  1.
       -2   -1    0    0    0  501  0.00000000000E+00  0.00000000000E+00 -0.18128630356E+04  0.18128630356E+04  0.25500000920E-02 0. -1.
    10030    2    1    2    0    0  0.00000000000E+00  0.00000000000E+00 -0.38024618069E+03  0.32454798905E+04  0.32231277607E+04 0.  0.
        4    1    3    3  502    0  0.11035770605E+04  0.23953197079E+03 -0.13478261825E+04  0.17583784930E+04  0.12699999809E+01 0. -1.
       -4    1    3    3    0  502 -0.11035770605E+04 -0.23953197079E+03  0.96758000184E+03  0.14871013975E+04  0.12699999809E+01 0.  1.
</event>
<event>
 5   0  0.1969465E-06  0.3217150E+04  0.7818609E-02  0.8184303E-01
       -1   -1    0    0    0  501  0.00000000000E+00  0.00000000000E+00  0.14123504282E+04  0.14123504282E+04  0.50400001928E-02 0.  1.
        1   -1    0    0  501    0  0.00000000000E+00  0.00000000000E+00 -0.18320619275E+04  0.18320619276E+04  0.50400001928E-02 0. -1.
    10030    2    1    2    0    0  0.00000000000E+00  0.00000000000E+00 -0.41971149938E+03  0.32444123557E+04  0.32171499485E+04 0.  0.
        2    1    3    3  502    0  0.61348172063E+03  0.12575502462E+04  0.59041848172E+03  0.15186791718E+04  0.25500000920E-02 0. -1.
       -2    1    3    3    0  502 -0.61348172063E+03 -0.12575502462E+04 -0.10101299811E+04  0.17257331839E+04  0.25500000920E-02 0.  1.
</event>
<event>
 5   0  0.5373060E-06  0.3202229E+04  0.7818609E-02  0.8188229E-01
        2   -1    0    0  501    0  0.00000000000E+00  0.00000000000E+00  0.11340974822E+04  0.11340974822E+04  0.25500000920E-02 0. -1.
       -2   -1    0    0    0  501  0.00000000000E+00  0.00000000000E+00 -0.22604468767E+04  0.22604468767E+04  0.25500000920E-02 0.  1.
    10030    2    1    2    0    0  0.00000000000E+00  0.00000000000E+00 -0.11263493944E+04  0.33945443589E+04  0.32022286687E+04 0.  0.
        5    1    3    3  502    0 -0.73835007691E+03  0.58004218715E+03  0.81160713039E+03  0.12411035408E+04  0.46999998093E+01 0. -1.
       -5    1    3    3    0  502  0.73835007691E+03 -0.58004218715E+03 -0.19379565248E+04  0.21534408181E+04  0.46999998093E+01 0.  1.
</event>
<event>
 5   0  0.5373060E-06  0.3176857E+04  0.7818609E-02  0.8194956E-01
        2   -1    0    0  501    0  0.00000000000E+00  0.00000000000E+00  0.20444244599E+04  0.20444244599E+04  0.25500000920E-02 0. -1.
       -2   -1    0    0    0  501  0.00000000000E+00  0.00000000000E+00 -0.12341392851E+04  0.12341392851E+04  0.25500000920E-02 0.  1.
    10030    2    1    2    0    0  0.00000000000E+00  0.00000000000E+00  0.81028517482E+03  0.32785637449E+04  0.31768566485E+04 0.  0.
        5    1    3    3  502    0  0.35964714501E+03 -0.14075069936E+04  0.10680951216E+04  0.18031281942E+04  0.46999998093E+01 0.  1.
       -5    1    3    3    0  502 -0.35964714501E+03  0.14075069936E+04 -0.25780994673E+03  0.14754355508E+04  0.46999998093E+01 0. -1.
</event>
<event>
 5   0  0.5131083E-06  0.3183882E+04  0.7818609E-02  0.8193087E-01
       -2   -1    0    0    0  501  0.00000000000E+00  0.00000000000E+00  0.11920146713E+04  0.11920146713E+04  0.25500000920E-02 0. -1.
        2   -1    0    0  501    0  0.00000000000E+00  0.00000000000E+00 -0.21260442219E+04  0.21260442219E+04  0.25500000920E-02 0.  1.
    10030    2    1    2    0    0  0.00000000000E+00  0.00000000000E+00 -0.93402955063E+03  0.33180588933E+04  0.31838818473E+04 0.  0.
        3    1    3    3  502    0  0.14526746735E+04 -0.52161732165E+03 -0.60809625825E+02  0.15446831901E+04  0.10100000352E+00 0.  1.
       -3    1    3    3    0  502 -0.14526746735E+04  0.52161732165E+03 -0.87321992480E+03  0.17733757031E+04  0.10100000352E+00 0. -1.
</event>
<event>
 5   0  0.5373060E-06  0.3223156E+04  0.7818609E-02  0.8182728E-01
        2   -1    0    0  501    0  0.00000000000E+00  0.00000000000E+00  0.80459989560E+03  0.80459989560E+03  0.25500000920E-02 0.  1.
       -2   -1    0    0    0  501  0.00000000000E+00  0.00000000000E+00 -0.32279201457E+04  0.32279201457E+04  0.25500000920E-02 0. -1.
    10030    2    1    2    0    0  0.00000000000E+00  0.00000000000E+00 -0.24233202501E+04  0.40325200413E+04  0.32231563488E+04 0.  0.
        5    1    3    3  502    0 -0.29979869728E+03  0.34471236284E+03 -0.31452030015E+04  0.31782117429E+04  0.46999998093E+01 0. -1.
       -5    1    3    3    0  502  0.29979869728E+03 -0.34471236284E+03  0.72188275139E+03  0.85430829842E+03  0.46999998093E+01 0.  1.
</event>
<event>
 5   0  0.5347280E-06  0.3121221E+04  0.7818609E-02  0.8209938E-01
       -2   -1    0    0    0  501  0.00000000000E+00  0.00000000000E+00  0.10532526186E+04  0.10532526186E+04  0.25500000920E-02 0. -1.
        2   -1    0    0  501    0  0.00000000000E+00  0.00000000000E+00 -0.23123657623E+04  0.23123657623E+04  0.25500000920E-02 0.  1.
    10030    2    1    2    0    0  0.00000000000E+00  0.00000000000E+00 -0.12591131437E+04  0.33656183809E+04  0.31212211035E+04 0.  0.
        2    1    3    3  502    0 -0.64005575415E+03  0.49138140857E+03 -0.20699588352E+04  0.22216787879E+04  0.25500000920E-02 0.  1.
       -2    1    3    3    0  502  0.64005575415E+03 -0.49138140857E+03  0.81084569144E+03  0.11439395930E+04  0.25500000920E-02 0. -1.
</event>
<event>
 5   0  0.5373060E-06  0.2060018E+04  0.7818609E-02  0.8579063E-01
       -2   -1    0    0    0  501  0.00000000000E+00  0.00000000000E+00  0.98374688679E+03  0.98374688680E+03  0.25500000920E-02 0. -1.
        2   -1    0    0  501    0  0.00000000000E+00  0.00000000000E+00 -0.10784470958E+04  0.10784470958E+04  0.25500000920E-02 0.  1.
    10030    2    1    2    0    0  0.00000000000E+00  0.00000000000E+00 -0.94700208991E+02  0.20621939826E+04  0.20600184204E+04 0.  0.
        5    1    3    3  502    0 -0.13891978131E+03 -0.20769586299E+03  0.95293517756E+03  0.98516182415E+03  0.46999998093E+01 0. -1.
       -5    1    3    3    0  502  0.13891978131E+03  0.20769586299E+03 -0.10476353866E+04  0.10770321584E+04  0.46999998093E+01 0.  1.
</event>
<event>
 5   0  0.5347280E-06  0.3109748E+04  0.7818609E-02  0.8213068E-01
       -2   -1    0    0    0  501  0.00000000000E+00  0.00000000000E+00  0.16403759339E+04  0.16403759339E+04  0.25500000920E-02 0.  1.
        2   -1    0    0  501    0  0.00000000000E+00  0.00000000000E+00 -0.14738286515E+04  0.14738286516E+04  0.25500000920E-02 0. -1.
    10030    2    1    2    0    0  0.00000000000E+00  0.00000000000E+00  0.16654728235E+03  0.31142045854E+04  0.31097479324E+04 0.  0.
        2    1    3    3  502    0 -0.46203444288E+03 -0.12776158455E+04 -0.67402103582E+03  0.15166022655E+04  0.25500000920E-02 0.  1.
       -2    1    3    3    0  502  0.46203444288E+03  0.12776158455E+04  0.84056831817E+03  0.15976023199E+04  0.25500000920E-02 0. -1.
</event>
<event>
 5   0  0.5121624E-06  0.3139369E+04  0.7818609E-02  0.8205016E-01
       -2   -1    0    0    0  501  0.00000000000E+00  0.00000000000E+00  0.99724154135E+03  0.99724154135E+03  0.25500000920E-02 0. -1.
        2   -1    0    0  501    0  0.00000000000E+00  0.00000000000E+00 -0.24707242901E+04  0.24707242901E+04  0.25500000920E-02 0.  1.
    10030    2    1    2    0    0  0.00000000000E+00  0.00000000000E+00 -0.14734827487E+04  0.34679658314E+04  0.31393686622E+04 0.  0.
        4    1    3    3  502    0 -0.26096497404E+03  0.12056931915E+04  0.33547627443E+03  0.12784149300E+04  0.12699999809E+01 0. -1.
       -4    1    3    3    0  502  0.26096497404E+03 -0.12056931915E+04 -0.18089590232E+04  0.21895509014E+04  0.12699999809E+01 0.  1.
</event>
<event>
 5   0  0.5108810E-06  0.3195803E+04  0.7818609E-02  0.8189927E-01
        2   -1    0    0  501    0  0.00000000000E+00  0.00000000000E+00  0.13268839783E+04  0.13268839783E+04  0.25500000920E-02 0.  1.
       -2   -1    0    0    0  501  0.00000000000E+00  0.00000000000E+00 -0.19242742712E+04  0.19242742712E+04  0.25500000920E-02 0. -1.
    10030    2    1    2    0    0  0.00000000000E+00  0.00000000000E+00 -0.59739029299E+03  0.32511582495E+04  0.31958026849E+04 0.  0.
        1    1    3    3  502    0 -0.10531020692E+04 -0.15104822785E+03  0.91420156424E+03  0.14027130980E+04  0.50400001928E-02 0.  1.
       -1    1    3    3    0  502  0.10531020692E+04  0.15104822785E+03 -0.15115918572E+04  0.18484451515E+04  0.50400001928E-02 0. -1.
</event>
<event>
 5   0  0.1977015E-06  0.2929234E+04  0.7818609E-02  0.8264232E-01
        1   -1    0    0  501    0  0.00000000000E+00  0.00000000000E+00  0.13748107516E+04  0.13748107516E+04  0.50400001928E-02 0.  1.
       -1   -1    0    0    0  501  0.00000000000E+00  0.00000000000E+00 -0.15602896385E+04  0.15602896385E+04  0.50400001928E-02 0. -1.
    10030    2    1    2    0    0  0.00000000000E+00  0.00000000000E+00 -0.18547888690E+03  0.29351003901E+04  0.29292340095E+04 0.  0.
        1    1    3    3  502    0 -0.10484140444E+04  0.92430863825E+03 -0.53131970392E+03  0.14952655600E+04  0.50400001928E-02 0. -1.
       -1    1    3    3    0  502  0.10484140444E+04 -0.92430863825E+03  0.34584081702E+03  0.14398348301E+04  0.50400001928E-02 0.  1.
</event>
<event>
 5   0  0.1846850E-06  0.3174265E+04  0.7818609E-02  0.8195647E-01
       -1   -1    0    0    0  501  0.00000000000E+00  0.00000000000E+00  0.14895294505E+04  0.14895294505E+04  0.50400001928E-02 0.  1.
        1   -1    0    0  501    0  0.00000000000E+00  0.00000000000E+00 -0.16911309369E+04  0.16911309369E+04  0.50400001928E-02 0. -1.
    10030    2    1    2    0    0  0.00000000000E+00  0.00000000000E+00 -0.20160148644E+03  0.31806603874E+04  0.31742648504E+04 0.  0.
        5    1    3    3  502    0 -0.13371938073E+04 -0.52558721553E+03  0.57482630538E+03  0.15475065657E+04  0.46999998093E+01 0.  1.
       -5    1    3    3    0  502  0.13371938073E+04  0.52558721553E+03 -0.77642779182E+03  0.16331538217E+04  0.46999998093E+01 0. -1.
</event>
<event>
 5   0  0.1969465E-06  0.3178898E+04  0.7818609E-02  0.8194413E-01
        1   -1    0    0  501    0  0.00000000000E+00  0.00000000000E+00  0.16671050518E+04  0.16671050518E+04  0.50400001928E-02 0. -1.
       -1   -1    0    0    0  501  0.00000000000E+00  0.00000000000E+00 -0.15154098911E+04  0.15154098912E+04  0.50400001928E-02 0.  1.
    10030    2    1    2    0    0  0.00000000000E+00  0.00000000000E+00  0.15169516068E+03  0.31825149430E+04  0.31788975983E+04 0.  0.
        2    1    3    3  502    0 -0.14948116230E+03  0.15647754662E+04 -0.15996366789E+03  0.15800174849E+04  0.25500000920E-02 0.  1.
       -2    1    3    3    0  502  0.14948116230E+03 -0.15647754662E+04  0.31165882857E+03  0.16024974581E+04  0.25500000920E-02 0. -1.
</event>
<event>
 5   0  0.1846850E-06  0.2298960E+04  0.7818609E-02  0.8478331E-01
        1   -1    0    0  501    0  0.00000000000E+00  0.00000000000E+00  0.18574625420E+04  0.18574625420E+04  0.50400001928E-02 0. -1.
       -1   -1    0    0    0  501  0.00000000000E+00  0.00000000000E+00 -0.71134904611E+03  0.71134904613E+03  0.50400001928E-02 0.  1.
    10030    2    1    2    0    0  0.00000000000E+00  0.00000000000E+00  0.11461134959E+04  0.25688115882E+04  0.22989599453E+04 0.  0.
        5    1    3    3  502    0  0.26326127281E+03  0.14431251584E+03 -0.66675642582E+03  0.73124470689E+03  0.46999998093E+01 0.  1.
       -5    1    3    3    0  502 -0.26326127281E+03 -0.14431251584E+03  0.18128699217E+04  0.18375668813E+04  0.46999998093E+01 0. -1.
</event>
<event>
 5   0  0.5108810E-06  0.1988080E+04  0.7818609E-02  0.8612214E-01
       -2   -1    0    0    0  501  0.00000000000E+00  0.00000000000E+00  0.88412464909E+03  0.88412464909E+03  0.25500000920E-02 0.  1.
        2   -1    0    0  501    0  0.00000000000E+00  0.00000000000E+00 -0.11176203217E+04  0.11176203217E+04  0.25500000920E-02 0. -1.
    10030    2    1    2    0    0  0.00000000000E+00  0.00000000000E+00 -0.23349567260E+03  0.20017449708E+04  0.19880801541E+04 0.  0.
        1    1    3    3  502    0 -0.17285773269E+03  0.85659654403E+03  0.36030005458E+03  0.94522672643E+03  0.50400001928E-02 0.  1.
       -1    1    3    3    0  502  0.17285773269E+03 -0.85659654403E+03 -0.59379572718E+03  0.10565182444E+04  0.50400001928E-02 0. -1.
</event>
<event>
 5   0  0.5121624E-06  0.3235770E+04  0.7818609E-02  0.8179434E-01
       -2   -1    0    0    0  501  0.00000000000E+00  0.00000000000E+00  0.15606682763E+04  0.15606682763E+04  0.25500000920E-02 0.  1.
        2   -1    0    0  501    0  0.00000000000E+00  0.00000000000E+00 -0.16771996173E+04  0.16771996173E+04  0.25500000920E-02 0. -1.
    10030    2    1    2    0    0  0.00000000000E+00  0.00000000000E+00 -0.11653134106E+03  0.32378678936E+04  0.32357702241E+04 0.  0.
        4    1    3    3  502    0 -0.13221422114E+03  0.94891124452E+03 -0.13628122785E+04  0.16658847708E+04  0.12699999809E+01 0. -1.
       -4    1    3    3    0  502  0.13221422114E+03 -0.94891124452E+03  0.12462809375E+04  0.15719831228E+04  0.12699999809E+01 0.  1.
</event>
<event>
 5   0  0.1886248E-06  0.3013387E+04  0.7818609E-02  0.8239918E-01
        1   -1    0    0  501    0  0.00000000000E+00  0.00000000000E+00  0.18680700350E+04  0.18680700350E+04  0.50400001928E-02 0.  1.
       -1   -1    0    0    0  501  0.00000000000E+00  0.00000000000E+00 -0.12152250047E+04  0.12152250048E+04  0.50400001928E-02 0. -1.
    10030    2    1    2    0    0  0.00000000000E+00  0.00000000000E+00  0.65284503024E+03  0.30832950397E+04  0.30133870758E+04 0.  0.
        4    1    3    3  502    0 -0.86169014986E+03  0.12289265023E+04  0.46121144533E+03  0.15701872094E+04  0.12699999809E+01 0. -1.
       -4    1    3    3    0  502  0.86169014986E+03 -0.12289265023E+04  0.19163358491E+03  0.15131078303E+04  0.12699999809E+01 0.  1.
</event>
<event>
 5   0  0.1969465E-06  0.3209913E+04  0.7818609E-02  0.8186204E-01
        1   -1    0    0  501    0  0.00000000000E+00  0.00000000000E+00  0.23574579353E+04  0.23574579353E+04  0.50400001928E-02 0.  1.
       -1   -1    0    0    0  501  0.00000000000E+00  0.00000000000E+00 -0.10926534980E+04  0.10926534980E+04  0.50400001928E-02 0. -1.
    10030    2    1    2    0    0  0.00000000000E+00  0.00000000000E+00  0.12648044373E+04  0.34501114333E+04  0.32099125592E+04 0.  0.
        2    1    3    3  502    0  0.18225926060E+03  0.55758490742E+03  0.22381013780E+04  0.23137020433E+04  0.25500000920E-02 0.  1.
       -2    1    3    3    0  502 -0.18225926060E+03 -0.55758490742E+03 -0.97329694063E+03  0.11364093900E+04  0.25500000920E-02 0. -1.
</event>
<event>
 5   0  0.1969465E-06  0.2903325E+04  0.7818609E-02  0.8271889E-01
       -1   -1    0    0    0  501  0.00000000000E+00  0.00000000000E+00  0.79938430896E+03  0.79938430897E+03  0.50400001928E-02 0. -1.
        1   -1    0    0  501    0  0.00000000000E+00  0.00000000000E+00 -0.26361843481E+04  0.26361843481E+04  0.50400001928E-02 0.  1.
    10030    2    1    2    0    0  0.00000000000E+00  0.00000000000E+00 -0.18368000392E+04  0.34355686571E+04  0.29033252683E+04 0.  0.
        2    1    3    3  502    0 -0.11769400621E+04 -0.60046766854E+03 -0.16299447048E+04  0.20982061557E+04  0.25500000920E-02 0.  1.
       -2    1    3    3    0  502  0.11769400621E+04  0.60046766854E+03 -0.20685533430E+03  0.13373625014E+04  0.25500000920E-02 0. -1.
</event>
<event>
 5   0  0.5347280E-06  0.3015528E+04  0.7818609E-02  0.8239311E-01
        2   -1    0    0  501    0  0.00000000000E+00  0.00000000000E+00  0.11384575476E+04  0.11384575476E+04  0.25500000920E-02 0. -1.
       -2   -1    0    0    0  501  0.00000000000E+00  0.00000000000E+00 -0.19968711021E+04  0.19968711021E+04  0.25500000920E-02 0.  1.
    10030    2    1    2    0    0  0.00000000000E+00  0.00000000000E+00 -0.85841355448E+03  0.31353286497E+04  0.30155284630E+04 0.  0.
        2    1    3    3  502    0 -0.37089056221E+03 -0.30757890969E+02  0.10899515163E+04  0.11517378890E+04  0.25500000920E-02 0. -1.
       -2    1    3    3    0  502  0.37089056221E+03  0.30757890969E+02 -0.19483650708E+04  0.19835907607E+04  0.25500000920E-02 0.  1.
</event>
<event>
 5   0  0.1977015E-06  0.3020616E+04  0.7818609E-02  0.8237868E-01
        1   -1    0    0  501    0  0.00000000000E+00  0.00000000000E+00  0.11966770396E+04  0.11966770396E+04  0.50400001928E-02 0. -1.
       -1   -1    0    0    0  501  0.00000000000E+00  0.00000000000E+00 -0.19061370676E+04  0.19061370676E+04  0.50400001928E-02 0.  1.
    10030    2    1    2    0    0  0.00000000000E+00  0.00000000000E+00 -0.70946002799E+03  0.31028141073E+04  0.30206161380E+04 0.  0.
        1    1    3    3  502    0 -0.10538929181E+04 -0.77979733630E+03  0.41551231570E+03  0.13752907522E+04  0.50400001928E-02 0. -1.
       -1    1    3    3    0  502  0.10538929181E+04  0.77979733630E+03 -0.11249723437E+04  0.17275233551E+04  0.50400001928E-02 0.  1.
</event>
<event>
 5   0  0.1886248E-06  0.3179230E+04  0.7818609E-02  0.8194324E-01
        1   -1    0    0  501    0  0.00000000000E+00  0.00000000000E+00  0.14645652659E+04  0.14645652659E+04  0.50400001928E-02 0. -1.
       -1   -1    0    0    0  501  0.00000000000E+00  0.00000000000E+00 -0.17253420170E+04  0.17253420170E+04  0.50400001928E-02 0.  1.
    10030    2    1    2    0    0  0.00000000000E+00  0.00000000000E+00 -0.26077675107E+03  0.31899072829E+04  0.31792300891E+04 0.  0.
        4    1    3    3  502    0  0.47222084467E+02  0.61781796768E+03 -0.15991849603E+04  0.17150286052E+04  0.12699999809E+01 0.  1.
       -4    1    3    3    0  502 -0.47222084467E+02 -0.61781796768E+03  0.13384082092E+04  0.14748786777E+04  0.12699999809E+01 0. -1.
</event>
<event>
 5   0  0.1881144E-06  0.2354939E+04  0.7818609E-02  0.8456569E-01
       -1   -1    0    0    0  501  0.00000000000E+00  0.00000000000E+00  0.83843843248E+03  0.83843843249E+03  0.50400001928E-02 0. -1.
        1   -1    0    0  501    0  0.00000000000E+00  0.00000000000E+00 -0.16535909849E+04  0.16535909849E+04  0.50400001928E-02 0.  1.
    10030    2    1    2    0    0  0.00000000000E+00  0.00000000000E+00 -0.81515255240E+03  0.24920294174E+04  0.23549388386E+04 0.  0.
        3    1    3    3  502    0  0.78892569351E+03  0.12297204091E+03 -0.13233493478E+04  0.15455676560E+04  0.10100000352E+00 0.  1.
       -3    1    3    3    0  502 -0.78892569351E+03 -0.12297204091E+03  0.50819679540E+03  0.94646176139E+03  0.10100000352E+00 0. -1.
</event>
<event>
 5   0  0.1886248E-06  0.3231374E+04  0.7818609E-02  0.8180580E-01
       -1   -1    0    0    0  501  0.00000000000E+00  0.00000000000E+00  0.11093774250E+04  0.11093774250E+04  0.50400001928E-02 0. -1.
        1   -1    0    0  501    0  0.00000000000E+00  0.00000000000E+00 -0.23530709158E+04  0.23530709158E+04  0.50400001928E-02 0.  1.
    10030    2    1    2    0    0  0.00000000000E+00  0.00000000000E+00 -0.12436934908E+04  0.34624483408E+04  0.32313735491E+04 0.  0.
        4    1    3    3  502    0  0.11069093778E+04 -0.80247361202E+03  0.30066646392E+03  0.13998622090E+04  0.12699999809E+01 0. -1.
       -4    1    3    3    0  502 -0.11069093778E+04  0.80247361202E+03 -0.15443599547E+04  0.20625861318E+04  0.12699999809E+01 0.  1.
</event>
<event>
 5   0  0.5121624E-06  0.3171823E+04  0.7818609E-02  0.8196299E-01
        2   -1    0    0  501    0  0.00000000000E+00  0.00000000000E+00  0.95747003423E+03  0.95747003423E+03  0.25500000920E-02 0.  1.
       -2   -1    0    0    0  501  0.00000000000E+00  0.00000000000E+00 -0.26268343203E+04  0.26268343203E+04  0.25500000920E-02 0. -1.
    10030    2    1    2    0    0  0.00000000000E+00  0.00000000000E+00 -0.16693642861E+04  0.35843043546E+04  0.31718229122E+04 0.  0.
        4    1    3    3  502    0 -0.61261351200E+03 -0.14457666388E+04 -0.58306729495E+03  0.16749643495E+04  0.12699999809E+01 0. -1.
       -4    1    3    3    0  502  0.61261351200E+03  0.14457666388E+04 -0.10862969912E+04  0.19093400050E+04  0.12699999809E+01 0.  1.
</event>
<event>
 5   0  0.5347280E-06  0.3257926E+04  0.7818609E-02  0.8173684E-01
       -2   -1    0    0    0  501  0.00000000000E+00  0.00000000000E+00  0.16503403824E+04  0.16503403824E+04  0.25500000920E-02 0. -1.
        2   -1    0    0  501    0  0.00000000000E+00  0.00000000000E+00 -0.16078624137E+04  0.16078624137E+04  0.25500000920E-02 0.  1.
    10030    2    1    2    0    0  0.00000000000E+00  0.00000000000E+00  0.42477968724E+02  0.32582027960E+04  0.32579258866E+04 0.  0.
        2    1    3    3  502    0  0.16054886497E+04 -0.18286628561E+03  0.22737876834E+03  0.16317888917E+04  0.25500000920E-02 0. -1.
       -2    1    3    3    0  502 -0.16054886497E+04  0.18286628561E+03 -0.18490079962E+03  0.16264139044E+04  0.25500000920E-02 0.  1.
</event>
<event>
 5   0  0.5373060E-06  0.3208288E+04  0.7818609E-02  0.8186632E-01
        2   -1    0    0  501    0  0.00000000000E+00  0.00000000000E+00  0.22902697513E+04  0.22902697513E+04  0.25500000920E-02 0.  1.
       -2   -1    0    0    0  501  0.00000000000E+00  0.00000000000E+00 -0.11235696453E+04  0.11235696453E+04  0.25500000920E-02 0. -1.
    10030    2    1    2    0    0  0.00000000000E+00  0.00000000000E+00  0.11667001060E+04  0.34138393966E+04  0.32082877503E+04 0.  0.
        5    1    3    3  502    0  0.42093176371E+02  0.36149379035E+03  0.22457533589E+04  0.22750560070E+04  0.46999998093E+01 0.  1.
       -5    1    3    3    0  502 -0.42093176371E+02 -0.36149379035E+03 -0.10790532529E+04  0.11387833897E+04  0.46999998093E+01 0. -1.
</event>
<event>
 5   0  0.5131083E-06  0.3208339E+04  0.7818609E-02  0.8186618E-01
       -2   -1    0    0    0  501  0.00000000000E+00  0.00000000000E+00  0.20782539413E+04  0.20782539414E+04  0.25500000920E-02 0.  1.
        2   -1    0    0  501    0  0.00000000000E+00  0.00000000000E+00 -0.12382319238E+04  0.12382319238E+04  0.25500000920E-02 0. -1.
    10030    2    1    2    0    0  0.00000000000E+00  0.00000000000E+00  0.84002201753E+03  0.33164858652E+04  0.32083393686E+04 0.  0.
        3    1    3    3  502    0 -0.30454229006E+03 -0.16036714701E+03  0.20396359821E+04  0.20684725229E+04  0.10100000352E+00 0.  1.
       -3    1    3    3    0  502  0.30454229006E+03  0.16036714701E+03 -0.11996139646E+04  0.12480133423E+04  0.10100000352E+00 0. -1.
</event>
<event>
 5   0  0.5108810E-06  0.3637053E+04  0.7818609E-02  0.8082057E-01
        2   -1    0    0  501    0  0.00000000000E+00  0.00000000000E+00  0.28623833036E+04  0.28623833036E+04  0.25500000920E-02 0. -1.
       -2   -1    0    0    0  501  0.00000000000E+00  0.00000000000E+00 -0.11553443327E+04  0.11553443327E+04  0.25500000920E-02 0.  1.
    10030    2    1    2    0    0  0.00000000000E+00  0.00000000000E+00  0.17070389709E+04  0.40177276363E+04  0.36370528332E+04 0.  0.
        1    1    3    3  502    0 -0.13927858268E+04  0.86666973107E+03  0.17205727005E+04  0.23772545509E+04  0.50400001928E-02 0. -1.
       -1    1    3    3    0  502  0.13927858268E+04 -0.86666973107E+03 -0.13533729638E+02  0.16404730854E+04  0.50400001928E-02 0.  1.
</event>
<event>
 5   0  0.1881144E-06  0.3193892E+04  0.7818609E-02  0.8190432E-01
        1   -1    0    0  501    0  0.00000000000E+00  0.00000000000E+00  0.27554997644E+04  0.27554997644E+04  0.50400001928E-02 0. -1.
       -1   -1    0    0    0  501  0.00000000000E+00  0.00000000000E+00 -0.92550759119E+03  0.92550759120E+03  0.50400001928E-02 0.  1.
    10030    2    1    2    0    0  0.00000000000E+00  0.00000000000E+00  0.18299921732E+04  0.36810073556E+04  0.31938916384E+04 0.  0.
        3    1    3    3  502    0 -0.14717268549E+03  0.84179266090E+03 -0.63981482273E+03  0.10675381496E+04  0.10100000352E+00 0.  1.
       -3    1    3    3    0  502  0.14717268549E+03 -0.84179266090E+03  0.24698069959E+04  0.26134692060E+04  0.10100000352E+00 0. -1.
</event>
<event>
 5   0  0.1881144E-06  0.3260845E+04  0.7818609E-02  0.8172931E-01
       -1   -1    0    0    0  501  0.00000000000E+00  0.00000000000E+00  0.14864245623E+04  0.14864245623E+04  0.50400001928E-02 0. -1.
        1   -1    0    0  501    0  0.00000000000E+00  0.00000000000E+00 -0.17883697496E+04  0.17883697496E+04  0.50400001928E-02 0.  1.
    10030    2    1    2    0    0  0.00000000000E+00  0.00000000000E+00 -0.30194518737E+03  0.32747943119E+04  0.32608445055E+04 0.  0.
        3    1    3    3  502    0  0.17382903702E+03 -0.17050614184E+03  0.14680617481E+04  0.14881176650E+04  0.10100000352E+00 0. -1.
       -3    1    3    3    0  502 -0.17382903702E+03  0.17050614184E+03 -0.17700069355E+04  0.17866766469E+04  0.10100000352E+00 0.  1.
</event>
<event>
 5   0  0.5131083E-06  0.3174681E+04  0.7818609E-02  0.8195536E-01
       -2   -1    0    0    0  501  0.00000000000E+00  0.00000000000E+00  0.13064924078E+04  0.13064924078E+04  0.25500000920E-02 0. -1.
        2   -1    0    0  501    0  0.00000000000E+00  0.00000000000E+00 -0.19285603875E+04  0.19285603875E+04  0.25500000920E-02 0.  1.
    10030    2    1    2    0    0  0.00000000000E+00  0.00000000000E+00 -0.62206797966E+03  0.32350527953E+04  0.31746807741E+04 0.  0.
        3    1    3    3  502    0  0.94658615812E+03  0.25893700033E+03 -0.15823878428E+04  0.18619949034E+04  0.10100000352E+00 0.  1.
       -3    1    3    3    0  502 -0.94658615812E+03 -0.25893700033E+03  0.96031986315E+03  0.13730578920E+04  0.10100000352E+00 0. -1.
</event>
<event>
 5   0  0.1886248E-06  0.3179188E+04  0.7818609E-02  0.8194335E-01
        1   -1    0    0  501    0  0.00000000000E+00  0.00000000000E+00  0.18658263498E+04  0.18658263498E+04  0.50400001928E-02 0. -1.
       -1   -1    0    0    0  501  0.00000000000E+00  0.00000000000E+00 -0.13542572607E+04  0.13542572607E+04  0.50400001928E-02 0.  1.
    10030    2    1    2    0    0  0.00000000000E+00  0.00000000000E+00  0.51156908904E+03  0.32200836105E+04  0.31791878720E+04 0.  0.
        4    1    3    3  502    0  0.15862135933E+04  0.76135931302E+02  0.32695235602E+03  0.16213481118E+04  0.12699999809E+01 0.  1.
       -4    1    3    3    0  502 -0.15862135933E+04 -0.76135931302E+02  0.18461673302E+03  0.15987354987E+04  0.12699999809E+01 0. -1.
</event>
<event>
 5   0  0.5108810E-06  0.3079719E+04  0.7818609E-02  0.8221326E-01
        2   -1    0    0  501    0  0.00000000000E+00  0.00000000000E+00  0.15938620831E+04  0.15938620831E+04  0.25500000920E-02 0.  1.
       -2   -1    0    0    0  501  0.00000000000E+00  0.00000000000E+00 -0.14876870050E+04  0.14876870050E+04  0.25500000920E-02 0. -1.
    10030    2    1    2    0    0  0.00000000000E+00  0.00000000000E+00  0.10617507805E+03  0.30815490881E+04  0.30797194085E+04 0.  0.
        1    1    3    3  502    0  0.43630687755E+03 -0.34242253952E+03 -0.13842724319E+04  0.14912501644E+04  0.50400001928E-02 0. -1.
       -1    1    3    3    0  502 -0.43630687755E+03  0.34242253952E+03  0.14904475099E+04  0.15902989238E+04  0.50400001928E-02 0.  1.
</event>
<event>
 5   0  0.5131083E-06  0.3205293E+04  0.7818609E-02  0.8187421E-01
        2   -1    0    0  501    0  0.00000000000E+00  0.00000000000E+00  0.17785108887E+04  0.17785108887E+04  0.25500000920E-02 0. -1.
       -2   -1    0    0    0  501  0.00000000000E+00  0.00000000000E+00 -0.14441716488E+04  0.14441716488E+04  0.25500000920E-02 0.  1.
    10030    2    1    2    0    0  0.00000000000E+00  0.00000000000E+00  0.33433923990E+03  0.32226825376E+04  0.32052925000E+04 0.  0.
        3    1    3    3  502    0  0.42426446468E+03  0.12095452256E+04  0.11344050693E+04  0.17116877228E+04  0.10100000352E+00 0. -1.
       -3    1    3    3    0  502 -0.42426446468E+03 -0.12095452256E+04 -0.80006582942E+03  0.15109948148E+04  0.10100000352E+00 0.  1.
</event>
<event>
 5   0  0.1881144E-06  0.3142958E+04  0.7818609E-02  0.8204046E-01
        1   -1    0    0  501    0  0.00000000000E+00  0.00000000000E+00  0.17460800138E+04  0.17460800138E+04  0.50400001928E-02 0. -1.
       -1   -1    0    0    0  501  0.00000000000E+00  0.00000000000E+00 -0.14143375563E+04  0.14143375563E+04  0.50400001928E-02 0.  1.
    10030    2    1    2    0    0  0.00000000000E+00  0.00000000000E+00  0.33174245751E+03  0.31604175702E+04  0.31429581861E+04 0.  0.
        3    1    3    3  502    0  0.13613710432E+04 -0.69163199400E+03  0.53922964207E+03  0.16193994410E+04  0.10100000352E+00 0. -1.
       -3    1    3    3    0  502 -0.13613710432E+04  0.69163199400E+03 -0.20748718457E+03  0.15410181292E+04  0.10100000352E+00 0.  1.
</event>
<event>
 5   0  0.5131083E-06  0.3212181E+04  0.7818609E-02  0.8185608E-01
       -2   -1    0    0    0  501  0.00000000000E+00  0.00000000000E+00  0.12566517233E+04  0.12566517233E+04  0.25500000920E-02 0. -1.
        2   -1    0    0  501    0  0.00000000000E+00  0.00000000000E+00 -0.20526978451E+04  0.20526978451E+04  0.25500000920E-02 0.  1.
    10030    2    1    2    0    0  0.00000000000E+00  0.00000000000E+00 -0.79604612181E+03  0.33093495685E+04  0.32121807450E+04 0.  0.
        3    1    3    3  502    0 -0.68642893391E+03  0.68599709983E+03 -0.17164814176E+04  0.19718228038E+04  0.10100000352E+00 0.  1.
       -3    1    3    3    0  502  0.68642893391E+03 -0.68599709983E+03  0.92043529581E+03  0.13375267647E+04  0.10100000352E+00 0. -1.
</event>
<event>
 5   0  0.5108810E-06  0.3245305E+04  0.7818609E-02  0.8176954E-01
       -2   -1    0    0    0  501  0.00000000000E+00  0.00000000000E+00  0.16477078037E+04  0.16477078037E+04  0.25500000920E-02 0. -1.
        2   -1    0    0  501    0  0.00000000000E+00  0.00000000000E+00 -0.15979777804E+04  0.15979777804E+04  0.25500000920E-02 0.  1.
    10030    2    1    2    0    0  0.00000000000E+00  0.00000000000E+00  0.49730023273E+02  0.32456855841E+04  0.32453045829E+04 0.  0.
        1    1    3    3  502    0  0.11046100794E+04 -0.17106133176E+03  0.12012577763E+04  0.16408673474E+04  0.50400001928E-02 0. -1.
       -1    1    3    3    0  502 -0.11046100794E+04  0.17106133176E+03 -0.11515277530E+04  0.16048182367E+04  0.50400001928E-02 0.  1.
</event>
<event>
 5   0  0.1969465E-06  0.3199027E+04  0.7818609E-02  0.8189074E-01
       -1   -1    0    0    0  501  0.00000000000E+00  0.00000000000E+00  0.16660009841E+04  0.16660009841E+04  0.50400001928E-02 0.  1.
        1   -1    0    0  501    0  0.00000000000E+00  0.00000000000E+00 -0.15356794070E+04  0.15356794071E+04  0.50400001928E-02 0. -1.
    10030    2    1    2    0    0  0.00000000000E+00  0.00000000000E+00  0.13032157704E+03  0.32016803911E+04  0.31990269792E+04 0.  0.
        2    1    3    3  502    0 -0.42876336390E+03  0.57071501431E+03  0.14977423881E+04  0.16591521663E+04  0.25500000920E-02 0.  1.
       -2    1    3    3    0  502  0.42876336390E+03 -0.57071501431E+03 -0.13674208111E+04  0.15425282248E+04  0.25500000920E-02 0. -1.
</event>
<event>
 5   0  0.5121624E-06  0.3122331E+04  0.7818609E-02  0.8209636E-01
        2   -1    0    0  501    0  0.00000000000E+00  0.00000000000E+00  0.18303235397E+04  0.18303235397E+04  0.25500000920E-02 0.  1.
       -2   -1    0    0    0  501  0.00000000000E+00  0.00000000000E+00 -0.13315885689E+04  0.13315885689E+04  0.25500000920E-02 0. -1.
    10030    2    1    2    0    0  0.00000000000E+00  0.00000000000E+00  0.49873497081E+03  0.31619121087E+04  0.31223311182E+04 0.  0.
        4    1    3    3  502    0  0.53054735647E+03  0.12662453554E+04  0.10020108143E+04  0.16996720514E+04  0.12699999809E+01 0.  1.
       -4    1    3    3    0  502 -0.53054735647E+03 -0.12662453554E+04 -0.50327584347E+03  0.14622400573E+04  0.12699999809E+01 0. -1.
</event>
<event>
 5   0  0.5347280E-06  0.3058340E+04  0.7818609E-02  0.8227265E-01
       -2   -1    0    0    0  501  0.00000000000E+00  0.00000000000E+00  0.97064199058E+03  0.97064199058E+03  0.25500000920E-02 0. -1.
        2   -1    0    0  501    0  0.00000000000E+00  0.00000000000E+00 -0.24090871350E+04  0.24090871350E+04  0.25500000920E-02 0.  1.
    10030    2    1    2    0    0  0.00000000000E+00  0.00000000000E+00 -0.14384451444E+04  0.33797291256E+04  0.30583401591E+04 0.  0.
        2    1    3    3  502    0  0.70488529959E+03 -0.70254153878E+03  0.56378818393E+03  0.11438028745E+04  0.25500000920E-02 0. -1.
       -2    1    3    3    0  502 -0.70488529959E+03  0.70254153878E+03 -0.20022333283E+04  0.22359262511E+04  0.25500000920E-02 0.  1.
</event>
<event>
 5   0  0.1881144E-06  0.3237974E+04  0.7818609E-02  0.8178860E-01
        1   -1    0    0  501    0  0.00000000000E+00  0.00000000000E+00  0.96209167137E+03  0.96209167138E+03  0.50400001928E-02 0.  1.
       -1   -1    0    0    0  501  0.00000000000E+00  0.00000000000E+00 -0.27243967197E+04  0.27243967197E+04  0.50400001928E-02 0. -1.
    10030    2    1    2    0    0  0.00000000000E+00  0.00000000000E+00 -0.17623050483E+04  0.36864883910E+04  0.32379743010E+04 0.  0.
        3    1    3    3  502    0  0.38405643103E+03  0.10217255008E+04  0.48017141715E+03  0.11924709394E+04  0.10100000352E+00 0.  1.
       -3    1    3    3    0  502 -0.38405643103E+03 -0.10217255008E+04 -0.22424764654E+04  0.24940174517E+04  0.10100000352E+00 0. -1.
</event>
<event>
 5   0  0.1886248E-06  0.3216047E+04  0.7818609E-02  0.8184592E-01
        1   -1    0    0  501    0  0.00000000000E+00  0.00000000000E+00  0.11973238713E+04  0.11973238713E+04  0.50400001928E-02 0.  1.
       -1   -1    0    0    0  501  0.00000000000E+00  0.00000000000E+00 -0.21595986440E+04  0.21595986440E+04  0.50400001928E-02 0. -1.
    10030    2    1    2    0    0  0.00000000000E+00  0.00000000000E+00 -0.96227477265E+03  0.33569225153E+04  0.32160466470E+04 0.  0.
        4    1    3    3  502    0 -0.53180703785E+01  0.27694595185E+03 -0.21345078631E+04  0.21524062750E+04  0.12699999809E+01 0. -1.
       -4    1    3    3    0  502  0.53180703785E+01 -0.27694595185E+03  0.11722330904E+04  0.12045162404E+04  0.12699999809E+01 0.  1.
</event>
<event>
 5   0  0.1846850E-06  0.3176824E+04  0.7818609E-02  0.8194965E-01
       -1   -1    0    0    0  501  0.00000000000E+00  0.00000000000E+00  0.16909876882E+04  0.16909876882E+04  0.50400001928E-02 0.  1.
        1   -1    0    0  501    0  0.00000000000E+00  0.00000000000E+00 -0.14920585813E+04  0.14920585813E+04  0.50400001928E-02 0. -1.
    10030    2    1    2    0    0  0.00000000000E+00  0.00000000000E+00  0.19892910692E+03  0.31830462695E+04  0.31768240059E+04 0.  0.
        5    1    3    3  502    0  0.34472744368E+03  0.21343664380E+03  0.16382585288E+04  0.16876923027E+04  0.46999998093E+01 0.  1.
       -5    1    3    3    0  502 -0.34472744368E+03 -0.21343664380E+03 -0.14393294219E+04  0.14953539668E+04  0.46999998093E+01 0. -1.
</event>
<event>
 5   0  0.1886248E-06  0.3182238E+04  0.7818609E-02  0.8193524E-01
       -1   -1    0    0    0  501  0.00000000000E+00  0.00000000000E+00  0.26154228724E+04  0.26154228724E+04  0.50400001928E-02 0. -1.
        1   -1    0    0  501    0  0.00000000000E+00  0.00000000000E+00 -0.96797321447E+03  0.96797321449E+03  0.50400001928E-02 0.  1.
    10030    2    1    2    0    0  0.00000000000E+00  0.00000000000E+00  0.16474496579E+04  0.35833960869E+04  0.31822377567E+04 0.  0.
        4    1    3    3  502    0  0.18957313839E+02  0.15177248264E+04  0.13611874222E+04  0.20387939669E+04  0.12699999809E+01 0. -1.
       -4    1    3    3    0  502 -0.18957313839E+02 -0.15177248264E+04  0.28626223577E+03  0.15446021200E+04  0.12699999809E+01 0.  1.
</event>
<event>
 5   0  0.1977015E-06  0.3175119E+04  0.7818609E-02  0.8195419E-01
       -1   -1    0    0    0  501  0.00000000000E+00  0.00000000000E+00  0.15603397553E+04  0.15603397553E+04  0.50400001928E-02 0. -1.
        1   -1    0    0  501    0  0.00000000000E+00  0.00000000000E+00 -0.16152537170E+04  0.16152537170E+04  0.50400001928E-02 0.  1.
    10030    2    1    2    0    0  0.00000000000E+00  0.00000000000E+00 -0.54913961650E+02  0.31755934723E+04  0.31751186369E+04 0.  0.
        1    1    3    3  502    0 -0.94234183087E+03 -0.62688040596E+02  0.12488242429E+04  0.15657266385E+04  0.50400001928E-02 0. -1.
       -1    1    3    3    0  502  0.94234183087E+03  0.62688040596E+02 -0.13037382046E+04  0.16098668339E+04  0.50400001928E-02 0.  1.
</event>
<event>
 5   0  0.5373060E-06  0.3318412E+04  0.7818609E-02  0.8158226E-01
       -2   -1    0    0    0  501  0.00000000000E+00  0.00000000000E+00  0.12683991138E+04  0.12683991138E+04  0.25500000920E-02 0.  1.
        2   -1    0    0  501    0  0.00000000000E+00  0.00000000000E+00 -0.21704244897E+04  0.21704244897E+04  0.25500000920E-02 0. -1.
    10030    2    1    2    0    0  0.00000000000E+00  0.00000000000E+00 -0.90202537590E+03  0.34388236034E+04  0.33184119691E+04 0.  0.
        5    1    3    3  502    0 -0.80186859313E+03 -0.10756160802E+04  0.56062702485E+03  0.14540522493E+04  0.46999998093E+01 0.  1.
       -5    1    3    3    0  502  0.80186859313E+03  0.10756160802E+04 -0.14626524007E+04  0.19847713541E+04  0.46999998093E+01 0. -1.
</event>
<event>
 5   0  0.1886248E-06  0.3216259E+04  0.7818609E-02  0.8184536E-01
        1   -1    0    0  501    0  0.00000000000E+00  0.00000000000E+00  0.11284694628E+04  0.11284694628E+04  0.50400001928E-02 0.  1.
       -1   -1    0    0    0  501  0.00000000000E+00  0.00000000000E+00 -0.22916710416E+04  0.22916710417E+04  0.50400001928E-02 0. -1.
    10030    2    1    2    0    0  0.00000000000E+00  0.00000000000E+00 -0.11632015788E+04  0.34201405045E+04  0.32162591869E+04 0.  0.
        4    1    3    3  502    0 -0.85077058025E+03 -0.14765894485E+03 -0.20242367067E+04  0.22007157022E+04  0.12699999809E+01 0. -1.
       -4    1    3    3    0  502  0.85077058025E+03  0.14765894485E+03  0.86103512783E+03  0.12194248023E+04  0.12699999809E+01 0.  1.
</event>
<event>
 5   0  0.5373060E-06  0.3168357E+04  0.7818609E-02  0.8197224E-01
        2   -1    0    0  501    0  0.00000000000E+00  0.00000000000E+00  0.14350173989E+04  0.14350173989E+04  0.25500000920E-02 0.  1.
       -2   -1    0    0    0  501  0.00000000000E+00  0.00000000000E+00 -0.17488435203E+04  0.17488435203E+04  0.25500000920E-02 0. -1.
    10030    2    1    2    0    0  0.00000000000E+00  0.00000000000E+00 -0.31382612134E+03  0.31838609192E+04  0.31683565959E+04 0.  0.
        5    1    3    3  502    0  0.45599806364E+03  0.15009215040E+04 -0.37912678826E+03  0.16138335747E+04  0.46999998093E+01 0. -1.
       -5    1    3    3    0  502 -0.45599806364E+03 -0.15009215040E+04  0.65300666923E+02  0.15700273445E+04  0.46999998093E+01 0.  1.
</event>
<event>
 5   0  0.5131083E-06  0.3433513E+04  0.7818609E-02  0.8129730E-01
        2   -1    0    0  501    0  0.00000000000E+00  0.00000000000E+00  0.24187545590E+04  0.24187545590E+04  0.25500000920E-02 0.  1.
       -2   -1    0    0    0  501  0.00000000000E+00  0.00000000000E+00 -0.12185002907E+04  0.12185002907E+04  0.25500000920E-02 0. -1.
    10030    2    1    2    0    0  0.00000000000E+00  0.00000000000E+00  0.12002542683E+04  0.36372548497E+04  0.34335131474E+04 0.  0.
        3    1    3    3  502    0  0.42160069262E+02  0.66447382631E+03  0.22764121359E+04  0.23717831182E+04  0.10100000352E+00 0.  1.
       -3    1    3    3    0  502 -0.42160069262E+02 -0.66447382631E+03 -0.10761578675E+04  0.12654717315E+04  0.10100000352E+00 0. -1.
</event>
<event>
 5   0  0.5131083E-06  0.3221330E+04  0.7818609E-02  0.8183207E-01
       -2   -1    0    0    0  501  0.00000000000E+00  0.00000000000E+00  0.12363625799E+04  0.12363625799E+04  0.25500000920E-02 0.  1.
        2   -1    0    0  501    0  0.00000000000E+00  0.00000000000E+00 -0.20982852469E+04  0.20982852469E+04  0.25500000920E-02 0. -1.
    10030    2    1    2    0    0  0.00000000000E+00  0.00000000000E+00 -0.86192266696E+03  0.33346478268E+04  0.32213297634E+04 0.  0.
        3    1    3    3  502    0 -0.13436890260E+04 -0.28914294999E+03 -0.13002253401E+04  0.18920068154E+04  0.10100000352E+00 0. -1.
       -3    1    3    3    0  502  0.13436890260E+04  0.28914294999E+03  0.43830267315E+03  0.14426410114E+04  0.10100000352E+00 0.  1.
</event>
<event>
 5   0  0.1846850E-06  0.3201828E+04  0.7818609E-02  0.8188334E-01
       -1   -1    0    0    0  501  0.00000000000E+00  0.00000000000E+00  0.15490791704E+04  0.15490791704E+04  0.50400001928E-02 0.  1.
        1   -1    0    0  501    0  0.00000000000E+00  0.00000000000E+00 -0.16544837995E+04  0.16544837995E+04  0.50400001928E-02 0. -1.
    10030    2    1    2    0    0  0.00000000000E+00  0.00000000000E+00 -0.10540462910E+03  0.32035629699E+04  0.32018284724E+04 0.  0.
        5    1    3    3  502    0 -0.13824159053E+03  0.10549779198E+04  0.11441125325E+04  0.15624035092E+04  0.46999998093E+01 0.  1.
       -5    1    3    3    0  502  0.13824159053E+03 -0.10549779198E+04 -0.12495171616E+04  0.16411594608E+04  0.46999998093E+01 0. -1.
</event>
<event>
 5   0  0.5373060E-06  0.3264416E+04  0.7818609E-02  0.8172009E-01
        2   -1    0    0  501    0  0.00000000000E+00  0.00000000000E+00  0.28984224045E+04  0.28984224045E+04  0.25500000920E-02 0.  1.
       -2   -1    0    0    0  501  0.00000000000E+00  0.00000000000E+00 -0.91915603699E+03  0.91915603699E+03  0.25500000920E-02 0. -1.
    10030    2    1    2    0    0  0.00000000000E+00  0.00000000000E+00  0.19792663675E+04  0.38175784415E+04  0.32644156910E+04 0.  0.
        5    1    3    3  502    0  0.98420465075E+02 -0.14044379290E+04  0.23897889899E+02  0.14080929243E+04  0.46999998093E+01 0. -1.
       -5    1    3    3    0  502 -0.98420465075E+02  0.14044379290E+04  0.19553684776E+04  0.24094855172E+04  0.46999998093E+01 0.  1.
</event>
<event>
 5   0  0.5131083E-06  0.3223602E+04  0.7818609E-02  0.8182612E-01
       -2   -1    0    0    0  501  0.00000000000E+00  0.00000000000E+00  0.13464095044E+04  0.13464095045E+04  0.25500000920E-02 0.  1.
        2   -1    0    0  501    0  0.00000000000E+00  0.00000000000E+00 -0.19295038039E+04  0.19295038039E+04  0.25500000920E-02 0. -1.
    10030    2    1    2    0    0  0.00000000000E+00  0.00000000000E+00 -0.58309429944E+03  0.32759133083E+04  0.32236018739E+04 0.  0.
        3    1    3    3  502    0 -0.14810286373E+04 -0.33277335660E+03 -0.84229970109E+03  0.17359875368E+04  0.10100000352E+00 0. -1.
       -3    1    3    3    0  502  0.14810286373E+04  0.33277335660E+03  0.25920540165E+03  0.15399257715E+04  0.10100000352E+00 0.  1.
</event>
<event>
 5   0  0.1881144E-06  0.3086794E+04  0.7818609E-02  0.8219372E-01
        1   -1    0    0  501    0  0.00000000000E+00  0.00000000000E+00  0.24354452785E+04  0.24354452785E+04  0.50400001928E-02 0.  1.
       -1   -1    0    0    0  501  0.00000000000E+00  0.00000000000E+00 -0.97808575460E+03  0.97808575461E+03  0.50400001928E-02 0. -1.
    10030    2    1    2    0    0  0.00000000000E+00  0.00000000000E+00  0.14573595239E+04  0.34135310331E+04  0.30867940217E+04 0.  0.
        3    1    3    3  502    0  0.98166535834E+03  0.11891474908E+04  0.65586399533E+03  0.16756778393E+04  0.10100000352E+00 0. -1.
       -3    1    3    3    0  502 -0.98166535834E+03 -0.11891474908E+04  0.80149552858E+03  0.17378531938E+04  0.10100000352E+00 0.  1.
</event>
<event>
 5   0  0.1881144E-06  0.3207156E+04  0.7818609E-02  0.8186930E-01
       -1   -1    0    0    0  501  0.00000000000E+00  0.00000000000E+00  0.13825208852E+04  0.13825208852E+04  0.50400001928E-02 0.  1.
        1   -1    0    0  501    0  0.00000000000E+00  0.00000000000E+00 -0.18599805327E+04  0.18599805327E+04  0.50400001928E-02 0. -1.
    10030    2    1    2    0    0  0.00000000000E+00  0.00000000000E+00 -0.47745964749E+03  0.32425014179E+04  0.32071557072E+04 0.  0.
        3    1    3    3  502    0 -0.57878257678E+03  0.12633472612E+04  0.57035624820E+03  0.15021124570E+04  0.10100000352E+00 0.  1.
       -3    1    3    3    0  502  0.57878257678E+03 -0.12633472612E+04 -0.10478158957E+04  0.17403889608E+04  0.10100000352E+00 0. -1.
</event>
<event>
 5   0  0.1886248E-06  0.3141567E+04  0.7818609E-02  0.8204422E-01
       -1   -1    0    0    0  501  0.00000000000E+00  0.00000000000E+00  0.18244459956E+04  0.18244459956E+04  0.50400001928E-02 0. -1.
        1   -1    0    0  501    0  0.00000000000E+00  0.00000000000E+00 -0.13523893622E+04  0.13523893622E+04  0.50400001928E-02 0.  1.
    10030    2    1    2    0    0  0.00000000000E+00  0.00000000000E+00  0.47205663336E+03  0.31768353578E+04  0.31415673517E+04 0.  0.
        4    1    3    3  502    0  0.39314985694E+03  0.10582374853E+03 -0.12981036394E+04  0.13604558601E+04  0.12699999809E+01 0.  1.
       -4    1    3    3    0  502 -0.39314985694E+03 -0.10582374853E+03  0.17701602727E+04  0.18163794977E+04  0.12699999809E+01 0. -1.
</event>
<event>
 5   0  0.5108810E-06  0.2520414E+04  0.7818609E-02  0.8395749E-01
        2   -1    0    0  501    0  0.00000000000E+00  0.00000000000E+00  0.30544204919E+04  0.30544204919E+04  0.25500000920E-02 0.  1.
       -2   -1    0    0    0  501  0.00000000000E+00  0.00000000000E+00 -0.51994195613E+03  0.51994195614E+03  0.25500000920E-02 0. -1.
    10030    2    1    2    0    0  0.00000000000E+00  0.00000000000E+00  0.25344785357E+04  0.35743624480E+04  0.25204137481E+04 0.  0.
        1    1    3    3  502    0 -0.11575236928E+04  0.41549836580E+03  0.16572252807E+04  0.20637091903E+04  0.50400001928E-02 0.  1.
       -1    1    3    3    0  502  0.11575236928E+04 -0.41549836580E+03  0.87725325507E+03  0.15106532577E+04  0.50400001928E-02 0. -1.
</event>
<event>
 5   0  0.5373060E-06  0.3145434E+04  0.7818609E-02  0.8203378E-01
        2   -1    0    0  501    0  0.00000000000E+00  0.00000000000E+00  0.10724562540E+04  0.10724562540E+04  0.25500000920E-02 0. -1.
       -2   -1    0    0    0  501  0.00000000000E+00  0.00000000000E+00 -0.23063302014E+04  0.23063302014E+04  0.25500000920E-02 0.  1.
    10030    2    1    2    0    0  0.00000000000E+00  0.00000000000E+00 -0.12338739474E+04  0.33787864553E+04  0.31454336732E+04 0.  0.
        5    1    3    3  502    0  0.16839589181E+03 -0.15579796538E+04 -0.47379009326E+03  0.16371184809E+04  0.46999998093E+01 0. -1.
       -5    1    3    3    0  502 -0.16839589181E+03  0.15579796538E+04 -0.76008385416E+03  0.17416679745E+04  0.46999998093E+01 0.  1.
</event>
<event>
 5   0  0.5347280E-06  0.3204290E+04  0.7818609E-02  0.8187685E-01
       -2   -1    0    0    0  501  0.00000000000E+00  0.00000000000E+00  0.16676492410E+04  0.16676492410E+04  0.25500000920E-02 0. -1.
        2   -1    0    0  501    0  0.00000000000E+00  0.00000000000E+00 -0.15392140901E+04  0.15392140901E+04  0.25500000920E-02 0.  1.
    10030    2    1    2    0    0  0.00000000000E+00  0.00000000000E+00  0.12843515089E+03  0.32068633310E+04  0.32042903795E+04 0.  0.
        2    1    3    3  502    0 -0.66216224000E+02 -0.53132773542E+03  0.15754550674E+04  0.16639568564E+04  0.25500000920E-02 0. -1.
       -2    1    3    3    0  502  0.66216224000E+02  0.53132773542E+03 -0.14470199165E+04  0.15429064746E+04  0.25500000920E-02 0.  1.
</event>
<event>
 5   0  0.5131083E-06  0.3199745E+04  0.7818609E-02  0.8188884E-01
       -2   -1    0    0    0  501  0.00000000000E+00  0.00000000000E+00  0.95336312005E+03  0.95336312005E+03  0.25500000920E-02 0.  1.
        2   -1    0    0  501    0  0.00000000000E+00  0.00000000000E+00 -0.26848033641E+04  0.26848033641E+04  0.25500000920E-02 0. -1.
    10030    2    1    2    0    0  0.00000000000E+00  0.00000000000E+00 -0.17314402441E+04  0.36381664842E+04  0.31997453098E+04 0.  0.
        3    1    3    3  502    0  0.65706262038E+03 -0.13848353629E+03  0.78537791089E+03  0.10333089809E+04  0.10100000352E+00 0.  1.
       -3    1    3    3    0  502 -0.65706262038E+03  0.13848353629E+03 -0.25168181550E+04  0.26048575033E+04  0.10100000352E+00 0. -1.
</event>
<event>
 5   0  0.1969465E-06  0.3308097E+04  0.7818609E-02  0.8160838E-01
        1   -1    0    0  501    0  0.00000000000E+00  0.00000000000E+00  0.10358860300E+04  0.10358860300E+04  0.50400001928E-02 0.  1.
       -1   -1    0    0    0  501  0.00000000000E+00  0.00000000000E+00 -0.26410983210E+04  0.26410983210E+04  0.50400001928E-02 0. -1.
    10030    2    1    2    0    0  0.00000000000E+00  0.00000000000E+00 -0.16052122910E+04  0.36769843510E+04  0.33080972504E+04 0.  0.
        2    1    3    3  502    0  0.23980045495E+03  0.16273518157E+04 -0.99544170601E+03  0.19226758386E+04  0.25500000920E-02 0. -1.
       -2    1    3    3    0  502 -0.23980045495E+03 -0.16273518157E+04 -0.60977058495E+03  0.17543085124E+04  0.25500000920E-02 0.  1.
</event>
<event>
 5   0  0.1977015E-06  0.2422071E+04  0.7818609E-02  0.8431286E-01
       -1   -1    0    0    0  501  0.00000000000E+00  0.00000000000E+00  0.10819440181E+04  0.10819440181E+04  0.50400001928E-02 0. -1.
        1   -1    0    0  501    0  0.00000000000E+00  0.00000000000E+00 -0.13555297756E+04  0.13555297756E+04  0.50400001928E-02 0.  1.
    10030    2    1    2    0    0  0.00000000000E+00  0.00000000000E+00 -0.27358575751E+03  0.24374737937E+04  0.24220712888E+04 0.  0.
        1    1    3    3  502    0  0.56743647992E+03  0.67539456565E+03 -0.97180749684E+03  0.13124602047E+04  0.50400001928E-02 0.  1.
       -1    1    3    3    0  502 -0.56743647992E+03 -0.67539456565E+03  0.69822173933E+03  0.11250135890E+04  0.50400001928E-02 0. -1.
</event>
<event>
 5   0  0.5131083E-06  0.3180638E+04  0.7818609E-02  0.8193949E-01
        2   -1    0    0  501    0  0.00000000000E+00  0.00000000000E+00  0.81341758209E+03  0.81341758210E+03  0.25500000920E-02 0. -1.
       -2   -1    0    0    0  501  0.00000000000E+00  0.00000000000E+00 -0.31092447846E+04  0.31092447846E+04  0.25500000920E-02 0.  1.
    10030    2    1    2    0    0  0.00000000000E+00  0.00000000000E+00 -0.22958272025E+04  0.39226623667E+04  0.31806379076E+04 0.  0.
        3    1    3    3  502    0  0.15763547473E+04  0.17345300040E+03 -0.12945363197E+04  0.20471454580E+04  0.10100000352E+00 0. -1.
       -3    1    3    3    0  502 -0.15763547473E+04 -0.17345300040E+03 -0.10012908827E+04  0.18755169087E+04  0.10100000352E+00 0.  1.
</event>
<event>
 5   0  0.5373060E-06  0.3137782E+04  0.7818609E-02  0.8205445E-01
       -2   -1    0    0    0  501  0.00000000000E+00  0.00000000000E+00  0.10701214625E+04  0.10701214625E+04  0.25500000920E-02 0.  1.
        2   -1    0    0  501    0  0.00000000000E+00  0.00000000000E+00 -0.23001303587E+04  0.23001303587E+04  0.25500000920E-02 0. -1.
    10030    2    1    2    0    0  0.00000000000E+00  0.00000000000E+00 -0.12300088961E+04  0.33702518212E+04  0.31377819322E+04 0.  0.
        5    1    3    3  502    0 -0.96231977149E+03 -0.12285236652E+04 -0.44158994689E+03  0.16218364621E+04  0.46999998093E+01 0.  1.
       -5    1    3    3    0  502  0.96231977149E+03  0.12285236652E+04 -0.78841894922E+03  0.17484153591E+04  0.46999998093E+01 0. -1.
</event>
<event>
 5   0  0.1881144E-06  0.3224179E+04  0.7818609E-02  0.8182461E-01
       -1   -1    0    0    0  501  0.00000000000E+00  0.00000000000E+00  0.19582671339E+04  0.19582671339E+04  0.50400001928E-02 0.  1.
        1   -1    0    0  501    0  0.00000000000E+00  0.00000000000E+00 -0.13271080235E+04  0.13271080235E+04  0.50400001928E-02 0. -1.
    10030    2    1    2    0    0  0.00000000000E+00  0.00000000000E+00  0.63115911033E+03  0.32853751574E+04  0.32241786710E+04 0.  0.
        3    1    3    3  502    0 -0.76393855532E+01  0.15288382687E+04  0.83658379403E+03  0.17427786052E+04  0.10100000352E+00 0. -1.
       -3    1    3    3    0  502  0.76393855532E+01 -0.15288382687E+04 -0.20542468370E+03  0.15425965522E+04  0.10100000352E+00 0.  1.
</event>
<event>
 5   0  0.1886248E-06  0.3176880E+04  0.7818609E-02  0.8194950E-01
        1   -1    0    0  501    0  0.00000000000E+00  0.00000000000E+00  0.20089029897E+04  0.20089029897E+04  0.50400001928E-02 0.  1.
       -1   -1    0    0    0  501  0.00000000000E+00  0.00000000000E+00 -0.12559794407E+04  0.12559794407E+04  0.50400001928E-02 0. -1.
    10030    2    1    2    0    0  0.00000000000E+00  0.00000000000E+00  0.75292354900E+03  0.32648824305E+04  0.31768795089E+04 0.  0.
        4    1    3    3  502    0 -0.10125072160E+04  0.78325304383E+03  0.13429833654E+04  0.18553334271E+04  0.12699999809E+01 0.  1.
       -4    1    3    3    0  502  0.10125072160E+04 -0.78325304383E+03 -0.59005981638E+03  0.14095490034E+04  0.12699999809E+01 0. -1.
</event>
<event>
 5   0  0.1969465E-06  0.3165425E+04  0.7818609E-02  0.8198008E-01
       -1   -1    0    0    0  501  0.00000000000E+00  0.00000000000E+00  0.10855653812E+04  0.10855653812E+04  0.50400001928E-02 0.  1.
        1   -1    0    0  501    0  0.00000000000E+00  0.00000000000E+00 -0.23075338479E+04  0.23075338479E+04  0.50400001928E-02 0. -1.
    10030    2    1    2    0    0  0.00000000000E+00  0.00000000000E+00 -0.12219684667E+04  0.33930992291E+04  0.31654250023E+04 0.  0.
        2    1    3    3  502    0 -0.14706626004E+04 -0.58306579464E+03 -0.56111197872E+03  0.16785889484E+04  0.25500000920E-02 0.  1.
       -2    1    3    3    0  502  0.14706626004E+04  0.58306579464E+03 -0.66085648795E+03  0.17145102807E+04  0.25500000920E-02 0. -1.
</event>
<event>
 5   0  0.5121624E-06  0.3193611E+04  0.7818609E-02  0.8190507E-01
       -2   -1    0    0    0  501  0.00000000000E+00  0.00000000000E+00  0.12148308585E+04  0.12148308585E+04  0.25500000920E-02 0.  1.
        2   -1    0    0  501    0  0.00000000000E+00  0.00000000000E+00 -0.20988828629E+04  0.20988828629E+04  0.25500000920E-02 0. -1.
    10030    2    1    2    0    0  0.00000000000E+00  0.00000000000E+00 -0.88405200439E+03  0.33137137215E+04  0.31936109158E+04 0.  0.
        4    1    3    3  502    0 -0.71143042931E+02 -0.41108181010E+02  0.12126354038E+04  0.12154165749E+04  0.12699999809E+01 0.  1.
       -4    1    3    3    0  502  0.71143042931E+02  0.41108181010E+02 -0.20966874081E+04  0.20982971466E+04  0.12699999809E+01 0. -1.
</event>
<event>
 5   0  0.1846850E-06  0.3132294E+04  0.7818609E-02  0.8206930E-01
        1   -1    0    0  501    0  0.00000000000E+00  0.00000000000E+00  0.17767413837E+04  0.17767413837E+04  0.50400001928E-02 0. -1.
       -1   -1    0    0    0  501  0.00000000000E+00  0.00000000000E+00 -0.13805144331E+04  0.13805144331E+04  0.50400001928E-02 0.  1.
    10030    2    1    2    0    0  0.00000000000E+00  0.00000000000E+00  0.39622695067E+03  0.31572558168E+04  0.31322944460E+04 0.  0.
        5    1    3    3  502    0 -0.13806379900E+04 -0.68376593126E+03 -0.85371299881E+02  0.15430513462E+04  0.46999998093E+01 0.  1.
       -5    1    3    3    0  502  0.13806379900E+04  0.68376593126E+03  0.48159825055E+03  0.16142044706E+04  0.46999998093E+01 0. -1.
</event>
<event>
 5   0  0.5373060E-06  0.3165220E+04  0.7818609E-02  0.8198063E-01
        2   -1    0    0  501    0  0.00000000000E+00  0.00000000000E+00  0.14577088049E+04  0.14577088049E+04  0.25500000920E-02 0.  1.
       -2   -1    0    0    0  501  0.00000000000E+00  0.00000000000E+00 -0.17182131581E+04  0.17182131581E+04  0.25500000920E-02 0. -1.
    10030    2    1    2    0    0  0.00000000000E+00  0.00000000000E+00 -0.26050435320E+03  0.31759219630E+04  0.31652200234E+04 0.  0.
        5    1    3    3  502    0 -0.14556584884E+04  0.61143680401E+03 -0.23941228952E+03  0.15969148175E+04  0.46999998093E+01 0.  1.
       -5    1    3    3    0  502  0.14556584884E+04 -0.61143680401E+03 -0.21092063678E+02  0.15790071454E+04  0.46999998093E+01 0. -1.
</event>
<event>
 5   0  0.1969465E-06  0.2979133E+04  0.7818609E-02  0.8249715E-01
       -1   -1    0    0    0  501  0.00000000000E+00  0.00000000000E+00  0.13100265943E+04  0.13100265943E+04  0.50400001928E-02 0. -1.
        1   -1    0    0  501    0  0.00000000000E+00  0.00000000000E+00 -0.16937129772E+04  0.16937129772E+04  0.50400001928E-02 0.  1.
    10030    2    1    2    0    0  0.00000000000E+00  0.00000000000E+00 -0.38368638289E+03  0.30037395715E+04  0.29791334601E+04 0.  0.
        2    1    3    3  502    0 -0.24913727549E+03  0.29206963017E+03 -0.16429787058E+04  0.16872323724E+04  0.25500000920E-02 0.  1.
       -2    1    3    3    0  502  0.24913727549E+03 -0.29206963017E+03  0.12592923229E+04  0.13165071991E+04  0.25500000920E-02 0. -1.
</event>
<event>
 5   0  0.5108810E-06  0.2934420E+04  0.7818609E-02  0.8262709E-01
       -2   -1    0    0    0  501  0.00000000000E+00  0.00000000000E+00  0.16224301869E+04  0.16224301869E+04  0.25500000920E-02 0. -1.
        2   -1    0    0  501    0  0.00000000000E+00  0.00000000000E+00 -0.13268402346E+04  0.13268402346E+04  0.25500000920E-02 0.  1.
    10030    2    1    2    0    0  0.00000000000E+00  0.00000000000E+00  0.29558995226E+03  0.29492704215E+04  0.29344203174E+04 0.  0.
        1    1    3    3  502    0  0.73188023168E+03 -0.83209169000E+03  0.11142643567E+04  0.15714993830E+04  0.50400001928E-02 0.  1.
       -1    1    3    3    0  502 -0.73188023168E+03  0.83209169000E+03 -0.81867440444E+03  0.13777710385E+04  0.50400001928E-02 0. -1.
</event>
<event>
 5   0  0.1846850E-06  0.3142852E+04  0.7818609E-02  0.8204075E-01
        1   -1    0    0  501    0  0.00000000000E+00  0.00000000000E+00  0.12226017420E+04  0.12226017421E+04  0.50400001928E-02 0. -1.
       -1   -1    0    0    0  501  0.00000000000E+00  0.00000000000E+00 -0.20197747019E+04  0.20197747019E+04  0.50400001928E-02 0.  1.
    10030    2    1    2    0    0  0.00000000000E+00  0.00000000000E+00 -0.79717295985E+03  0.32423764440E+04  0.31428522518E+04 0.  0.
        5    1    3    3  502    0 -0.88962113995E+03 -0.53269550010E+03  0.81955289280E+03  0.13216956165E+04  0.46999998093E+01 0. -1.
       -5    1    3    3    0  502  0.88962113995E+03  0.53269550010E+03 -0.16167258527E+04  0.19206808275E+04  0.46999998093E+01 0.  1.
</event>
<event>
 5   0  0.1969465E-06  0.3307783E+04  0.7818609E-02  0.8160918E-01
        1   -1    0    0  501    0  0.00000000000E+00  0.00000000000E+00  0.18083782961E+04  0.18083782961E+04  0.50400001928E-02 0.  1.
       -1   -1    0    0    0  501  0.00000000000E+00  0.00000000000E+00 -0.15126018486E+04  0.15126018486E+04  0.50400001928E-02 0. -1.
    10030    2    1    2    0    0  0.00000000000E+00  0.00000000000E+00  0.29577644749E+03  0.33209801447E+04  0.33077825525E+04 0.  0.
        2    1    3    3  502    0  0.33342542954E+02  0.59194313126E+03 -0.14022434964E+04  0.15224306943E+04  0.25500000920E-02 0. -1.
       -2    1    3    3    0  502 -0.33342542954E+02 -0.59194313126E+03  0.16980199439E+04  0.17985494504E+04  0.25500000920E-02 0.  1.
</event>
<event>
 5   0  0.5347280E-06  0.2901872E+04  0.7818609E-02  0.8272321E-01
        2   -1    0    0  501    0  0.00000000000E+00  0.00000000000E+00  0.22438733859E+04  0.22438733859E+04  0.25500000920E-02 0. -1.
       -2   -1    0    0    0  501  0.00000000000E+00  0.00000000000E+00 -0.93820615609E+03  0.93820615609E+03  0.25500000920E-02 0.  1.
    10030    2    1    2    0    0  0.00000000000E+00  0.00000000000E+00  0.13056672298E+04  0.31820795420E+04  0.29018723777E+04 0.  0.
        2    1    3    3  502    0  0.17824993409E+03 -0.80880132667E+03  0.19592067892E+04  0.21270693143E+04  0.25500000920E-02 0. -1.
       -2    1    3    3    0  502 -0.17824993409E+03  0.80880132667E+03 -0.65353955933E+03  0.10550102277E+04  0.25500000920E-02 0.  1.
</event>
<event>
 5   0  0.5347280E-06  0.3213506E+04  0.7818609E-02  0.8185259E-01
        2   -1    0    0  501    0  0.00000000000E+00  0.00000000000E+00  0.17621655790E+04  0.17621655790E+04  0.25500000920E-02 0. -1.
       -2   -1    0    0    0  501  0.00000000000E+00  0.00000000000E+00 -0.14650471456E+04  0.14650471456E+04  0.25500000920E-02 0.  1.
    10030    2    1    2    0    0  0.00000000000E+00  0.00000000000E+00  0.29711843339E+03  0.32272127246E+04  0.32135062792E+04 0.  0.
        2    1    3    3  502    0  0.18347716371E+03  0.73977774719E+03  0.15690606280E+04  0.17443870669E+04  0.25500000920E-02 0. -1.
       -2    1    3    3    0  502 -0.18347716371E+03 -0.73977774719E+03 -0.12719421946E+04  0.14828256577E+04  0.25500000920E-02 0.  1.
</event>
<event>
 5   0  0.5121624E-06  0.3228200E+04  0.7818609E-02  0.8181409E-01
        2   -1    0    0  501    0  0.00000000000E+00  0.00000000000E+00  0.21861770852E+04  0.21861770852E+04  0.25500000920E-02 0. -1.
       -2   -1    0    0    0  501  0.00000000000E+00  0.00000000000E+00 -0.11917232762E+04  0.11917232762E+04  0.25500000920E-02 0.  1.
    10030    2    1    2    0    0  0.00000000000E+00  0.00000000000E+00  0.99445380899E+03  0.33779003615E+04  0.32281995715E+04 0.  0.
        4    1    3    3  502    0 -0.24530220957E+03  0.12838227117E+04  0.14882157801E+04  0.19806972889E+04  0.12699999809E+01 0. -1.
       -4    1    3    3    0  502  0.24530220957E+03 -0.12838227117E+04 -0.49376197108E+03  0.13972030726E+04  0.12699999809E+01 0.  1.
</event>
<event>
 5   0  0.5347280E-06  0.3456306E+04  0.7818609E-02  0.8124224E-01
       -2   -1    0    0    0  501  0.00000000000E+00  0.00000000000E+00  0.26886762934E+04  0.26886762934E+04  0.25500000920E-02 0.  1.
        2   -1    0    0  501    0  0.00000000000E+00  0.00000000000E+00 -0.11107743951E+04  0.11107743951E+04  0.25500000920E-02 0. -1.
    10030    2    1    2    0    0  0.00000000000E+00  0.00000000000E+00  0.15779018983E+04  0.37994506885E+04  0.34563059953E+04 0.  0.
        2    1    3    3  502    0 -0.99169345853E+03 -0.43478863545E+03 -0.69161974756E+03  0.12848482200E+04  0.25500000920E-02 0. -1.
       -2    1    3    3    0  502  0.99169345853E+03  0.43478863545E+03  0.22695216459E+04  0.25146024685E+04  0.25500000920E-02 0.  1.
</event>
<event>
 5   0  0.5347280E-06  0.3193822E+04  0.7818609E-02  0.8190451E-01
        2   -1    0    0  501    0  0.00000000000E+00  0.00000000000E+00  0.13842480518E+04  0.13842480518E+04  0.25500000920E-02 0.  1.
       -2   -1    0    0    0  501  0.00000000000E+00  0.00000000000E+00 -0.18422457796E+04  0.18422457796E+04  0.25500000920E-02 0. -1.
    10030    2    1    2    0    0  0.00000000000E+00  0.00000000000E+00 -0.45799772787E+03  0.32264938314E+04  0.31938222438E+04 0.  0.
        2    1    3    3  502    0 -0.17367207555E+03  0.15116294996E+04  0.26066496387E+03  0.15437396015E+04  0.25500000920E-02 0. -1.
       -2    1    3    3    0  502  0.17367207555E+03 -0.15116294996E+04 -0.71866269175E+03  0.16827542299E+04  0.25500000920E-02 0.  1.
</event>
<event>
 5   0  0.5131083E-06  0.3049226E+04  0.7818609E-02  0.8229812E-01
       -2   -1    0    0    0  501  0.00000000000E+00  0.00000000000E+00  0.25884075067E+04  0.25884075067E+04  0.25500000920E-02 0.  1.
        2   -1    0    0  501    0  0.00000000000E+00  0.00000000000E+00 -0.89802124159E+03  0.89802124159E+03  0.25500000920E-02 0. -1.
    10030    2    1    2    0    0  0.00000000000E+00  0.00000000000E+00  0.16903862651E+04  0.34864287483E+04  0.30492260808E+04 0.  0.
        3    1    3    3  502    0  0.13848819699E+04  0.42739205485E+03  0.30418772695E+03  0.14809092554E+04  0.10100000352E+00 0. -1.
       -3    1    3    3    0  502 -0.13848819699E+04 -0.42739205485E+03  0.13861985382E+04  0.20055194929E+04  0.10100000352E+00 0.  1.
</event>
<event>
 5   0  0.1886248E-06  0.3113010E+04  0.7818609E-02  0.8212176E-01
       -1   -1    0    0    0  501  0.00000000000E+00  0.00000000000E+00  0.13395264018E+04  0.13395264018E+04  0.50400001928E-02 0. -1.
        1   -1    0    0  501    0  0.00000000000E+00  0.00000000000E+00 -0.18086301052E+04  0.18086301052E+04  0.50400001928E-02 0.  1.
    10030    2    1    2    0    0  0.00000000000E+00  0.00000000000E+00 -0.46910370349E+03  0.31481565070E+04  0.31130099756E+04 0.  0.
        4    1    3    3  502    0 -0.96323679732E+03  0.10581827564E+04 -0.85394567327E+03  0.16663735174E+04  0.12699999809E+01 0.  1.
       -4    1    3    3    0  502  0.96323679732E+03 -0.10581827564E+04  0.38484196979E+03  0.14817829896E+04  0.12699999809E+01 0. -1.
</event>
<event>
 5   0  0.1977015E-06  0.2938249E+04  0.7818609E-02  0.8261587E-01
       -1   -1    0    0    0  501  0.00000000000E+00  0.00000000000E+00  0.15682666576E+04  0.15682666576E+04  0.50400001928E-02 0.  1.
        1   -1    0    0  501    0  0.00000000000E+00  0.00000000000E+00 -0.13762502494E+04  0.13762502494E+04  0.50400001928E-02 0. -1.
    10030    2    1    2    0    0  0.00000000000E+00  0.00000000000E+00  0.19201640824E+03  0.29445169070E+04  0.29382493963E+04 0.  0.
        1    1    3    3  502    0  0.47788687608E+03 -0.23964419059E+03  0.14673284294E+04  0.15616843229E+04  0.50400001928E-02 0.  1.
       -1    1    3    3    0  502 -0.47788687608E+03  0.23964419059E+03 -0.12753120212E+04  0.13828325842E+04  0.50400001928E-02 0. -1.
</event>
<event>
 5   0  0.1881144E-06  0.3210414E+04  0.7818609E-02  0.8186072E-01
        1   -1    0    0  501    0  0.00000000000E+00  0.00000000000E+00  0.16983710323E+04  0.16983710323E+04  0.50400001928E-02 0.  1.
       -1   -1    0    0    0  501  0.00000000000E+00  0.00000000000E+00 -0.15171530514E+04  0.15171530514E+04  0.50400001928E-02 0. -1.
    10030    2    1    2    0    0  0.00000000000E+00  0.00000000000E+00  0.18121798087E+03  0.32155240837E+04  0.32104135522E+04 0.  0.
        3    1    3    3  502    0 -0.14256864576E+04 -0.67918975274E+03 -0.19761320895E+03  0.15915186415E+04  0.10100000352E+00 0.  1.
       -3    1    3    3    0  502  0.14256864576E+04  0.67918975274E+03  0.37883118982E+03  0.16240054422E+04  0.10100000352E+00 0. -1.
</event>
<event>
 5   0  0.1969465E-06  0.3226655E+04  0.7818609E-02  0.8181813E-01
        1   -1    0    0  501    0  0.00000000000E+00  0.00000000000E+00  0.16838868460E+04  0.16838868460E+04  0.50400001928E-02 0.  1.
       -1   -1    0    0    0  501  0.00000000000E+00  0.00000000000E+00 -0.15457252574E+04  0.15457252574E+04  0.50400001928E-02 0. -1.
    10030    2    1    2    0    0  0.00000000000E+00  0.00000000000E+00  0.13816158861E+03  0.32296121034E+04  0.32266554997E+04 0.  0.
        2    1    3    3  502    0  0.10587335074E+04  0.56281485343E+03  0.11494906582E+04  0.16610255785E+04  0.25500000920E-02 0.  1.
       -2    1    3    3    0  502 -0.10587335074E+04 -0.56281485343E+03 -0.10113290696E+04  0.15685865249E+04  0.25500000920E-02 0. -1.
</event>
<event>
 5   0  0.1881144E-06  0.2333844E+04  0.7818609E-02  0.8464695E-01
        1   -1    0    0  501    0  0.00000000000E+00  0.00000000000E+00  0.12154932635E+04  0.12154932635E+04  0.50400001928E-02 0. -1.
       -1   -1    0    0    0  501  0.00000000000E+00  0.00000000000E+00 -0.11202918309E+04  0.11202918309E+04  0.50400001928E-02 0.  1.
    10030    2    1    2    0    0  0.00000000000E+00  0.00000000000E+00  0.95201432593E+02  0.23357850944E+04  0.23338441882E+04 0.  0.
        3    1    3    3  502    0  0.57677729740E+03  0.60514275899E+03  0.86242602868E+03  0.12011030242E+04  0.10100000352E+00 0. -1.
       -3    1    3    3    0  502 -0.57677729740E+03 -0.60514275899E+03 -0.76722459609E+03  0.11346820703E+04  0.10100000352E+00 0.  1.
</event>
<event>
 5   0  0.5121624E-06  0.3007546E+04  0.7818609E-02  0.8241579E-01
       -2   -1    0    0    0  501  0.00000000000E+00  0.00000000000E+00  0.11348166682E+04  0.11348166682E+04  0.25500000920E-02 0.  1.
        2   -1    0    0  501    0  0.00000000000E+00  0.00000000000E+00 -0.19926863616E+04  0.19926863616E+04  0.25500000920E-02 0. -1.
    10030    2    1    2    0    0  0.00000000000E+00  0.00000000000E+00 -0.85786969341E+03  0.31275030298E+04  0.30075463073E+04 0.  0.
        4    1    3    3  502    0  0.12657184914E+04 -0.80932065060E+03 -0.36083332077E+03  0.15450713619E+04  0.12699999809E+01 0. -1.
       -4    1    3    3    0  502 -0.12657184914E+04  0.80932065060E+03 -0.49703637265E+03  0.15824316679E+04  0.12699999809E+01 0.  1.
</event>
<event>
 5   0  0.5121624E-06  0.2835425E+04  0.7818609E-02  0.8292354E-01
        2   -1    0    0  501    0  0.00000000000E+00  0.00000000000E+00  0.14412795731E+04  0.14412795731E+04  0.25500000920E-02 0. -1.
       -2   -1    0    0    0  501  0.00000000000E+00  0.00000000000E+00 -0.13945304548E+04  0.13945304548E+04  0.25500000920E-02 0.  1.
    10030    2    1    2    0    0  0.00000000000E+00  0.00000000000E+00  0.46749118322E+02  0.28358100279E+04  0.28354246656E+04 0.  0.
        4    1    3    3  502    0 -0.69407027326E+03  0.22257947804E+03 -0.11927806226E+04  0.13978563570E+04  0.12699999809E+01 0.  1.
       -4    1    3    3    0  502  0.69407027326E+03 -0.22257947804E+03  0.12395297409E+04  0.14379536709E+04  0.12699999809E+01 0. -1.
</event>
<event>
 5   0  0.5347280E-06  0.3256825E+04  0.7818609E-02  0.8173969E-01
        2   -1    0    0  501    0  0.00000000000E+00  0.00000000000E+00  0.30239570948E+04  0.30239570948E+04  0.25500000920E-02 0. -1.
       -2   -1    0    0    0  501  0.00000000000E+00  0.00000000000E+00 -0.87690623619E+03  0.87690623620E+03  0.25500000920E-02 0.  1.
    10030    2    1    2    0    0  0.00000000000E+00  0.00000000000E+00  0.21470508587E+04  0.39008633310E+04  0.32568247324E+04 0.  0.
        2    1    3    3  502    0 -0.19038256222E+03 -0.64940301260E+03 -0.70050314733E+03  0.97399920544E+03  0.25500000920E-02 0.  1.
       -2    1    3    3    0  502  0.19038256222E+03  0.64940301260E+03  0.28475540060E+04  0.29268641256E+04  0.25500000920E-02 0. -1.
</event>
<event>
 5   0  0.1729500E-06  0.3210539E+04  0.7818609E-02  0.8186039E-01
       -3   -1    0    0    0  501  0.00000000000E+00  0.00000000000E+00  0.26391236621E+04  0.26391236640E+04  0.10100000352E+00 0. -1.
        3   -1    0    0  501    0  0.00000000000E+00  0.00000000000E+00 -0.97641903159E+03  0.97641903681E+03  0.10100000352E+00 0.  1.
    10030    2    1    2    0    0  0.00000000000E+00  0.00000000000E+00  0.16627046305E+04  0.36155427008E+04  0.32105392589E+04 0.  0.
        4    1    3    3  502    0 -0.64540982771E+03 -0.14356409117E+04  0.47653470113E+03  0.16445989199E+04  0.12699999809E+01 0.  1.
       -4    1    3    3    0  502  0.64540982771E+03  0.14356409117E+04  0.11861699293E+04  0.19709437809E+04  0.12699999809E+01 0. -1.
</event>
<event>
 5   0  0.1886248E-06  0.3353644E+04  0.7818609E-02  0.8149378E-01
        1   -1    0    0  501    0  0.00000000000E+00  0.00000000000E+00  0.27543992193E+04  0.27543992193E+04  0.50400001928E-02 0.  1.
       -1   -1    0    0    0  501  0.00000000000E+00  0.00000000000E+00 -0.10208147284E+04  0.10208147284E+04  0.50400001928E-02 0. -1.
    10030    2    1    2    0    0  0.00000000000E+00  0.00000000000E+00  0.17335844910E+04  0.37752139477E+04  0.33536435654E+04 0.  0.
        4    1    3    3  502    0  0.17588292068E+03 -0.10406322083E+04  0.23336165467E+04  0.25611751199E+04  0.12699999809E+01 0.  1.
       -4    1    3    3    0  502 -0.17588292068E+03  0.10406322083E+04 -0.60003205577E+03  0.12140388279E+04  0.12699999809E+01 0. -1.
</event>
<event>
 5   0  0.1881144E-06  0.3223399E+04  0.7818609E-02  0.8182665E-01
        1   -1    0    0  501    0  0.00000000000E+00  0.00000000000E+00  0.16007272682E+04  0.16007272682E+04  0.50400001928E-02 0.  1.
       -1   -1    0    0    0  501  0.00000000000E+00  0.00000000000E+00 -0.16227473765E+04  0.16227473765E+04  0.50400001928E-02 0. -1.
    10030    2    1    2    0    0  0.00000000000E+00  0.00000000000E+00 -0.22020108231E+02  0.32234746447E+04  0.32233994323E+04 0.  0.
        3    1    3    3  502    0  0.77431411679E+03  0.11193801409E+04  0.85214490334E+03  0.16058409628E+04  0.10100000352E+00 0. -1.
       -3    1    3    3    0  502 -0.77431411679E+03 -0.11193801409E+04 -0.87416501157E+03  0.16176336819E+04  0.10100000352E+00 0.  1.
</event>
<event>
 5   0  0.1886248E-06  0.3133110E+04  0.7818609E-02  0.8206710E-01
        1   -1    0    0  501    0  0.00000000000E+00  0.00000000000E+00  0.24172127112E+04  0.24172127112E+04  0.50400001928E-02 0.  1.
       -1   -1    0    0    0  501  0.00000000000E+00  0.00000000000E+00 -0.10152577891E+04  0.10152577891E+04  0.50400001928E-02 0. -1.
    10030    2    1    2    0    0  0.00000000000E+00  0.00000000000E+00  0.14019549221E+04  0.34324705003E+04  0.31331096585E+04 0.  0.
        4    1    3    3  502    0  0.13248084682E+04 -0.80853694323E+03  0.46795021906E+03  0.16210578295E+04  0.12699999809E+01 0.  1.
       -4    1    3    3    0  502 -0.13248084682E+04  0.80853694323E+03  0.93400470304E+03  0.18114126709E+04  0.12699999809E+01 0. -1.
</event>
<event>
 5   0  0.1886248E-06  0.3184310E+04  0.7818609E-02  0.8192973E-01
        1   -1    0    0  501    0  0.00000000000E+00  0.00000000000E+00  0.15504910564E+04  0.15504910564E+04  0.50400001928E-02 0. -1.
       -1   -1    0    0    0  501  0.00000000000E+00  0.00000000000E+00 -0.16349380010E+04  0.16349380010E+04  0.50400001928E-02 0.  1.
    10030    2    1    2    0    0  0.00000000000E+00  0.00000000000E+00 -0.84446944623E+02  0.31854290574E+04  0.31843095002E+04 0.  0.
        4    1    3    3  502    0 -0.15342379502E+04 -0.32996124609E+03  0.22656156790E+03  0.15855889343E+04  0.12699999809E+01 0.  1.
       -4    1    3    3    0  502  0.15342379502E+04  0.32996124609E+03 -0.31100851252E+03  0.15998401231E+04  0.12699999809E+01 0. -1.
</event>
<event>
 5   0  0.5108810E-06  0.3270553E+04  0.7818609E-02  0.8170429E-01
       -2   -1    0    0    0  501  0.00000000000E+00  0.00000000000E+00  0.14323538858E+04  0.14323538858E+04  0.25500000920E-02 0. -1.
        2   -1    0    0  501    0  0.00000000000E+00  0.00000000000E+00 -0.18669476512E+04  0.18669476512E+04  0.25500000920E-02 0.  1.
    10030    2    1    2    0    0  0.00000000000E+00  0.00000000000E+00 -0.43459376541E+03  0.32993015369E+04  0.32705533004E+04 0.  0.
        1    1    3    3  502    0  0.95879071448E+03  0.96926415570E+03 -0.11282164457E+04  0.17696397899E+04  0.50400001928E-02 0.  1.
       -1    1    3    3    0  502 -0.95879071448E+03 -0.96926415570E+03  0.69362268027E+03  0.15296617470E+04  0.50400001928E-02 0. -1.
</event>
<event>
 5   0  0.5347280E-06  0.2275828E+04  0.7818609E-02  0.8487513E-01
        2   -1    0    0  501    0  0.00000000000E+00  0.00000000000E+00  0.11781711022E+04  0.11781711022E+04  0.25500000920E-02 0.  1.
       -2   -1    0    0    0  501  0.00000000000E+00  0.00000000000E+00 -0.10990320970E+04  0.10990320970E+04  0.25500000920E-02 0. -1.
    10030    2    1    2    0    0  0.00000000000E+00  0.00000000000E+00  0.79139005260E+02  0.22772031992E+04  0.22758276359E+04 0.  0.
        2    1    3    3  502    0 -0.60891906726E+03 -0.66389704085E+03 -0.65605292751E+03  0.11144268280E+04  0.25500000920E-02 0. -1.
       -2    1    3    3    0  502  0.60891906726E+03  0.66389704085E+03  0.73519193277E+03  0.11627763712E+04  0.25500000920E-02 0.  1.
</event>
<event>
 5   0  0.5131083E-06  0.3210429E+04  0.7818609E-02  0.8186068E-01
       -2   -1    0    0    0  501  0.00000000000E+00  0.00000000000E+00  0.18620914168E+04  0.18620914168E+04  0.25500000920E-02 0. -1.
        2   -1    0    0  501    0  0.00000000000E+00  0.00000000000E+00 -0.13837735292E+04  0.13837735292E+04  0.25500000920E-02 0.  1.
    10030    2    1    2    0    0  0.00000000000E+00  0.00000000000E+00  0.47831788760E+03  0.32458649459E+04  0.32104285143E+04 0.  0.
        3    1    3    3  502    0  0.68993973588E+03 -0.63646902548E+03 -0.10773673823E+04  0.14289262214E+04  0.10100000352E+00 0.  1.
       -3    1    3    3    0  502 -0.68993973588E+03  0.63646902548E+03  0.15556852699E+04  0.18169387245E+04  0.10100000352E+00 0. -1.
</event>
<event>
 5   0  0.5373060E-06  0.3105470E+04  0.7818609E-02  0.8214238E-01
        2   -1    0    0  501    0  0.00000000000E+00  0.00000000000E+00  0.19469398721E+04  0.19469398721E+04  0.25500000920E-02 0. -1.
       -2   -1    0    0    0  501  0.00000000000E+00  0.00000000000E+00 -0.12383460899E+04  0.12383460899E+04  0.25500000920E-02 0.  1.
    10030    2    1    2    0    0  0.00000000000E+00  0.00000000000E+00  0.70859378224E+03  0.31852859620E+04  0.31054696121E+04 0.  0.
        5    1    3    3  502    0 -0.10161689672E+04 -0.97737009573E+02  0.15543292298E+04  0.18596003167E+04  0.46999998093E+01 0. -1.
       -5    1    3    3    0  502  0.10161689672E+04  0.97737009573E+02 -0.84573544760E+03  0.13256856454E+04  0.46999998093E+01 0.  1.
</event>
<event>
 5   0  0.1846850E-06  0.2001585E+04  0.7818609E-02  0.8605880E-01
        1   -1    0    0  501    0  0.00000000000E+00  0.00000000000E+00  0.12395462767E+04  0.12395462768E+04  0.50400001928E-02 0.  1.
       -1   -1    0    0    0  501  0.00000000000E+00  0.00000000000E+00 -0.80802566839E+03  0.80802566840E+03  0.50400001928E-02 0. -1.
    10030    2    1    2    0    0  0.00000000000E+00  0.00000000000E+00  0.43152060836E+03  0.20475719452E+04  0.20015845811E+04 0.  0.
        5    1    3    3  502    0 -0.61713300864E+03  0.45933098050E+03  0.87056451796E+03  0.11617843044E+04  0.46999998093E+01 0.  1.
       -5    1    3    3    0  502  0.61713300864E+03 -0.45933098050E+03 -0.43904390960E+03  0.88578764078E+03  0.46999998093E+01 0. -1.
</event>
<event>
 5   0  0.1969465E-06  0.3192784E+04  0.7818609E-02  0.8190725E-01
        1   -1    0    0  501    0  0.00000000000E+00  0.00000000000E+00  0.23338891475E+04  0.23338891475E+04  0.50400001928E-02 0. -1.
       -1   -1    0    0    0  501  0.00000000000E+00  0.00000000000E+00 -0.10919402195E+04  0.10919402195E+04  0.50400001928E-02 0.  1.
    10030    2    1    2    0    0  0.00000000000E+00  0.00000000000E+00  0.12419489281E+04  0.34258293670E+04  0.31927840065E+04 0.  0.
        2    1    3    3  502    0 -0.12077044664E+04 -0.77461529013E+03  0.13719828939E+04  0.19851740445E+04  0.25500000920E-02 0. -1.
       -2    1    3    3    0  502  0.12077044664E+04  0.77461529013E+03 -0.13003396583E+03  0.14406553225E+04  0.25500000920E-02 0.  1.
</event>
<event>
 5   0  0.1846850E-06  0.3053749E+04  0.7818609E-02  0.8228547E-01
        1   -1    0    0  501    0  0.00000000000E+00  0.00000000000E+00  0.16864383419E+04  0.16864383419E+04  0.50400001928E-02 0.  1.
       -1   -1    0    0    0  501  0.00000000000E+00  0.00000000000E+00 -0.13824076090E+04  0.13824076090E+04  0.50400001928E-02 0. -1.
    10030    2    1    2    0    0  0.00000000000E+00  0.00000000000E+00  0.30403073290E+03  0.30688459510E+04  0.30537486446E+04 0.  0.
        5    1    3    3  502    0  0.13705899365E+04 -0.52246367090E+03  0.57818508433E+03  0.15766436323E+04  0.46999998093E+01 0. -1.
       -5    1    3    3    0  502 -0.13705899365E+04  0.52246367090E+03 -0.27415435143E+03  0.14922023187E+04  0.46999998093E+01 0.  1.
</event>
<event>
 5   0  0.5347280E-06  0.3070878E+04  0.7818609E-02  0.8223776E-01
        2   -1    0    0  501    0  0.00000000000E+00  0.00000000000E+00  0.17005717091E+04  0.17005717091E+04  0.25500000920E-02 0.  1.
       -2   -1    0    0    0  501  0.00000000000E+00  0.00000000000E+00 -0.13863417651E+04  0.13863417651E+04  0.25500000920E-02 0. -1.
    10030    2    1    2    0    0  0.00000000000E+00  0.00000000000E+00  0.31422994399E+03  0.30869134742E+04  0.30708784312E+04 0.  0.
        2    1    3    3  502    0 -0.11198058681E+04  0.40396775424E+03  0.11319304229E+04  0.16426873139E+04  0.25500000920E-02 0.  1.
       -2    1    3    3    0  502  0.11198058681E+04 -0.40396775424E+03 -0.81770047892E+03  0.14442261603E+04  0.25500000920E-02 0. -1.
</event>
<event>
 5   0  0.5108810E-06  0.3190180E+04  0.7818609E-02  0.8191416E-01
        2   -1    0    0  501    0  0.00000000000E+00  0.00000000000E+00  0.21361749229E+04  0.21361749229E+04  0.25500000920E-02 0.  1.
       -2   -1    0    0    0  501  0.00000000000E+00  0.00000000000E+00 -0.11910594540E+04  0.11910594540E+04  0.25500000920E-02 0. -1.
    10030    2    1    2    0    0  0.00000000000E+00  0.00000000000E+00  0.94511546891E+03  0.33272343769E+04  0.31901795167E+04 0.  0.
        1    1    3    3  502    0 -0.12768823225E+04 -0.55452674177E+03  0.12847180563E+04  0.18943148780E+04  0.50400001928E-02 0.  1.
       -1    1    3    3    0  502  0.12768823225E+04  0.55452674177E+03 -0.33960258738E+03  0.14329194989E+04  0.50400001928E-02 0. -1.
</event>
<event>
 5   0  0.5108810E-06  0.2805921E+04  0.7818609E-02  0.8301432E-01
        2   -1    0    0  501    0  0.00000000000E+00  0.00000000000E+00  0.19925849521E+04  0.19925849521E+04  0.25500000920E-02 0. -1.
       -2   -1    0    0    0  501  0.00000000000E+00  0.00000000000E+00 -0.98781163813E+03  0.98781163813E+03  0.25500000920E-02 0.  1.
    10030    2    1    2    0    0  0.00000000000E+00  0.00000000000E+00  0.10047733140E+04  0.29803965903E+04  0.28059213144E+04 0.  0.
        1    1    3    3  502    0  0.50271027274E+03  0.11416731391E+04 -0.17953313875E+03  0.12603044564E+04  0.50400001928E-02 0.  1.
       -1    1    3    3    0  502 -0.50271027274E+03 -0.11416731391E+04  0.11843064528E+04  0.17200921339E+04  0.50400001928E-02 0. -1.
</event>
<event>
 5   0  0.5131083E-06  0.3183201E+04  0.7818609E-02  0.8193268E-01
       -2   -1    0    0    0  501  0.00000000000E+00  0.00000000000E+00  0.11598591425E+04  0.11598591425E+04  0.25500000920E-02 0. -1.
        2   -1    0    0  501    0  0.00000000000E+00  0.00000000000E+00 -0.21840516570E+04  0.21840516570E+04  0.25500000920E-02 0.  1.
    10030    2    1    2    0    0  0.00000000000E+00  0.00000000000E+00 -0.10241925145E+04  0.33439107995E+04  0.31832010819E+04 0.  0.
        3    1    3    3  502    0  0.20252011438E+03 -0.11319122262E+04  0.64389401602E+03  0.13178919526E+04  0.10100000352E+00 0.  1.
       -3    1    3    3    0  502 -0.20252011438E+03  0.11319122262E+04 -0.16680865305E+04  0.20260188469E+04  0.10100000352E+00 0. -1.
</event>
<event>
 5   0  0.1886248E-06  0.3164374E+04  0.7818609E-02  0.8198290E-01
        1   -1    0    0  501    0  0.00000000000E+00  0.00000000000E+00  0.20018459674E+04  0.20018459674E+04  0.50400001928E-02 0.  1.
       -1   -1    0    0    0  501  0.00000000000E+00  0.00000000000E+00 -0.12505035746E+04  0.12505035746E+04  0.50400001928E-02 0. -1.
    10030    2    1    2    0    0  0.00000000000E+00  0.00000000000E+00  0.75134239283E+03  0.32523495419E+04  0.31643738957E+04 0.  0.
        4    1    3    3  502    0 -0.14731227639E+04 -0.32505800631E+03 -0.11462429464E+03  0.15129090280E+04  0.12699999809E+01 0.  1.
       -4    1    3    3    0  502  0.14731227639E+04  0.32505800631E+03  0.86596668747E+03  0.17394405140E+04  0.12699999809E+01 0. -1.
</event>
<event>
 5   0  0.5108810E-06  0.2786665E+04  0.7818609E-02  0.8307420E-01
        2   -1    0    0  501    0  0.00000000000E+00  0.00000000000E+00  0.27799069886E+04  0.27799069886E+04  0.25500000920E-02 0.  1.
       -2   -1    0    0    0  501  0.00000000000E+00  0.00000000000E+00 -0.69835985562E+03  0.69835985562E+03  0.25500000920E-02 0. -1.
    10030    2    1    2    0    0  0.00000000000E+00  0.00000000000E+00  0.20815471330E+04  0.34782668443E+04  0.27866649912E+04 0.  0.
        1    1    3    3  502    0  0.47472929939E+03  0.25751234307E+01  0.26758456045E+04  0.27176321013E+04  0.50400001928E-02 0.  1.
       -1    1    3    3    0  502 -0.47472929939E+03 -0.25751234307E+01 -0.59429847147E+03  0.76063474295E+03  0.50400001928E-02 0. -1.
</event>
<event>
 5   0  0.1969465E-06  0.3160366E+04  0.7818609E-02  0.8199363E-01
       -1   -1    0    0    0  501  0.00000000000E+00  0.00000000000E+00  0.15908665988E+04  0.15908665988E+04  0.50400001928E-02 0.  1.
        1   -1    0    0  501    0  0.00000000000E+00  0.00000000000E+00 -0.15695715962E+04  0.15695715962E+04  0.50400001928E-02 0. -1.
    10030    2    1    2    0    0  0.00000000000E+00  0.00000000000E+00  0.21295002537E+02  0.31604381950E+04  0.31603664515E+04 0.  0.
        2    1    3    3  502    0 -0.14197532500E+04 -0.52386038916E+03 -0.44417050662E+03  0.15771545381E+04  0.25500000920E-02 0.  1.
       -2    1    3    3    0  502  0.14197532500E+04  0.52386038916E+03  0.46546550916E+03  0.15832836569E+04  0.25500000920E-02 0. -1.
</event>
<event>
 5   0  0.5373060E-06  0.3223633E+04  0.7818609E-02  0.8182604E-01
        2   -1    0    0  501    0  0.00000000000E+00  0.00000000000E+00  0.16823824831E+04  0.16823824831E+04  0.25500000920E-02 0.  1.
       -2   -1    0    0    0  501  0.00000000000E+00  0.00000000000E+00 -0.15442098954E+04  0.15442098955E+04  0.25500000920E-02 0. -1.
    10030    2    1    2    0    0  0.00000000000E+00  0.00000000000E+00  0.13817258767E+03  0.32265923786E+04  0.32236325339E+04 0.  0.
        5    1    3    3  502    0  0.69902277519E+03 -0.14232011696E+04  0.35882604972E+03  0.16257037348E+04  0.46999998093E+01 0.  1.
       -5    1    3    3    0  502 -0.69902277519E+03  0.14232011696E+04 -0.22065346205E+03  0.16008886438E+04  0.46999998093E+01 0. -1.
</event>
<event>
 5   0  0.5131083E-06  0.3186962E+04  0.7818609E-02  0.8192269E-01
       -2   -1    0    0    0  501  0.00000000000E+00  0.00000000000E+00  0.12026377403E+04  0.12026377403E+04  0.25500000920E-02 0. -1.
        2   -1    0    0  501    0  0.00000000000E+00  0.00000000000E+00 -0.21113436188E+04  0.21113436188E+04  0.25500000920E-02 0.  1.
    10030    2    1    2    0    0  0.00000000000E+00  0.00000000000E+00 -0.90870587851E+03  0.33139813591E+04  0.31869618879E+04 0.  0.
        3    1    3    3  502    0  0.66118159775E+03  0.89278855133E+03  0.73351992596E+03  0.13312715705E+04  0.10100000352E+00 0. -1.
       -3    1    3    3    0  502 -0.66118159775E+03 -0.89278855133E+03 -0.16422258045E+04  0.19827097886E+04  0.10100000352E+00 0.  1.
</event>
<event>
 5   0  0.1969465E-06  0.3202511E+04  0.7818609E-02  0.8188154E-01
        1   -1    0    0  501    0  0.00000000000E+00  0.00000000000E+00  0.14416593913E+04  0.14416593913E+04  0.50400001928E-02 0.  1.
       -1   -1    0    0    0  501  0.00000000000E+00  0.00000000000E+00 -0.17785195055E+04  0.17785195055E+04  0.50400001928E-02 0. -1.
    10030    2    1    2    0    0  0.00000000000E+00  0.00000000000E+00 -0.33686011418E+03  0.32201788968E+04  0.32025111071E+04 0.  0.
        2    1    3    3  502    0 -0.15155293354E+02  0.15189617569E+04 -0.67772692092E+03  0.16633665505E+04  0.25500000920E-02 0. -1.
       -2    1    3    3    0  502  0.15155293354E+02 -0.15189617569E+04  0.34086680674E+03  0.15568123464E+04  0.25500000920E-02 0.  1.
</event>
<event>
 5   0  0.1969465E-06  0.3207439E+04  0.7818609E-02  0.8186855E-01
       -1   -1    0    0    0  501  0.00000000000E+00  0.00000000000E+00  0.16093720762E+04  0.16093720762E+04  0.50400001928E-02 0.  1.
        1   -1    0    0  501    0  0.00000000000E+00  0.00000000000E+00 -0.15980863851E+04  0.15980863851E+04  0.50400001928E-02 0. -1.
    10030    2    1    2    0    0  0.00000000000E+00  0.00000000000E+00  0.11285691121E+02  0.32074584613E+04  0.32074386064E+04 0.  0.
        2    1    3    3  502    0 -0.91243128320E+03 -0.29445467591E+03 -0.12799316026E+04  0.15992058373E+04  0.25500000920E-02 0. -1.
       -2    1    3    3    0  502  0.91243128320E+03  0.29445467591E+03  0.12912172938E+04  0.16082526240E+04  0.25500000920E-02 0.  1.
</event>
<event>
 5   0  0.1846850E-06  0.3318997E+04  0.7818609E-02  0.8158078E-01
        1   -1    0    0  501    0  0.00000000000E+00  0.00000000000E+00  0.26298517775E+04  0.26298517775E+04  0.50400001928E-02 0. -1.
       -1   -1    0    0    0  501  0.00000000000E+00  0.00000000000E+00 -0.10471824384E+04  0.10471824385E+04  0.50400001928E-02 0.  1.
    10030    2    1    2    0    0  0.00000000000E+00  0.00000000000E+00  0.15826693391E+04  0.36770342160E+04  0.33189965936E+04 0.  0.
        5    1    3    3  502    0  0.20346339607E+03 -0.14970288243E+04  0.15520020596E+04  0.21659236223E+04  0.46999998093E+01 0. -1.
       -5    1    3    3    0  502 -0.20346339607E+03  0.14970288243E+04  0.30667279425E+02  0.15111105937E+04  0.46999998093E+01 0.  1.
</event>
<event>
 5   0  0.5347280E-06  0.3284130E+04  0.7818609E-02  0.8166945E-01
       -2   -1    0    0    0  501  0.00000000000E+00  0.00000000000E+00  0.11290291666E+04  0.11290291666E+04  0.25500000920E-02 0. -1.
        2   -1    0    0  501    0  0.00000000000E+00  0.00000000000E+00 -0.23882267406E+04  0.23882267406E+04  0.25500000920E-02 0.  1.
    10030    2    1    2    0    0  0.00000000000E+00  0.00000000000E+00 -0.12591975740E+04  0.35172559073E+04  0.32841301111E+04 0.  0.
        2    1    3    3  502    0  0.80709905818E+03 -0.22385795563E+03 -0.21422521916E+04  0.23001664563E+04  0.25500000920E-02 0.  1.
       -2    1    3    3    0  502 -0.80709905818E+03  0.22385795563E+03  0.88305461760E+03  0.12170894510E+04  0.25500000920E-02 0. -1.
</event>
<event>
 5   0  0.5347280E-06  0.2470390E+04  0.7818609E-02  0.8413611E-01
        2   -1    0    0  501    0  0.00000000000E+00  0.00000000000E+00  0.12933094668E+04  0.12933094668E+04  0.25500000920E-02 0.  1.
       -2   -1    0    0    0  501  0.00000000000E+00  0.00000000000E+00 -0.11796917205E+04  0.11796917205E+04  0.25500000920E-02 0. -1.
    10030    2    1    2    0    0  0.00000000000E+00  0.00000000000E+00  0.11361774625E+03  0.24730011873E+04  0.24703898235E+04 0.  0.
        2    1    3    3  502    0 -0.44740060052E+03 -0.71495736344E+03  0.96019015853E+03  0.12780048785E+04  0.25500000920E-02 0.  1.
       -2    1    3    3    0  502  0.44740060052E+03  0.71495736344E+03 -0.84657241227E+03  0.11949963088E+04  0.25500000920E-02 0. -1.
</event>
<event>
 5   0  0.1881144E-06  0.3161402E+04  0.7818609E-02  0.8199086E-01
        1   -1    0    0  501    0  0.00000000000E+00  0.00000000000E+00  0.26592446658E+04  0.26592446658E+04  0.50400001928E-02 0.  1.
       -1   -1    0    0    0  501  0.00000000000E+00  0.00000000000E+00 -0.93959578600E+03  0.93959578601E+03  0.50400001928E-02 0. -1.
    10030    2    1    2    0    0  0.00000000000E+00  0.00000000000E+00  0.17196488798E+04  0.35988404519E+04  0.31614016398E+04 0.  0.
        3    1    3    3  502    0  0.59002581162E+02  0.11650165787E+03  0.26530933048E+04  0.26563053355E+04  0.10100000352E+00 0.  1.
       -3    1    3    3    0  502 -0.59002581162E+02 -0.11650165787E+03 -0.93344442500E+03  0.94253511639E+03  0.10100000352E+00 0. -1.
</event>
<event>
 5   0  0.5121624E-06  0.3183290E+04  0.7818609E-02  0.8193244E-01
        2   -1    0    0  501    0  0.00000000000E+00  0.00000000000E+00  0.14750162117E+04  0.14750162117E+04  0.25500000920E-02 0. -1.
       -2   -1    0    0    0  501  0.00000000000E+00  0.00000000000E+00 -0.17174959346E+04  0.17174959346E+04  0.25500000920E-02 0.  1.
    10030    2    1    2    0    0  0.00000000000E+00  0.00000000000E+00 -0.24247972289E+03  0.31925121462E+04  0.31832903399E+04 0.  0.
        4    1    3    3  502    0 -0.58807041997E+03  0.54357074999E+03  0.12582581899E+04  0.14914795555E+04  0.12699999809E+01 0. -1.
       -4    1    3    3    0  502  0.58807041997E+03 -0.54357074999E+03 -0.15007379128E+04  0.17010325908E+04  0.12699999809E+01 0.  1.
</event>
<event>
 5   0  0.1977015E-06  0.3209770E+04  0.7818609E-02  0.8186242E-01
        1   -1    0    0  501    0  0.00000000000E+00  0.00000000000E+00  0.13846982914E+04  0.13846982914E+04  0.50400001928E-02 0.  1.
       -1   -1    0    0    0  501  0.00000000000E+00  0.00000000000E+00 -0.18600847668E+04  0.18600847668E+04  0.50400001928E-02 0. -1.
    10030    2    1    2    0    0  0.00000000000E+00  0.00000000000E+00 -0.47538647539E+03  0.32447830583E+04  0.32097702090E+04 0.  0.
        1    1    3    3  502    0 -0.45051406008E+03 -0.26035538215E+03 -0.17724464639E+04  0.18472450598E+04  0.50400001928E-02 0. -1.
       -1    1    3    3    0  502  0.45051406008E+03  0.26035538215E+03  0.12970599885E+04  0.13975379985E+04  0.50400001928E-02 0.  1.
</event>
<event>
 5   0  0.5347280E-06  0.3118322E+04  0.7818609E-02  0.8210727E-01
        2   -1    0    0  501    0  0.00000000000E+00  0.00000000000E+00  0.16900756020E+04  0.16900756020E+04  0.25500000920E-02 0. -1.
       -2   -1    0    0    0  501  0.00000000000E+00  0.00000000000E+00 -0.14383872828E+04  0.14383872828E+04  0.25500000920E-02 0.  1.
    10030    2    1    2    0    0  0.00000000000E+00  0.00000000000E+00  0.25168831921E+03  0.31284628849E+04  0.31183221469E+04 0.  0.
        2    1    3    3  502    0 -0.23806561359E+03  0.10838925269E+04  0.12246157952E+04  0.16526288428E+04  0.25500000920E-02 0. -1.
       -2    1    3    3    0  502  0.23806561359E+03 -0.10838925269E+04 -0.97292747598E+03  0.14758340421E+04  0.25500000920E-02 0.  1.
</event>
<event>
 5   0  0.1846850E-06  0.3189327E+04  0.7818609E-02  0.8191642E-01
        1   -1    0    0  501    0  0.00000000000E+00  0.00000000000E+00  0.17189361337E+04  0.17189361337E+04  0.50400001928E-02 0. -1.
       -1   -1    0    0    0  501  0.00000000000E+00  0.00000000000E+00 -0.14793749298E+04  0.14793749298E+04  0.50400001928E-02 0.  1.
    10030    2    1    2    0    0  0.00000000000E+00  0.00000000000E+00  0.23956120385E+03  0.31983110635E+04  0.31893265886E+04 0.  0.
        5    1    3    3  502    0 -0.22202260766E+03  0.15134827707E+04 -0.33204918323E+03  0.15653123923E+04  0.46999998093E+01 0.  1.
       -5    1    3    3    0  502  0.22202260766E+03 -0.15134827707E+04  0.57161038708E+03  0.16329986712E+04  0.46999998093E+01 0. -1.
</event>
<event>
 5   0  0.5108810E-06  0.3105415E+04  0.7818609E-02  0.8214253E-01
       -2   -1    0    0    0  501  0.00000000000E+00  0.00000000000E+00  0.11082695951E+04  0.11082695951E+04  0.25500000920E-02 0. -1.
        2   -1    0    0  501    0  0.00000000000E+00  0.00000000000E+00 -0.21753744367E+04  0.21753744367E+04  0.25500000920E-02 0.  1.
    10030    2    1    2    0    0  0.00000000000E+00  0.00000000000E+00 -0.10671048416E+04  0.32836440318E+04  0.31054154931E+04 0.  0.
        1    1    3    3  502    0  0.28108209868E+03  0.13003513699E+04  0.31300957703E+03  0.13667098546E+04  0.50400001928E-02 0. -1.
       -1    1    3    3    0  502 -0.28108209868E+03 -0.13003513699E+04 -0.13801144186E+04  0.19169341772E+04  0.50400001928E-02 0.  1.
</event>
<event>
 5   0  0.5373060E-06  0.3163652E+04  0.7818609E-02  0.8198483E-01
       -2   -1    0    0    0  501  0.00000000000E+00  0.00000000000E+00  0.13448501246E+04  0.13448501246E+04  0.25500000920E-02 0.  1.
        2   -1    0    0  501    0  0.00000000000E+00  0.00000000000E+00 -0.18605588964E+04  0.18605588965E+04  0.25500000920E-02 0. -1.
    10030    2    1    2    0    0  0.00000000000E+00  0.00000000000E+00 -0.51570877184E+03  0.32054090211E+04  0.31636516014E+04 0.  0.
        5    1    3    3  502    0 -0.12053283708E+03 -0.97042358341E+03  0.10018991849E+04  0.14000264864E+04  0.46999998093E+01 0.  1.
       -5    1    3    3    0  502  0.12053283708E+03  0.97042358341E+03 -0.15176079567E+04  0.18053825346E+04  0.46999998093E+01 0. -1.
</event>
<event>
 5   0  0.1977015E-06  0.2777265E+04  0.7818609E-02  0.8310361E-01
       -1   -1    0    0    0  501  0.00000000000E+00  0.00000000000E+00  0.13525689536E+04  0.13525689536E+04  0.50400001928E-02 0. -1.
        1   -1    0    0  501    0  0.00000000000E+00  0.00000000000E+00 -0.14256580121E+04  0.14256580121E+04  0.50400001928E-02 0.  1.
    10030    2    1    2    0    0  0.00000000000E+00  0.00000000000E+00 -0.73089058434E+02  0.27782269657E+04  0.27772653929E+04 0.  0.
        1    1    3    3  502    0  0.12669130926E+04  0.52303987113E+03 -0.25946978364E+03  0.13949781574E+04  0.50400001928E-02 0. -1.
       -1    1    3    3    0  502 -0.12669130926E+04 -0.52303987113E+03  0.18638072521E+03  0.13832488083E+04  0.50400001928E-02 0.  1.
</event>
<event>
 5   0  0.1886248E-06  0.3211185E+04  0.7818609E-02  0.8185870E-01
        1   -1    0    0  501    0  0.00000000000E+00  0.00000000000E+00  0.18892380887E+04  0.18892380887E+04  0.50400001928E-02 0.  1.
       -1   -1    0    0    0  501  0.00000000000E+00  0.00000000000E+00 -0.13645325027E+04  0.13645325027E+04  0.50400001928E-02 0. -1.
    10030    2    1    2    0    0  0.00000000000E+00  0.00000000000E+00  0.52470558603E+03  0.32537705914E+04  0.32111846894E+04 0.  0.
        4    1    3    3  502    0  0.12311394816E+04 -0.10301368853E+04  0.22969590085E+03  0.16216190198E+04  0.12699999809E+01 0. -1.
       -4    1    3    3    0  502 -0.12311394816E+04  0.10301368853E+04  0.29500968518E+03  0.16321515716E+04  0.12699999809E+01 0.  1.
</event>
<event>
 5   0  0.1886248E-06  0.2707623E+04  0.7818609E-02  0.8332536E-01
       -1   -1    0    0    0  501  0.00000000000E+00  0.00000000000E+00  0.12275284613E+04  0.12275284613E+04  0.50400001928E-02 0.  1.
        1   -1    0    0  501    0  0.00000000000E+00  0.00000000000E+00 -0.14930855572E+04  0.14930855573E+04  0.50400001928E-02 0. -1.
    10030    2    1    2    0    0  0.00000000000E+00  0.00000000000E+00 -0.26555709594E+03  0.27206140186E+04  0.27076225857E+04 0.  0.
        4    1    3    3  502    0  0.90649007584E+03  0.89470598777E+03  0.32831358916E+03  0.13153001513E+04  0.12699999809E+01 0.  1.
       -4    1    3    3    0  502 -0.90649007584E+03 -0.89470598777E+03 -0.59387068511E+03  0.14053138673E+04  0.12699999809E+01 0. -1.
</event>
<event>
 5   0  0.5347280E-06  0.3222980E+04  0.7818609E-02  0.8182774E-01
       -2   -1    0    0    0  501  0.00000000000E+00  0.00000000000E+00  0.12448371186E+04  0.12448371186E+04  0.25500000920E-02 0. -1.
        2   -1    0    0  501    0  0.00000000000E+00  0.00000000000E+00 -0.20861368003E+04  0.20861368003E+04  0.25500000920E-02 0.  1.
    10030    2    1    2    0    0  0.00000000000E+00  0.00000000000E+00 -0.84129968170E+03  0.33309739189E+04  0.32229803124E+04 0.  0.
        2    1    3    3  502    0 -0.76474194469E+03  0.51063589314E+03  0.94706793154E+03  0.13200442888E+04  0.25500000920E-02 0. -1.
       -2    1    3    3    0  502  0.76474194469E+03 -0.51063589314E+03 -0.17883676132E+04  0.20109296301E+04  0.25500000920E-02 0.  1.
</event>
<event>
 5   0  0.5347280E-06  0.3212310E+04  0.7818609E-02  0.8185574E-01
        2   -1    0    0  501    0  0.00000000000E+00  0.00000000000E+00  0.22349876453E+04  0.22349876453E+04  0.25500000920E-02 0.  1.
       -2   -1    0    0    0  501  0.00000000000E+00  0.00000000000E+00 -0.11542494436E+04  0.11542494436E+04  0.25500000920E-02 0. -1.
    10030    2    1    2    0    0  0.00000000000E+00  0.00000000000E+00  0.10807382017E+04  0.33892370889E+04  0.32123096028E+04 0.  0.
        2    1    3    3  502    0  0.24458093140E+03  0.88851838362E+03 -0.84754917083E+03  0.12520480610E+04  0.25500000920E-02 0. -1.
       -2    1    3    3    0  502 -0.24458093140E+03 -0.88851838362E+03  0.19282873725E+04  0.21371890279E+04  0.25500000920E-02 0.  1.
</event>
<event>
 5   0  0.5121624E-06  0.3211751E+04  0.7818609E-02  0.8185721E-01
        2   -1    0    0  501    0  0.00000000000E+00  0.00000000000E+00  0.19957774787E+04  0.19957774787E+04  0.25500000920E-02 0.  1.
       -2   -1    0    0    0  501  0.00000000000E+00  0.00000000000E+00 -0.12921459696E+04  0.12921459696E+04  0.25500000920E-02 0. -1.
    10030    2    1    2    0    0  0.00000000000E+00  0.00000000000E+00  0.70363150908E+03  0.32879234483E+04  0.32117508156E+04 0.  0.
        4    1    3    3  502    0  0.13532001064E+04  0.21815325203E+03  0.12083755252E+04  0.18272696550E+04  0.12699999809E+01 0.  1.
       -4    1    3    3    0  502 -0.13532001064E+04 -0.21815325203E+03 -0.50474401609E+03  0.14606537933E+04  0.12699999809E+01 0. -1.
</event>
<event>
 5   0  0.5373060E-06  0.3046105E+04  0.7818609E-02  0.8230686E-01
        2   -1    0    0  501    0  0.00000000000E+00  0.00000000000E+00  0.27046359340E+04  0.27046359340E+04  0.25500000920E-02 0.  1.
       -2   -1    0    0    0  501  0.00000000000E+00  0.00000000000E+00 -0.85767156075E+03  0.85767156075E+03  0.25500000920E-02 0. -1.
    10030    2    1    2    0    0  0.00000000000E+00  0.00000000000E+00  0.18469643733E+04  0.35623074948E+04  0.30461052659E+04 0.  0.
        5    1    3    3  502    0 -0.85862060565E+03 -0.36440045657E+03  0.23315322823E+04  0.25111913329E+04  0.46999998093E+01 0.  1.
       -5    1    3    3    0  502  0.85862060565E+03  0.36440045657E+03 -0.48456790904E+03  0.10511161618E+04  0.46999998093E+01 0. -1.
</event>
<event>
 5   0  0.5347280E-06  0.2784462E+04  0.7818609E-02  0.8308108E-01
        2   -1    0    0  501    0  0.00000000000E+00  0.00000000000E+00  0.19032378300E+04  0.19032378300E+04  0.25500000920E-02 0.  1.
       -2   -1    0    0    0  501  0.00000000000E+00  0.00000000000E+00 -0.10184263787E+04  0.10184263787E+04  0.25500000920E-02 0. -1.
    10030    2    1    2    0    0  0.00000000000E+00  0.00000000000E+00  0.88481145126E+03  0.29216642087E+04  0.27844623259E+04 0.  0.
        2    1    3    3  502    0 -0.70240214058E+03 -0.11798719429E+04  0.68360424727E+03  0.15338778751E+04  0.25500000920E-02 0.  1.
       -2    1    3    3    0  502  0.70240214058E+03  0.11798719429E+04  0.20120720399E+03  0.13877863336E+04  0.25500000920E-02 0. -1.
</event>
<event>
 5   0  0.5108810E-06  0.3184326E+04  0.7818609E-02  0.8192969E-01
        2   -1    0    0  501    0  0.00000000000E+00  0.00000000000E+00  0.17148862030E+04  0.17148862030E+04  0.25500000920E-02 0.  1.
       -2   -1    0    0    0  501  0.00000000000E+00  0.00000000000E+00 -0.14782221792E+04  0.14782221792E+04  0.25500000920E-02 0. -1.
    10030    2    1    2    0    0  0.00000000000E+00  0.00000000000E+00  0.23666402385E+03  0.31931083822E+04  0.31843258753E+04 0.  0.
        1    1    3    3  502    0 -0.90657047514E+03  0.10364667095E+04 -0.68315308587E+03  0.15371504172E+04  0.50400001928E-02 0. -1.
       -1    1    3    3    0  502  0.90657047514E+03 -0.10364667095E+04  0.91981710972E+03  0.16559579650E+04  0.50400001928E-02 0.  1.
</event>
<event>
 5   0  0.5121624E-06  0.3192834E+04  0.7818609E-02  0.8190712E-01
        2   -1    0    0  501    0  0.00000000000E+00  0.00000000000E+00  0.25837646329E+04  0.25837646329E+04  0.25500000920E-02 0. -1.
       -2   -1    0    0    0  501  0.00000000000E+00  0.00000000000E+00 -0.98636977171E+03  0.98636977172E+03  0.25500000920E-02 0.  1.
    10030    2    1    2    0    0  0.00000000000E+00  0.00000000000E+00  0.15973948612E+04  0.35701344046E+04  0.31928340584E+04 0.  0.
        4    1    3    3  502    0 -0.28017189132E+03 -0.14007740690E+04  0.15955709380E+04  0.21416144640E+04  0.12699999809E+01 0. -1.
       -4    1    3    3    0  502  0.28017189132E+03  0.14007740690E+04  0.18239231621E+01  0.14285199406E+04  0.12699999809E+01 0.  1.
</event>
<event>
 5   0  0.5121624E-06  0.2454359E+04  0.7818609E-02  0.8419428E-01
        2   -1    0    0  501    0  0.00000000000E+00  0.00000000000E+00  0.18388219353E+04  0.18388219353E+04  0.25500000920E-02 0. -1.
       -2   -1    0    0    0  501  0.00000000000E+00  0.00000000000E+00 -0.81898590997E+03  0.81898590998E+03  0.25500000920E-02 0.  1.
    10030    2    1    2    0    0  0.00000000000E+00  0.00000000000E+00  0.10198360253E+04  0.26578078453E+04  0.24543587806E+04 0.  0.
        4    1    3    3  502    0  0.79404215550E+03 -0.93566138064E+03  0.50821296554E+03  0.13282496735E+04  0.12699999809E+01 0.  1.
       -4    1    3    3    0  502 -0.79404215550E+03  0.93566138064E+03  0.51162305980E+03  0.13295581718E+04  0.12699999809E+01 0. -1.
</event>
<event>
 5   0  0.5373060E-06  0.2553722E+04  0.7818609E-02  0.8384093E-01
        2   -1    0    0  501    0  0.00000000000E+00  0.00000000000E+00  0.20308184062E+04  0.20308184062E+04  0.25500000920E-02 0.  1.
       -2   -1    0    0    0  501  0.00000000000E+00  0.00000000000E+00 -0.80281653659E+03  0.80281653659E+03  0.25500000920E-02 0. -1.
    10030    2    1    2    0    0  0.00000000000E+00  0.00000000000E+00  0.12280018696E+04  0.28336349428E+04  0.25537224589E+04 0.  0.
        5    1    3    3  502    0 -0.60908214811E+03 -0.48230780740E+03  0.17383539564E+04  0.19040741719E+04  0.46999998093E+01 0.  1.
       -5    1    3    3    0  502  0.60908214811E+03  0.48230780740E+03 -0.51035208684E+03  0.92956077088E+03  0.46999998093E+01 0. -1.
</event>
<event>
 5   0  0.1886248E-06  0.2866404E+04  0.7818609E-02  0.8282944E-01
        1   -1    0    0  501    0  0.00000000000E+00  0.00000000000E+00  0.62428229046E+03  0.62428229048E+03  0.50400001928E-02 0.  1.
       -1   -1    0    0    0  501  0.00000000000E+00  0.00000000000E+00 -0.32902875801E+04  0.32902875802E+04  0.50400001928E-02 0. -1.
    10030    2    1    2    0    0  0.00000000000E+00  0.00000000000E+00 -0.26660052897E+04  0.39145698706E+04  0.28664042052E+04 0.  0.
        4    1    3    3  502    0  0.78121311202E+03 -0.57774871611E+03  0.10580927501E+03  0.97738667933E+03  0.12699999809E+01 0.  1.
       -4    1    3    3    0  502 -0.78121311202E+03  0.57774871611E+03 -0.27718145647E+04  0.29371831913E+04  0.12699999809E+01 0. -1.
</event>
<event>
 5   0  0.5373060E-06  0.3132399E+04  0.7818609E-02  0.8206902E-01
        2   -1    0    0  501    0  0.00000000000E+00  0.00000000000E+00  0.17125770041E+04  0.17125770041E+04  0.25500000920E-02 0.  1.
       -2   -1    0    0    0  501  0.00000000000E+00  0.00000000000E+00 -0.14323335284E+04  0.14323335285E+04  0.25500000920E-02 0. -1.
    10030    2    1    2    0    0  0.00000000000E+00  0.00000000000E+00  0.28024347567E+03  0.31449105326E+04  0.31323993762E+04 0.  0.
        5    1    3    3  502    0 -0.19781904151E+03 -0.44182981293E+03 -0.13553285602E+04  0.14391954534E+04  0.46999998093E+01 0. -1.
       -5    1    3    3    0  502  0.19781904151E+03  0.44182981293E+03  0.16355720359E+04  0.17057150792E+04  0.46999998093E+01 0.  1.
</event>
<event>
 5   0  0.5131083E-06  0.3184617E+04  0.7818609E-02  0.8192892E-01
       -2   -1    0    0    0  501  0.00000000000E+00  0.00000000000E+00  0.12762821604E+04  0.12762821604E+04  0.25500000920E-02 0.  1.
        2   -1    0    0  501    0  0.00000000000E+00  0.00000000000E+00 -0.19865877664E+04  0.19865877664E+04  0.25500000920E-02 0. -1.
    10030    2    1    2    0    0  0.00000000000E+00  0.00000000000E+00 -0.71030560601E+03  0.32628699268E+04  0.31846171050E+04 0.  0.
        3    1    3    3  502    0  0.10065422736E+04  0.93199086363E+03 -0.11835446807E+04  0.18117704987E+04  0.10100000352E+00 0. -1.
       -3    1    3    3    0  502 -0.10065422736E+04 -0.93199086363E+03  0.47323907471E+03  0.14510994282E+04  0.10100000352E+00 0.  1.
</event>
<event>
 5   0  0.5373060E-06  0.3071860E+04  0.7818609E-02  0.8223503E-01
       -2   -1    0    0    0  501  0.00000000000E+00  0.00000000000E+00  0.10314920561E+04  0.10314920561E+04  0.25500000920E-02 0.  1.
        2   -1    0    0  501    0  0.00000000000E+00  0.00000000000E+00 -0.22870562600E+04  0.22870562600E+04  0.25500000920E-02 0. -1.
    10030    2    1    2    0    0  0.00000000000E+00  0.00000000000E+00 -0.12555642039E+04  0.33185483162E+04  0.30718596089E+04 0.  0.
        5    1    3    3  502    0  0.48987349591E+03  0.12329751845E+04 -0.14637842891E+04  0.19755734313E+04  0.46999998093E+01 0. -1.
       -5    1    3    3    0  502 -0.48987349591E+03 -0.12329751845E+04  0.20822008521E+03  0.13429748849E+04  0.46999998093E+01 0.  1.
</event>
<event>
 5   0  0.1977015E-06  0.2901299E+04  0.7818609E-02  0.8272491E-01
       -1   -1    0    0    0  501  0.00000000000E+00  0.00000000000E+00  0.13993862073E+04  0.13993862073E+04  0.50400001928E-02 0. -1.
        1   -1    0    0  501    0  0.00000000000E+00  0.00000000000E+00 -0.15037904506E+04  0.15037904506E+04  0.50400001928E-02 0.  1.
    10030    2    1    2    0    0  0.00000000000E+00  0.00000000000E+00 -0.10440424336E+03  0.29031766579E+04  0.29012987542E+04 0.  0.
        1    1    3    3  502    0  0.26245095689E+03 -0.12789873368E+04  0.58042105622E+03  0.14288378897E+04  0.50400001928E-02 0. -1.
       -1    1    3    3    0  502 -0.26245095689E+03  0.12789873368E+04 -0.68482529958E+03  0.14743387682E+04  0.50400001928E-02 0.  1.
</event>
<event>
 5   0  0.1846850E-06  0.3182188E+04  0.7818609E-02  0.8193537E-01
       -1   -1    0    0    0  501  0.00000000000E+00  0.00000000000E+00  0.17068814066E+04  0.17068814066E+04  0.50400001928E-02 0.  1.
        1   -1    0    0  501    0  0.00000000000E+00  0.00000000000E+00 -0.14831615724E+04  0.14831615724E+04  0.50400001928E-02 0. -1.
    10030    2    1    2    0    0  0.00000000000E+00  0.00000000000E+00  0.22371983420E+03  0.31900429791E+04  0.31821884991E+04 0.  0.
        5    1    3    3  502    0  0.90197729929E+03 -0.55490234220E+03 -0.10785386077E+04  0.15115380499E+04  0.46999998093E+01 0. -1.
       -5    1    3    3    0  502 -0.90197729929E+03  0.55490234220E+03  0.13022584419E+04  0.16785049292E+04  0.46999998093E+01 0.  1.
</event>
<event>
 5   0  0.1846850E-06  0.3173559E+04  0.7818609E-02  0.8195835E-01
        1   -1    0    0  501    0  0.00000000000E+00  0.00000000000E+00  0.17247277631E+04  0.17247277631E+04  0.50400001928E-02 0. -1.
       -1   -1    0    0    0  501  0.00000000000E+00  0.00000000000E+00 -0.14598648341E+04  0.14598648341E+04  0.50400001928E-02 0.  1.
    10030    2    1    2    0    0  0.00000000000E+00  0.00000000000E+00  0.26486292898E+03  0.31845925972E+04  0.31735591438E+04 0.  0.
        5    1    3    3  502    0 -0.12411556400E+04  0.68297575202E+03 -0.58484319376E+03  0.15326404836E+04  0.46999998093E+01 0.  1.
       -5    1    3    3    0  502  0.12411556400E+04 -0.68297575202E+03  0.84970612274E+03  0.16519521136E+04  0.46999998093E+01 0. -1.
</event>
<event>
 5   0  0.5108810E-06  0.3160969E+04  0.7818609E-02  0.8199202E-01
       -2   -1    0    0    0  501  0.00000000000E+00  0.00000000000E+00  0.96207504838E+03  0.96207504838E+03  0.25500000920E-02 0.  1.
        2   -1    0    0  501    0  0.00000000000E+00  0.00000000000E+00 -0.25963990630E+04  0.25963990630E+04  0.25500000920E-02 0. -1.
    10030    2    1    2    0    0  0.00000000000E+00  0.00000000000E+00 -0.16343240146E+04  0.35584741114E+04  0.31609686833E+04 0.  0.
        1    1    3    3  502    0  0.23674253360E+03 -0.12154341969E+04 -0.19228128993E+04  0.22870366765E+04  0.50400001928E-02 0. -1.
       -1    1    3    3    0  502 -0.23674253360E+03  0.12154341969E+04  0.28848888468E+03  0.12714374348E+04  0.50400001928E-02 0.  1.
</event>
<event>
 5   0  0.5108810E-06  0.2719550E+04  0.7818609E-02  0.8328690E-01
       -2   -1    0    0    0  501  0.00000000000E+00  0.00000000000E+00  0.89364199399E+03  0.89364199400E+03  0.25500000920E-02 0.  1.
        2   -1    0    0  501    0  0.00000000000E+00  0.00000000000E+00 -0.20690473382E+04  0.20690473382E+04  0.25500000920E-02 0. -1.
    10030    2    1    2    0    0  0.00000000000E+00  0.00000000000E+00 -0.11754053442E+04  0.29626893322E+04  0.27195496605E+04 0.  0.
        1    1    3    3  502    0  0.15550642079E+03  0.10574486568E+04 -0.15034555598E+04  0.18446567510E+04  0.50400001928E-02 0. -1.
       -1    1    3    3    0  502 -0.15550642079E+03 -0.10574486568E+04  0.32805021561E+03  0.11180325812E+04  0.50400001928E-02 0.  1.
</event>
<event>
 5   0  0.1886248E-06  0.2058109E+04  0.7818609E-02  0.8579924E-01
       -1   -1    0    0    0  501  0.00000000000E+00  0.00000000000E+00  0.62545006534E+03  0.62545006536E+03  0.50400001928E-02 0.  1.
        1   -1    0    0  501    0  0.00000000000E+00  0.00000000000E+00 -0.16931065849E+04  0.16931065849E+04  0.50400001928E-02 0. -1.
    10030    2    1    2    0    0  0.00000000000E+00  0.00000000000E+00 -0.10676565195E+04  0.23185566502E+04  0.20581094472E+04 0.  0.
        4    1    3    3  502    0  0.47472831105E+03  0.12489960168E+03  0.48504918977E+03  0.69010231793E+03  0.12699999809E+01 0.  1.
       -4    1    3    3    0  502 -0.47472831105E+03 -0.12489960168E+03 -0.15527057093E+04  0.16284543323E+04  0.12699999809E+01 0. -1.
</event>
<event>
 5   0  0.5347280E-06  0.3126976E+04  0.7818609E-02  0.8208373E-01
       -2   -1    0    0    0  501  0.00000000000E+00  0.00000000000E+00  0.16085556694E+04  0.16085556694E+04  0.25500000920E-02 0.  1.
        2   -1    0    0  501    0  0.00000000000E+00  0.00000000000E+00 -0.15196829179E+04  0.15196829179E+04  0.25500000920E-02 0. -1.
    10030    2    1    2    0    0  0.00000000000E+00  0.00000000000E+00  0.88872751507E+02  0.31282385873E+04  0.31269759022E+04 0.  0.
        2    1    3    3  502    0 -0.54347739724E+03  0.59386754955E+03  0.13852940654E+04  0.16022128434E+04  0.25500000920E-02 0.  1.
       -2    1    3    3    0  502  0.54347739724E+03 -0.59386754955E+03 -0.12964213139E+04  0.15260257439E+04  0.25500000920E-02 0. -1.
</event>
<event>
 5   0  0.1729500E-06  0.3239854E+04  0.7818609E-02  0.8178370E-01
       -3   -1    0    0    0  501  0.00000000000E+00  0.00000000000E+00  0.12127367552E+04  0.12127367594E+04  0.10100000352E+00 0.  1.
        3   -1    0    0  501    0  0.00000000000E+00  0.00000000000E+00 -0.21638359567E+04  0.21638359591E+04  0.10100000352E+00 0. -1.
    10030    2    1    2    0    0  0.00000000000E+00  0.00000000000E+00 -0.95109920152E+03  0.33765727185E+04  0.32398539523E+04 0.  0.
        5    1    3    3  502    0  0.11492386080E+04 -0.33662448086E+03 -0.16124907990E+04  0.20085353087E+04  0.46999998093E+01 0. -1.
       -5    1    3    3    0  502 -0.11492386080E+04  0.33662448086E+03  0.66139159752E+03  0.13680374098E+04  0.46999998093E+01 0.  1.
</event>
<event>
 5   0  0.5373060E-06  0.3174533E+04  0.7818609E-02  0.8195576E-01
        2   -1    0    0  501    0  0.00000000000E+00  0.00000000000E+00  0.24293692409E+04  0.24293692409E+04  0.25500000920E-02 0. -1.
       -2   -1    0    0    0  501  0.00000000000E+00  0.00000000000E+00 -0.10370652116E+04  0.10370652116E+04  0.25500000920E-02 0.  1.
    10030    2    1    2    0    0  0.00000000000E+00  0.00000000000E+00  0.13923040292E+04  0.34664344525E+04  0.31745326118E+04 0.  0.
        5    1    3    3  502    0 -0.21993504208E+03  0.41516712735E+02  0.24120437378E+04  0.24224103994E+04  0.46999998093E+01 0. -1.
       -5    1    3    3    0  502  0.21993504208E+03 -0.41516712735E+02 -0.10197397085E+04  0.10440240530E+04  0.46999998093E+01 0.  1.
</event>
<event>
 5   0  0.5373060E-06  0.3224844E+04  0.7818609E-02  0.8182287E-01
        2   -1    0    0  501    0  0.00000000000E+00  0.00000000000E+00  0.15090119729E+04  0.15090119729E+04  0.25500000920E-02 0.  1.
       -2   -1    0    0    0  501  0.00000000000E+00  0.00000000000E+00 -0.17229180851E+04  0.17229180851E+04  0.25500000920E-02 0. -1.
    10030    2    1    2    0    0  0.00000000000E+00  0.00000000000E+00 -0.21390611226E+03  0.32319300580E+04  0.32248435737E+04 0.  0.
        5    1    3    3  502    0  0.82124700579E+02 -0.13252220418E+04  0.80989276941E+03  0.15552833550E+04  0.46999998093E+01 0.  1.
       -5    1    3    3    0  502 -0.82124700579E+02  0.13252220418E+04 -0.10237988817E+04  0.16766467030E+04  0.46999998093E+01 0. -1.
</event>
<event>
 5   0  0.1977015E-06  0.3093791E+04  0.7818609E-02  0.8217444E-01
        1   -1    0    0  501    0  0.00000000000E+00  0.00000000000E+00  0.23118073590E+04  0.23118073590E+04  0.50400001928E-02 0.  1.
       -1   -1    0    0    0  501  0.00000000000E+00  0.00000000000E+00 -0.10350716106E+04  0.10350716106E+04  0.50400001928E-02 0. -1.
    10030    2    1    2    0    0  0.00000000000E+00  0.00000000000E+00  0.12767357484E+04  0.33468789696E+04  0.30937913093E+04 0.  0.
        1    1    3    3  502    0  0.68151590225E+03  0.13719237197E+04  0.40572307282E+03  0.15846923454E+04  0.50400001928E-02 0. -1.
       -1    1    3    3    0  502 -0.68151590225E+03 -0.13719237197E+04  0.87101267554E+03  0.17621866242E+04  0.50400001928E-02 0.  1.
</event>
<event>
 5   0  0.1886248E-06  0.3174236E+04  0.7818609E-02  0.8195655E-01
       -1   -1    0    0    0  501  0.00000000000E+00  0.00000000000E+00  0.18303411744E+04  0.18303411744E+04  0.50400001928E-02 0. -1.
        1   -1    0    0  501    0  0.00000000000E+00  0.00000000000E+00 -0.13762156142E+04  0.13762156142E+04  0.50400001928E-02 0.  1.
    10030    2    1    2    0    0  0.00000000000E+00  0.00000000000E+00  0.45412556020E+03  0.32065567886E+04  0.31742363513E+04 0.  0.
        4    1    3    3  502    0 -0.98370937469E+03  0.80213617078E+03  0.11895685820E+04  0.17395923645E+04  0.12699999809E+01 0. -1.
       -4    1    3    3    0  502  0.98370937469E+03 -0.80213617078E+03 -0.73544302185E+03  0.14669644241E+04  0.12699999809E+01 0.  1.
</event>
<event>
 5   0  0.5131083E-06  0.3176829E+04  0.7818609E-02  0.8194964E-01
        2   -1    0    0  501    0  0.00000000000E+00  0.00000000000E+00  0.15964028731E+04  0.15964028731E+04  0.25500000920E-02 0. -1.
       -2   -1    0    0    0  501  0.00000000000E+00  0.00000000000E+00 -0.15804659537E+04  0.15804659537E+04  0.25500000920E-02 0.  1.
    10030    2    1    2    0    0  0.00000000000E+00  0.00000000000E+00  0.15936919378E+02  0.31768688268E+04  0.31768288523E+04 0.  0.
        3    1    3    3  502    0  0.15319334761E+04 -0.25663187502E+03  0.34020792527E+03  0.15901011091E+04  0.10100000352E+00 0. -1.
       -3    1    3    3    0  502 -0.15319334761E+04  0.25663187502E+03 -0.32427100589E+03  0.15867677177E+04  0.10100000352E+00 0.  1.
</event>
<event>
 5   0  0.5108810E-06  0.3203443E+04  0.7818609E-02  0.8187909E-01
        2   -1    0    0  501    0  0.00000000000E+00  0.00000000000E+00  0.14517296957E+04  0.14517296957E+04  0.25500000920E-02 0.  1.
       -2   -1    0    0    0  501  0.00000000000E+00  0.00000000000E+00 -0.17672102118E+04  0.17672102118E+04  0.25500000920E-02 0. -1.
    10030    2    1    2    0    0  0.00000000000E+00  0.00000000000E+00 -0.31548051611E+03  0.32189399074E+04  0.32034428623E+04 0.  0.
        1    1    3    3  502    0  0.92390310654E+03  0.13080341836E+04 -0.12658758179E+03  0.16064167553E+04  0.50400001928E-02 0.  1.
       -1    1    3    3    0  502 -0.92390310654E+03 -0.13080341836E+04 -0.18889293433E+03  0.16125231522E+04  0.50400001928E-02 0. -1.
</event>
<event>
 5   0  0.5373060E-06  0.3634403E+04  0.7818609E-02  0.8082656E-01
       -2   -1    0    0    0  501  0.00000000000E+00  0.00000000000E+00  0.13086234436E+04  0.13086234436E+04  0.25500000920E-02 0. -1.
        2   -1    0    0  501    0  0.00000000000E+00  0.00000000000E+00 -0.25234310420E+04  0.25234310420E+04  0.25500000920E-02 0.  1.
    10030    2    1    2    0    0  0.00000000000E+00  0.00000000000E+00 -0.12148075983E+04  0.38320544856E+04  0.36344028505E+04 0.  0.
        5    1    3    3  502    0 -0.76002568038E+03  0.11130192427E+04 -0.18926052200E+04  0.23234516302E+04  0.46999998093E+01 0.  1.
       -5    1    3    3    0  502  0.76002568038E+03 -0.11130192427E+04  0.67779762164E+03  0.15086028554E+04  0.46999998093E+01 0. -1.
</event>
<event>
 5   0  0.5373060E-06  0.3221123E+04  0.7818609E-02  0.8183261E-01
        2   -1    0    0  501    0  0.00000000000E+00  0.00000000000E+00  0.22863283471E+04  0.22863283471E+04  0.25500000920E-02 0. -1.
       -2   -1    0    0    0  501  0.00000000000E+00  0.00000000000E+00 -0.11345299857E+04  0.11345299857E+04  0.25500000920E-02 0.  1.
    10030    2    1    2    0    0  0.00000000000E+00  0.00000000000E+00  0.11517983614E+04  0.34208583328E+04  0.32211228272E+04 0.  0.
        5    1    3    3  502    0 -0.16150832857E+03 -0.11012626944E+04  0.18121337937E+04  0.21266676841E+04  0.46999998093E+01 0. -1.
       -5    1    3    3    0  502  0.16150832857E+03  0.11012626944E+04 -0.66033543230E+03  0.12941906488E+04  0.46999998093E+01 0.  1.
</event>
<event>
 5   0  0.5131083E-06  0.2130194E+04  0.7818609E-02  0.8548058E-01
        2   -1    0    0  501    0  0.00000000000E+00  0.00000000000E+00  0.15209228572E+04  0.15209228572E+04  0.25500000920E-02 0.  1.
       -2   -1    0    0    0  501  0.00000000000E+00  0.00000000000E+00 -0.74588366446E+03  0.74588366446E+03  0.25500000920E-02 0. -1.
    10030    2    1    2    0    0  0.00000000000E+00  0.00000000000E+00  0.77503919270E+03  0.22668065216E+04  0.21301939011E+04 0.  0.
        3    1    3    3  502    0  0.95515040504E+02 -0.83736037969E+03 -0.30550376089E+03  0.89645305875E+03  0.10100000352E+00 0. -1.
       -3    1    3    3    0  502 -0.95515040504E+02  0.83736037969E+03  0.10805429536E+04  0.13703534629E+04  0.10100000352E+00 0.  1.
</event>
<event>
 5   0  0.5121624E-06  0.3169881E+04  0.7818609E-02  0.8196817E-01
       -2   -1    0    0    0  501  0.00000000000E+00  0.00000000000E+00  0.11472585428E+04  0.11472585428E+04  0.25500000920E-02 0. -1.
        2   -1    0    0  501    0  0.00000000000E+00  0.00000000000E+00 -0.21895985595E+04  0.21895985595E+04  0.25500000920E-02 0.  1.
    10030    2    1    2    0    0  0.00000000000E+00  0.00000000000E+00 -0.10423400166E+04  0.33368571023E+04  0.31698805358E+04 0.  0.
        4    1    3    3  502    0  0.13960760209E+03 -0.14346867512E+04 -0.12148329072E+04  0.18851092706E+04  0.12699999809E+01 0.  1.
       -4    1    3    3    0  502 -0.13960760209E+03  0.14346867512E+04  0.17249289056E+03  0.14517478317E+04  0.12699999809E+01 0. -1.
</event>
<event>
 5   0  0.1729500E-06  0.3221441E+04  0.7818609E-02  0.8183178E-01
       -3   -1    0    0    0  501  0.00000000000E+00  0.00000000000E+00  0.89560572085E+03  0.89560572655E+03  0.10100000352E+00 0.  1.
        3   -1    0    0  501    0  0.00000000000E+00  0.00000000000E+00 -0.28968330417E+04  0.28968330435E+04  0.10100000352E+00 0. -1.
    10030    2    1    2    0    0  0.00000000000E+00  0.00000000000E+00 -0.20012273209E+04  0.37924387700E+04  0.32214408321E+04 0.  0.
        4    1    3    3  502    0 -0.11689966380E+04 -0.71122241255E+03 -0.20009487298E+04  0.24240849597E+04  0.12699999809E+01 0. -1.
       -4    1    3    3    0  502  0.11689966380E+04  0.71122241255E+03 -0.27859109071E+00  0.13683538103E+04  0.12699999809E+01 0.  1.
</event>
<event>
 5   0  0.5131083E-06  0.3244234E+04  0.7818609E-02  0.8177232E-01
        2   -1    0    0  501    0  0.00000000000E+00  0.00000000000E+00  0.17654094979E+04  0.17654094979E+04  0.25500000920E-02 0.  1.
       -2   -1    0    0    0  501  0.00000000000E+00  0.00000000000E+00 -0.14904550974E+04  0.14904550974E+04  0.25500000920E-02 0. -1.
    10030    2    1    2    0    0  0.00000000000E+00  0.00000000000E+00  0.27495440050E+03  0.32558645952E+04  0.32442340144E+04 0.  0.
        3    1    3    3  502    0  0.55865512306E+03 -0.10276684014E+04 -0.99041379662E+03  0.15326830685E+04  0.10100000352E+00 0. -1.
       -3    1    3    3    0  502 -0.55865512306E+03  0.10276684014E+04  0.12653681971E+04  0.17231815268E+04  0.10100000352E+00 0.  1.
</event>
<event>
 5   0  0.5121624E-06  0.3206528E+04  0.7818609E-02  0.8187095E-01
        2   -1    0    0  501    0  0.00000000000E+00  0.00000000000E+00  0.19962287058E+04  0.19962287058E+04  0.25500000920E-02 0.  1.
       -2   -1    0    0    0  501  0.00000000000E+00  0.00000000000E+00 -0.12876557768E+04  0.12876557768E+04  0.25500000920E-02 0. -1.
    10030    2    1    2    0    0  0.00000000000E+00  0.00000000000E+00  0.70857292900E+03  0.32838844825E+04  0.32065279819E+04 0.  0.
        4    1    3    3  502    0 -0.12931806948E+04 -0.77274861141E+03 -0.20758112720E+03  0.15207065013E+04  0.12699999809E+01 0. -1.
       -4    1    3    3    0  502  0.12931806948E+04  0.77274861141E+03  0.91615405620E+03  0.17631779812E+04  0.12699999809E+01 0.  1.
</event>
<event>
 5   0  0.5108810E-06  0.3129487E+04  0.7818609E-02  0.8207692E-01
        2   -1    0    0  501    0  0.00000000000E+00  0.00000000000E+00  0.30225873154E+04  0.30225873154E+04  0.25500000920E-02 0.  1.
       -2   -1    0    0    0  501  0.00000000000E+00  0.00000000000E+00 -0.81004176222E+03  0.81004176222E+03  0.25500000920E-02 0. -1.
    10030    2    1    2    0    0  0.00000000000E+00  0.00000000000E+00  0.22125455532E+04  0.38326290776E+04  0.31294868304E+04 0.  0.
        1    1    3    3  502    0 -0.13250715614E+04  0.28395080873E+03  0.20643312377E+04  0.24693938859E+04  0.50400001928E-02 0.  1.
       -1    1    3    3    0  502  0.13250715614E+04 -0.28395080873E+03  0.14821431553E+03  0.13632351918E+04  0.50400001928E-02 0. -1.
</event>
<event>
 5   0  0.1886248E-06  0.3174189E+04  0.7818609E-02  0.8195667E-01
       -1   -1    0    0    0  501  0.00000000000E+00  0.00000000000E+00  0.26242985512E+04  0.26242985512E+04  0.50400001928E-02 0.  1.
        1   -1    0    0  501    0  0.00000000000E+00  0.00000000000E+00 -0.95982539557E+03  0.95982539558E+03  0.50400001928E-02 0. -1.
    10030    2    1    2    0    0  0.00000000000E+00  0.00000000000E+00  0.16644731557E+04  0.35841239468E+04  0.31741886491E+04 0.  0.
        4    1    3    3  502    0  0.81007518722E+03  0.12095076204E+04  0.11833708361E+03  0.14605258542E+04  0.12699999809E+01 0. -1.
       -4    1    3    3    0  502 -0.81007518722E+03 -0.12095076204E+04  0.15461360721E+04  0.21235980926E+04  0.12699999809E+01 0.  1.
</event>
<event>
 5   0  0.5131083E-06  0.3268724E+04  0.7818609E-02  0.8170900E-01
       -2   -1    0    0    0  501  0.00000000000E+00  0.00000000000E+00  0.20611027344E+04  0.20611027344E+04  0.25500000920E-02 0. -1.
        2   -1    0    0  501    0  0.00000000000E+00  0.00000000000E+00 -0.12959754698E+04  0.12959754698E+04  0.25500000920E-02 0.  1.
    10030    2    1    2    0    0  0.00000000000E+00  0.00000000000E+00  0.76512726457E+03  0.33570782042E+04  0.32687236558E+04 0.  0.
        3    1    3    3  502    0 -0.14870553413E+04 -0.60224767857E+03  0.62527547011E+02  0.16055981935E+04  0.10100000352E+00 0.  1.
       -3    1    3    3    0  502  0.14870553413E+04  0.60224767857E+03  0.70259971756E+03  0.17514800107E+04  0.10100000352E+00 0. -1.
</event>
<event>
 5   0  0.5373060E-06  0.2868496E+04  0.7818609E-02  0.8282313E-01
        2   -1    0    0  501    0  0.00000000000E+00  0.00000000000E+00  0.27287601030E+04  0.27287601030E+04  0.25500000920E-02 0.  1.
       -2   -1    0    0    0  501  0.00000000000E+00  0.00000000000E+00 -0.75384680410E+03  0.75384680410E+03  0.25500000920E-02 0. -1.
    10030    2    1    2    0    0  0.00000000000E+00  0.00000000000E+00  0.19749132989E+04  0.34826069071E+04  0.28684958308E+04 0.  0.
        5    1    3    3  502    0 -0.56499030779E+02  0.13618074669E+04  0.15295076315E+04  0.20486891913E+04  0.46999998093E+01 0.  1.
       -5    1    3    3    0  502  0.56499030779E+02 -0.13618074669E+04  0.44540566740E+03  0.14339177159E+04  0.46999998093E+01 0. -1.
</event>
<event>
 5   0  0.1881144E-06  0.3464025E+04  0.7818609E-02  0.8122369E-01
       -1   -1    0    0    0  501  0.00000000000E+00  0.00000000000E+00  0.16314237667E+04  0.16314237667E+04  0.50400001928E-02 0. -1.
        1   -1    0    0  501    0  0.00000000000E+00  0.00000000000E+00 -0.18388033440E+04  0.18388033440E+04  0.50400001928E-02 0.  1.
    10030    2    1    2    0    0  0.00000000000E+00  0.00000000000E+00 -0.20737957737E+03  0.34702271107E+04  0.34640251025E+04 0.  0.
        3    1    3    3  502    0 -0.14018641393E+04  0.95667786623E+03 -0.44986869723E+03  0.17558010877E+04  0.10100000352E+00 0.  1.
       -3    1    3    3    0  502  0.14018641393E+04 -0.95667786623E+03  0.24248911986E+03  0.17144260230E+04  0.10100000352E+00 0. -1.
</event>
<event>
 5   0  0.1886248E-06  0.3132930E+04  0.7818609E-02  0.8206758E-01
        1   -1    0    0  501    0  0.00000000000E+00  0.00000000000E+00  0.98727055999E+03  0.98727056000E+03  0.50400001928E-02 0. -1.
       -1   -1    0    0    0  501  0.00000000000E+00  0.00000000000E+00 -0.24854505470E+04  0.24854505471E+04  0.50400001928E-02 0.  1.
    10030    2    1    2    0    0  0.00000000000E+00  0.00000000000E+00 -0.14981799871E+04  0.34727211071E+04  0.31329297173E+04 0.  0.
        4    1    3    3  502    0  0.39329074961E+03  0.10046520811E+04  0.50978219753E+03  0.11932656534E+04  0.12699999809E+01 0. -1.
       -4    1    3    3    0  502 -0.39329074961E+03 -0.10046520811E+04 -0.20079621846E+04  0.22794554537E+04  0.12699999809E+01 0.  1.
</event>
<event>
 5   0  0.5121624E-06  0.3201011E+04  0.7818609E-02  0.8188550E-01
        2   -1    0    0  501    0  0.00000000000E+00  0.00000000000E+00  0.10691590264E+04  0.10691590264E+04  0.25500000920E-02 0. -1.
       -2   -1    0    0    0  501  0.00000000000E+00  0.00000000000E+00 -0.23959190836E+04  0.23959190836E+04  0.25500000920E-02 0.  1.
    10030    2    1    2    0    0  0.00000000000E+00  0.00000000000E+00 -0.13267600573E+04  0.34650781100E+04  0.32010114119E+04 0.  0.
        4    1    3    3  502    0 -0.98011095783E+03  0.10499044211E+04 -0.14278237929E+04  0.20252405238E+04  0.12699999809E+01 0. -1.
       -4    1    3    3    0  502  0.98011095783E+03 -0.10499044211E+04  0.10106373558E+03  0.14398375862E+04  0.12699999809E+01 0.  1.
</event>
<event>
 5   0  0.1881144E-06  0.2026368E+04  0.7818609E-02  0.8594391E-01
        1   -1    0    0  501    0  0.00000000000E+00  0.00000000000E+00  0.73545530142E+03  0.73545530144E+03  0.50400001928E-02 0. -1.
       -1   -1    0    0    0  501  0.00000000000E+00  0.00000000000E+00 -0.13957907327E+04  0.13957907327E+04  0.50400001928E-02 0.  1.
    10030    2    1    2    0    0  0.00000000000E+00  0.00000000000E+00 -0.66033543125E+03  0.21312460341E+04  0.20263678778E+04 0.  0.
        3    1    3    3  502    0 -0.11577501225E+03  0.94043219626E+03  0.47184530542E+02  0.94870593934E+03  0.10100000352E+00 0. -1.
       -3    1    3    3    0  502  0.11577501225E+03 -0.94043219626E+03 -0.70751996179E+03  0.11825400948E+04  0.10100000352E+00 0.  1.
</event>
<event>
 5   0  0.5373060E-06  0.3228840E+04  0.7818609E-02  0.8181242E-01
       -2   -1    0    0    0  501  0.00000000000E+00  0.00000000000E+00  0.13900609020E+04  0.13900609021E+04  0.25500000920E-02 0.  1.
        2   -1    0    0  501    0  0.00000000000E+00  0.00000000000E+00 -0.18749906099E+04  0.18749906099E+04  0.25500000920E-02 0. -1.
    10030    2    1    2    0    0  0.00000000000E+00  0.00000000000E+00 -0.48492970783E+03  0.32650515119E+04  0.32288395058E+04 0.  0.
        5    1    3    3  502    0 -0.35817723620E+03  0.15671427314E+04 -0.92130872051E+02  0.16101979570E+04  0.46999998093E+01 0.  1.
       -5    1    3    3    0  502  0.35817723620E+03 -0.15671427314E+04 -0.39279883578E+03  0.16548535550E+04  0.46999998093E+01 0. -1.
</event>
<event>
 5   0  0.5347280E-06  0.3306150E+04  0.7818609E-02  0.8161332E-01
        2   -1    0    0  501    0  0.00000000000E+00  0.00000000000E+00  0.21607642140E+04  0.21607642140E+04  0.25500000920E-02 0. -1.
       -2   -1    0    0    0  501  0.00000000000E+00  0.00000000000E+00 -0.12646718546E+04  0.12646718546E+04  0.25500000920E-02 0.  1.
    10030    2    1    2    0    0  0.00000000000E+00  0.00000000000E+00  0.89609235941E+03  0.34254360686E+04  0.33061504417E+04 0.  0.
        2    1    3    3  502    0  0.32019392153E+02 -0.16394955623E+04  0.66460112298E+03  0.17693686990E+04  0.25500000920E-02 0.  1.
       -2    1    3    3    0  502 -0.32019392153E+02  0.16394955623E+04  0.23149123643E+03  0.16560673696E+04  0.25500000920E-02 0. -1.
</event>
<event>
 5   0  0.5373060E-06  0.3265105E+04  0.7818609E-02  0.8171832E-01
       -2   -1    0    0    0  501  0.00000000000E+00  0.00000000000E+00  0.24233702298E+04  0.24233702298E+04  0.25500000920E-02 0. -1.
        2   -1    0    0  501    0  0.00000000000E+00  0.00000000000E+00 -0.10998019287E+04  0.10998019287E+04  0.25500000920E-02 0.  1.
    10030    2    1    2    0    0  0.00000000000E+00  0.00000000000E+00  0.13235683010E+04  0.35231721585E+04  0.32651047473E+04 0.  0.
        5    1    3    3  502    0  0.10949947137E+04 -0.70391416831E+03 -0.40132656965E+03  0.13622017783E+04  0.46999998093E+01 0.  1.
       -5    1    3    3    0  502 -0.10949947137E+04  0.70391416831E+03  0.17248948707E+04  0.21609703802E+04  0.46999998093E+01 0. -1.
</event>
<event>
 5   0  0.1846850E-06  0.3180075E+04  0.7818609E-02  0.8194099E-01
        1   -1    0    0  501    0  0.00000000000E+00  0.00000000000E+00  0.72761351354E+03  0.72761351356E+03  0.50400001928E-02 0.  1.
       -1   -1    0    0    0  501  0.00000000000E+00  0.00000000000E+00 -0.34746727604E+04  0.34746727604E+04  0.50400001928E-02 0. -1.
    10030    2    1    2    0    0  0.00000000000E+00  0.00000000000E+00 -0.27470592468E+04  0.42022862739E+04  0.31800747511E+04 0.  0.
        5    1    3    3  502    0  0.14672053817E+03 -0.11953446154E+04 -0.16321803948E+01  0.12043257117E+04  0.46999998093E+01 0.  1.
       -5    1    3    3    0  502 -0.14672053817E+03  0.11953446154E+04 -0.27454270664E+04  0.29979605623E+04  0.46999998093E+01 0. -1.
</event>
<event>
 5   0  0.1886248E-06  0.3257363E+04  0.7818609E-02  0.8173830E-01
        1   -1    0    0  501    0  0.00000000000E+00  0.00000000000E+00  0.17093531736E+04  0.17093531736E+04  0.50400001928E-02 0.  1.
       -1   -1    0    0    0  501  0.00000000000E+00  0.00000000000E+00 -0.15518168669E+04  0.15518168669E+04  0.50400001928E-02 0. -1.
    10030    2    1    2    0    0  0.00000000000E+00  0.00000000000E+00  0.15753630673E+03  0.32611700406E+04  0.32573627900E+04 0.  0.
        4    1    3    3  502    0  0.15457640027E+04 -0.24159904835E+03 -0.37435892867E+03  0.16086959541E+04  0.12699999809E+01 0. -1.
       -4    1    3    3    0  502 -0.15457640027E+04  0.24159904835E+03  0.53189523539E+03  0.16524740865E+04  0.12699999809E+01 0.  1.
</event>
<event>
 5   0  0.5131083E-06  0.3210189E+04  0.7818609E-02  0.8186132E-01
        2   -1    0    0  501    0  0.00000000000E+00  0.00000000000E+00  0.17847572804E+04  0.17847572804E+04  0.25500000920E-02 0. -1.
       -2   -1    0    0    0  501  0.00000000000E+00  0.00000000000E+00 -0.14435170461E+04  0.14435170461E+04  0.25500000920E-02 0.  1.
    10030    2    1    2    0    0  0.00000000000E+00  0.00000000000E+00  0.34124023427E+03  0.32282743265E+04  0.32101885037E+04 0.  0.
        3    1    3    3  502    0 -0.15165151342E+02  0.15192278011E+04 -0.35002681045E+03  0.15591029061E+04  0.10100000352E+00 0.  1.
       -3    1    3    3    0  502  0.15165151342E+02 -0.15192278011E+04  0.69126704472E+03  0.16691714204E+04  0.10100000352E+00 0. -1.
</event>
<event>
 5   0  0.1969465E-06  0.2885994E+04  0.7818609E-02  0.8277057E-01
       -1   -1    0    0    0  501  0.00000000000E+00  0.00000000000E+00  0.91172957003E+03  0.91172957004E+03  0.50400001928E-02 0.  1.
        1   -1    0    0  501    0  0.00000000000E+00  0.00000000000E+00 -0.22838355760E+04  0.22838355760E+04  0.50400001928E-02 0. -1.
    10030    2    1    2    0    0  0.00000000000E+00  0.00000000000E+00 -0.13721060060E+04  0.31955651460E+04  0.28859940594E+04 0.  0.
        2    1    3    3  502    0  0.40430746315E+03 -0.12513491820E+04 -0.28275878436E+02  0.13153474162E+04  0.25500000920E-02 0.  1.
       -2    1    3    3    0  502 -0.40430746315E+03  0.12513491820E+04 -0.13438301275E+04  0.18802177298E+04  0.25500000920E-02 0. -1.
</event>
<event>
 5   0  0.5121624E-06  0.2994466E+04  0.7818609E-02  0.8245313E-01
        2   -1    0    0  501    0  0.00000000000E+00  0.00000000000E+00  0.16525328128E+04  0.16525328128E+04  0.25500000920E-02 0.  1.
       -2   -1    0    0    0  501  0.00000000000E+00  0.00000000000E+00 -0.13565275853E+04  0.13565275853E+04  0.25500000920E-02 0. -1.
    10030    2    1    2    0    0  0.00000000000E+00  0.00000000000E+00  0.29600522742E+03  0.30090603981E+04  0.29944657929E+04 0.  0.
        4    1    3    3  502    0  0.13296296775E+04 -0.36498679095E+03  0.73443437363E+03  0.15622182623E+04  0.12699999809E+01 0.  1.
       -4    1    3    3    0  502 -0.13296296775E+04  0.36498679095E+03 -0.43842914621E+03  0.14468421358E+04  0.12699999809E+01 0. -1.
</event>
<event>
 5   0  0.1886248E-06  0.2577754E+04  0.7818609E-02  0.8375797E-01
       -1   -1    0    0    0  501  0.00000000000E+00  0.00000000000E+00  0.10925939605E+04  0.10925939605E+04  0.50400001928E-02 0. -1.
        1   -1    0    0  501    0  0.00000000000E+00  0.00000000000E+00 -0.15204219176E+04  0.15204219176E+04  0.50400001928E-02 0.  1.
    10030    2    1    2    0    0  0.00000000000E+00  0.00000000000E+00 -0.42782795709E+03  0.26130158782E+04  0.25777539096E+04 0.  0.
        4    1    3    3  502    0  0.19689623288E+03 -0.44198314380E+03 -0.14248620224E+04  0.15047759374E+04  0.12699999809E+01 0.  1.
       -4    1    3    3    0  502 -0.19689623288E+03  0.44198314380E+03  0.99703406535E+03  0.11082399408E+04  0.12699999809E+01 0. -1.
</event>
<event>
 5   0  0.1977015E-06  0.3127083E+04  0.7818609E-02  0.8208344E-01
        1   -1    0    0  501    0  0.00000000000E+00  0.00000000000E+00  0.19255465278E+04  0.19255465278E+04  0.50400001928E-02 0.  1.
       -1   -1    0    0    0  501  0.00000000000E+00  0.00000000000E+00 -0.12695937453E+04  0.12695937453E+04  0.50400001928E-02 0. -1.
    10030    2    1    2    0    0  0.00000000000E+00  0.00000000000E+00  0.65595278249E+03  0.31951402731E+04  0.31270828758E+04 0.  0.
        1    1    3    3  502    0 -0.14547951158E+04  0.24446609311E+03  0.85739338314E+03  0.17062578683E+04  0.50400001928E-02 0.  1.
       -1    1    3    3    0  502  0.14547951158E+04 -0.24446609311E+03 -0.20144060065E+03  0.14888824048E+04  0.50400001928E-02 0. -1.
</event>
<event>
 5   0  0.1846850E-06  0.3237501E+04  0.7818609E-02  0.8178983E-01
        1   -1    0    0  501    0  0.00000000000E+00  0.00000000000E+00  0.23697774936E+04  0.23697774936E+04  0.50400001928E-02 0.  1.
       -1   -1    0    0    0  501  0.00000000000E+00  0.00000000000E+00 -0.11057379750E+04  0.11057379750E+04  0.50400001928E-02 0. -1.
    10030    2    1    2    0    0  0.00000000000E+00  0.00000000000E+00  0.12640395186E+04  0.34755154686E+04  0.32375008677E+04 0.  0.
        5    1    3    3  502    0  0.26497054211E+03  0.41514058162E+03 -0.10233504976E+04  0.11357021712E+04  0.46999998093E+01 0. -1.
       -5    1    3    3    0  502 -0.26497054211E+03 -0.41514058162E+03  0.22873900162E+04  0.23398132974E+04  0.46999998093E+01 0.  1.
</event>
<event>
 5   0  0.1881144E-06  0.3216291E+04  0.7818609E-02  0.8184528E-01
        1   -1    0    0  501    0  0.00000000000E+00  0.00000000000E+00  0.14271290825E+04  0.14271290825E+04  0.50400001928E-02 0. -1.
       -1   -1    0    0    0  501  0.00000000000E+00  0.00000000000E+00 -0.18121223276E+04  0.18121223276E+04  0.50400001928E-02 0.  1.
    10030    2    1    2    0    0  0.00000000000E+00  0.00000000000E+00 -0.38499324516E+03  0.32392514101E+04  0.32162913268E+04 0.  0.
        3    1    3    3  502    0  0.45621557933E+03  0.11510597124E+04  0.84101678071E+03  0.14967900160E+04  0.10100000352E+00 0. -1.
       -3    1    3    3    0  502 -0.45621557933E+03 -0.11510597124E+04 -0.12260100259E+04  0.17424613941E+04  0.10100000352E+00 0.  1.
</event>
<event>
 5   0  0.5347280E-06  0.3192757E+04  0.7818609E-02  0.8190733E-01
        2   -1    0    0  501    0  0.00000000000E+00  0.00000000000E+00  0.15126108484E+04  0.15126108484E+04  0.25500000920E-02 0. -1.
       -2   -1    0    0    0  501  0.00000000000E+00  0.00000000000E+00 -0.16847850817E+04  0.16847850818E+04  0.25500000920E-02 0.  1.
    10030    2    1    2    0    0  0.00000000000E+00  0.00000000000E+00 -0.17217423340E+03  0.31973959301E+04  0.31927569227E+04 0.  0.
        2    1    3    3  502    0 -0.50888297024E+03 -0.12185396327E+04  0.81222428691E+03  0.15503254517E+04  0.25500000920E-02 0. -1.
       -2    1    3    3    0  502  0.50888297024E+03  0.12185396327E+04 -0.98439852031E+03  0.16470704784E+04  0.25500000920E-02 0.  1.
</event>
<event>
 5   0  0.1886248E-06  0.3184231E+04  0.7818609E-02  0.8192994E-01
        1   -1    0    0  501    0  0.00000000000E+00  0.00000000000E+00  0.17201890065E+04  0.17201890065E+04  0.50400001928E-02 0. -1.
       -1   -1    0    0    0  501  0.00000000000E+00  0.00000000000E+00 -0.14735777104E+04  0.14735777104E+04  0.50400001928E-02 0.  1.
    10030    2    1    2    0    0  0.00000000000E+00  0.00000000000E+00  0.24661129612E+03  0.31937667170E+04  0.31842312590E+04 0.  0.
        4    1    3    3  502    0  0.20949822552E+03 -0.57239128704E+03 -0.13519181006E+04  0.14829718324E+04  0.12699999809E+01 0.  1.
       -4    1    3    3    0  502 -0.20949822552E+03  0.57239128704E+03  0.15985293967E+04  0.17107948846E+04  0.12699999809E+01 0. -1.
</event>
<event>
 5   0  0.5131083E-06  0.3194712E+04  0.7818609E-02  0.8190215E-01
        2   -1    0    0  501    0  0.00000000000E+00  0.00000000000E+00  0.22945966705E+04  0.22945966705E+04  0.25500000920E-02 0. -1.
       -2   -1    0    0    0  501  0.00000000000E+00  0.00000000000E+00 -0.11119804517E+04  0.11119804517E+04  0.25500000920E-02 0.  1.
    10030    2    1    2    0    0  0.00000000000E+00  0.00000000000E+00  0.11826162187E+04  0.34065771222E+04  0.31947122826E+04 0.  0.
        3    1    3    3  502    0 -0.43342695020E+03  0.12591245046E+04 -0.34940693603E+03  0.13767129898E+04  0.10100000352E+00 0.  1.
       -3    1    3    3    0  502  0.43342695020E+03 -0.12591245046E+04  0.15320231547E+04  0.20298641324E+04  0.10100000352E+00 0. -1.
</event>
<event>
 5   0  0.5121624E-06  0.3194119E+04  0.7818609E-02  0.8190372E-01
       -2   -1    0    0    0  501  0.00000000000E+00  0.00000000000E+00  0.10354996785E+04  0.10354996785E+04  0.25500000920E-02 0.  1.
        2   -1    0    0  501    0  0.00000000000E+00  0.00000000000E+00 -0.24631577948E+04  0.24631577948E+04  0.25500000920E-02 0. -1.
    10030    2    1    2    0    0  0.00000000000E+00  0.00000000000E+00 -0.14276581164E+04  0.34986574733E+04  0.31941190363E+04 0.  0.
        4    1    3    3  502    0 -0.15608706493E+03  0.17101660362E+03  0.10170173271E+04  0.10430415654E+04  0.12699999809E+01 0.  1.
       -4    1    3    3    0  502  0.15608706493E+03 -0.17101660362E+03 -0.24446754435E+04  0.24556159079E+04  0.12699999809E+01 0. -1.
</event>
<event>
 5   0  0.1977015E-06  0.3193968E+04  0.7818609E-02  0.8190412E-01
        1   -1    0    0  501    0  0.00000000000E+00  0.00000000000E+00  0.20823853356E+04  0.20823853356E+04  0.50400001928E-02 0. -1.
       -1   -1    0    0    0  501  0.00000000000E+00  0.00000000000E+00 -0.12247292897E+04  0.12247292897E+04  0.50400001928E-02 0.  1.
    10030    2    1    2    0    0  0.00000000000E+00  0.00000000000E+00  0.85765604595E+03  0.33071146253E+04  0.31939682609E+04 0.  0.
        1    1    3    3  502    0 -0.65400512589E+03 -0.11372237961E+04 -0.51412395996E+03  0.14090152992E+04  0.50400001928E-02 0.  1.
       -1    1    3    3    0  502  0.65400512589E+03  0.11372237961E+04  0.13717800059E+04  0.18980993261E+04  0.50400001928E-02 0. -1.
</event>
<event>
 5   0  0.5373060E-06  0.3088235E+04  0.7818609E-02  0.8218974E-01
       -2   -1    0    0    0  501  0.00000000000E+00  0.00000000000E+00  0.11552125231E+04  0.11552125231E+04  0.25500000920E-02 0.  1.
        2   -1    0    0  501    0  0.00000000000E+00  0.00000000000E+00 -0.20639478678E+04  0.20639478678E+04  0.25500000920E-02 0. -1.
    10030    2    1    2    0    0  0.00000000000E+00  0.00000000000E+00 -0.90873534470E+03  0.32191603910E+04  0.30882347216E+04 0.  0.
        5    1    3    3  502    0  0.96872402478E+03 -0.60401037028E+03  0.62943319401E+03  0.13036345344E+04  0.46999998093E+01 0.  1.
       -5    1    3    3    0  502 -0.96872402478E+03  0.60401037028E+03 -0.15381685387E+04  0.19155258565E+04  0.46999998093E+01 0. -1.
</event>
<event>
 5   0  0.5108810E-06  0.2290787E+04  0.7818609E-02  0.8481563E-01
        2   -1    0    0  501    0  0.00000000000E+00  0.00000000000E+00  0.13558355177E+04  0.13558355177E+04  0.25500000920E-02 0. -1.
       -2   -1    0    0    0  501  0.00000000000E+00  0.00000000000E+00 -0.96761466059E+03  0.96761466060E+03  0.25500000920E-02 0.  1.
    10030    2    1    2    0    0  0.00000000000E+00  0.00000000000E+00  0.38822085714E+03  0.23234501783E+04  0.22907870476E+04 0.  0.
        1    1    3    3  502    0 -0.12505599256E+02  0.11136598321E+04 -0.77157191442E+02  0.11163995001E+04  0.50400001928E-02 0. -1.
       -1    1    3    3    0  502  0.12505599256E+02 -0.11136598321E+04  0.46537804859E+03  0.12070506782E+04  0.50400001928E-02 0.  1.
</event>
<event>
 5   0  0.5131083E-06  0.3185482E+04  0.7818609E-02  0.8192662E-01
        2   -1    0    0  501    0  0.00000000000E+00  0.00000000000E+00  0.21365760304E+04  0.21365760304E+04  0.25500000920E-02 0. -1.
       -2   -1    0    0    0  501  0.00000000000E+00  0.00000000000E+00 -0.11873314843E+04  0.11873314843E+04  0.25500000920E-02 0.  1.
    10030    2    1    2    0    0  0.00000000000E+00  0.00000000000E+00  0.94924454609E+03  0.33239075146E+04  0.31854820605E+04 0.  0.
        3    1    3    3  502    0  0.60930284534E+03  0.11090812704E+04  0.14838719634E+04  0.19501762064E+04  0.10100000352E+00 0. -1.
       -3    1    3    3    0  502 -0.60930284534E+03 -0.11090812704E+04 -0.53462741736E+03  0.13737313083E+04  0.10100000352E+00 0.  1.
</event>
<event>
 5   0  0.1977015E-06  0.2858471E+04  0.7818609E-02  0.8285342E-01
       -1   -1    0    0    0  501  0.00000000000E+00  0.00000000000E+00  0.96576449215E+03  0.96576449217E+03  0.50400001928E-02 0.  1.
        1   -1    0    0  501    0  0.00000000000E+00  0.00000000000E+00 -0.21151266316E+04  0.21151266316E+04  0.50400001928E-02 0. -1.
    10030    2    1    2    0    0  0.00000000000E+00  0.00000000000E+00 -0.11493621394E+04  0.30808911238E+04  0.28584710579E+04 0.  0.
        1    1    3    3  502    0 -0.68131385459E+03 -0.11069571979E+04  0.65842786297E+02  0.13014907141E+04  0.50400001928E-02 0.  1.
       -1    1    3    3    0  502  0.68131385459E+03  0.11069571979E+04 -0.12152049257E+04  0.17794004097E+04  0.50400001928E-02 0. -1.
</event>
<event>
 5   0  0.1969465E-06  0.3189887E+04  0.7818609E-02  0.8191493E-01
       -1   -1    0    0    0  501  0.00000000000E+00  0.00000000000E+00  0.15713584288E+04  0.15713584288E+04  0.50400001928E-02 0. -1.
        1   -1    0    0  501    0  0.00000000000E+00  0.00000000000E+00 -0.16188824838E+04  0.16188824839E+04  0.50400001928E-02 0.  1.
    10030    2    1    2    0    0  0.00000000000E+00  0.00000000000E+00 -0.47524055036E+02  0.31902409127E+04  0.31898869173E+04 0.  0.
        2    1    3    3  502    0  0.41509109395E+03  0.12140667878E+04  0.92375318805E+03  0.15810056084E+04  0.25500000920E-02 0. -1.
       -2    1    3    3    0  502 -0.41509109395E+03 -0.12140667878E+04 -0.97127724308E+03  0.16092353042E+04  0.25500000920E-02 0.  1.
</event>
<event>
 5   0  0.5108810E-06  0.3035633E+04  0.7818609E-02  0.8233628E-01
       -2   -1    0    0    0  501  0.00000000000E+00  0.00000000000E+00  0.13052958438E+04  0.13052958438E+04  0.25500000920E-02 0.  1.
        2   -1    0    0  501    0  0.00000000000E+00  0.00000000000E+00 -0.17649386260E+04  0.17649386260E+04  0.25500000920E-02 0. -1.
    10030    2    1    2    0    0  0.00000000000E+00  0.00000000000E+00 -0.45964278228E+03  0.30702344698E+04  0.30356330826E+04 0.  0.
        1    1    3    3  502    0 -0.43082005912E+03  0.77542231337E+03  0.10158344653E+04  0.13486309163E+04  0.50400001928E-02 0.  1.
       -1    1    3    3    0  502  0.43082005912E+03 -0.77542231337E+03 -0.14754772476E+04  0.17216035535E+04  0.50400001928E-02 0. -1.
</event>
<event>
 5   0  0.5131083E-06  0.3076135E+04  0.7818609E-02  0.8222318E-01
        2   -1    0    0  501    0  0.00000000000E+00  0.00000000000E+00  0.17109948847E+04  0.17109948847E+04  0.25500000920E-02 0. -1.
       -2   -1    0    0    0  501  0.00000000000E+00  0.00000000000E+00 -0.13826176277E+04  0.13826176277E+04  0.25500000920E-02 0.  1.
    10030    2    1    2    0    0  0.00000000000E+00  0.00000000000E+00  0.32837725696E+03  0.30936125124E+04  0.30761350351E+04 0.  0.
        3    1    3    3  502    0  0.76638871218E+03 -0.12278661618E+04  0.68737965916E+03  0.16023413418E+04  0.10100000352E+00 0. -1.
       -3    1    3    3    0  502 -0.76638871218E+03  0.12278661618E+04 -0.35900240220E+03  0.14912711707E+04  0.10100000352E+00 0.  1.
</event>
<event>
 5   0  0.1846850E-06  0.3229336E+04  0.7818609E-02  0.8181112E-01
        1   -1    0    0  501    0  0.00000000000E+00  0.00000000000E+00  0.21814353774E+04  0.21814353774E+04  0.50400001928E-02 0. -1.
       -1   -1    0    0    0  501  0.00000000000E+00  0.00000000000E+00 -0.11951544845E+04  0.11951544846E+04  0.50400001928E-02 0.  1.
    10030    2    1    2    0    0  0.00000000000E+00  0.00000000000E+00  0.98628089282E+03  0.33765898619E+04  0.32293357051E+04 0.  0.
        5    1    3    3  502    0 -0.67503814124E+03 -0.14472520021E+04  0.74258829570E+03  0.17611570959E+04  0.46999998093E+01 0. -1.
       -5    1    3    3    0  502  0.67503814124E+03  0.14472520021E+04  0.24369259712E+03  0.16154327660E+04  0.46999998093E+01 0.  1.
</event>
<event>
 5   0  0.5131083E-06  0.3138473E+04  0.7818609E-02  0.8205258E-01
        2   -1    0    0  501    0  0.00000000000E+00  0.00000000000E+00  0.19672913139E+04  0.19672913139E+04  0.25500000920E-02 0.  1.
       -2   -1    0    0    0  501  0.00000000000E+00  0.00000000000E+00 -0.12517229565E+04  0.12517229565E+04  0.25500000920E-02 0. -1.
    10030    2    1    2    0    0  0.00000000000E+00  0.00000000000E+00  0.71556835738E+03  0.32190142704E+04  0.31384733230E+04 0.  0.
        3    1    3    3  502    0 -0.85232099836E+03  0.12333616760E+04 -0.11765388728E+03  0.15038199877E+04  0.10100000352E+00 0. -1.
       -3    1    3    3    0  502  0.85232099836E+03 -0.12333616760E+04  0.83322224466E+03  0.17151942827E+04  0.10100000352E+00 0.  1.
</event>
<event>
 5   0  0.1886248E-06  0.3222213E+04  0.7818609E-02  0.8182975E-01
        1   -1    0    0  501    0  0.00000000000E+00  0.00000000000E+00  0.14691046944E+04  0.14691046944E+04  0.50400001928E-02 0. -1.
       -1   -1    0    0    0  501  0.00000000000E+00  0.00000000000E+00 -0.17668343834E+04  0.17668343834E+04  0.50400001928E-02 0.  1.
    10030    2    1    2    0    0  0.00000000000E+00  0.00000000000E+00 -0.29772968893E+03  0.32359390778E+04  0.32222133306E+04 0.  0.
        4    1    3    3  502    0  0.10716764666E+03 -0.16856512910E+03  0.14566207682E+04  0.14702533055E+04  0.12699999809E+01 0. -1.
       -4    1    3    3    0  502 -0.10716764666E+03  0.16856512910E+03 -0.17543504571E+04  0.17656857723E+04  0.12699999809E+01 0.  1.
</event>
<event>
 5   0  0.1886248E-06  0.3183717E+04  0.7818609E-02  0.8193131E-01
        1   -1    0    0  501    0  0.00000000000E+00  0.00000000000E+00  0.23275246008E+04  0.23275246008E+04  0.50400001928E-02 0.  1.
       -1   -1    0    0    0  501  0.00000000000E+00  0.00000000000E+00 -0.10887163369E+04  0.10887163369E+04  0.50400001928E-02 0. -1.
    10030    2    1    2    0    0  0.00000000000E+00  0.00000000000E+00  0.12388082639E+04  0.34162409377E+04  0.31837173602E+04 0.  0.
        4    1    3    3  502    0  0.29653160378E+03 -0.78760649527E+03  0.20692957164E+04  0.22338848131E+04  0.12699999809E+01 0.  1.
       -4    1    3    3    0  502 -0.29653160378E+03  0.78760649527E+03 -0.83048745255E+03  0.11823561245E+04  0.12699999809E+01 0. -1.
</event>
<event>
 5   0  0.5131083E-06  0.2776060E+04  0.7818609E-02  0.8310740E-01
        2   -1    0    0  501    0  0.00000000000E+00  0.00000000000E+00  0.16496868540E+04  0.16496868540E+04  0.25500000920E-02 0.  1.
       -2   -1    0    0    0  501  0.00000000000E+00  0.00000000000E+00 -0.11678745436E+04  0.11678745436E+04  0.25500000920E-02 0. -1.
    10030    2    1    2    0    0  0.00000000000E+00  0.00000000000E+00  0.48181231048E+03  0.28175613976E+04  0.27760600006E+04 0.  0.
        3    1    3    3  502    0  0.11500589368E+03  0.70771198447E+02  0.16430041684E+04  0.16485440927E+04  0.10100000352E+00 0.  1.
       -3    1    3    3    0  502 -0.11500589368E+03 -0.70771198447E+02 -0.11611918579E+04  0.11690173049E+04  0.10100000352E+00 0. -1.
</event>
<event>
 5   0  0.1846850E-06  0.3263265E+04  0.7818609E-02  0.8172306E-01
        1   -1    0    0  501    0  0.00000000000E+00  0.00000000000E+00  0.12097180761E+04  0.12097180761E+04  0.50400001928E-02 0. -1.
       -1   -1    0    0    0  501  0.00000000000E+00  0.00000000000E+00 -0.22006990548E+04  0.22006990548E+04  0.50400001928E-02 0.  1.
    10030    2    1    2    0    0  0.00000000000E+00  0.00000000000E+00 -0.99098097870E+03  0.34104171309E+04  0.32632654974E+04 0.  0.
        5    1    3    3  502    0  0.10021796763E+01 -0.12528590315E+04  0.59689286259E+03  0.13877895866E+04  0.46999998093E+01 0. -1.
       -5    1    3    3    0  502 -0.10021796763E+01  0.12528590315E+04 -0.15878738413E+04  0.20226275443E+04  0.46999998093E+01 0.  1.
</event>
<event>
 5   0  0.1977015E-06  0.3363190E+04  0.7818609E-02  0.8147000E-01
        1   -1    0    0  501    0  0.00000000000E+00  0.00000000000E+00  0.15930418679E+04  0.15930418679E+04  0.50400001928E-02 0. -1.
       -1   -1    0    0    0  501  0.00000000000E+00  0.00000000000E+00 -0.17750702582E+04  0.17750702582E+04  0.50400001928E-02 0.  1.
    10030    2    1    2    0    0  0.00000000000E+00  0.00000000000E+00 -0.18202839033E+03  0.33681121261E+04  0.33631897002E+04 0.  0.
        1    1    3    3  502    0 -0.88200083683E+03 -0.13046672735E+04 -0.68152037860E+03  0.17159697542E+04  0.50400001928E-02 0.  1.
       -1    1    3    3    0  502  0.88200083683E+03  0.13046672735E+04  0.49949198827E+03  0.16521423719E+04  0.50400001928E-02 0. -1.
</event>
<event>
 5   0  0.1886248E-06  0.3103209E+04  0.7818609E-02  0.8214858E-01
       -1   -1    0    0    0  501  0.00000000000E+00  0.00000000000E+00  0.10301134847E+04  0.10301134847E+04  0.50400001928E-02 0.  1.
        1   -1    0    0  501    0  0.00000000000E+00  0.00000000000E+00 -0.23370977669E+04  0.23370977669E+04  0.50400001928E-02 0. -1.
    10030    2    1    2    0    0  0.00000000000E+00  0.00000000000E+00 -0.13069842822E+04  0.33672112516E+04  0.31032086135E+04 0.  0.
        4    1    3    3  502    0 -0.15333785861E+04  0.20436445919E+03 -0.78397017364E+03  0.17342507220E+04  0.12699999809E+01 0. -1.
       -4    1    3    3    0  502  0.15333785861E+04 -0.20436445919E+03 -0.52301410860E+03  0.16329605296E+04  0.12699999809E+01 0.  1.
</event>
<event>
 5   0  0.5347280E-06  0.3109182E+04  0.7818609E-02  0.8213222E-01
       -2   -1    0    0    0  501  0.00000000000E+00  0.00000000000E+00  0.11704734003E+04  0.11704734003E+04  0.25500000920E-02 0.  1.
        2   -1    0    0  501    0  0.00000000000E+00  0.00000000000E+00 -0.20647661713E+04  0.20647661713E+04  0.25500000920E-02 0. -1.
    10030    2    1    2    0    0  0.00000000000E+00  0.00000000000E+00 -0.89429277101E+03  0.32352395716E+04  0.31091824529E+04 0.  0.
        2    1    3    3  502    0 -0.13887471826E+03 -0.14368506060E+04 -0.10475391067E+04  0.17835817983E+04  0.25500000920E-02 0. -1.
       -2    1    3    3    0  502  0.13887471826E+03  0.14368506060E+04  0.15324633569E+03  0.14516577732E+04  0.25500000920E-02 0.  1.
</event>
<event>
 5   0  0.5347280E-06  0.3199866E+04  0.7818609E-02  0.8188853E-01
       -2   -1    0    0    0  501  0.00000000000E+00  0.00000000000E+00  0.16281561848E+04  0.16281561848E+04  0.25500000920E-02 0.  1.
        2   -1    0    0  501    0  0.00000000000E+00  0.00000000000E+00 -0.15721989966E+04  0.15721989966E+04  0.25500000920E-02 0. -1.
    10030    2    1    2    0    0  0.00000000000E+00  0.00000000000E+00  0.55957188119E+02  0.32003551814E+04  0.31998659472E+04 0.  0.
        2    1    3    3  502    0 -0.10201566989E+04  0.97162892950E+03  0.78638408815E+03  0.16134380685E+04  0.25500000920E-02 0. -1.
       -2    1    3    3    0  502  0.10201566989E+04 -0.97162892950E+03 -0.73042690004E+03  0.15869171129E+04  0.25500000920E-02 0.  1.
</event>
<event>
 5   0  0.5347280E-06  0.3212277E+04  0.7818609E-02  0.8185582E-01
        2   -1    0    0  501    0  0.00000000000E+00  0.00000000000E+00  0.16426787160E+04  0.16426787160E+04  0.25500000920E-02 0. -1.
       -2   -1    0    0    0  501  0.00000000000E+00  0.00000000000E+00 -0.15704110693E+04  0.15704110693E+04  0.25500000920E-02 0.  1.
    10030    2    1    2    0    0  0.00000000000E+00  0.00000000000E+00  0.72267646647E+02  0.32130897853E+04  0.32122769737E+04 0.  0.
        2    1    3    3  502    0 -0.14216723267E+04  0.85221499155E+02  0.77879454173E+03  0.16232485474E+04  0.25500000920E-02 0. -1.
       -2    1    3    3    0  502  0.14216723267E+04 -0.85221499155E+02 -0.70652689508E+03  0.15898412379E+04  0.25500000920E-02 0.  1.
</event>
<event>
 5   0  0.1969465E-06  0.3250527E+04  0.7818609E-02  0.8175599E-01
        1   -1    0    0  501    0  0.00000000000E+00  0.00000000000E+00  0.14238449785E+04  0.14238449785E+04  0.50400001928E-02 0.  1.
       -1   -1    0    0    0  501  0.00000000000E+00  0.00000000000E+00 -0.18551745314E+04  0.18551745314E+04  0.50400001928E-02 0. -1.
    10030    2    1    2    0    0  0.00000000000E+00  0.00000000000E+00 -0.43132955290E+03  0.32790195100E+04  0.32505266902E+04 0.  0.
        2    1    3    3  502    0  0.14822444429E+04 -0.22430497137E+03 -0.84895720924E+03  0.17228144566E+04  0.25500000920E-02 0.  1.
       -2    1    3    3    0  502 -0.14822444429E+04  0.22430497137E+03  0.41762765634E+03  0.15562050534E+04  0.25500000920E-02 0. -1.
</event>
<event>
 5   0  0.1886248E-06  0.3158575E+04  0.7818609E-02  0.8199844E-01
       -1   -1    0    0    0  501  0.00000000000E+00  0.00000000000E+00  0.13042488782E+04  0.13042488782E+04  0.50400001928E-02 0.  1.
        1   -1    0    0  501    0  0.00000000000E+00  0.00000000000E+00 -0.19123256292E+04  0.19123256293E+04  0.50400001928E-02 0. -1.
    10030    2    1    2    0    0  0.00000000000E+00  0.00000000000E+00 -0.60807675101E+03  0.32165745075E+04  0.31585747145E+04 0.  0.
        4    1    3    3  502    0  0.30227237666E+03 -0.13927986390E+04 -0.99689201703E+03  0.17392676462E+04  0.12699999809E+01 0. -1.
       -4    1    3    3    0  502 -0.30227237666E+03  0.13927986390E+04  0.38881526602E+03  0.14773068613E+04  0.12699999809E+01 0.  1.
</event>
<event>
 5   0  0.1881144E-06  0.2856296E+04  0.7818609E-02  0.8286001E-01
       -1   -1    0    0    0  501  0.00000000000E+00  0.00000000000E+00  0.15512855373E+04  0.15512855373E+04  0.50400001928E-02 0. -1.
        1   -1    0    0  501    0  0.00000000000E+00  0.00000000000E+00 -0.13147846759E+04  0.13147846759E+04  0.50400001928E-02 0.  1.
    10030    2    1    2    0    0  0.00000000000E+00  0.00000000000E+00  0.23650086136E+03  0.28660702132E+04  0.28562958197E+04 0.  0.
        3    1    3    3  502    0 -0.84991722524E+03  0.11378620966E+04 -0.32319732316E+02  0.14206104378E+04  0.10100000352E+00 0. -1.
       -3    1    3    3    0  502  0.84991722524E+03 -0.11378620966E+04  0.26882059368E+03  0.14454597754E+04  0.10100000352E+00 0.  1.
</event>
<event>
 5   0  0.5373060E-06  0.3230071E+04  0.7818609E-02  0.8180920E-01
        2   -1    0    0  501    0  0.00000000000E+00  0.00000000000E+00  0.30798225254E+04  0.30798225254E+04  0.25500000920E-02 0. -1.
       -2   -1    0    0    0  501  0.00000000000E+00  0.00000000000E+00 -0.84691214265E+03  0.84691214265E+03  0.25500000920E-02 0.  1.
    10030    2    1    2    0    0  0.00000000000E+00  0.00000000000E+00  0.22329103828E+04  0.39267346681E+04  0.32300706457E+04 0.  0.
        5    1    3    3  502    0 -0.10416053559E+04 -0.12115445260E+04  0.82996912607E+03  0.18004590237E+04  0.46999998093E+01 0. -1.
       -5    1    3    3    0  502  0.10416053559E+04  0.12115445260E+04  0.14029412567E+04  0.21262756443E+04  0.46999998093E+01 0.  1.
</event>
<event>
 5   0  0.1886248E-06  0.3185259E+04  0.7818609E-02  0.8192721E-01
       -1   -1    0    0    0  501  0.00000000000E+00  0.00000000000E+00  0.18020255758E+04  0.18020255758E+04  0.50400001928E-02 0. -1.
        1   -1    0    0  501    0  0.00000000000E+00  0.00000000000E+00 -0.14075653049E+04  0.14075653049E+04  0.50400001928E-02 0.  1.
    10030    2    1    2    0    0  0.00000000000E+00  0.00000000000E+00  0.39446027088E+03  0.32095908808E+04  0.31852589717E+04 0.  0.
        4    1    3    3  502    0  0.33282804866E+03 -0.28545285687E+03 -0.13455467196E+04  0.14151874191E+04  0.12699999809E+01 0.  1.
       -4    1    3    3    0  502 -0.33282804866E+03  0.28545285687E+03  0.17400069905E+04  0.17944034617E+04  0.12699999809E+01 0. -1.
</event>
<event>
 5   0  0.5131083E-06  0.3601323E+04  0.7818609E-02  0.8090189E-01
       -2   -1    0    0    0  501  0.00000000000E+00  0.00000000000E+00  0.13749491693E+04  0.13749491693E+04  0.25500000920E-02 0.  1.
        2   -1    0    0  501    0  0.00000000000E+00  0.00000000000E+00 -0.23581827689E+04  0.23581827689E+04  0.25500000920E-02 0. -1.
    10030    2    1    2    0    0  0.00000000000E+00  0.00000000000E+00 -0.98323359962E+03  0.37331319381E+04  0.36013227787E+04 0.  0.
        3    1    3    3  502    0  0.16584944491E+03  0.14602551552E+04  0.58691093140E+03  0.15825029568E+04  0.10100000352E+00 0.  1.
       -3    1    3    3    0  502 -0.16584944491E+03 -0.14602551552E+04 -0.15701445310E+04  0.21506289813E+04  0.10100000352E+00 0. -1.
</event>
<event>
 5   0  0.1886248E-06  0.3245311E+04  0.7818609E-02  0.8176952E-01
        1   -1    0    0  501    0  0.00000000000E+00  0.00000000000E+00  0.12382756634E+04  0.12382756634E+04  0.50400001928E-02 0. -1.
       -1   -1    0    0    0  501  0.00000000000E+00  0.00000000000E+00 -0.21263532844E+04  0.21263532844E+04  0.50400001928E-02 0.  1.
    10030    2    1    2    0    0  0.00000000000E+00  0.00000000000E+00 -0.88807762100E+03  0.33646289478E+04  0.32453114019E+04 0.  0.
        4    1    3    3  502    0  0.12944537248E+04  0.94713808430E+03 -0.18938888269E+03  0.16151008508E+04  0.12699999809E+01 0.  1.
       -4    1    3    3    0  502 -0.12944537248E+04 -0.94713808430E+03 -0.69868873831E+03  0.17495280970E+04  0.12699999809E+01 0. -1.
</event>
<event>
 5   0  0.1846850E-06  0.3218827E+04  0.7818609E-02  0.8183863E-01
       -1   -1    0    0    0  501  0.00000000000E+00  0.00000000000E+00  0.10906650426E+04  0.10906650426E+04  0.50400001928E-02 0. -1.
        1   -1    0    0  501    0  0.00000000000E+00  0.00000000000E+00 -0.23748916709E+04  0.23748916709E+04  0.50400001928E-02 0.  1.
    10030    2    1    2    0    0  0.00000000000E+00  0.00000000000E+00 -0.12842266284E+04  0.34655567135E+04  0.32188266964E+04 0.  0.
        5    1    3    3  502    0 -0.86386254875E+03 -0.33392065660E+03  0.77499478046E+03  0.12076425414E+04  0.46999998093E+01 0. -1.
       -5    1    3    3    0  502  0.86386254875E+03  0.33392065660E+03 -0.20592214088E+04  0.22579141721E+04  0.46999998093E+01 0.  1.
</event>
<event>
 5   0  0.1881144E-06  0.3404492E+04  0.7818609E-02  0.8136805E-01
       -1   -1    0    0    0  501  0.00000000000E+00  0.00000000000E+00  0.95257556593E+03  0.95257556594E+03  0.50400001928E-02 0.  1.
        1   -1    0    0  501    0  0.00000000000E+00  0.00000000000E+00 -0.30419025933E+04  0.30419025933E+04  0.50400001928E-02 0. -1.
    10030    2    1    2    0    0  0.00000000000E+00  0.00000000000E+00 -0.20893270274E+04  0.39944781593E+04  0.34044923759E+04 0.  0.
        3    1    3    3  502    0 -0.83179394847E+03 -0.38931581226E+03 -0.27262856812E+04  0.28768179644E+04  0.10100000352E+00 0. -1.
       -3    1    3    3    0  502  0.83179394847E+03  0.38931581226E+03  0.63695865381E+03  0.11176601949E+04  0.10100000352E+00 0.  1.
</event>
<event>
 5   0  0.1881144E-06  0.3215435E+04  0.7818609E-02  0.8184753E-01
       -1   -1    0    0    0  501  0.00000000000E+00  0.00000000000E+00  0.14765703073E+04  0.14765703073E+04  0.50400001928E-02 0. -1.
        1   -1    0    0  501    0  0.00000000000E+00  0.00000000000E+00 -0.17505127732E+04  0.17505127732E+04  0.50400001928E-02 0.  1.
    10030    2    1    2    0    0  0.00000000000E+00  0.00000000000E+00 -0.27394246588E+03  0.32270830804E+04  0.32154347658E+04 0.  0.
        3    1    3    3  502    0  0.76100557825E+03 -0.18211122174E+03 -0.15465023770E+04  0.17331946225E+04  0.10100000352E+00 0.  1.
       -3    1    3    3    0  502 -0.76100557825E+03  0.18211122174E+03  0.12725599111E+04  0.14938884579E+04  0.10100000352E+00 0. -1.
</event>
<event>
 5   0  0.5121624E-06  0.3232405E+04  0.7818609E-02  0.8180311E-01
       -2   -1    0    0    0  501  0.00000000000E+00  0.00000000000E+00  0.22504009463E+04  0.22504009463E+04  0.25500000920E-02 0.  1.
        2   -1    0    0  501    0  0.00000000000E+00  0.00000000000E+00 -0.11607309551E+04  0.11607309551E+04  0.25500000920E-02 0. -1.
    10030    2    1    2    0    0  0.00000000000E+00  0.00000000000E+00  0.10896699912E+04  0.34111319014E+04  0.32324047022E+04 0.  0.
        4    1    3    3  502    0 -0.99200362338E+03 -0.85783373989E+03 -0.45193233412E+03  0.13871533302E+04  0.12699999809E+01 0. -1.
       -4    1    3    3    0  502  0.99200362338E+03  0.85783373989E+03  0.15416023253E+04  0.20239785711E+04  0.12699999809E+01 0.  1.
</event>
<event>
 5   0  0.5347280E-06  0.3353490E+04  0.7818609E-02  0.8149417E-01
       -2   -1    0    0    0  501  0.00000000000E+00  0.00000000000E+00  0.10681572851E+04  0.10681572851E+04  0.25500000920E-02 0. -1.
        2   -1    0    0  501    0  0.00000000000E+00  0.00000000000E+00 -0.26320784870E+04  0.26320784870E+04  0.25500000920E-02 0.  1.
    10030    2    1    2    0    0  0.00000000000E+00  0.00000000000E+00 -0.15639212019E+04  0.37002357721E+04  0.33534900095E+04 0.  0.
        2    1    3    3  502    0  0.15637911700E+04 -0.60089131187E+03 -0.70424641431E+03  0.18172716374E+04  0.25500000920E-02 0. -1.
       -2    1    3    3    0  502 -0.15637911700E+04  0.60089131187E+03 -0.85967478756E+03  0.18829641347E+04  0.25500000920E-02 0.  1.
</event>
<event>
 5   0  0.1881144E-06  0.3320631E+04  0.7818609E-02  0.8157666E-01
        1   -1    0    0  501    0  0.00000000000E+00  0.00000000000E+00  0.11176234759E+04  0.11176234760E+04  0.50400001928E-02 0. -1.
       -1   -1    0    0    0  501  0.00000000000E+00  0.00000000000E+00 -0.24665263249E+04  0.24665263249E+04  0.50400001928E-02 0.  1.
    10030    2    1    2    0    0  0.00000000000E+00  0.00000000000E+00 -0.13489028489E+04  0.35841498008E+04  0.33206310995E+04 0.  0.
        3    1    3    3  502    0  0.16263317976E+04  0.32999928308E+03 -0.61740787150E+03  0.17706064308E+04  0.10100000352E+00 0.  1.
       -3    1    3    3    0  502 -0.16263317976E+04 -0.32999928308E+03 -0.73149497743E+03  0.18135433700E+04  0.10100000352E+00 0. -1.
</event>
<event>
 5   0  0.5131083E-06  0.3207400E+04  0.7818609E-02  0.8186866E-01
       -2   -1    0    0    0  501  0.00000000000E+00  0.00000000000E+00  0.95980415443E+03  0.95980415444E+03  0.25500000920E-02 0.  1.
        2   -1    0    0  501    0  0.00000000000E+00  0.00000000000E+00 -0.26795611694E+04  0.26795611694E+04  0.25500000920E-02 0. -1.
    10030    2    1    2    0    0  0.00000000000E+00  0.00000000000E+00 -0.17197570149E+04  0.36393653238E+04  0.32074001574E+04 0.  0.
        3    1    3    3  502    0 -0.13399315132E+04  0.21600366007E+03 -0.18292013623E+04  0.22777295000E+04  0.10100000352E+00 0. -1.
       -3    1    3    3    0  502  0.13399315132E+04 -0.21600366007E+03  0.10944434741E+03  0.13616358238E+04  0.10100000352E+00 0.  1.
</event>
<event>
 5   0  0.1977015E-06  0.2222384E+04  0.7818609E-02  0.8509169E-01
        1   -1    0    0  501    0  0.00000000000E+00  0.00000000000E+00  0.85857863808E+03  0.85857863809E+03  0.50400001928E-02 0. -1.
       -1   -1    0    0    0  501  0.00000000000E+00  0.00000000000E+00 -0.14381297161E+04  0.14381297162E+04  0.50400001928E-02 0.  1.
    10030    2    1    2    0    0  0.00000000000E+00  0.00000000000E+00 -0.57955107807E+03  0.22967083542E+04  0.22223838130E+04 0.  0.
        1    1    3    3  502    0 -0.64535843894E+03 -0.47451618396E+03  0.50610643945E+03  0.94752142542E+03  0.50400001928E-02 0. -1.
       -1    1    3    3    0  502  0.64535843894E+03  0.47451618396E+03 -0.10856575175E+04  0.13491869288E+04  0.50400001928E-02 0.  1.
</event>
<event>
 5   0  0.1886248E-06  0.2563485E+04  0.7818609E-02  0.8380711E-01
       -1   -1    0    0    0  501  0.00000000000E+00  0.00000000000E+00  0.14162515190E+04  0.14162515190E+04  0.50400001928E-02 0.  1.
        1   -1    0    0  501    0  0.00000000000E+00  0.00000000000E+00 -0.11600089478E+04  0.11600089478E+04  0.50400001928E-02 0. -1.
    10030    2    1    2    0    0  0.00000000000E+00  0.00000000000E+00  0.25624257116E+03  0.25762604668E+04  0.25634854666E+04 0.  0.
        4    1    3    3  502    0  0.29621118276E+03  0.55239760950E+03 -0.99547476787E+03  0.11763740095E+04  0.12699999809E+01 0. -1.
       -4    1    3    3    0  502 -0.29621118276E+03 -0.55239760950E+03  0.12517173390E+04  0.13998864574E+04  0.12699999809E+01 0.  1.
</event>
<event>
 5   0  0.1846850E-06  0.3263408E+04  0.7818609E-02  0.8172269E-01
        1   -1    0    0  501    0  0.00000000000E+00  0.00000000000E+00  0.15914342973E+04  0.15914342973E+04  0.50400001928E-02 0. -1.
       -1   -1    0    0    0  501  0.00000000000E+00  0.00000000000E+00 -0.16729926560E+04  0.16729926560E+04  0.50400001928E-02 0.  1.
    10030    2    1    2    0    0  0.00000000000E+00  0.00000000000E+00 -0.81558358742E+02  0.32644269533E+04  0.32634079683E+04 0.  0.
        5    1    3    3  502    0  0.57556603513E+03 -0.93732871820E+03  0.11648250993E+04  0.16020926904E+04  0.46999998093E+01 0. -1.
       -5    1    3    3    0  502 -0.57556603513E+03  0.93732871820E+03 -0.12463834581E+04  0.16623342628E+04  0.46999998093E+01 0.  1.
</event>
<event>
 5   0  0.5131083E-06  0.2352146E+04  0.7818609E-02  0.8457640E-01
       -2   -1    0    0    0  501  0.00000000000E+00  0.00000000000E+00  0.92201367918E+03  0.92201367918E+03  0.25500000920E-02 0. -1.
        2   -1    0    0  501    0  0.00000000000E+00  0.00000000000E+00 -0.15001379705E+04  0.15001379705E+04  0.25500000920E-02 0.  1.
    10030    2    1    2    0    0  0.00000000000E+00  0.00000000000E+00 -0.57812429133E+03  0.24221516497E+04  0.23521460239E+04 0.  0.
        3    1    3    3  502    0  0.38084826028E+03  0.45183270997E+03  0.75803438272E+03  0.96115260534E+03  0.10100000352E+00 0. -1.
       -3    1    3    3    0  502 -0.38084826028E+03 -0.45183270997E+03 -0.13361586740E+04  0.14609990444E+04  0.10100000352E+00 0.  1.
</event>
<event>
 5   0  0.1977015E-06  0.2625836E+04  0.7818609E-02  0.8359478E-01
       -1   -1    0    0    0  501  0.00000000000E+00  0.00000000000E+00  0.11898505919E+04  0.11898505919E+04  0.50400001928E-02 0. -1.
        1   -1    0    0  501    0  0.00000000000E+00  0.00000000000E+00 -0.14487143935E+04  0.14487143935E+04  0.50400001928E-02 0.  1.
    10030    2    1    2    0    0  0.00000000000E+00  0.00000000000E+00 -0.25886380153E+03  0.26385649854E+04  0.26258360030E+04 0.  0.
        1    1    3    3  502    0 -0.61152653284E+03 -0.67936592873E+03  0.81760745578E+03  0.12263705465E+04  0.50400001928E-02 0. -1.
       -1    1    3    3    0  502  0.61152653284E+03  0.67936592873E+03 -0.10764712573E+04  0.14121944389E+04  0.50400001928E-02 0.  1.
</event>
<event>
 5   0  0.5108810E-06  0.3136055E+04  0.7818609E-02  0.8205912E-01
        2   -1    0    0  501    0  0.00000000000E+00  0.00000000000E+00  0.16299056246E+04  0.16299056246E+04  0.25500000920E-02 0. -1.
       -2   -1    0    0    0  501  0.00000000000E+00  0.00000000000E+00 -0.15084983867E+04  0.15084983867E+04  0.25500000920E-02 0.  1.
    10030    2    1    2    0    0  0.00000000000E+00  0.00000000000E+00  0.12140723788E+03  0.31384040113E+04  0.31360548497E+04 0.  0.
        1    1    3    3  502    0  0.11516854032E+04  0.64405390171E+03  0.90840679915E+03  0.16019948842E+04  0.50400001928E-02 0. -1.
       -1    1    3    3    0  502 -0.11516854032E+04 -0.64405390171E+03 -0.78699956127E+03  0.15364091271E+04  0.50400001928E-02 0.  1.
</event>
<event>
 5   0  0.1886248E-06  0.2570236E+04  0.7818609E-02  0.8378382E-01
        1   -1    0    0  501    0  0.00000000000E+00  0.00000000000E+00  0.11761096539E+04  0.11761096539E+04  0.50400001928E-02 0.  1.
       -1   -1    0    0    0  501  0.00000000000E+00  0.00000000000E+00 -0.14042297275E+04  0.14042297275E+04  0.50400001928E-02 0. -1.
    10030    2    1    2    0    0  0.00000000000E+00  0.00000000000E+00 -0.22812007355E+03  0.25803393814E+04  0.25702358949E+04 0.  0.
        4    1    3    3  502    0  0.41137585496E+03 -0.13220639486E+03  0.11009942040E+04  0.11827503858E+04  0.12699999809E+01 0.  1.
       -4    1    3    3    0  502 -0.41137585496E+03  0.13220639486E+03 -0.13291142776E+04  0.13975889956E+04  0.12699999809E+01 0. -1.
</event>
<event>
 5   0  0.1846850E-06  0.3171388E+04  0.7818609E-02  0.8196415E-01
        1   -1    0    0  501    0  0.00000000000E+00  0.00000000000E+00  0.13417116618E+04  0.13417116619E+04  0.50400001928E-02 0.  1.
       -1   -1    0    0    0  501  0.00000000000E+00  0.00000000000E+00 -0.18740431988E+04  0.18740431988E+04  0.50400001928E-02 0. -1.
    10030    2    1    2    0    0  0.00000000000E+00  0.00000000000E+00 -0.53233153692E+03  0.32157548606E+04  0.31713880965E+04 0.  0.
        5    1    3    3  502    0 -0.81391798730E+03 -0.66878694968E+03  0.93560028269E+03  0.14089387684E+04  0.46999998093E+01 0.  1.
       -5    1    3    3    0  502  0.81391798730E+03  0.66878694968E+03 -0.14679318196E+04  0.18068160922E+04  0.46999998093E+01 0. -1.
</event>
<event>
 5   0  0.1969465E-06  0.3206569E+04  0.7818609E-02  0.8187084E-01
       -1   -1    0    0    0  501  0.00000000000E+00  0.00000000000E+00  0.21029098163E+04  0.21029098164E+04  0.50400001928E-02 0.  1.
        1   -1    0    0  501    0  0.00000000000E+00  0.00000000000E+00 -0.12223642788E+04  0.12223642788E+04  0.50400001928E-02 0. -1.
    10030    2    1    2    0    0  0.00000000000E+00  0.00000000000E+00  0.88054553754E+03  0.33252740952E+04  0.32065694074E+04 0.  0.
        2    1    3    3  502    0 -0.44353358167E+03  0.14052218545E+04 -0.21489964267E+03  0.14891448401E+04  0.25500000920E-02 0.  1.
       -2    1    3    3    0  502  0.44353358167E+03 -0.14052218545E+04  0.10954451802E+04  0.18361292551E+04  0.25500000920E-02 0. -1.
</event>
<event>
 5   0  0.1886248E-06  0.3328404E+04  0.7818609E-02  0.8155705E-01
       -1   -1    0    0    0  501  0.00000000000E+00  0.00000000000E+00  0.12589996309E+04  0.12589996310E+04  0.50400001928E-02 0.  1.
        1   -1    0    0  501    0  0.00000000000E+00  0.00000000000E+00 -0.21998172340E+04  0.21998172340E+04  0.50400001928E-02 0. -1.
    10030    2    1    2    0    0  0.00000000000E+00  0.00000000000E+00 -0.94081760309E+03  0.34588168650E+04  0.33284044741E+04 0.  0.
        4    1    3    3  502    0  0.17611567406E+03 -0.66324502825E+03 -0.20459455430E+04  0.21579632703E+04  0.12699999809E+01 0. -1.
       -4    1    3    3    0  502 -0.17611567406E+03  0.66324502825E+03  0.11051279400E+04  0.13008535947E+04  0.12699999809E+01 0.  1.
</event>
<event>
 5   0  0.1846850E-06  0.3277964E+04  0.7818609E-02  0.8168525E-01
       -1   -1    0    0    0  501  0.00000000000E+00  0.00000000000E+00  0.15214029811E+04  0.15214029811E+04  0.50400001928E-02 0. -1.
        1   -1    0    0  501    0  0.00000000000E+00  0.00000000000E+00 -0.17656473976E+04  0.17656473976E+04  0.50400001928E-02 0.  1.
    10030    2    1    2    0    0  0.00000000000E+00  0.00000000000E+00 -0.24424441654E+03  0.32870503787E+04  0.32779635229E+04 0.  0.
        5    1    3    3  502    0 -0.36474327634E+03 -0.85205968247E+03 -0.14776074199E+04  0.17442445750E+04  0.46999998093E+01 0.  1.
       -5    1    3    3    0  502  0.36474327634E+03  0.85205968247E+03  0.12333630033E+04  0.15428058038E+04  0.46999998093E+01 0. -1.
</event>
<event>
 5   0  0.5347280E-06  0.2072202E+04  0.7818609E-02  0.8573589E-01
       -2   -1    0    0    0  501  0.00000000000E+00  0.00000000000E+00  0.58738864706E+03  0.58738864706E+03  0.25500000920E-02 0. -1.
        2   -1    0    0  501    0  0.00000000000E+00  0.00000000000E+00 -0.18275888467E+04  0.18275888467E+04  0.25500000920E-02 0.  1.
    10030    2    1    2    0    0  0.00000000000E+00  0.00000000000E+00 -0.12402001996E+04  0.24149774937E+04  0.20722016697E+04 0.  0.
        2    1    3    3  502    0 -0.67053889929E+03  0.70651925980E+03 -0.20853642509E+03  0.99613218025E+03  0.25500000920E-02 0. -1.
       -2    1    3    3    0  502  0.67053889929E+03 -0.70651925980E+03 -0.10316637745E+04  0.14188453135E+04  0.25500000920E-02 0.  1.
</event>
<event>
 5   0  0.1977015E-06  0.3245348E+04  0.7818609E-02  0.8176942E-01
       -1   -1    0    0    0  501  0.00000000000E+00  0.00000000000E+00  0.13114566283E+04  0.13114566283E+04  0.50400001928E-02 0. -1.
        1   -1    0    0  501    0  0.00000000000E+00  0.00000000000E+00 -0.20077456517E+04  0.20077456517E+04  0.50400001928E-02 0.  1.
    10030    2    1    2    0    0  0.00000000000E+00  0.00000000000E+00 -0.69628902340E+03  0.33192022800E+04  0.32453482666E+04 0.  0.
        1    1    3    3  502    0 -0.26724564819E+03 -0.15003679117E+04 -0.91809383882E+03  0.17791628379E+04  0.50400001928E-02 0.  1.
       -1    1    3    3    0  502  0.26724564819E+03  0.15003679117E+04  0.22180481542E+03  0.15400394421E+04  0.50400001928E-02 0. -1.
</event>
<event>
 5   0  0.1977015E-06  0.3219675E+04  0.7818609E-02  0.8183640E-01
        1   -1    0    0  501    0  0.00000000000E+00  0.00000000000E+00  0.13087105130E+04  0.13087105130E+04  0.50400001928E-02 0. -1.
       -1   -1    0    0    0  501  0.00000000000E+00  0.00000000000E+00 -0.19802520067E+04  0.19802520067E+04  0.50400001928E-02 0.  1.
    10030    2    1    2    0    0  0.00000000000E+00  0.00000000000E+00 -0.67154149372E+03  0.32889625197E+04  0.32196749026E+04 0.  0.
        1    1    3    3  502    0  0.15848351366E+04  0.23482909741E+03 -0.49641108404E+03  0.16772808589E+04  0.50400001928E-02 0.  1.
       -1    1    3    3    0  502 -0.15848351366E+04 -0.23482909741E+03 -0.17513040969E+03  0.16116816608E+04  0.50400001928E-02 0. -1.
</event>
<event>
 5   0  0.1977015E-06  0.3131848E+04  0.7818609E-02  0.8207052E-01
        1   -1    0    0  501    0  0.00000000000E+00  0.00000000000E+00  0.26029037258E+04  0.26029037258E+04  0.50400001928E-02 0. -1.
       -1   -1    0    0    0  501  0.00000000000E+00  0.00000000000E+00 -0.94206996868E+03  0.94206996869E+03  0.50400001928E-02 0.  1.
    10030    2    1    2    0    0  0.00000000000E+00  0.00000000000E+00  0.16608337571E+04  0.35449736945E+04  0.31318476537E+04 0.  0.
        1    1    3    3  502    0  0.33991464812E+03  0.11794714058E+04 -0.27017269444E+03  0.12568564158E+04  0.50400001928E-02 0.  1.
       -1    1    3    3    0  502 -0.33991464812E+03 -0.11794714058E+04  0.19310064515E+04  0.22881172787E+04  0.50400001928E-02 0. -1.
</event>
<event>
 5   0  0.5121624E-06  0.3227042E+04  0.7818609E-02  0.8181712E-01
        2   -1    0    0  501    0  0.00000000000E+00  0.00000000000E+00  0.15717336678E+04  0.15717336678E+04  0.25500000920E-02 0.  1.
       -2   -1    0    0    0  501  0.00000000000E+00  0.00000000000E+00 -0.16564189442E+04  0.16564189442E+04  0.25500000920E-02 0. -1.
    10030    2    1    2    0    0  0.00000000000E+00  0.00000000000E+00 -0.84685276419E+02  0.32281526121E+04  0.32270416314E+04 0.  0.
        4    1    3    3  502    0  0.15296315266E+04  0.51339774660E+03 -0.52243341698E+02  0.16143360347E+04  0.12699999809E+01 0. -1.
       -4    1    3    3    0  502 -0.15296315266E+04 -0.51339774660E+03 -0.32441934721E+02  0.16138165774E+04  0.12699999809E+01 0.  1.
</event>
<event>
 5   0  0.1881144E-06  0.3075918E+04  0.7818609E-02  0.8222378E-01
        1   -1    0    0  501    0  0.00000000000E+00  0.00000000000E+00  0.18630265420E+04  0.18630265420E+04  0.50400001928E-02 0.  1.
       -1   -1    0    0    0  501  0.00000000000E+00  0.00000000000E+00 -0.12696101855E+04  0.12696101855E+04  0.50400001928E-02 0. -1.
    10030    2    1    2    0    0  0.00000000000E+00  0.00000000000E+00  0.59341635645E+03  0.31326367275E+04  0.30759177321E+04 0.  0.
        3    1    3    3  502    0 -0.13780897306E+04  0.65554080415E+03  0.10226242885E+03  0.15294844446E+04  0.10100000352E+00 0. -1.
       -3    1    3    3    0  502  0.13780897306E+04 -0.65554080415E+03  0.49115392760E+03  0.16031522830E+04  0.10100000352E+00 0.  1.
</event>
<event>
 5   0  0.5121624E-06  0.2923844E+04  0.7818609E-02  0.8265818E-01
        2   -1    0    0  501    0  0.00000000000E+00  0.00000000000E+00  0.11862617116E+04  0.11862617116E+04  0.25500000920E-02 0. -1.
       -2   -1    0    0    0  501  0.00000000000E+00  0.00000000000E+00 -0.18016390828E+04  0.18016390828E+04  0.25500000920E-02 0.  1.
    10030    2    1    2    0    0  0.00000000000E+00  0.00000000000E+00 -0.61537737118E+03  0.29879007944E+04  0.29238436771E+04 0.  0.
        4    1    3    3  502    0  0.14493218711E+04  0.18383721865E+03 -0.25281076881E+03  0.14826479375E+04  0.12699999809E+01 0.  1.
       -4    1    3    3    0  502 -0.14493218711E+04 -0.18383721865E+03 -0.36256660237E+03  0.15052528568E+04  0.12699999809E+01 0. -1.
</event>
<event>
 5   0  0.5131083E-06  0.3154202E+04  0.7818609E-02  0.8201018E-01
       -2   -1    0    0    0  501  0.00000000000E+00  0.00000000000E+00  0.14538345212E+04  0.14538345212E+04  0.25500000920E-02 0. -1.
        2   -1    0    0  501    0  0.00000000000E+00  0.00000000000E+00 -0.17108193208E+04  0.17108193208E+04  0.25500000920E-02 0.  1.
    10030    2    1    2    0    0  0.00000000000E+00  0.00000000000E+00 -0.25698479964E+03  0.31646538420E+04  0.31542023957E+04 0.  0.
        3    1    3    3  502    0  0.17008360489E+03  0.10081464703E+04 -0.13332878763E+04  0.16801619891E+04  0.10100000352E+00 0.  1.
       -3    1    3    3    0  502 -0.17008360489E+03 -0.10081464703E+04  0.10763030767E+04  0.14844918529E+04  0.10100000352E+00 0. -1.
</event>
<event>
 5   0  0.5108810E-06  0.3197729E+04  0.7818609E-02  0.8189417E-01
       -2   -1    0    0    0  501  0.00000000000E+00  0.00000000000E+00  0.96353274090E+03  0.96353274090E+03  0.25500000920E-02 0.  1.
        2   -1    0    0  501    0  0.00000000000E+00  0.00000000000E+00 -0.26531204117E+04  0.26531204117E+04  0.25500000920E-02 0. -1.
    10030    2    1    2    0    0  0.00000000000E+00  0.00000000000E+00 -0.16895876708E+04  0.36166531526E+04  0.31977294333E+04 0.  0.
        1    1    3    3  502    0  0.85617257437E+03  0.17978166918E+03  0.66881903947E+03  0.11012138000E+04  0.50400001928E-02 0.  1.
       -1    1    3    3    0  502 -0.85617257437E+03 -0.17978166918E+03 -0.23584067102E+04  0.25154393526E+04  0.50400001928E-02 0. -1.
</event>
<event>
 5   0  0.5121624E-06  0.3350372E+04  0.7818609E-02  0.8150195E-01
       -2   -1    0    0    0  501  0.00000000000E+00  0.00000000000E+00  0.12017274239E+04  0.12017274239E+04  0.25500000920E-02 0.  1.
        2   -1    0    0  501    0  0.00000000000E+00  0.00000000000E+00 -0.23351791747E+04  0.23351791747E+04  0.25500000920E-02 0. -1.
    10030    2    1    2    0    0  0.00000000000E+00  0.00000000000E+00 -0.11334517508E+04  0.35369065987E+04  0.33503724295E+04 0.  0.
        4    1    3    3  502    0  0.16108107470E+04 -0.21206276756E+03 -0.99757265419E+03  0.19065242441E+04  0.12699999809E+01 0. -1.
       -4    1    3    3    0  502 -0.16108107470E+04  0.21206276756E+03 -0.13587909664E+03  0.16303823545E+04  0.12699999809E+01 0.  1.
</event>
<event>
 5   0  0.1881144E-06  0.3154664E+04  0.7818609E-02  0.8200894E-01
       -1   -1    0    0    0  501  0.00000000000E+00  0.00000000000E+00  0.10773999285E+04  0.10773999285E+04  0.50400001928E-02 0.  1.
        1   -1    0    0  501    0  0.00000000000E+00  0.00000000000E+00 -0.23092407744E+04  0.23092407744E+04  0.50400001928E-02 0. -1.
    10030    2    1    2    0    0  0.00000000000E+00  0.00000000000E+00 -0.12318408459E+04  0.33866407029E+04  0.31546637508E+04 0.  0.
        3    1    3    3  502    0 -0.61969986463E+02  0.12682162631E+04 -0.16205578673E+04  0.20587424756E+04  0.10100000352E+00 0. -1.
       -3    1    3    3    0  502  0.61969986463E+02 -0.12682162631E+04  0.38871702137E+03  0.13278982273E+04  0.10100000352E+00 0.  1.
</event>
<event>
 5   0  0.5131083E-06  0.3155845E+04  0.7818609E-02  0.8200577E-01
       -2   -1    0    0    0  501  0.00000000000E+00  0.00000000000E+00  0.19994485866E+04  0.19994485866E+04  0.25500000920E-02 0.  1.
        2   -1    0    0  501    0  0.00000000000E+00  0.00000000000E+00 -0.12452629521E+04  0.12452629521E+04  0.25500000920E-02 0. -1.
    10030    2    1    2    0    0  0.00000000000E+00  0.00000000000E+00  0.75418563459E+03  0.32447115387E+04  0.31558448945E+04 0.  0.
        3    1    3    3  502    0 -0.12879863369E+04  0.66671140998E+03  0.10162295806E+04  0.17709137412E+04  0.10100000352E+00 0.  1.
       -3    1    3    3    0  502  0.12879863369E+04 -0.66671140998E+03 -0.26204394596E+03  0.14737977975E+04  0.10100000352E+00 0. -1.
</event>
<event>
 5   0  0.1881144E-06  0.3156805E+04  0.7818609E-02  0.8200319E-01
       -1   -1    0    0    0  501  0.00000000000E+00  0.00000000000E+00  0.13731341301E+04  0.13731341301E+04  0.50400001928E-02 0.  1.
        1   -1    0    0  501    0  0.00000000000E+00  0.00000000000E+00 -0.18143559244E+04  0.18143559244E+04  0.50400001928E-02 0. -1.
    10030    2    1    2    0    0  0.00000000000E+00  0.00000000000E+00 -0.44122179431E+03  0.31874900545E+04  0.31568047414E+04 0.  0.
        3    1    3    3  502    0  0.43842693803E+03  0.14511827977E+04 -0.66443364573E+03  0.16551802839E+04  0.10100000352E+00 0. -1.
       -3    1    3    3    0  502 -0.43842693803E+03 -0.14511827977E+04  0.22321185143E+03  0.15323097706E+04  0.10100000352E+00 0.  1.
</event>
<event>
 5   0  0.5121624E-06  0.3189248E+04  0.7818609E-02  0.8191663E-01
        2   -1    0    0  501    0  0.00000000000E+00  0.00000000000E+00  0.28991140590E+04  0.28991140590E+04  0.25500000920E-02 0.  1.
       -2   -1    0    0    0  501  0.00000000000E+00  0.00000000000E+00 -0.87710432227E+03  0.87710432228E+03  0.25500000920E-02 0. -1.
    10030    2    1    2    0    0  0.00000000000E+00  0.00000000000E+00  0.20220097367E+04  0.37762183812E+04  0.31892478561E+04 0.  0.
        4    1    3    3  502    0  0.31248264981E+03 -0.12059675451E+04 -0.16759495700E+03  0.12570174258E+04  0.12699999809E+01 0. -1.
       -4    1    3    3    0  502 -0.31248264981E+03  0.12059675451E+04  0.21896046937E+04  0.25192009554E+04  0.12699999809E+01 0.  1.
</event>
<event>
 5   0  0.5347280E-06  0.3189034E+04  0.7818609E-02  0.8191719E-01
        2   -1    0    0  501    0  0.00000000000E+00  0.00000000000E+00  0.17274887031E+04  0.17274887031E+04  0.25500000920E-02 0.  1.
       -2   -1    0    0    0  501  0.00000000000E+00  0.00000000000E+00 -0.14717807850E+04  0.14717807850E+04  0.25500000920E-02 0. -1.
    10030    2    1    2    0    0  0.00000000000E+00  0.00000000000E+00  0.25570791814E+03  0.31992694881E+04  0.31890341356E+04 0.  0.
        2    1    3    3  502    0 -0.42448391139E+03  0.92690579351E+01 -0.14140279317E+04  0.14763967956E+04  0.25500000920E-02 0. -1.
       -2    1    3    3    0  502  0.42448391139E+03 -0.92690579351E+01  0.16697358498E+04  0.17228726925E+04  0.25500000920E-02 0.  1.
</event>
<event>
 5   0  0.5108810E-06  0.3180800E+04  0.7818609E-02  0.8193906E-01
        2   -1    0    0  501    0  0.00000000000E+00  0.00000000000E+00  0.16834031906E+04  0.16834031906E+04  0.25500000920E-02 0. -1.
       -2   -1    0    0    0  501  0.00000000000E+00  0.00000000000E+00 -0.15025347801E+04  0.15025347801E+04  0.25500000920E-02 0.  1.
    10030    2    1    2    0    0  0.00000000000E+00  0.00000000000E+00  0.18086841050E+03  0.31859379707E+04  0.31807998005E+04 0.  0.
        1    1    3    3  502    0 -0.90516952532E+03  0.68676440552E+03  0.12050636451E+04  0.16562474474E+04  0.50400001928E-02 0. -1.
       -1    1    3    3    0  502  0.90516952532E+03 -0.68676440552E+03 -0.10241952346E+04  0.15296905233E+04  0.50400001928E-02 0.  1.
</event>
<event>
 5   0  0.5108810E-06  0.3193940E+04  0.7818609E-02  0.8190420E-01
        2   -1    0    0  501    0  0.00000000000E+00  0.00000000000E+00  0.31856862035E+04  0.31856862035E+04  0.25500000920E-02 0. -1.
       -2   -1    0    0    0  501  0.00000000000E+00  0.00000000000E+00 -0.80055360493E+03  0.80055360494E+03  0.25500000920E-02 0.  1.
    10030    2    1    2    0    0  0.00000000000E+00  0.00000000000E+00  0.23851325986E+04  0.39862398084E+04  0.31939396202E+04 0.  0.
        1    1    3    3  502    0 -0.85001831208E+03  0.72972339736E+03  0.26129949476E+04  0.28430212739E+04  0.50400001928E-02 0. -1.
       -1    1    3    3    0  502  0.85001831208E+03 -0.72972339736E+03 -0.22786234907E+03  0.11432185345E+04  0.50400001928E-02 0.  1.
</event>
<event>
 5   0  0.5347280E-06  0.3193936E+04  0.7818609E-02  0.8190420E-01
       -2   -1    0    0    0  501  0.00000000000E+00  0.00000000000E+00  0.10478238312E+04  0.10478238312E+04  0.25500000920E-02 0. -1.
        2   -1    0    0  501    0  0.00000000000E+00  0.00000000000E+00 -0.24339087160E+04  0.24339087160E+04  0.25500000920E-02 0.  1.
    10030    2    1    2    0    0  0.00000000000E+00  0.00000000000E+00 -0.13860848848E+04  0.34817325472E+04  0.31939364775E+04 0.  0.
        2    1    3    3  502    0 -0.93159541873E+03  0.88427869484E+03  0.34140462241E+03  0.13290507705E+04  0.25500000920E-02 0. -1.
       -2    1    3    3    0  502  0.93159541873E+03 -0.88427869484E+03 -0.17274895072E+04  0.21526817768E+04  0.25500000920E-02 0.  1.
</event>
<event>
 5   0  0.1969465E-06  0.2118935E+04  0.7818609E-02  0.8552948E-01
        1   -1    0    0  501    0  0.00000000000E+00  0.00000000000E+00  0.15387563582E+04  0.15387563582E+04  0.50400001928E-02 0.  1.
       -1   -1    0    0    0  501  0.00000000000E+00  0.00000000000E+00 -0.72946669263E+03  0.72946669265E+03  0.50400001928E-02 0. -1.
    10030    2    1    2    0    0  0.00000000000E+00  0.00000000000E+00  0.80928966554E+03  0.22682230508E+04  0.21189351207E+04 0.  0.
        2    1    3    3  502    0 -0.94110251864E+02  0.63061757953E+03  0.13103884321E+04  0.14572759225E+04  0.25500000920E-02 0.  1.
       -2    1    3    3    0  502  0.94110251864E+02 -0.63061757953E+03 -0.50109876659E+03  0.81094712837E+03  0.25500000920E-02 0. -1.
</event>
<event>
 5   0  0.1969465E-06  0.3136453E+04  0.7818609E-02  0.8205804E-01
       -1   -1    0    0    0  501  0.00000000000E+00  0.00000000000E+00  0.19069896692E+04  0.19069896692E+04  0.50400001928E-02 0.  1.
        1   -1    0    0  501    0  0.00000000000E+00  0.00000000000E+00 -0.12896420205E+04  0.12896420205E+04  0.50400001928E-02 0. -1.
    10030    2    1    2    0    0  0.00000000000E+00  0.00000000000E+00  0.61734764873E+03  0.31966316897E+04  0.31364527799E+04 0.  0.
        2    1    3    3  502    0  0.66582153192E+03 -0.56998311847E+03 -0.10167140058E+04  0.13423510857E+04  0.25500000920E-02 0. -1.
       -2    1    3    3    0  502 -0.66582153192E+03  0.56998311847E+03  0.16340616545E+04  0.18542806040E+04  0.25500000920E-02 0.  1.
</event>
<event>
 5   0  0.1886248E-06  0.2980804E+04  0.7818609E-02  0.8249234E-01
        1   -1    0    0  501    0  0.00000000000E+00  0.00000000000E+00  0.19764127957E+04  0.19764127957E+04  0.50400001928E-02 0. -1.
       -1   -1    0    0    0  501  0.00000000000E+00  0.00000000000E+00 -0.11239041094E+04  0.11239041094E+04  0.50400001928E-02 0.  1.
    10030    2    1    2    0    0  0.00000000000E+00  0.00000000000E+00  0.85250868633E+03  0.31003169051E+04  0.29808042291E+04 0.  0.
        4    1    3    3  502    0 -0.18546814231E+03 -0.11888983804E+04 -0.48844858593E+03  0.12986382963E+04  0.12699999809E+01 0.  1.
       -4    1    3    3    0  502  0.18546814231E+03  0.11888983804E+04  0.13409572723E+04  0.18016786088E+04  0.12699999809E+01 0. -1.
</event>
<event>
 5   0  0.1846850E-06  0.3226424E+04  0.7818609E-02  0.8181873E-01
        1   -1    0    0  501    0  0.00000000000E+00  0.00000000000E+00  0.17987114014E+04  0.17987114014E+04  0.50400001928E-02 0. -1.
       -1   -1    0    0    0  501  0.00000000000E+00  0.00000000000E+00 -0.14468428126E+04  0.14468428126E+04  0.50400001928E-02 0.  1.
    10030    2    1    2    0    0  0.00000000000E+00  0.00000000000E+00  0.35186858886E+03  0.32455542140E+04  0.32264238178E+04 0.  0.
        5    1    3    3  502    0  0.96904976798E+03  0.10740325777E+04  0.89418974338E+03  0.17006471762E+04  0.46999998093E+01 0. -1.
       -5    1    3    3    0  502 -0.96904976798E+03 -0.10740325777E+04 -0.54232115452E+03  0.15449070378E+04  0.46999998093E+01 0.  1.
</event>
<event>
 5   0  0.1846850E-06  0.2454015E+04  0.7818609E-02  0.8419553E-01
        1   -1    0    0  501    0  0.00000000000E+00  0.00000000000E+00  0.15117521121E+04  0.15117521121E+04  0.50400001928E-02 0. -1.
       -1   -1    0    0    0  501  0.00000000000E+00  0.00000000000E+00 -0.99589596168E+03  0.99589596169E+03  0.50400001928E-02 0.  1.
    10030    2    1    2    0    0  0.00000000000E+00  0.00000000000E+00  0.51585615042E+03  0.25076480738E+04  0.24540153411E+04 0.  0.
        5    1    3    3  502    0  0.50008293632E+03 -0.40394196098E+03  0.13258882275E+04  0.14735174694E+04  0.46999998093E+01 0. -1.
       -5    1    3    3    0  502 -0.50008293632E+03  0.40394196098E+03 -0.81003207704E+03  0.10341306044E+04  0.46999998093E+01 0.  1.
</event>
<event>
 5   0  0.5131083E-06  0.2973650E+04  0.7818609E-02  0.8251296E-01
       -2   -1    0    0    0  501  0.00000000000E+00  0.00000000000E+00  0.92679051274E+03  0.92679051275E+03  0.25500000920E-02 0.  1.
        2   -1    0    0  501    0  0.00000000000E+00  0.00000000000E+00 -0.23852724351E+04  0.23852724351E+04  0.25500000920E-02 0. -1.
    10030    2    1    2    0    0  0.00000000000E+00  0.00000000000E+00 -0.14584819223E+04  0.33120629478E+04  0.29736495174E+04 0.  0.
        3    1    3    3  502    0  0.13447085828E+04 -0.11942247537E+03 -0.35326762989E+02  0.13504632134E+04  0.10100000352E+00 0.  1.
       -3    1    3    3    0  502 -0.13447085828E+04  0.11942247537E+03 -0.14231551593E+04  0.19615997344E+04  0.10100000352E+00 0. -1.
</event>
<event>
 5   0  0.5131083E-06  0.3215188E+04  0.7818609E-02  0.8184817E-01
        2   -1    0    0  501    0  0.00000000000E+00  0.00000000000E+00  0.24690487822E+04  0.24690487822E+04  0.25500000920E-02 0.  1.
       -2   -1    0    0    0  501  0.00000000000E+00  0.00000000000E+00 -0.10467022104E+04  0.10467022104E+04  0.25500000920E-02 0. -1.
    10030    2    1    2    0    0  0.00000000000E+00  0.00000000000E+00  0.14223465718E+04  0.35157509925E+04  0.32151882171E+04 0.  0.
        3    1    3    3  502    0 -0.48531242368E+03  0.35926896066E+03  0.23403356622E+04  0.24169760770E+04  0.10100000352E+00 0.  1.
       -3    1    3    3    0  502  0.48531242368E+03 -0.35926896066E+03 -0.91798909042E+03  0.10987749155E+04  0.10100000352E+00 0. -1.
</event>
<event>
 5   0  0.1846850E-06  0.2282623E+04  0.7818609E-02  0.8484804E-01
        1   -1    0    0  501    0  0.00000000000E+00  0.00000000000E+00  0.11367689958E+04  0.11367689958E+04  0.50400001928E-02 0.  1.
       -1   -1    0    0    0  501  0.00000000000E+00  0.00000000000E+00 -0.11458719624E+04  0.11458719624E+04  0.50400001928E-02 0. -1.
    10030    2    1    2    0    0  0.00000000000E+00  0.00000000000E+00 -0.91029665890E+01  0.22826409583E+04  0.22826228073E+04 0.  0.
        5    1    3    3  502    0 -0.14799149195E+03  0.14710088458E+03 -0.11266252337E+04  0.11457952082E+04  0.46999998093E+01 0. -1.
       -5    1    3    3    0  502  0.14799149195E+03 -0.14710088458E+03  0.11175222671E+04  0.11368457501E+04  0.46999998093E+01 0.  1.
</event>
<event>
 5   0  0.5108810E-06  0.3200702E+04  0.7818609E-02  0.8188632E-01
       -2   -1    0    0    0  501  0.00000000000E+00  0.00000000000E+00  0.12640969841E+04  0.12640969841E+04  0.25500000920E-02 0. -1.
        2   -1    0    0  501    0  0.00000000000E+00  0.00000000000E+00 -0.20260493504E+04  0.20260493504E+04  0.25500000920E-02 0.  1.
    10030    2    1    2    0    0  0.00000000000E+00  0.00000000000E+00 -0.76195236627E+03  0.32901463345E+04  0.32007017190E+04 0.  0.
        1    1    3    3  502    0  0.10863379443E+04 -0.11726022925E+04 -0.30137439250E+03  0.16266384940E+04  0.50400001928E-02 0. -1.
       -1    1    3    3    0  502 -0.10863379443E+04  0.11726022925E+04 -0.46057797377E+03  0.16635078405E+04  0.50400001928E-02 0.  1.
</event>
<event>
 5   0  0.1969465E-06  0.3113763E+04  0.7818609E-02  0.8211971E-01
        1   -1    0    0  501    0  0.00000000000E+00  0.00000000000E+00  0.18914451555E+04  0.18914451555E+04  0.50400001928E-02 0. -1.
       -1   -1    0    0    0  501  0.00000000000E+00  0.00000000000E+00 -0.12814967013E+04  0.12814967013E+04  0.50400001928E-02 0.  1.
    10030    2    1    2    0    0  0.00000000000E+00  0.00000000000E+00  0.60994845414E+03  0.31729418568E+04  0.31137634640E+04 0.  0.
        2    1    3    3  502    0  0.46448363626E+03  0.30993353569E+03  0.17858934039E+04  0.18711544818E+04  0.25500000920E-02 0. -1.
       -2    1    3    3    0  502 -0.46448363626E+03 -0.30993353569E+03 -0.11759449497E+04  0.13017873750E+04  0.25500000920E-02 0.  1.
</event>
<event>
 5   0  0.5131083E-06  0.3235178E+04  0.7818609E-02  0.8179588E-01
       -2   -1    0    0    0  501  0.00000000000E+00  0.00000000000E+00  0.84652414066E+03  0.84652414066E+03  0.25500000920E-02 0. -1.
        2   -1    0    0  501    0  0.00000000000E+00  0.00000000000E+00 -0.30909859406E+04  0.30909859406E+04  0.25500000920E-02 0.  1.
    10030    2    1    2    0    0  0.00000000000E+00  0.00000000000E+00 -0.22444618000E+04  0.39375100813E+04  0.32351780274E+04 0.  0.
        3    1    3    3  502    0  0.17414613078E+03 -0.81227250647E+03 -0.28115271832E+04  0.29316886962E+04  0.10100000352E+00 0.  1.
       -3    1    3    3    0  502 -0.17414613078E+03  0.81227250647E+03  0.56706538321E+03  0.10058213851E+04  0.10100000352E+00 0. -1.
</event>
<event>
 5   0  0.5121624E-06  0.2706736E+04  0.7818609E-02  0.8332823E-01
       -2   -1    0    0    0  501  0.00000000000E+00  0.00000000000E+00  0.14094254870E+04  0.14094254870E+04  0.25500000920E-02 0. -1.
        2   -1    0    0  501    0  0.00000000000E+00  0.00000000000E+00 -0.12995401793E+04  0.12995401793E+04  0.25500000920E-02 0.  1.
    10030    2    1    2    0    0  0.00000000000E+00  0.00000000000E+00  0.10988530765E+03  0.27089656663E+04  0.27067360788E+04 0.  0.
        4    1    3    3  502    0  0.13368835536E+04  0.84164690725E+02 -0.13825030233E+03  0.13466462379E+04  0.12699999809E+01 0.  1.
       -4    1    3    3    0  502 -0.13368835536E+04 -0.84164690725E+02  0.24813560998E+03  0.13623194284E+04  0.12699999809E+01 0. -1.
</event>
<event>
 5   0  0.5373060E-06  0.3222195E+04  0.7818609E-02  0.8182980E-01
        2   -1    0    0  501    0  0.00000000000E+00  0.00000000000E+00  0.16740959558E+04  0.16740959558E+04  0.25500000920E-02 0.  1.
       -2   -1    0    0    0  501  0.00000000000E+00  0.00000000000E+00 -0.15504695328E+04  0.15504695328E+04  0.25500000920E-02 0. -1.
    10030    2    1    2    0    0  0.00000000000E+00  0.00000000000E+00  0.12362642304E+03  0.32245654886E+04  0.32221947641E+04 0.  0.
        5    1    3    3  502    0 -0.14289577595E+04 -0.51515704070E+03 -0.47552283439E+03  0.15916818498E+04  0.46999998093E+01 0. -1.
       -5    1    3    3    0  502  0.14289577595E+04  0.51515704070E+03  0.59914925743E+03  0.16328836387E+04  0.46999998093E+01 0.  1.
</event>
<event>
 5   0  0.1977015E-06  0.3153910E+04  0.7818609E-02  0.8201097E-01
       -1   -1    0    0    0  501  0.00000000000E+00  0.00000000000E+00  0.12434682594E+04  0.12434682594E+04  0.50400001928E-02 0.  1.
        1   -1    0    0  501    0  0.00000000000E+00  0.00000000000E+00 -0.19998793722E+04  0.19998793722E+04  0.50400001928E-02 0. -1.
    10030    2    1    2    0    0  0.00000000000E+00  0.00000000000E+00 -0.75641111275E+03  0.32433476316E+04  0.31539096512E+04 0.  0.
        1    1    3    3  502    0  0.10726824138E+04  0.10982616137E+04 -0.74892874626E+03  0.17081336013E+04  0.50400001928E-02 0.  1.
       -1    1    3    3    0  502 -0.10726824138E+04 -0.10982616137E+04 -0.74823664879E+01  0.15352140303E+04  0.50400001928E-02 0. -1.
</event>
<event>
 5   0  0.1881144E-06  0.3037170E+04  0.7818609E-02  0.8233196E-01
       -1   -1    0    0    0  501  0.00000000000E+00  0.00000000000E+00  0.12794201966E+04  0.12794201966E+04  0.50400001928E-02 0. -1.
        1   -1    0    0  501    0  0.00000000000E+00  0.00000000000E+00 -0.18024569967E+04  0.18024569967E+04  0.50400001928E-02 0.  1.
    10030    2    1    2    0    0  0.00000000000E+00  0.00000000000E+00 -0.52303680013E+03  0.30818771933E+04  0.30371696594E+04 0.  0.
        3    1    3    3  502    0  0.13486606942E+04  0.33642560705E+03 -0.88210253135E+03  0.16462602295E+04  0.10100000352E+00 0.  1.
       -3    1    3    3    0  502 -0.13486606942E+04 -0.33642560705E+03  0.35906573123E+03  0.14356169638E+04  0.10100000352E+00 0. -1.
</event>
<event>
 5   0  0.1886248E-06  0.3271276E+04  0.7818609E-02  0.8170243E-01
       -1   -1    0    0    0  501  0.00000000000E+00  0.00000000000E+00  0.93700837174E+03  0.93700837175E+03  0.50400001928E-02 0. -1.
        1   -1    0    0  501    0  0.00000000000E+00  0.00000000000E+00 -0.28551627519E+04  0.28551627519E+04  0.50400001928E-02 0.  1.
    10030    2    1    2    0    0  0.00000000000E+00  0.00000000000E+00 -0.19181543801E+04  0.37921711236E+04  0.32712758375E+04 0.  0.
        4    1    3    3  502    0 -0.46633525676E+03  0.96014922943E+03  0.47760252852E+03  0.11693848394E+04  0.12699999809E+01 0. -1.
       -4    1    3    3    0  502  0.46633525676E+03 -0.96014922943E+03 -0.23957569086E+04  0.26227862842E+04  0.12699999809E+01 0.  1.
</event>
<event>
 5   0  0.1846850E-06  0.3171400E+04  0.7818609E-02  0.8196411E-01
        1   -1    0    0  501    0  0.00000000000E+00  0.00000000000E+00  0.93833624857E+03  0.93833624859E+03  0.50400001928E-02 0. -1.
       -1   -1    0    0    0  501  0.00000000000E+00  0.00000000000E+00 -0.26796842026E+04  0.26796842026E+04  0.50400001928E-02 0.  1.
    10030    2    1    2    0    0  0.00000000000E+00  0.00000000000E+00 -0.17413479541E+04  0.36180204512E+04  0.31714002094E+04 0.  0.
        5    1    3    3  502    0 -0.29465572159E+03  0.15118373194E+04 -0.44085497470E+03  0.16021389681E+04  0.46999998093E+01 0. -1.
       -5    1    3    3    0  502  0.29465572159E+03 -0.15118373194E+04 -0.13004929794E+04  0.20158814831E+04  0.46999998093E+01 0.  1.
</event>
<event>
 5   0  0.5131083E-06  0.3182772E+04  0.7818609E-02  0.8193382E-01
       -2   -1    0    0    0  501  0.00000000000E+00  0.00000000000E+00  0.27114515593E+04  0.27114515593E+04  0.25500000920E-02 0.  1.
        2   -1    0    0  501    0  0.00000000000E+00  0.00000000000E+00 -0.93400524987E+03  0.93400524987E+03  0.25500000920E-02 0. -1.
    10030    2    1    2    0    0  0.00000000000E+00  0.00000000000E+00  0.17774463094E+04  0.36454568091E+04  0.31827723708E+04 0.  0.
        3    1    3    3  502    0 -0.15385969661E+03 -0.15387748715E+04  0.13188236087E+04  0.20324361325E+04  0.10100000352E+00 0.  1.
       -3    1    3    3    0  502  0.15385969661E+03  0.15387748715E+04  0.45862270070E+03  0.16130206767E+04  0.10100000352E+00 0. -1.
</event>
<event>
 5   0  0.1969465E-06  0.2926318E+04  0.7818609E-02  0.8265090E-01
       -1   -1    0    0    0  501  0.00000000000E+00  0.00000000000E+00  0.12189279414E+04  0.12189279414E+04  0.50400001928E-02 0.  1.
        1   -1    0    0  501    0  0.00000000000E+00  0.00000000000E+00 -0.17563253868E+04  0.17563253868E+04  0.50400001928E-02 0. -1.
    10030    2    1    2    0    0  0.00000000000E+00  0.00000000000E+00 -0.53739744547E+03  0.29752533282E+04  0.29263178830E+04 0.  0.
        2    1    3    3  502    0 -0.12329192684E+03  0.86707353789E+03 -0.14603984476E+04  0.17028743480E+04  0.25500000920E-02 0. -1.
       -2    1    3    3    0  502  0.12329192684E+03 -0.86707353789E+03  0.92300100212E+03  0.12723789802E+04  0.25500000920E-02 0.  1.
</event>
<event>
 5   0  0.1886248E-06  0.3152418E+04  0.7818609E-02  0.8201498E-01
       -1   -1    0    0    0  501  0.00000000000E+00  0.00000000000E+00  0.11582898598E+04  0.11582898598E+04  0.50400001928E-02 0.  1.
        1   -1    0    0  501    0  0.00000000000E+00  0.00000000000E+00 -0.21449169581E+04  0.21449169582E+04  0.50400001928E-02 0. -1.
    10030    2    1    2    0    0  0.00000000000E+00  0.00000000000E+00 -0.98662709832E+03  0.33032068180E+04  0.31524184765E+04 0.  0.
        4    1    3    3  502    0  0.12200947163E+04 -0.97003564618E+03 -0.73868023225E+03  0.17248914082E+04  0.12699999809E+01 0.  1.
       -4    1    3    3    0  502 -0.12200947163E+04  0.97003564618E+03 -0.24794686607E+03  0.15783154098E+04  0.12699999809E+01 0. -1.
</event>
<event>
 5   0  0.1881144E-06  0.3164496E+04  0.7818609E-02  0.8198257E-01
        1   -1    0    0  501    0  0.00000000000E+00  0.00000000000E+00  0.15026730865E+04  0.15026730865E+04  0.50400001928E-02 0. -1.
       -1   -1    0    0    0  501  0.00000000000E+00  0.00000000000E+00 -0.16660371787E+04  0.16660371787E+04  0.50400001928E-02 0.  1.
    10030    2    1    2    0    0  0.00000000000E+00  0.00000000000E+00 -0.16336409221E+03  0.31687102653E+04  0.31644963136E+04 0.  0.
        3    1    3    3  502    0 -0.14901771718E+04  0.35340028891E+03 -0.47969021250E+03  0.16048745987E+04  0.10100000352E+00 0.  1.
       -3    1    3    3    0  502  0.14901771718E+04 -0.35340028891E+03  0.31632612029E+03  0.15638356666E+04  0.10100000352E+00 0. -1.
</event>
<event>
 5   0  0.1886248E-06  0.3313120E+04  0.7818609E-02  0.8159565E-01
        1   -1    0    0  501    0  0.00000000000E+00  0.00000000000E+00  0.27494645003E+04  0.27494645003E+04  0.50400001928E-02 0. -1.
       -1   -1    0    0    0  501  0.00000000000E+00  0.00000000000E+00 -0.99808203054E+03  0.99808203055E+03  0.50400001928E-02 0.  1.
    10030    2    1    2    0    0  0.00000000000E+00  0.00000000000E+00  0.17513824698E+04  0.37475465309E+04  0.33131200470E+04 0.  0.
        4    1    3    3  502    0 -0.62957536699E+03  0.11580382841E+04  0.20106376533E+04  0.24041803584E+04  0.12699999809E+01 0. -1.
       -4    1    3    3    0  502  0.62957536699E+03 -0.11580382841E+04 -0.25925518348E+03  0.13433661724E+04  0.12699999809E+01 0.  1.
</event>
<event>
 5   0  0.5347280E-06  0.3257029E+04  0.7818609E-02  0.8173916E-01
       -2   -1    0    0    0  501  0.00000000000E+00  0.00000000000E+00  0.14271503381E+04  0.14271503381E+04  0.25500000920E-02 0.  1.
        2   -1    0    0  501    0  0.00000000000E+00  0.00000000000E+00 -0.18582906325E+04  0.18582906325E+04  0.25500000920E-02 0. -1.
    10030    2    1    2    0    0  0.00000000000E+00  0.00000000000E+00 -0.43114029439E+03  0.32854409706E+04  0.32570293855E+04 0.  0.
        2    1    3    3  502    0  0.15146041731E+04 -0.47788943986E+03 -0.57878891364E+03  0.16903847859E+04  0.25500000920E-02 0.  1.
       -2    1    3    3    0  502 -0.15146041731E+04  0.47788943986E+03  0.14764861926E+03  0.15950561848E+04  0.25500000920E-02 0. -1.
</event>
<event>
 5   0  0.5373060E-06  0.3221738E+04  0.7818609E-02  0.8183100E-01
       -2   -1    0    0    0  501  0.00000000000E+00  0.00000000000E+00  0.13610422875E+04  0.13610422875E+04  0.25500000920E-02 0.  1.
        2   -1    0    0  501    0  0.00000000000E+00  0.00000000000E+00 -0.19065532414E+04  0.19065532414E+04  0.25500000920E-02 0. -1.
    10030    2    1    2    0    0  0.00000000000E+00  0.00000000000E+00 -0.54551095390E+03  0.32675955289E+04  0.32217384034E+04 0.  0.
        5    1    3    3  502    0 -0.53114860863E+02 -0.22041597231E+03 -0.18902826832E+04  0.19038369420E+04  0.46999998093E+01 0. -1.
       -5    1    3    3    0  502  0.53114860863E+02  0.22041597231E+03  0.13447717293E+04  0.13637585869E+04  0.46999998093E+01 0.  1.
</event>
<event>
 5   0  0.5131083E-06  0.3207453E+04  0.7818609E-02  0.8186852E-01
        2   -1    0    0  501    0  0.00000000000E+00  0.00000000000E+00  0.14133441473E+04  0.14133441473E+04  0.25500000920E-02 0. -1.
       -2   -1    0    0    0  501  0.00000000000E+00  0.00000000000E+00 -0.18197541958E+04  0.18197541958E+04  0.25500000920E-02 0.  1.
    10030    2    1    2    0    0  0.00000000000E+00  0.00000000000E+00 -0.40641004843E+03  0.32330983431E+04  0.32074531593E+04 0.  0.
        3    1    3    3  502    0  0.12480183293E+04  0.17931251462E+03 -0.12022074920E+04  0.17421267440E+04  0.10100000352E+00 0.  1.
       -3    1    3    3    0  502 -0.12480183293E+04 -0.17931251462E+03  0.79579744355E+03  0.14909715991E+04  0.10100000352E+00 0. -1.
</event>
<event>
 5   0  0.5373060E-06  0.3122178E+04  0.7818609E-02  0.8209678E-01
       -2   -1    0    0    0  501  0.00000000000E+00  0.00000000000E+00  0.80373712268E+03  0.80373712268E+03  0.25500000920E-02 0.  1.
        2   -1    0    0  501    0  0.00000000000E+00  0.00000000000E+00 -0.30320847990E+04  0.30320847990E+04  0.25500000920E-02 0. -1.
    10030    2    1    2    0    0  0.00000000000E+00  0.00000000000E+00 -0.22283476763E+04  0.38358219217E+04  0.31221781577E+04 0.  0.
        5    1    3    3  502    0  0.13149462117E+04  0.34500752814E+03 -0.20569487031E+04  0.24655980596E+04  0.46999998093E+01 0. -1.
       -5    1    3    3    0  502 -0.13149462117E+04 -0.34500752814E+03 -0.17139897321E+03  0.13702238621E+04  0.46999998093E+01 0.  1.
</event>
<event>
 5   0  0.1886248E-06  0.2099581E+04  0.7818609E-02  0.8561428E-01
        1   -1    0    0  501    0  0.00000000000E+00  0.00000000000E+00  0.76669172833E+03  0.76669172834E+03  0.50400001928E-02 0.  1.
       -1   -1    0    0    0  501  0.00000000000E+00  0.00000000000E+00 -0.14374227539E+04  0.14374227540E+04  0.50400001928E-02 0. -1.
    10030    2    1    2    0    0  0.00000000000E+00  0.00000000000E+00 -0.67073102562E+03  0.22041144823E+04  0.20995810397E+04 0.  0.
        4    1    3    3  502    0  0.18056577147E+03 -0.76481791764E+03  0.39535620787E+03  0.87969232631E+03  0.12699999809E+01 0.  1.
       -4    1    3    3    0  502 -0.18056577147E+03  0.76481791764E+03 -0.10660872335E+04  0.13244221560E+04  0.12699999809E+01 0. -1.
</event>
<event>
 5   0  0.1846850E-06  0.3158163E+04  0.7818609E-02  0.8199955E-01
        1   -1    0    0  501    0  0.00000000000E+00  0.00000000000E+00  0.16852734889E+04  0.16852734889E+04  0.50400001928E-02 0.  1.
       -1   -1    0    0    0  501  0.00000000000E+00  0.00000000000E+00 -0.14795804241E+04  0.14795804241E+04  0.50400001928E-02 0. -1.
    10030    2    1    2    0    0  0.00000000000E+00  0.00000000000E+00  0.20569306477E+03  0.31648539129E+04  0.31581625439E+04 0.  0.
        5    1    3    3  502    0  0.93374447217E+03 -0.95956089034E+03 -0.73608891907E+03  0.15279021004E+04  0.46999998093E+01 0. -1.
       -5    1    3    3    0  502 -0.93374447217E+03  0.95956089034E+03  0.94178198384E+03  0.16369518126E+04  0.46999998093E+01 0.  1.
</event>
<event>
 5   0  0.1881144E-06  0.3217615E+04  0.7818609E-02  0.8184181E-01
       -1   -1    0    0    0  501  0.00000000000E+00  0.00000000000E+00  0.12440849518E+04  0.12440849518E+04  0.50400001928E-02 0. -1.
        1   -1    0    0  501    0  0.00000000000E+00  0.00000000000E+00 -0.20804539737E+04  0.20804539737E+04  0.50400001928E-02 0.  1.
    10030    2    1    2    0    0  0.00000000000E+00  0.00000000000E+00 -0.83636902193E+03  0.33245389255E+04  0.32176149438E+04 0.  0.
        3    1    3    3  502    0 -0.12885618958E+04 -0.49300530594E+03 -0.12732199915E+04  0.18773745358E+04  0.10100000352E+00 0. -1.
       -3    1    3    3    0  502  0.12885618958E+04  0.49300530594E+03  0.43685096956E+03  0.14471643897E+04  0.10100000352E+00 0.  1.
</event>
<event>
 5   0  0.1846850E-06  0.3081704E+04  0.7818609E-02  0.8220777E-01
        1   -1    0    0  501    0  0.00000000000E+00  0.00000000000E+00  0.14700150045E+04  0.14700150045E+04  0.50400001928E-02 0. -1.
       -1   -1    0    0    0  501  0.00000000000E+00  0.00000000000E+00 -0.16151024013E+04  0.16151024013E+04  0.50400001928E-02 0.  1.
    10030    2    1    2    0    0  0.00000000000E+00  0.00000000000E+00 -0.14508739684E+03  0.30851174058E+04  0.30817039207E+04 0.  0.
        5    1    3    3  502    0  0.23578961352E+03  0.87692093705E+03  0.11736707304E+04  0.14839515306E+04  0.46999998093E+01 0. -1.
       -5    1    3    3    0  502 -0.23578961352E+03 -0.87692093705E+03 -0.13187581272E+04  0.16011658752E+04  0.46999998093E+01 0.  1.
</event>
<event>
 5   0  0.5347280E-06  0.3179590E+04  0.7818609E-02  0.8194228E-01
        2   -1    0    0  501    0  0.00000000000E+00  0.00000000000E+00  0.15886933070E+04  0.15886933070E+04  0.25500000920E-02 0. -1.
       -2   -1    0    0    0  501  0.00000000000E+00  0.00000000000E+00 -0.15908973347E+04  0.15908973347E+04  0.25500000920E-02 0.  1.
    10030    2    1    2    0    0  0.00000000000E+00  0.00000000000E+00 -0.22040276854E+01  0.31795906417E+04  0.31795898778E+04 0.  0.
        2    1    3    3  502    0 -0.68585639368E+02  0.82501000364E+03  0.13561390616E+04  0.15888545089E+04  0.25500000920E-02 0. -1.
       -2    1    3    3    0  502  0.68585639368E+02 -0.82501000364E+03 -0.13583430893E+04  0.15907361328E+04  0.25500000920E-02 0.  1.
</event>
<event>
 5   0  0.5131083E-06  0.3131750E+04  0.7818609E-02  0.8207078E-01
       -2   -1    0    0    0  501  0.00000000000E+00  0.00000000000E+00  0.23624544732E+04  0.23624544732E+04  0.25500000920E-02 0. -1.
        2   -1    0    0  501    0  0.00000000000E+00  0.00000000000E+00 -0.10378884599E+04  0.10378884599E+04  0.25500000920E-02 0.  1.
    10030    2    1    2    0    0  0.00000000000E+00  0.00000000000E+00  0.13245660133E+04  0.34003429331E+04  0.31317498207E+04 0.  0.
        3    1    3    3  502    0  0.41721513832E+03 -0.12898892684E+04 -0.18855844374E+03  0.13687355820E+04  0.10100000352E+00 0.  1.
       -3    1    3    3    0  502 -0.41721513832E+03  0.12898892684E+04  0.15131244570E+04  0.20316073511E+04  0.10100000352E+00 0. -1.
</event>
<event>
 5   0  0.5131083E-06  0.3236865E+04  0.7818609E-02  0.8179149E-01
        2   -1    0    0  501    0  0.00000000000E+00  0.00000000000E+00  0.31691470956E+04  0.31691470956E+04  0.25500000920E-02 0. -1.
       -2   -1    0    0    0  501  0.00000000000E+00  0.00000000000E+00 -0.82650750151E+03  0.82650750152E+03  0.25500000920E-02 0.  1.
    10030    2    1    2    0    0  0.00000000000E+00  0.00000000000E+00  0.23426395941E+04  0.39956545971E+04  0.32368650562E+04 0.  0.
        3    1    3    3  502    0  0.11237786602E+03  0.15630603936E+04  0.16705164922E+04  0.22905047347E+04  0.10100000352E+00 0. -1.
       -3    1    3    3    0  502 -0.11237786602E+03 -0.15630603936E+04  0.67212310194E+03  0.17051498624E+04  0.10100000352E+00 0.  1.
</event>
<event>
 5   0  0.1969465E-06  0.1978343E+04  0.7818609E-02  0.8616814E-01
       -1   -1    0    0    0  501  0.00000000000E+00  0.00000000000E+00  0.62795464210E+03  0.62795464212E+03  0.50400001928E-02 0. -1.
        1   -1    0    0  501    0  0.00000000000E+00  0.00000000000E+00 -0.15581696099E+04  0.15581696099E+04  0.50400001928E-02 0.  1.
    10030    2    1    2    0    0  0.00000000000E+00  0.00000000000E+00 -0.93021496784E+03  0.21861242521E+04  0.19783425788E+04 0.  0.
        2    1    3    3  502    0 -0.38987531232E+03 -0.16223223842E+03  0.52334485374E+03  0.67246702096E+03  0.25500000920E-02 0. -1.
       -2    1    3    3    0  502  0.38987531232E+03  0.16223223842E+03 -0.14535598216E+04  0.15136572311E+04  0.25500000920E-02 0.  1.
</event>
<event>
 5   0  0.5121624E-06  0.3121130E+04  0.7818609E-02  0.8209963E-01
       -2   -1    0    0    0  501  0.00000000000E+00  0.00000000000E+00  0.11968007107E+04  0.11968007107E+04  0.25500000920E-02 0. -1.
        2   -1    0    0  501    0  0.00000000000E+00  0.00000000000E+00 -0.20348938886E+04  0.20348938886E+04  0.25500000920E-02 0.  1.
    10030    2    1    2    0    0  0.00000000000E+00  0.00000000000E+00 -0.83809317789E+03  0.32316945993E+04  0.31211295725E+04 0.  0.
        4    1    3    3  502    0 -0.76174107042E+03 -0.58871391348E+03  0.85268395509E+03  0.12860424062E+04  0.12699999809E+01 0. -1.
       -4    1    3    3    0  502  0.76174107042E+03  0.58871391348E+03 -0.16907771330E+04  0.19456521931E+04  0.12699999809E+01 0.  1.
</event>
<event>
 5   0  0.5108810E-06  0.3201566E+04  0.7818609E-02  0.8188404E-01
        2   -1    0    0  501    0  0.00000000000E+00  0.00000000000E+00  0.27479818608E+04  0.27479818608E+04  0.25500000920E-02 0.  1.
       -2   -1    0    0    0  501  0.00000000000E+00  0.00000000000E+00 -0.93250465720E+03  0.93250465721E+03  0.25500000920E-02 0. -1.
    10030    2    1    2    0    0  0.00000000000E+00  0.00000000000E+00  0.18154772036E+04  0.36804865180E+04  0.32015657939E+04 0.  0.
        1    1    3    3  502    0 -0.16204664114E+03  0.14478959216E+04  0.16701549843E+04  0.22163211376E+04  0.50400001928E-02 0. -1.
       -1    1    3    3    0  502  0.16204664114E+03 -0.14478959216E+04  0.14532221934E+03  0.14641653804E+04  0.50400001928E-02 0.  1.
</event>
<event>
 5   0  0.5131083E-06  0.3023412E+04  0.7818609E-02  0.8237077E-01
        2   -1    0    0  501    0  0.00000000000E+00  0.00000000000E+00  0.10617142715E+04  0.10617142715E+04  0.25500000920E-02 0.  1.
       -2   -1    0    0    0  501  0.00000000000E+00  0.00000000000E+00 -0.21524205407E+04  0.21524205407E+04  0.25500000920E-02 0. -1.
    10030    2    1    2    0    0  0.00000000000E+00  0.00000000000E+00 -0.10907062692E+04  0.32141348122E+04  0.30234123810E+04 0.  0.
        3    1    3    3  502    0 -0.76947765746E+03  0.11272219041E+04 -0.12363812830E+04  0.18415655767E+04  0.10100000352E+00 0. -1.
       -3    1    3    3    0  502  0.76947765746E+03 -0.11272219041E+04  0.14567501381E+03  0.13725692355E+04  0.10100000352E+00 0.  1.
</event>
<event>
 5   0  0.5131083E-06  0.3190170E+04  0.7818609E-02  0.8191418E-01
       -2   -1    0    0    0  501  0.00000000000E+00  0.00000000000E+00  0.12703705370E+04  0.12703705370E+04  0.25500000920E-02 0. -1.
        2   -1    0    0  501    0  0.00000000000E+00  0.00000000000E+00 -0.20027988996E+04  0.20027988996E+04  0.25500000920E-02 0.  1.
    10030    2    1    2    0    0  0.00000000000E+00  0.00000000000E+00 -0.73242836267E+03  0.32731694366E+04  0.31901703488E+04 0.  0.
        3    1    3    3  502    0 -0.89290507254E+03 -0.11836559246E+04 -0.96971453480E+03  0.17716283769E+04  0.10100000352E+00 0.  1.
       -3    1    3    3    0  502  0.89290507254E+03  0.11836559246E+04  0.23728617213E+03  0.15015410598E+04  0.10100000352E+00 0. -1.
</event>
<event>
 5   0  0.5373060E-06  0.3255120E+04  0.7818609E-02  0.8174410E-01
        2   -1    0    0  501    0  0.00000000000E+00  0.00000000000E+00  0.12930463861E+04  0.12930463861E+04  0.25500000920E-02 0. -1.
       -2   -1    0    0    0  501  0.00000000000E+00  0.00000000000E+00 -0.20486131540E+04  0.20486131540E+04  0.25500000920E-02 0.  1.
    10030    2    1    2    0    0  0.00000000000E+00  0.00000000000E+00 -0.75556676792E+03  0.33416595400E+04  0.32551201730E+04 0.  0.
        5    1    3    3  502    0 -0.44651693040E+03 -0.14384640834E+04  0.25535737941E+03  0.15276733190E+04  0.46999998093E+01 0. -1.
       -5    1    3    3    0  502  0.44651693040E+03  0.14384640834E+04 -0.10109241473E+04  0.18139862210E+04  0.46999998093E+01 0.  1.
</event>
<event>
 5   0  0.1881144E-06  0.2942717E+04  0.7818609E-02  0.8260280E-01
       -1   -1    0    0    0  501  0.00000000000E+00  0.00000000000E+00  0.11672668509E+04  0.11672668509E+04  0.50400001928E-02 0. -1.
        1   -1    0    0  501    0  0.00000000000E+00  0.00000000000E+00 -0.18546705104E+04  0.18546705104E+04  0.50400001928E-02 0.  1.
    10030    2    1    2    0    0  0.00000000000E+00  0.00000000000E+00 -0.68740365952E+03  0.30219373614E+04  0.29427167083E+04 0.  0.
        3    1    3    3  502    0  0.68232033979E+03  0.80602918091E+03 -0.13958079062E+04  0.17502924921E+04  0.10100000352E+00 0.  1.
       -3    1    3    3    0  502 -0.68232033979E+03 -0.80602918091E+03  0.70840424673E+03  0.12716448693E+04  0.10100000352E+00 0. -1.
</event>
<event>
 5   0  0.1969465E-06  0.3090589E+04  0.7818609E-02  0.8218325E-01
       -1   -1    0    0    0  501  0.00000000000E+00  0.00000000000E+00  0.13962905013E+04  0.13962905013E+04  0.50400001928E-02 0.  1.
        1   -1    0    0  501    0  0.00000000000E+00  0.00000000000E+00 -0.17101992053E+04  0.17101992053E+04  0.50400001928E-02 0. -1.
    10030    2    1    2    0    0  0.00000000000E+00  0.00000000000E+00 -0.31390870397E+03  0.31064897066E+04  0.30905888796E+04 0.  0.
        2    1    3    3  502    0 -0.12772220608E+04 -0.56094964820E+02 -0.10294595515E+04  0.16414109192E+04  0.25500000920E-02 0. -1.
       -2    1    3    3    0  502  0.12772220608E+04  0.56094964820E+02  0.71555084750E+03  0.14650787873E+04  0.25500000920E-02 0.  1.
</event>
<event>
 5   0  0.1886248E-06  0.3191020E+04  0.7818609E-02  0.8191193E-01
        1   -1    0    0  501    0  0.00000000000E+00  0.00000000000E+00  0.21107212081E+04  0.21107212081E+04  0.50400001928E-02 0. -1.
       -1   -1    0    0    0  501  0.00000000000E+00  0.00000000000E+00 -0.12060576656E+04  0.12060576656E+04  0.50400001928E-02 0.  1.
    10030    2    1    2    0    0  0.00000000000E+00  0.00000000000E+00  0.90466354247E+03  0.33167788738E+04  0.31910195819E+04 0.  0.
        4    1    3    3  502    0 -0.23639170228E+03 -0.42588333766E+02  0.20918200512E+04  0.21055658486E+04  0.12699999809E+01 0. -1.
       -4    1    3    3    0  502  0.23639170228E+03  0.42588333766E+02 -0.11871565088E+04  0.12112130252E+04  0.12699999809E+01 0.  1.
</event>
<event>
 5   0  0.5131083E-06  0.3254578E+04  0.7818609E-02  0.8174550E-01
        2   -1    0    0  501    0  0.00000000000E+00  0.00000000000E+00  0.10851479362E+04  0.10851479362E+04  0.25500000920E-02 0. -1.
       -2   -1    0    0    0  501  0.00000000000E+00  0.00000000000E+00 -0.24402837431E+04  0.24402837431E+04  0.25500000920E-02 0.  1.
    10030    2    1    2    0    0  0.00000000000E+00  0.00000000000E+00 -0.13551358069E+04  0.35254316793E+04  0.32545776178E+04 0.  0.
        3    1    3    3  502    0 -0.13343951796E+04  0.41896670741E+03  0.22347871714E+03  0.14163637755E+04  0.10100000352E+00 0. -1.
       -3    1    3    3    0  502  0.13343951796E+04 -0.41896670741E+03 -0.15786145241E+04  0.21090679038E+04  0.10100000352E+00 0.  1.
</event>
<event>
 5   0  0.5131083E-06  0.3426812E+04  0.7818609E-02  0.8131357E-01
       -2   -1    0    0    0  501  0.00000000000E+00  0.00000000000E+00  0.14626200292E+04  0.14626200292E+04  0.25500000920E-02 0.  1.
        2   -1    0    0  501    0  0.00000000000E+00  0.00000000000E+00 -0.20071925805E+04  0.20071925805E+04  0.25500000920E-02 0. -1.
    10030    2    1    2    0    0  0.00000000000E+00  0.00000000000E+00 -0.54457255133E+03  0.34698126097E+04  0.34268119707E+04 0.  0.
        3    1    3    3  502    0  0.13417626326E+04 -0.90524370670E+02 -0.13473238408E+04  0.19036289465E+04  0.10100000352E+00 0. -1.
       -3    1    3    3    0  502 -0.13417626326E+04  0.90524370670E+02  0.80275128944E+03  0.15661836632E+04  0.10100000352E+00 0.  1.
</event>
<event>
 5   0  0.5108810E-06  0.3164761E+04  0.7818609E-02  0.8198186E-01
       -2   -1    0    0    0  501  0.00000000000E+00  0.00000000000E+00  0.99722581274E+03  0.99722581275E+03  0.25500000920E-02 0.  1.
        2   -1    0    0  501    0  0.00000000000E+00  0.00000000000E+00 -0.25108942375E+04  0.25108942375E+04  0.25500000920E-02 0. -1.
    10030    2    1    2    0    0  0.00000000000E+00  0.00000000000E+00 -0.15136684248E+04  0.35081200503E+04  0.31647613159E+04 0.  0.
        1    1    3    3  502    0 -0.13698168998E+04  0.60197369134E+03 -0.18603185690E+03  0.15077727003E+04  0.50400001928E-02 0.  1.
       -1    1    3    3    0  502  0.13698168998E+04 -0.60197369134E+03 -0.13276365679E+04  0.20003473499E+04  0.50400001928E-02 0. -1.
</event>
<event>
 5   0  0.1977015E-06  0.3208421E+04  0.7818609E-02  0.8186597E-01
       -1   -1    0    0    0  501  0.00000000000E+00  0.00000000000E+00  0.10896194596E+04  0.10896194596E+04  0.50400001928E-02 0. -1.
        1   -1    0    0  501    0  0.00000000000E+00  0.00000000000E+00 -0.23618254798E+04  0.23618254798E+04  0.50400001928E-02 0.  1.
    10030    2    1    2    0    0  0.00000000000E+00  0.00000000000E+00 -0.12722060202E+04  0.34514449395E+04  0.32084207973E+04 0.  0.
        1    1    3    3  502    0 -0.91930467785E+02 -0.11554860964E+04 -0.18291101898E+04  0.21654660967E+04  0.50400001928E-02 0.  1.
       -1    1    3    3    0  502  0.91930467785E+02  0.11554860964E+04  0.55690416960E+03  0.12859788427E+04  0.50400001928E-02 0. -1.
</event>
<event>
 5   0  0.5347280E-06  0.3161742E+04  0.7818609E-02  0.8198995E-01
        2   -1    0    0  501    0  0.00000000000E+00  0.00000000000E+00  0.18370162026E+04  0.18370162026E+04  0.25500000920E-02 0. -1.
       -2   -1    0    0    0  501  0.00000000000E+00  0.00000000000E+00 -0.13604414166E+04  0.13604414166E+04  0.25500000920E-02 0.  1.
    10030    2    1    2    0    0  0.00000000000E+00  0.00000000000E+00  0.47657478597E+03  0.31974576192E+04  0.31617418775E+04 0.  0.
        2    1    3    3  502    0 -0.56529158358E+03 -0.27612937763E+03 -0.12283888348E+04  0.13801235949E+04  0.25500000920E-02 0.  1.
       -2    1    3    3    0  502  0.56529158358E+03  0.27612937763E+03  0.17049636208E+04  0.18173340243E+04  0.25500000920E-02 0. -1.
</event>
<event>
 5   0  0.5131083E-06  0.3217618E+04  0.7818609E-02  0.8184180E-01
       -2   -1    0    0    0  501  0.00000000000E+00  0.00000000000E+00  0.22747658598E+04  0.22747658598E+04  0.25500000920E-02 0.  1.
        2   -1    0    0  501    0  0.00000000000E+00  0.00000000000E+00 -0.11378169523E+04  0.11378169523E+04  0.25500000920E-02 0. -1.
    10030    2    1    2    0    0  0.00000000000E+00  0.00000000000E+00  0.11369489075E+04  0.34125828121E+04  0.32176184720E+04 0.  0.
        3    1    3    3  502    0 -0.41796626136E+03  0.40932562455E+03 -0.10210083648E+04  0.11767333401E+04  0.10100000352E+00 0. -1.
       -3    1    3    3    0  502  0.41796626136E+03 -0.40932562455E+03  0.21579572722E+04  0.22358494720E+04  0.10100000352E+00 0.  1.
</event>
<event>
 5   0  0.1977015E-06  0.3195965E+04  0.7818609E-02  0.8189883E-01
       -1   -1    0    0    0  501  0.00000000000E+00  0.00000000000E+00  0.13166944759E+04  0.13166944760E+04  0.50400001928E-02 0. -1.
        1   -1    0    0  501    0  0.00000000000E+00  0.00000000000E+00 -0.19393632197E+04  0.19393632197E+04  0.50400001928E-02 0.  1.
    10030    2    1    2    0    0  0.00000000000E+00  0.00000000000E+00 -0.62266874374E+03  0.32560576956E+04  0.31959654806E+04 0.  0.
        1    1    3    3  502    0 -0.26990916696E+03  0.37612442530E+03  0.12468768089E+04  0.13300459835E+04  0.50400001928E-02 0. -1.
       -1    1    3    3    0  502  0.26990916696E+03 -0.37612442530E+03 -0.18695455526E+04  0.19260117121E+04  0.50400001928E-02 0.  1.
</event>
<event>
 5   0  0.5121624E-06  0.3197942E+04  0.7818609E-02  0.8189361E-01
        2   -1    0    0  501    0  0.00000000000E+00  0.00000000000E+00  0.29284668891E+04  0.29284668891E+04  0.25500000920E-02 0.  1.
       -2   -1    0    0    0  501  0.00000000000E+00  0.00000000000E+00 -0.87305367651E+03  0.87305367651E+03  0.25500000920E-02 0. -1.
    10030    2    1    2    0    0  0.00000000000E+00  0.00000000000E+00  0.20554132126E+04  0.38015205656E+04  0.31979423285E+04 0.  0.
        4    1    3    3  502    0  0.31272823875E+03 -0.15472821991E+04  0.72504217683E+03  0.17371151159E+04  0.12699999809E+01 0. -1.
       -4    1    3    3    0  502 -0.31272823875E+03  0.15472821991E+04  0.13303710358E+04  0.20644054497E+04  0.12699999809E+01 0.  1.
</event>
<event>
 5   0  0.1729500E-06  0.3266948E+04  0.7818609E-02  0.8171357E-01
       -3   -1    0    0    0  501  0.00000000000E+00  0.00000000000E+00  0.14512075253E+04  0.14512075288E+04  0.10100000352E+00 0.  1.
        3   -1    0    0  501    0  0.00000000000E+00  0.00000000000E+00 -0.18386322278E+04  0.18386322305E+04  0.10100000352E+00 0. -1.
    10030    2    1    2    0    0  0.00000000000E+00  0.00000000000E+00 -0.38742470249E+03  0.32898397593E+04  0.32669477715E+04 0.  0.
        2    1    3    3  502    0 -0.91639651102E+03  0.87348907256E+03  0.84573719284E+03  0.15225101394E+04  0.25500000920E-02 0.  1.
       -2    1    3    3    0  502  0.91639651102E+03 -0.87348907256E+03 -0.12331618953E+04  0.17673296199E+04  0.25500000920E-02 0. -1.
</event>
<event>
 5   0  0.5373060E-06  0.2868693E+04  0.7818609E-02  0.8282254E-01
       -2   -1    0    0    0  501  0.00000000000E+00  0.00000000000E+00  0.15033377369E+04  0.15033377370E+04  0.25500000920E-02 0.  1.
        2   -1    0    0  501    0  0.00000000000E+00  0.00000000000E+00 -0.13685211125E+04  0.13685211125E+04  0.25500000920E-02 0. -1.
    10030    2    1    2    0    0  0.00000000000E+00  0.00000000000E+00  0.13481662441E+03  0.28718588495E+04  0.28686926864E+04 0.  0.
        5    1    3    3  502    0  0.56725310358E+03  0.10268765055E+04 -0.75877576633E+03  0.13971450156E+04  0.46999998093E+01 0. -1.
       -5    1    3    3    0  502 -0.56725310358E+03 -0.10268765055E+04  0.89359239074E+03  0.14747138339E+04  0.46999998093E+01 0.  1.
</event>
<event>
 5   0  0.5121624E-06  0.3245513E+04  0.7818609E-02  0.8176900E-01
        2   -1    0    0  501    0  0.00000000000E+00  0.00000000000E+00  0.18467272705E+04  0.18467272705E+04  0.25500000920E-02 0. -1.
       -2   -1    0    0    0  501  0.00000000000E+00  0.00000000000E+00 -0.14259490455E+04  0.14259490455E+04  0.25500000920E-02 0.  1.
    10030    2    1    2    0    0  0.00000000000E+00  0.00000000000E+00  0.42077822500E+03  0.32726763160E+04  0.32455132036E+04 0.  0.
        4    1    3    3  502    0 -0.26192276817E+03 -0.23059817757E+03 -0.13876643588E+04  0.14308714273E+04  0.12699999809E+01 0.  1.
       -4    1    3    3    0  502  0.26192276817E+03  0.23059817757E+03  0.18084425838E+04  0.18418048886E+04  0.12699999809E+01 0. -1.
</event>
<event>
 5   0  0.5131083E-06  0.3268355E+04  0.7818609E-02  0.8170994E-01
        2   -1    0    0  501    0  0.00000000000E+00  0.00000000000E+00  0.20782238993E+04  0.20782238993E+04  0.25500000920E-02 0.  1.
       -2   -1    0    0    0  501  0.00000000000E+00  0.00000000000E+00 -0.12850090457E+04  0.12850090457E+04  0.25500000920E-02 0. -1.
    10030    2    1    2    0    0  0.00000000000E+00  0.00000000000E+00  0.79321485357E+03  0.33632329450E+04  0.32683552497E+04 0.  0.
        3    1    3    3  502    0 -0.42701158936E+02  0.92710574450E+03  0.17807140542E+04  0.20080565240E+04  0.10100000352E+00 0.  1.
       -3    1    3    3    0  502  0.42701158936E+02 -0.92710574450E+03 -0.98749920066E+03  0.13551764210E+04  0.10100000352E+00 0. -1.
</event>
<event>
 5   0  0.5131083E-06  0.3021351E+04  0.7818609E-02  0.8237660E-01
       -2   -1    0    0    0  501  0.00000000000E+00  0.00000000000E+00  0.10560067467E+04  0.10560067467E+04  0.25500000920E-02 0. -1.
        2   -1    0    0  501    0  0.00000000000E+00  0.00000000000E+00 -0.21611035990E+04  0.21611035990E+04  0.25500000920E-02 0.  1.
    10030    2    1    2    0    0  0.00000000000E+00  0.00000000000E+00 -0.11050968523E+04  0.32171103457E+04  0.30213506786E+04 0.  0.
        3    1    3    3  502    0 -0.49194806220E+03 -0.57051234354E+03  0.84173686052E+03  0.11296097479E+04  0.10100000352E+00 0. -1.
       -3    1    3    3    0  502  0.49194806220E+03  0.57051234354E+03 -0.19468337129E+04  0.20875005978E+04  0.10100000352E+00 0.  1.
</event>
<event>
 5   0  0.5121624E-06  0.3136806E+04  0.7818609E-02  0.8205709E-01
       -2   -1    0    0    0  501  0.00000000000E+00  0.00000000000E+00  0.12782366208E+04  0.12782366208E+04  0.25500000920E-02 0.  1.
        2   -1    0    0  501    0  0.00000000000E+00  0.00000000000E+00 -0.19244392217E+04  0.19244392217E+04  0.25500000920E-02 0. -1.
    10030    2    1    2    0    0  0.00000000000E+00  0.00000000000E+00 -0.64620260096E+03  0.32026758425E+04  0.31368064573E+04 0.  0.
        4    1    3    3  502    0 -0.34842062515E+03 -0.53911559501E+02  0.12372521196E+04  0.12865060469E+04  0.12699999809E+01 0.  1.
       -4    1    3    3    0  502  0.34842062515E+03  0.53911559501E+02 -0.18834547206E+04  0.19161697956E+04  0.12699999809E+01 0. -1.
</event>
<event>
 5   0  0.5131083E-06  0.3171387E+04  0.7818609E-02  0.8196415E-01
        2   -1    0    0  501    0  0.00000000000E+00  0.00000000000E+00  0.28477279125E+04  0.28477279125E+04  0.25500000920E-02 0. -1.
       -2   -1    0    0    0  501  0.00000000000E+00  0.00000000000E+00 -0.88295764980E+03  0.88295764981E+03  0.25500000920E-02 0.  1.
    10030    2    1    2    0    0  0.00000000000E+00  0.00000000000E+00  0.19647702627E+04  0.37306855623E+04  0.31713865390E+04 0.  0.
        3    1    3    3  502    0 -0.96958147779E+03  0.12218181305E+04  0.13182046068E+04  0.20422025320E+04  0.10100000352E+00 0.  1.
       -3    1    3    3    0  502  0.96958147779E+03 -0.12218181305E+04  0.64656565588E+03  0.16884830303E+04  0.10100000352E+00 0. -1.
</event>
<event>
 5   0  0.1846850E-06  0.2385251E+04  0.7818609E-02  0.8445046E-01
        1   -1    0    0  501    0  0.00000000000E+00  0.00000000000E+00  0.11930348924E+04  0.11930348925E+04  0.50400001928E-02 0.  1.
       -1   -1    0    0    0  501  0.00000000000E+00  0.00000000000E+00 -0.11922157740E+04  0.11922157740E+04  0.50400001928E-02 0. -1.
    10030    2    1    2    0    0  0.00000000000E+00  0.00000000000E+00  0.81911849055E+00  0.23852506664E+04  0.23852505258E+04 0.  0.
        5    1    3    3  502    0 -0.58812422657E+03  0.43772523515E+02 -0.10361843413E+04  0.11922693567E+04  0.46999998093E+01 0. -1.
       -5    1    3    3    0  502  0.58812422657E+03 -0.43772523515E+02  0.10370034598E+04  0.11929813097E+04  0.46999998093E+01 0.  1.
</event>
<event>
 5   0  0.5108810E-06  0.3227743E+04  0.7818609E-02  0.8181528E-01
        2   -1    0    0  501    0  0.00000000000E+00  0.00000000000E+00  0.27317882406E+04  0.27317882406E+04  0.25500000920E-02 0.  1.
       -2   -1    0    0    0  501  0.00000000000E+00  0.00000000000E+00 -0.95343470966E+03  0.95343470966E+03  0.25500000920E-02 0. -1.
    10030    2    1    2    0    0  0.00000000000E+00  0.00000000000E+00  0.17783535310E+04  0.36852229503E+04  0.32277433157E+04 0.  0.
        1    1    3    3  502    0  0.46820962121E+03  0.23283826079E+03 -0.85403313446E+03  0.10014022668E+04  0.50400001928E-02 0. -1.
       -1    1    3    3    0  502 -0.46820962121E+03 -0.23283826079E+03  0.26323866654E+04  0.26838206836E+04  0.50400001928E-02 0.  1.
</event>
<event>
 5   0  0.1881144E-06  0.3173991E+04  0.7818609E-02  0.8195720E-01
        1   -1    0    0  501    0  0.00000000000E+00  0.00000000000E+00  0.12375872802E+04  0.12375872802E+04  0.50400001928E-02 0. -1.
       -1   -1    0    0    0  501  0.00000000000E+00  0.00000000000E+00 -0.20350519547E+04  0.20350519547E+04  0.50400001928E-02 0.  1.
    10030    2    1    2    0    0  0.00000000000E+00  0.00000000000E+00 -0.79746467446E+03  0.32726392349E+04  0.31739908089E+04 0.  0.
        3    1    3    3  502    0  0.27278800537E+03  0.12631648510E+04  0.55106869449E+03  0.14048756005E+04  0.10100000352E+00 0. -1.
       -3    1    3    3    0  502 -0.27278800537E+03 -0.12631648510E+04 -0.13485333690E+04  0.18677636344E+04  0.10100000352E+00 0.  1.
</event>
<event>
 5   0  0.5121624E-06  0.3231831E+04  0.7818609E-02  0.8180461E-01
       -2   -1    0    0    0  501  0.00000000000E+00  0.00000000000E+00  0.13156681501E+04  0.13156681501E+04  0.25500000920E-02 0. -1.
        2   -1    0    0  501    0  0.00000000000E+00  0.00000000000E+00 -0.19846816555E+04  0.19846816555E+04  0.25500000920E-02 0.  1.
    10030    2    1    2    0    0  0.00000000000E+00  0.00000000000E+00 -0.66901350537E+03  0.33003498057E+04  0.32318307148E+04 0.  0.
        4    1    3    3  502    0  0.12801745667E+04  0.17982959199E+03  0.65558215107E+03  0.14494741023E+04  0.12699999809E+01 0. -1.
       -4    1    3    3    0  502 -0.12801745667E+04 -0.17982959199E+03 -0.13245956564E+04  0.18508757034E+04  0.12699999809E+01 0.  1.
</event>
<event>
 5   0  0.5121624E-06  0.3147450E+04  0.7818609E-02  0.8202835E-01
       -2   -1    0    0    0  501  0.00000000000E+00  0.00000000000E+00  0.10413864105E+04  0.10413864105E+04  0.25500000920E-02 0.  1.
        2   -1    0    0  501    0  0.00000000000E+00  0.00000000000E+00 -0.23781852598E+04  0.23781852598E+04  0.25500000920E-02 0. -1.
    10030    2    1    2    0    0  0.00000000000E+00  0.00000000000E+00 -0.13367988494E+04  0.34195716703E+04  0.31474496413E+04 0.  0.
        4    1    3    3  502    0  0.92520033146E+03  0.44738520495E+03 -0.19632727227E+04  0.22159852372E+04  0.12699999809E+01 0. -1.
       -4    1    3    3    0  502 -0.92520033146E+03 -0.44738520495E+03  0.62647387337E+03  0.12035864331E+04  0.12699999809E+01 0.  1.
</event>
<event>
 5   0  0.5121624E-06  0.3210484E+04  0.7818609E-02  0.8186054E-01
       -2   -1    0    0    0  501  0.00000000000E+00  0.00000000000E+00  0.15754856665E+04  0.15754856665E+04  0.25500000920E-02 0.  1.
        2   -1    0    0  501    0  0.00000000000E+00  0.00000000000E+00 -0.16355606275E+04  0.16355606275E+04  0.25500000920E-02 0. -1.
    10030    2    1    2    0    0  0.00000000000E+00  0.00000000000E+00 -0.60074960945E+02  0.32110462940E+04  0.32104842783E+04 0.  0.
        4    1    3    3  502    0  0.91937294552E+03 -0.51150453354E+03 -0.12426511425E+04  0.16282097456E+04  0.12699999809E+01 0. -1.
       -4    1    3    3    0  502 -0.91937294552E+03  0.51150453354E+03  0.11825761816E+04  0.15828365484E+04  0.12699999809E+01 0.  1.
</event>
<event>
 5   0  0.5108810E-06  0.2448303E+04  0.7818609E-02  0.8421638E-01
       -2   -1    0    0    0  501  0.00000000000E+00  0.00000000000E+00  0.10438821143E+04  0.10438821143E+04  0.25500000920E-02 0.  1.
        2   -1    0    0  501    0  0.00000000000E+00  0.00000000000E+00 -0.14355522935E+04  0.14355522935E+04  0.25500000920E-02 0. -1.
    10030    2    1    2    0    0  0.00000000000E+00  0.00000000000E+00 -0.39167017920E+03  0.24794344078E+04  0.24483033826E+04 0.  0.
        1    1    3    3  502    0  0.11567835034E+04  0.21212343214E+03  0.14819452258E+03  0.11853716889E+04  0.50400001928E-02 0.  1.
       -1    1    3    3    0  502 -0.11567835034E+04 -0.21212343214E+03 -0.53986470177E+03  0.12940627189E+04  0.50400001928E-02 0. -1.
</event>
<event>
 5   0  0.1886248E-06  0.3094530E+04  0.7818609E-02  0.8217241E-01
        1   -1    0    0  501    0  0.00000000000E+00  0.00000000000E+00  0.14127958334E+04  0.14127958334E+04  0.50400001928E-02 0.  1.
       -1   -1    0    0    0  501  0.00000000000E+00  0.00000000000E+00 -0.16945327247E+04  0.16945327247E+04  0.50400001928E-02 0. -1.
    10030    2    1    2    0    0  0.00000000000E+00  0.00000000000E+00 -0.28173689135E+03  0.31073285581E+04  0.30945298661E+04 0.  0.
        4    1    3    3  502    0 -0.72871704863E+03 -0.15844723395E+03 -0.15021646114E+04  0.16770909920E+04  0.12699999809E+01 0. -1.
       -4    1    3    3    0  502  0.72871704863E+03  0.15844723395E+03  0.12204277200E+04  0.14302375661E+04  0.12699999809E+01 0.  1.
</event>
<event>
 5   0  0.1846850E-06  0.3188060E+04  0.7818609E-02  0.8191978E-01
       -1   -1    0    0    0  501  0.00000000000E+00  0.00000000000E+00  0.14384502751E+04  0.14384502752E+04  0.50400001928E-02 0. -1.
        1   -1    0    0  501    0  0.00000000000E+00  0.00000000000E+00 -0.17664364503E+04  0.17664364503E+04  0.50400001928E-02 0.  1.
    10030    2    1    2    0    0  0.00000000000E+00  0.00000000000E+00 -0.32798617518E+03  0.32048867255E+04  0.31880595967E+04 0.  0.
        5    1    3    3  502    0 -0.14049139212E+04 -0.40889041599E+03  0.47174852452E+03  0.15373819495E+04  0.46999998093E+01 0. -1.
       -5    1    3    3    0  502  0.14049139212E+04  0.40889041599E+03 -0.79973469970E+03  0.16675047760E+04  0.46999998093E+01 0.  1.
</event>
<event>
 5   0  0.5121624E-06  0.3439462E+04  0.7818609E-02  0.8128288E-01
        2   -1    0    0  501    0  0.00000000000E+00  0.00000000000E+00  0.22033675310E+04  0.22033675310E+04  0.25500000920E-02 0.  1.
       -2   -1    0    0    0  501  0.00000000000E+00  0.00000000000E+00 -0.13422522709E+04  0.13422522709E+04  0.25500000920E-02 0. -1.
    10030    2    1    2    0    0  0.00000000000E+00  0.00000000000E+00  0.86111526006E+03  0.35456198019E+04  0.34394622092E+04 0.  0.
        4    1    3    3  502    0 -0.49853322756E+03 -0.14795668624E+04 -0.31268071258E+03  0.15923015796E+04  0.12699999809E+01 0. -1.
       -4    1    3    3    0  502  0.49853322756E+03  0.14795668624E+04  0.11737959726E+04  0.19533182223E+04  0.12699999809E+01 0.  1.
</event>
<event>
 5   0  0.5108810E-06  0.2449351E+04  0.7818609E-02  0.8421255E-01
        2   -1    0    0  501    0  0.00000000000E+00  0.00000000000E+00  0.19213954686E+04  0.19213954686E+04  0.25500000920E-02 0.  1.
       -2   -1    0    0    0  501  0.00000000000E+00  0.00000000000E+00 -0.78059424995E+03  0.78059424996E+03  0.25500000920E-02 0. -1.
    10030    2    1    2    0    0  0.00000000000E+00  0.00000000000E+00  0.11408012187E+04  0.27019897186E+04  0.24493511424E+04 0.  0.
        1    1    3    3  502    0  0.12101419439E+04  0.86868982998E+02  0.75446561824E+03  0.14287085475E+04  0.50400001928E-02 0.  1.
       -1    1    3    3    0  502 -0.12101419439E+04 -0.86868982998E+02  0.38633560045E+03  0.12732811711E+04  0.50400001928E-02 0. -1.
</event>
<event>
 5   0  0.5347280E-06  0.3218817E+04  0.7818609E-02  0.8183865E-01
        2   -1    0    0  501    0  0.00000000000E+00  0.00000000000E+00  0.21704230295E+04  0.21704230295E+04  0.25500000920E-02 0. -1.
       -2   -1    0    0    0  501  0.00000000000E+00  0.00000000000E+00 -0.11934057571E+04  0.11934057571E+04  0.25500000920E-02 0.  1.
    10030    2    1    2    0    0  0.00000000000E+00  0.00000000000E+00  0.97701727243E+03  0.33638287866E+04  0.32188167632E+04 0.  0.
        2    1    3    3  502    0  0.11462646588E+04  0.60630100830E+03 -0.50767899110E+03  0.13925737103E+04  0.25500000920E-02 0.  1.
       -2    1    3    3    0  502 -0.11462646588E+04 -0.60630100830E+03  0.14846962635E+04  0.19712550762E+04  0.25500000920E-02 0. -1.
</event>
<event>
 5   0  0.5373060E-06  0.3310255E+04  0.7818609E-02  0.8160291E-01
        2   -1    0    0  501    0  0.00000000000E+00  0.00000000000E+00  0.18888710431E+04  0.18888710431E+04  0.25500000920E-02 0.  1.
       -2   -1    0    0    0  501  0.00000000000E+00  0.00000000000E+00 -0.14503092304E+04  0.14503092304E+04  0.25500000920E-02 0. -1.
    10030    2    1    2    0    0  0.00000000000E+00  0.00000000000E+00  0.43856181265E+03  0.33391802735E+04  0.33102550409E+04 0.  0.
        5    1    3    3  502    0  0.27427661524E+03  0.30065873399E+02 -0.14269392579E+04  0.14533785998E+04  0.46999998093E+01 0. -1.
       -5    1    3    3    0  502 -0.27427661524E+03 -0.30065873399E+02  0.18655010706E+04  0.18858016738E+04  0.46999998093E+01 0.  1.
</event>
<event>
 5   0  0.5347280E-06  0.3295940E+04  0.7818609E-02  0.8163929E-01
        2   -1    0    0  501    0  0.00000000000E+00  0.00000000000E+00  0.13719356053E+04  0.13719356053E+04  0.25500000920E-02 0.  1.
       -2   -1    0    0    0  501  0.00000000000E+00  0.00000000000E+00 -0.19795427647E+04  0.19795427647E+04  0.25500000920E-02 0. -1.
    10030    2    1    2    0    0  0.00000000000E+00  0.00000000000E+00 -0.60760715937E+03  0.33514783700E+04  0.32959400486E+04 0.  0.
        2    1    3    3  502    0 -0.14236213861E+03 -0.13832016473E+04  0.59557264434E+03  0.15126865341E+04  0.25500000920E-02 0. -1.
       -2    1    3    3    0  502  0.14236213861E+03  0.13832016473E+04 -0.12031798037E+04  0.18387918359E+04  0.25500000920E-02 0.  1.
</event>
<event>
 5   0  0.1881144E-06  0.3401089E+04  0.7818609E-02  0.8137639E-01
        1   -1    0    0  501    0  0.00000000000E+00  0.00000000000E+00  0.11764240891E+04  0.11764240891E+04  0.50400001928E-02 0.  1.
       -1   -1    0    0    0  501  0.00000000000E+00  0.00000000000E+00 -0.24581703893E+04  0.24581703893E+04  0.50400001928E-02 0. -1.
    10030    2    1    2    0    0  0.00000000000E+00  0.00000000000E+00 -0.12817463003E+04  0.36345944784E+04  0.34010885675E+04 0.  0.
        3    1    3    3  502    0 -0.16352273108E+04 -0.17669217073E+03 -0.11025800963E+04  0.19801190267E+04  0.10100000352E+00 0. -1.
       -3    1    3    3    0  502  0.16352273108E+04  0.17669217073E+03 -0.17916620401E+03  0.16544754516E+04  0.10100000352E+00 0.  1.
</event>
<event>
 5   0  0.5108810E-06  0.3239970E+04  0.7818609E-02  0.8178340E-01
       -2   -1    0    0    0  501  0.00000000000E+00  0.00000000000E+00  0.16060398557E+04  0.16060398557E+04  0.25500000920E-02 0. -1.
        2   -1    0    0  501    0  0.00000000000E+00  0.00000000000E+00 -0.16340513006E+04  0.16340513006E+04  0.25500000920E-02 0.  1.
    10030    2    1    2    0    0  0.00000000000E+00  0.00000000000E+00 -0.28011444879E+02  0.32400911564E+04  0.32399700709E+04 0.  0.
        1    1    3    3  502    0  0.54402591594E+03 -0.14219170926E+04 -0.56768614686E+03  0.16248322919E+04  0.50400001928E-02 0. -1.
       -1    1    3    3    0  502 -0.54402591594E+03  0.14219170926E+04  0.53967470198E+03  0.16152588645E+04  0.50400001928E-02 0.  1.
</event>
<event>
 5   0  0.1969465E-06  0.3060459E+04  0.7818609E-02  0.8226674E-01
        1   -1    0    0  501    0  0.00000000000E+00  0.00000000000E+00  0.15936304526E+04  0.15936304526E+04  0.50400001928E-02 0.  1.
       -1   -1    0    0    0  501  0.00000000000E+00  0.00000000000E+00 -0.14693511385E+04  0.14693511385E+04  0.50400001928E-02 0. -1.
    10030    2    1    2    0    0  0.00000000000E+00  0.00000000000E+00  0.12427931411E+03  0.30629815912E+04  0.30604592596E+04 0.  0.
        2    1    3    3  502    0  0.10644690043E+04  0.81723615735E+03  0.79802350292E+03  0.15613490030E+04  0.25500000920E-02 0.  1.
       -2    1    3    3    0  502 -0.10644690043E+04 -0.81723615735E+03 -0.67374418880E+03  0.15016325882E+04  0.25500000920E-02 0. -1.
</event>
<event>
 5   0  0.1886248E-06  0.3219163E+04  0.7818609E-02  0.8183775E-01
       -1   -1    0    0    0  501  0.00000000000E+00  0.00000000000E+00  0.12799066310E+04  0.12799066310E+04  0.50400001928E-02 0. -1.
        1   -1    0    0  501    0  0.00000000000E+00  0.00000000000E+00 -0.20241728217E+04  0.20241728217E+04  0.50400001928E-02 0.  1.
    10030    2    1    2    0    0  0.00000000000E+00  0.00000000000E+00 -0.74426619076E+03  0.33040794527E+04  0.32191627587E+04 0.  0.
        4    1    3    3  502    0 -0.83556112407E+03  0.87953360058E+03 -0.14578692736E+04  0.18966091264E+04  0.12699999809E+01 0.  1.
       -4    1    3    3    0  502  0.83556112407E+03 -0.87953360058E+03  0.71360308284E+03  0.14074703263E+04  0.12699999809E+01 0. -1.
</event>
<event>
 5   0  0.5131083E-06  0.3165313E+04  0.7818609E-02  0.8198039E-01
        2   -1    0    0  501    0  0.00000000000E+00  0.00000000000E+00  0.18589442972E+04  0.18589442972E+04  0.25500000920E-02 0. -1.
       -2   -1    0    0    0  501  0.00000000000E+00  0.00000000000E+00 -0.13474319243E+04  0.13474319243E+04  0.25500000920E-02 0.  1.
    10030    2    1    2    0    0  0.00000000000E+00  0.00000000000E+00  0.51151237297E+03  0.32063762215E+04  0.31653125543E+04 0.  0.
        3    1    3    3  502    0 -0.53286191249E+03 -0.52736173721E+03 -0.11561511279E+04  0.13779469005E+04  0.10100000352E+00 0.  1.
       -3    1    3    3    0  502  0.53286191249E+03  0.52736173721E+03  0.16676635009E+04  0.18284293211E+04  0.10100000352E+00 0. -1.
</event>
<event>
 5   0  0.5373060E-06  0.2758842E+04  0.7818609E-02  0.8316161E-01
        2   -1    0    0  501    0  0.00000000000E+00  0.00000000000E+00  0.29266496442E+04  0.29266496442E+04  0.25500000920E-02 0.  1.
       -2   -1    0    0    0  501  0.00000000000E+00  0.00000000000E+00 -0.65016409779E+03  0.65016409779E+03  0.25500000920E-02 0. -1.
    10030    2    1    2    0    0  0.00000000000E+00  0.00000000000E+00  0.22764855464E+04  0.35768137420E+04  0.27588421669E+04 0.  0.
        5    1    3    3  502    0 -0.10870267902E+04  0.73957180763E+03  0.59714342768E+03  0.14440207978E+04  0.46999998093E+01 0. -1.
       -5    1    3    3    0  502  0.10870267902E+04 -0.73957180763E+03  0.16793421187E+04  0.21327929442E+04  0.46999998093E+01 0.  1.
</event>
<event>
 5   0  0.5373060E-06  0.3125755E+04  0.7818609E-02  0.8208705E-01
        2   -1    0    0  501    0  0.00000000000E+00  0.00000000000E+00  0.81002711535E+03  0.81002711535E+03  0.25500000920E-02 0. -1.
       -2   -1    0    0    0  501  0.00000000000E+00  0.00000000000E+00 -0.30154366549E+04  0.30154366549E+04  0.25500000920E-02 0.  1.
    10030    2    1    2    0    0  0.00000000000E+00  0.00000000000E+00 -0.22054095396E+04  0.38254637703E+04  0.31257546002E+04 0.  0.
        5    1    3    3  502    0 -0.78522085567E+03 -0.11331479863E+04 -0.20036859547E+04  0.24321545276E+04  0.46999998093E+01 0.  1.
       -5    1    3    3    0  502  0.78522085567E+03  0.11331479863E+04 -0.20172358493E+03  0.13933092427E+04  0.46999998093E+01 0. -1.
</event>
<event>
 5   0  0.5108810E-06  0.3230238E+04  0.7818609E-02  0.8180877E-01
       -2   -1    0    0    0  501  0.00000000000E+00  0.00000000000E+00  0.10114060265E+04  0.10114060265E+04  0.25500000920E-02 0.  1.
        2   -1    0    0  501    0  0.00000000000E+00  0.00000000000E+00 -0.25791905366E+04  0.25791905366E+04  0.25500000920E-02 0. -1.
    10030    2    1    2    0    0  0.00000000000E+00  0.00000000000E+00 -0.15677845101E+04  0.35905965631E+04  0.32302376707E+04 0.  0.
        1    1    3    3  502    0  0.14432523516E+04  0.69156392068E+03 -0.10258211277E+04  0.19009331900E+04  0.50400001928E-02 0. -1.
       -1    1    3    3    0  502 -0.14432523516E+04 -0.69156392068E+03 -0.54196338236E+03  0.16896633732E+04  0.50400001928E-02 0.  1.
</event>
<event>
 5   0  0.1886248E-06  0.3200175E+04  0.7818609E-02  0.8188771E-01
        1   -1    0    0  501    0  0.00000000000E+00  0.00000000000E+00  0.15476710987E+04  0.15476710988E+04  0.50400001928E-02 0.  1.
       -1   -1    0    0    0  501  0.00000000000E+00  0.00000000000E+00 -0.16542787597E+04  0.16542787597E+04  0.50400001928E-02 0. -1.
    10030    2    1    2    0    0  0.00000000000E+00  0.00000000000E+00 -0.10660766096E+03  0.32019498585E+04  0.32001746363E+04 0.  0.
        4    1    3    3  502    0  0.13375199130E+04  0.73333655781E+03  0.43021965079E+03  0.15848762051E+04  0.12699999809E+01 0. -1.
       -4    1    3    3    0  502 -0.13375199130E+04 -0.73333655781E+03 -0.53682731175E+03  0.16170736533E+04  0.12699999809E+01 0.  1.
</event>
<event>
 5   0  0.1729500E-06  0.3214361E+04  0.7818609E-02  0.8185035E-01
       -3   -1    0    0    0  501  0.00000000000E+00  0.00000000000E+00  0.82643928058E+03  0.82643928675E+03  0.10100000352E+00 0.  1.
        3   -1    0    0  501    0  0.00000000000E+00  0.00000000000E+00 -0.31254918190E+04  0.31254918206E+04  0.10100000352E+00 0. -1.
    10030    2    1    2    0    0  0.00000000000E+00  0.00000000000E+00 -0.22990525384E+04  0.39519311073E+04  0.32143610412E+04 0.  0.
        2    1    3    3  502    0  0.11321746398E+04 -0.10917393706E+04 -0.74303192800E+03  0.17394857615E+04  0.25500000920E-02 0.  1.
       -2    1    3    3    0  502 -0.11321746398E+04  0.10917393706E+04 -0.15560206104E+04  0.22124453458E+04  0.25500000920E-02 0. -1.
</event>
<event>
 5   0  0.5373060E-06  0.3236877E+04  0.7818609E-02  0.8179145E-01
       -2   -1    0    0    0  501  0.00000000000E+00  0.00000000000E+00  0.13984924392E+04  0.13984924392E+04  0.25500000920E-02 0.  1.
        2   -1    0    0  501    0  0.00000000000E+00  0.00000000000E+00 -0.18729758538E+04  0.18729758538E+04  0.25500000920E-02 0. -1.
    10030    2    1    2    0    0  0.00000000000E+00  0.00000000000E+00 -0.47448341462E+03  0.32714682930E+04  0.32368766243E+04 0.  0.
        5    1    3    3  502    0 -0.31830798885E+01 -0.11467393022E+04  0.91702243227E+03  0.14683233262E+04  0.46999998093E+01 0.  1.
       -5    1    3    3    0  502  0.31830798885E+01  0.11467393022E+04 -0.13915058469E+04  0.18031449667E+04  0.46999998093E+01 0. -1.
</event>
<event>
 5   0  0.5347280E-06  0.3187469E+04  0.7818609E-02  0.8192134E-01
        2   -1    0    0  501    0  0.00000000000E+00  0.00000000000E+00  0.18852055369E+04  0.18852055369E+04  0.25500000920E-02 0.  1.
       -2   -1    0    0    0  501  0.00000000000E+00  0.00000000000E+00 -0.13473281116E+04  0.13473281116E+04  0.25500000920E-02 0. -1.
    10030    2    1    2    0    0  0.00000000000E+00  0.00000000000E+00  0.53787742525E+03  0.32325336485E+04  0.31874694766E+04 0.  0.
        2    1    3    3  502    0  0.10023926244E+04  0.91107520427E+02  0.15220861069E+04  0.18247842806E+04  0.25500000920E-02 0. -1.
       -2    1    3    3    0  502 -0.10023926244E+04 -0.91107520427E+02 -0.98420868165E+03  0.14077493679E+04  0.25500000920E-02 0.  1.
</event>
<event>
 5   0  0.5131083E-06  0.3545956E+04  0.7818609E-02  0.8102984E-01
        2   -1    0    0  501    0  0.00000000000E+00  0.00000000000E+00  0.14537916329E+04  0.14537916329E+04  0.25500000920E-02 0. -1.
       -2   -1    0    0    0  501  0.00000000000E+00  0.00000000000E+00 -0.21622432301E+04  0.21622432301E+04  0.25500000920E-02 0.  1.
    10030    2    1    2    0    0  0.00000000000E+00  0.00000000000E+00 -0.70845159718E+03  0.36160348630E+04  0.35459560721E+04 0.  0.
        3    1    3    3  502    0 -0.13509245765E+04  0.11440822390E+04 -0.25467621585E+03  0.17885137310E+04  0.10100000352E+00 0. -1.
       -3    1    3    3    0  502  0.13509245765E+04 -0.11440822390E+04 -0.45377538133E+03  0.18275211320E+04  0.10100000352E+00 0.  1.
</event>
<event>
 5   0  0.1977015E-06  0.3130821E+04  0.7818609E-02  0.8207330E-01
        1   -1    0    0  501    0  0.00000000000E+00  0.00000000000E+00  0.16936483351E+04  0.16936483351E+04  0.50400001928E-02 0.  1.
       -1   -1    0    0    0  501  0.00000000000E+00  0.00000000000E+00 -0.14468823422E+04  0.14468823422E+04  0.50400001928E-02 0. -1.
    10030    2    1    2    0    0  0.00000000000E+00  0.00000000000E+00  0.24676599292E+03  0.31405306774E+04  0.31308208956E+04 0.  0.
        1    1    3    3  502    0 -0.56722863406E+03 -0.13842854659E+04  0.58580651432E+03  0.16066000892E+04  0.50400001928E-02 0. -1.
       -1    1    3    3    0  502  0.56722863406E+03  0.13842854659E+04 -0.33904052139E+03  0.15339305882E+04  0.50400001928E-02 0.  1.
</event>
<event>
 5   0  0.5131083E-06  0.3242440E+04  0.7818609E-02  0.8177698E-01
       -2   -1    0    0    0  501  0.00000000000E+00  0.00000000000E+00  0.15659980815E+04  0.15659980815E+04  0.25500000920E-02 0.  1.
        2   -1    0    0  501    0  0.00000000000E+00  0.00000000000E+00 -0.16783891828E+04  0.16783891828E+04  0.25500000920E-02 0. -1.
    10030    2    1    2    0    0  0.00000000000E+00  0.00000000000E+00 -0.11239110133E+03  0.32443872643E+04  0.32424399703E+04 0.  0.
        3    1    3    3  502    0  0.17181622367E+03 -0.86681178141E+03  0.13038377091E+04  0.15750797634E+04  0.10100000352E+00 0.  1.
       -3    1    3    3    0  502 -0.17181622367E+03  0.86681178141E+03 -0.14162288104E+04  0.16693075010E+04  0.10100000352E+00 0. -1.
</event>
<event>
 5   0  0.5373060E-06  0.3192848E+04  0.7818609E-02  0.8190709E-01
       -2   -1    0    0    0  501  0.00000000000E+00  0.00000000000E+00  0.94422841128E+03  0.94422841128E+03  0.25500000920E-02 0. -1.
        2   -1    0    0  501    0  0.00000000000E+00  0.00000000000E+00 -0.26991024841E+04  0.26991024842E+04  0.25500000920E-02 0.  1.
    10030    2    1    2    0    0  0.00000000000E+00  0.00000000000E+00 -0.17548740729E+04  0.36433308954E+04  0.31928477887E+04 0.  0.
        5    1    3    3  502    0  0.14070461341E+03  0.14355710950E+04 -0.96906381819E+02  0.14457092010E+04  0.46999998093E+01 0. -1.
       -5    1    3    3    0  502 -0.14070461341E+03 -0.14355710950E+04 -0.16579676910E+04  0.21976216944E+04  0.46999998093E+01 0.  1.
</event>
<event>
 5   0  0.1977015E-06  0.3243104E+04  0.7818609E-02  0.8177525E-01
       -1   -1    0    0    0  501  0.00000000000E+00  0.00000000000E+00  0.12595007694E+04  0.12595007695E+04  0.50400001928E-02 0.  1.
        1   -1    0    0  501    0  0.00000000000E+00  0.00000000000E+00 -0.20876765420E+04  0.20876765420E+04  0.50400001928E-02 0. -1.
    10030    2    1    2    0    0  0.00000000000E+00  0.00000000000E+00 -0.82817577257E+03  0.33471773115E+04  0.32431035821E+04 0.  0.
        1    1    3    3  502    0 -0.22916432297E+03  0.11162243605E+03 -0.20668691689E+04  0.20825282751E+04  0.50400001928E-02 0. -1.
       -1    1    3    3    0  502  0.22916432297E+03 -0.11162243605E+03  0.12386933963E+04  0.12646490364E+04  0.50400001928E-02 0.  1.
</event>
<event>
 5   0  0.1969465E-06  0.2415668E+04  0.7818609E-02  0.8433661E-01
        1   -1    0    0  501    0  0.00000000000E+00  0.00000000000E+00  0.20491379325E+04  0.20491379326E+04  0.50400001928E-02 0. -1.
       -1   -1    0    0    0  501  0.00000000000E+00  0.00000000000E+00 -0.71193988875E+03  0.71193988877E+03  0.50400001928E-02 0.  1.
    10030    2    1    2    0    0  0.00000000000E+00  0.00000000000E+00  0.13371980438E+04  0.27610778213E+04  0.24156680498E+04 0.  0.
        2    1    3    3  502    0 -0.47643662899E+03  0.32438189388E+03  0.18818074869E+04  0.19680993096E+04  0.25500000920E-02 0. -1.
       -2    1    3    3    0  502  0.47643662899E+03 -0.32438189388E+03 -0.54460944314E+03  0.79297851174E+03  0.25500000920E-02 0.  1.
</event>
<event>
 5   0  0.5121624E-06  0.2771937E+04  0.7818609E-02  0.8312034E-01
       -2   -1    0    0    0  501  0.00000000000E+00  0.00000000000E+00  0.14612105723E+04  0.14612105723E+04  0.25500000920E-02 0.  1.
        2   -1    0    0  501    0  0.00000000000E+00  0.00000000000E+00 -0.13146008392E+04  0.13146008393E+04  0.25500000920E-02 0. -1.
    10030    2    1    2    0    0  0.00000000000E+00  0.00000000000E+00  0.14660973304E+03  0.27758114115E+04  0.27719369723E+04 0.  0.
        4    1    3    3  502    0  0.34443899787E+03  0.11407389844E+04 -0.63548624721E+03  0.13504695617E+04  0.12699999809E+01 0. -1.
       -4    1    3    3    0  502 -0.34443899787E+03 -0.11407389844E+04  0.78209598025E+03  0.14253418499E+04  0.12699999809E+01 0.  1.
</event>
<event>
 5   0  0.5121624E-06  0.3218149E+04  0.7818609E-02  0.8184040E-01
       -2   -1    0    0    0  501  0.00000000000E+00  0.00000000000E+00  0.10955292706E+04  0.10955292706E+04  0.25500000920E-02 0. -1.
        2   -1    0    0  501    0  0.00000000000E+00  0.00000000000E+00 -0.23633517908E+04  0.23633517908E+04  0.25500000920E-02 0.  1.
    10030    2    1    2    0    0  0.00000000000E+00  0.00000000000E+00 -0.12678225202E+04  0.34588810613E+04  0.32181491969E+04 0.  0.
        4    1    3    3  502    0  0.21324245698E+03 -0.15948798742E+04 -0.63638377057E+03  0.17303468077E+04  0.12699999809E+01 0.  1.
       -4    1    3    3    0  502 -0.21324245698E+03  0.15948798742E+04 -0.63143874962E+03  0.17285342536E+04  0.12699999809E+01 0. -1.
</event>
<event>
 5   0  0.5347280E-06  0.3198330E+04  0.7818609E-02  0.8189258E-01
        2   -1    0    0  501    0  0.00000000000E+00  0.00000000000E+00  0.16054110977E+04  0.16054110977E+04  0.25500000920E-02 0. -1.
       -2   -1    0    0    0  501  0.00000000000E+00  0.00000000000E+00 -0.15929429394E+04  0.15929429394E+04  0.25500000920E-02 0.  1.
    10030    2    1    2    0    0  0.00000000000E+00  0.00000000000E+00  0.12468158274E+02  0.31983540372E+04  0.31983297347E+04 0.  0.
        2    1    3    3  502    0 -0.11145537992E+03  0.15069889155E+04 -0.51711527101E+03  0.15971368434E+04  0.25500000920E-02 0. -1.
       -2    1    3    3    0  502  0.11145537992E+03 -0.15069889155E+04  0.52958342928E+03  0.16012171938E+04  0.25500000920E-02 0.  1.
</event>
<event>
 5   0  0.5108810E-06  0.3232802E+04  0.7818609E-02  0.8180208E-01
       -2   -1    0    0    0  501  0.00000000000E+00  0.00000000000E+00  0.11051936264E+04  0.11051936264E+04  0.25500000920E-02 0.  1.
        2   -1    0    0  501    0  0.00000000000E+00  0.00000000000E+00 -0.23640675695E+04  0.23640675695E+04  0.25500000920E-02 0. -1.
    10030    2    1    2    0    0  0.00000000000E+00  0.00000000000E+00 -0.12588739432E+04  0.34692611959E+04  0.32328021344E+04 0.  0.
        1    1    3    3  502    0 -0.34321770015E+03  0.19295702159E+02 -0.23243863812E+04  0.23496686496E+04  0.50400001928E-02 0. -1.
       -1    1    3    3    0  502  0.34321770015E+03 -0.19295702159E+02  0.10655124381E+04  0.11195925462E+04  0.50400001928E-02 0.  1.
</event>
<event>
 5   0  0.5121624E-06  0.3238714E+04  0.7818609E-02  0.8178667E-01
       -2   -1    0    0    0  501  0.00000000000E+00  0.00000000000E+00  0.16161147496E+04  0.16161147496E+04  0.25500000920E-02 0.  1.
        2   -1    0    0  501    0  0.00000000000E+00  0.00000000000E+00 -0.16226058805E+04  0.16226058805E+04  0.25500000920E-02 0. -1.
    10030    2    1    2    0    0  0.00000000000E+00  0.00000000000E+00 -0.64911308439E+01  0.32387206301E+04  0.32387141252E+04 0.  0.
        4    1    3    3  502    0 -0.77071605171E+02  0.10801899942E+04  0.12007357676E+04  0.16169472633E+04  0.12699999809E+01 0.  1.
       -4    1    3    3    0  502  0.77071605171E+02 -0.10801899942E+04 -0.12072268984E+04  0.16217733667E+04  0.12699999809E+01 0. -1.
</event>
<event>
 5   0  0.5131083E-06  0.3206910E+04  0.7818609E-02  0.8186995E-01
        2   -1    0    0  501    0  0.00000000000E+00  0.00000000000E+00  0.15721348432E+04  0.15721348432E+04  0.25500000920E-02 0. -1.
       -2   -1    0    0    0  501  0.00000000000E+00  0.00000000000E+00 -0.16353990268E+04  0.16353990268E+04  0.25500000920E-02 0.  1.
    10030    2    1    2    0    0  0.00000000000E+00  0.00000000000E+00 -0.63264183647E+02  0.32075338700E+04  0.32069099099E+04 0.  0.
        3    1    3    3  502    0  0.15830322684E+03 -0.30640938171E+03 -0.15978617876E+04  0.16346586565E+04  0.10100000352E+00 0.  1.
       -3    1    3    3    0  502 -0.15830322684E+03  0.30640938171E+03  0.15345976040E+04  0.15728752135E+04  0.10100000352E+00 0. -1.
</event>
<event>
 5   0  0.1881144E-06  0.3651343E+04  0.7818609E-02  0.8078831E-01
       -1   -1    0    0    0  501  0.00000000000E+00  0.00000000000E+00  0.14129942557E+04  0.14129942557E+04  0.50400001928E-02 0. -1.
        1   -1    0    0  501    0  0.00000000000E+00  0.00000000000E+00 -0.23588749755E+04  0.23588749755E+04  0.50400001928E-02 0.  1.
    10030    2    1    2    0    0  0.00000000000E+00  0.00000000000E+00 -0.94588071977E+03  0.37718692312E+04  0.36513431996E+04 0.  0.
        3    1    3    3  502    0 -0.24667497740E+03 -0.25971289674E+03 -0.23222213701E+04  0.23496832627E+04  0.10100000352E+00 0.  1.
       -3    1    3    3    0  502  0.24667497740E+03  0.25971289674E+03  0.13763406503E+04  0.14221859685E+04  0.10100000352E+00 0. -1.
</event>
<event>
 5   0  0.1881144E-06  0.3110767E+04  0.7818609E-02  0.8212789E-01
        1   -1    0    0  501    0  0.00000000000E+00  0.00000000000E+00  0.18455229434E+04  0.18455229435E+04  0.50400001928E-02 0.  1.
       -1   -1    0    0    0  501  0.00000000000E+00  0.00000000000E+00 -0.13108577845E+04  0.13108577845E+04  0.50400001928E-02 0. -1.
    10030    2    1    2    0    0  0.00000000000E+00  0.00000000000E+00  0.53466515893E+03  0.31563807280E+04  0.31107671832E+04 0.  0.
        3    1    3    3  502    0  0.21057108801E+03 -0.58452534258E+03  0.17141468518E+04  0.18232689047E+04  0.10100000352E+00 0.  1.
       -3    1    3    3    0  502 -0.21057108801E+03  0.58452534258E+03 -0.11794816929E+04  0.13331118232E+04  0.10100000352E+00 0. -1.
</event>
<event>
 5   0  0.1886248E-06  0.3037676E+04  0.7818609E-02  0.8233053E-01
        1   -1    0    0  501    0  0.00000000000E+00  0.00000000000E+00  0.19938727063E+04  0.19938727063E+04  0.50400001928E-02 0.  1.
       -1   -1    0    0    0  501  0.00000000000E+00  0.00000000000E+00 -0.11569793756E+04  0.11569793756E+04  0.50400001928E-02 0. -1.
    10030    2    1    2    0    0  0.00000000000E+00  0.00000000000E+00  0.83689333076E+03  0.31508520819E+04  0.30376764796E+04 0.  0.
        4    1    3    3  502    0 -0.67309115035E+03  0.78766073405E+03 -0.73351937470E+03  0.12694539829E+04  0.12699999809E+01 0. -1.
       -4    1    3    3    0  502  0.67309115035E+03 -0.78766073405E+03  0.15704127055E+04  0.18813980990E+04  0.12699999809E+01 0.  1.
</event>
<event>
 5   0  0.1977015E-06  0.2804647E+04  0.7818609E-02  0.8301827E-01
       -1   -1    0    0    0  501  0.00000000000E+00  0.00000000000E+00  0.14251305494E+04  0.14251305494E+04  0.50400001928E-02 0. -1.
        1   -1    0    0  501    0  0.00000000000E+00  0.00000000000E+00 -0.13798815244E+04  0.13798815244E+04  0.50400001928E-02 0.  1.
    10030    2    1    2    0    0  0.00000000000E+00  0.00000000000E+00  0.45249024976E+02  0.28050120738E+04  0.28046470830E+04 0.  0.
        1    1    3    3  502    0 -0.12919791502E+04  0.35827033527E+03 -0.38845641895E+03  0.13958746889E+04  0.50400001928E-02 0.  1.
       -1    1    3    3    0  502  0.12919791502E+04 -0.35827033527E+03  0.43370544392E+03  0.14091373850E+04  0.50400001928E-02 0. -1.
</event>
<event>
 5   0  0.5108810E-06  0.2951733E+04  0.7818609E-02  0.8257650E-01
        2   -1    0    0  501    0  0.00000000000E+00  0.00000000000E+00  0.19305673440E+04  0.19305673440E+04  0.25500000920E-02 0.  1.
       -2   -1    0    0    0  501  0.00000000000E+00  0.00000000000E+00 -0.11282602222E+04  0.11282602222E+04  0.25500000920E-02 0. -1.
    10030    2    1    2    0    0  0.00000000000E+00  0.00000000000E+00  0.80230712182E+03  0.30588275662E+04  0.29517332810E+04 0.  0.
        1    1    3    3  502    0  0.64793166096E+03  0.93453948908E+03 -0.57372432093E+03  0.12737107562E+04  0.50400001928E-02 0. -1.
       -1    1    3    3    0  502 -0.64793166096E+03 -0.93453948908E+03  0.13760314428E+04  0.17851168100E+04  0.50400001928E-02 0.  1.
</event>
<event>
 5   0  0.5121624E-06  0.3025112E+04  0.7818609E-02  0.8236596E-01
        2   -1    0    0  501    0  0.00000000000E+00  0.00000000000E+00  0.14641857176E+04  0.14641857176E+04  0.25500000920E-02 0. -1.
       -2   -1    0    0    0  501  0.00000000000E+00  0.00000000000E+00 -0.15625246175E+04  0.15625246175E+04  0.25500000920E-02 0.  1.
    10030    2    1    2    0    0  0.00000000000E+00  0.00000000000E+00 -0.98338899905E+02  0.30267103351E+04  0.30251123803E+04 0.  0.
        4    1    3    3  502    0  0.13689684764E+04  0.33345572014E+03  0.50117310942E+03  0.14954743412E+04  0.12699999809E+01 0. -1.
       -4    1    3    3    0  502 -0.13689684764E+04 -0.33345572014E+03 -0.59951200933E+03  0.15312359939E+04  0.12699999809E+01 0.  1.
</event>
<event>
 5   0  0.5347280E-06  0.3168896E+04  0.7818609E-02  0.8197080E-01
        2   -1    0    0  501    0  0.00000000000E+00  0.00000000000E+00  0.10379410746E+04  0.10379410746E+04  0.25500000920E-02 0.  1.
       -2   -1    0    0    0  501  0.00000000000E+00  0.00000000000E+00 -0.24187069964E+04  0.24187069964E+04  0.25500000920E-02 0. -1.
    10030    2    1    2    0    0  0.00000000000E+00  0.00000000000E+00 -0.13807659217E+04  0.34566480710E+04  0.31688959207E+04 0.  0.
        2    1    3    3  502    0 -0.33622323447E+03  0.20249879335E+03  0.98407351644E+03  0.10594585931E+04  0.25500000920E-02 0.  1.
       -2    1    3    3    0  502  0.33622323447E+03 -0.20249879335E+03 -0.23648394382E+04  0.23971894779E+04  0.25500000920E-02 0. -1.
</event>
<event>
 5   0  0.1846850E-06  0.3183079E+04  0.7818609E-02  0.8193300E-01
       -1   -1    0    0    0  501  0.00000000000E+00  0.00000000000E+00  0.16011073981E+04  0.16011073981E+04  0.50400001928E-02 0.  1.
        1   -1    0    0  501    0  0.00000000000E+00  0.00000000000E+00 -0.15820285873E+04  0.15820285873E+04  0.50400001928E-02 0. -1.
    10030    2    1    2    0    0  0.00000000000E+00  0.00000000000E+00  0.19078810840E+02  0.31831359854E+04  0.31830788084E+04 0.  0.
        5    1    3    3  502    0 -0.66426685061E+03 -0.36111529567E+03  0.14100362251E+04  0.15999621719E+04  0.46999998093E+01 0.  1.
       -5    1    3    3    0  502  0.66426685061E+03  0.36111529567E+03 -0.13909574142E+04  0.15831738135E+04  0.46999998093E+01 0. -1.
</event>
<event>
 5   0  0.1881144E-06  0.3294094E+04  0.7818609E-02  0.8164400E-01
        1   -1    0    0  501    0  0.00000000000E+00  0.00000000000E+00  0.13811651896E+04  0.13811651896E+04  0.50400001928E-02 0.  1.
       -1   -1    0    0    0  501  0.00000000000E+00  0.00000000000E+00 -0.19641121328E+04  0.19641121328E+04  0.50400001928E-02 0. -1.
    10030    2    1    2    0    0  0.00000000000E+00  0.00000000000E+00 -0.58294694320E+03  0.33452773224E+04  0.32940936879E+04 0.  0.
        3    1    3    3  502    0  0.84032411993E+03 -0.13995904171E+04 -0.69524780534E+02  0.16339619541E+04  0.10100000352E+00 0.  1.
       -3    1    3    3    0  502 -0.84032411993E+03  0.13995904171E+04 -0.51342216266E+03  0.17113153682E+04  0.10100000352E+00 0. -1.
</event>
<event>
 5   0  0.5108810E-06  0.3185717E+04  0.7818609E-02  0.8192599E-01
       -2   -1    0    0    0  501  0.00000000000E+00  0.00000000000E+00  0.16418419970E+04  0.16418419970E+04  0.25500000920E-02 0. -1.
        2   -1    0    0  501    0  0.00000000000E+00  0.00000000000E+00 -0.15453368221E+04  0.15453368221E+04  0.25500000920E-02 0.  1.
    10030    2    1    2    0    0  0.00000000000E+00  0.00000000000E+00  0.96505174884E+02  0.31871788192E+04  0.31857174351E+04 0.  0.
        1    1    3    3  502    0  0.10375201705E+04 -0.11771653559E+04  0.32229887890E+03  0.16018873077E+04  0.50400001928E-02 0. -1.
       -1    1    3    3    0  502 -0.10375201705E+04  0.11771653559E+04 -0.22579370401E+03  0.15852915114E+04  0.50400001928E-02 0.  1.
</event>
<event>
 5   0  0.1886248E-06  0.1998999E+04  0.7818609E-02  0.8607089E-01
        1   -1    0    0  501    0  0.00000000000E+00  0.00000000000E+00  0.17189955181E+04  0.17189955181E+04  0.50400001928E-02 0. -1.
       -1   -1    0    0    0  501  0.00000000000E+00  0.00000000000E+00 -0.58115305429E+03  0.58115305431E+03  0.50400001928E-02 0.  1.
    10030    2    1    2    0    0  0.00000000000E+00  0.00000000000E+00  0.11378424638E+04  0.23001485724E+04  0.19989992453E+04 0.  0.
        4    1    3    3  502    0 -0.31566050087E+03 -0.34527779840E+03  0.15852387536E+04  0.16528284329E+04  0.12699999809E+01 0. -1.
       -4    1    3    3    0  502  0.31566050087E+03  0.34527779840E+03 -0.44739628983E+03  0.64732013945E+03  0.12699999809E+01 0.  1.
</event>
<event>
 5   0  0.1881144E-06  0.2817183E+04  0.7818609E-02  0.8297953E-01
       -1   -1    0    0    0  501  0.00000000000E+00  0.00000000000E+00  0.10912459093E+04  0.10912459094E+04  0.50400001928E-02 0.  1.
        1   -1    0    0  501    0  0.00000000000E+00  0.00000000000E+00 -0.18182247078E+04  0.18182247078E+04  0.50400001928E-02 0. -1.
    10030    2    1    2    0    0  0.00000000000E+00  0.00000000000E+00 -0.72697879847E+03  0.29094706172E+04  0.28171831852E+04 0.  0.
        3    1    3    3  502    0 -0.11339360372E+04  0.53881710428E+03 -0.10231591216E+04  0.16195645732E+04  0.10100000352E+00 0. -1.
       -3    1    3    3    0  502  0.11339360372E+04 -0.53881710428E+03  0.29618032314E+03  0.12899060440E+04  0.10100000352E+00 0.  1.
</event>
<event>
 5   0  0.1977015E-06  0.3171918E+04  0.7818609E-02  0.8196273E-01
        1   -1    0    0  501    0  0.00000000000E+00  0.00000000000E+00  0.25543626714E+04  0.25543626714E+04  0.50400001928E-02 0.  1.
       -1   -1    0    0    0  501  0.00000000000E+00  0.00000000000E+00 -0.98469382916E+03  0.98469382917E+03  0.50400001928E-02 0. -1.
    10030    2    1    2    0    0  0.00000000000E+00  0.00000000000E+00  0.15696688422E+04  0.35390565006E+04  0.31719175021E+04 0.  0.
        1    1    3    3  502    0 -0.12118332102E+04  0.98825264537E+03  0.10802063976E+04  0.19005338413E+04  0.50400001928E-02 0. -1.
       -1    1    3    3    0  502  0.12118332102E+04 -0.98825264537E+03  0.48946244461E+03  0.16385226593E+04  0.50400001928E-02 0.  1.
</event>
<event>
 5   0  0.1846850E-06  0.3191141E+04  0.7818609E-02  0.8191161E-01
        1   -1    0    0  501    0  0.00000000000E+00  0.00000000000E+00  0.22521240831E+04  0.22521240831E+04  0.50400001928E-02 0.  1.
       -1   -1    0    0    0  501  0.00000000000E+00  0.00000000000E+00 -0.11304196069E+04  0.11304196069E+04  0.50400001928E-02 0. -1.
    10030    2    1    2    0    0  0.00000000000E+00  0.00000000000E+00  0.11217044762E+04  0.33825436901E+04  0.31911410002E+04 0.  0.
        5    1    3    3  502    0 -0.13699689427E+04  0.80364366850E+03  0.72218194025E+03  0.17447713015E+04  0.46999998093E+01 0. -1.
       -5    1    3    3    0  502  0.13699689427E+04 -0.80364366850E+03  0.39952253595E+03  0.16377723885E+04  0.46999998093E+01 0.  1.
</event>
<event>
 5   0  0.1881144E-06  0.3277257E+04  0.7818609E-02  0.8168706E-01
        1   -1    0    0  501    0  0.00000000000E+00  0.00000000000E+00  0.19811036621E+04  0.19811036621E+04  0.50400001928E-02 0.  1.
       -1   -1    0    0    0  501  0.00000000000E+00  0.00000000000E+00 -0.13553576406E+04  0.13553576406E+04  0.50400001928E-02 0. -1.
    10030    2    1    2    0    0  0.00000000000E+00  0.00000000000E+00  0.62574602154E+03  0.33364613027E+04  0.32772573809E+04 0.  0.
        3    1    3    3  502    0  0.46296403367E+03 -0.14579596007E+04 -0.28521061881E+03  0.15560613744E+04  0.10100000352E+00 0. -1.
       -3    1    3    3    0  502 -0.46296403367E+03  0.14579596007E+04  0.91095664035E+03  0.17803999282E+04  0.10100000352E+00 0.  1.
</event>
<event>
 5   0  0.5121624E-06  0.2045223E+04  0.7818609E-02  0.8585764E-01
        2   -1    0    0  501    0  0.00000000000E+00  0.00000000000E+00  0.87024584659E+03  0.87024584660E+03  0.25500000920E-02 0.  1.
       -2   -1    0    0    0  501  0.00000000000E+00  0.00000000000E+00 -0.12016542256E+04  0.12016542256E+04  0.25500000920E-02 0. -1.
    10030    2    1    2    0    0  0.00000000000E+00  0.00000000000E+00 -0.33140837903E+03  0.20719000722E+04  0.20452233119E+04 0.  0.
        4    1    3    3  502    0 -0.20377872476E+03  0.66225100161E+03  0.59618990444E+03  0.91408214776E+03  0.12699999809E+01 0.  1.
       -4    1    3    3    0  502  0.20377872476E+03 -0.66225100161E+03 -0.92759828347E+03  0.11578179245E+04  0.12699999809E+01 0. -1.
</event>
<event>
 5   0  0.5108810E-06  0.3211912E+04  0.7818609E-02  0.8185678E-01
        2   -1    0    0  501    0  0.00000000000E+00  0.00000000000E+00  0.23638738328E+04  0.23638738328E+04  0.25500000920E-02 0. -1.
       -2   -1    0    0    0  501  0.00000000000E+00  0.00000000000E+00 -0.10910455842E+04  0.10910455842E+04  0.25500000920E-02 0.  1.
    10030    2    1    2    0    0  0.00000000000E+00  0.00000000000E+00  0.12728282486E+04  0.34549194169E+04  0.32119116468E+04 0.  0.
        1    1    3    3  502    0  0.74453875263E+03  0.16976246663E+03  0.21560786691E+04  0.22873199331E+04  0.50400001928E-02 0. -1.
       -1    1    3    3    0  502 -0.74453875263E+03 -0.16976246663E+03 -0.88325042049E+03  0.11675994838E+04  0.50400001928E-02 0.  1.
</event>
<event>
 5   0  0.1886248E-06  0.2860614E+04  0.7818609E-02  0.8284693E-01
        1   -1    0    0  501    0  0.00000000000E+00  0.00000000000E+00  0.88411678160E+03  0.88411678161E+03  0.50400001928E-02 0. -1.
       -1   -1    0    0    0  501  0.00000000000E+00  0.00000000000E+00 -0.23139232770E+04  0.23139232770E+04  0.50400001928E-02 0.  1.
    10030    2    1    2    0    0  0.00000000000E+00  0.00000000000E+00 -0.14298064954E+04  0.31980400586E+04  0.28606142002E+04 0.  0.
        4    1    3    3  502    0 -0.13334392424E+03  0.13764582365E+04 -0.11231621147E+04  0.17815478179E+04  0.12699999809E+01 0.  1.
       -4    1    3    3    0  502  0.13334392424E+03 -0.13764582365E+04 -0.30664438075E+03  0.14164922407E+04  0.12699999809E+01 0. -1.
</event>
<event>
 5   0  0.5373060E-06  0.3082213E+04  0.7818609E-02  0.8220636E-01
       -2   -1    0    0    0  501  0.00000000000E+00  0.00000000000E+00  0.14912381350E+04  0.14912381350E+04  0.25500000920E-02 0. -1.
        2   -1    0    0  501    0  0.00000000000E+00  0.00000000000E+00 -0.15926421631E+04  0.15926421631E+04  0.25500000920E-02 0.  1.
    10030    2    1    2    0    0  0.00000000000E+00  0.00000000000E+00 -0.10140402809E+03  0.30838802982E+04  0.30822126657E+04 0.  0.
        5    1    3    3  502    0  0.82979054932E+03  0.81797091330E+03  0.95848530753E+03  0.15087560921E+04  0.46999998093E+01 0. -1.
       -5    1    3    3    0  502 -0.82979054932E+03 -0.81797091330E+03 -0.10598893356E+04  0.15751242061E+04  0.46999998093E+01 0.  1.
</event>
<event>
 5   0  0.1886248E-06  0.3138554E+04  0.7818609E-02  0.8205236E-01
       -1   -1    0    0    0  501  0.00000000000E+00  0.00000000000E+00  0.13063443916E+04  0.13063443917E+04  0.50400001928E-02 0. -1.
        1   -1    0    0  501    0  0.00000000000E+00  0.00000000000E+00 -0.18851311082E+04  0.18851311082E+04  0.50400001928E-02 0.  1.
    10030    2    1    2    0    0  0.00000000000E+00  0.00000000000E+00 -0.57878671654E+03  0.31914754999E+04  0.31385540943E+04 0.  0.
        4    1    3    3  502    0 -0.38938984584E+01 -0.14327612800E+04  0.36156398584E+03  0.14776840585E+04  0.12699999809E+01 0. -1.
       -4    1    3    3    0  502  0.38938984584E+01  0.14327612800E+04 -0.94035070238E+03  0.17137914413E+04  0.12699999809E+01 0.  1.
</event>
<event>
 5   0  0.1977015E-06  0.3238669E+04  0.7818609E-02  0.8178679E-01
       -1   -1    0    0    0  501  0.00000000000E+00  0.00000000000E+00  0.10720793485E+04  0.10720793485E+04  0.50400001928E-02 0. -1.
        1   -1    0    0  501    0  0.00000000000E+00  0.00000000000E+00 -0.24459423018E+04  0.24459423018E+04  0.50400001928E-02 0.  1.
    10030    2    1    2    0    0  0.00000000000E+00  0.00000000000E+00 -0.13738629533E+04  0.35180216504E+04  0.32386690041E+04 0.  0.
        1    1    3    3  502    0 -0.15703625204E+04 -0.37695912086E+03 -0.55791101448E+03  0.17086255659E+04  0.50400001928E-02 0.  1.
       -1    1    3    3    0  502  0.15703625204E+04  0.37695912086E+03 -0.81595193882E+03  0.18093960845E+04  0.50400001928E-02 0. -1.
</event>
<event>
 5   0  0.1977015E-06  0.2085399E+04  0.7818609E-02  0.8567703E-01
        1   -1    0    0  501    0  0.00000000000E+00  0.00000000000E+00  0.10079280637E+04  0.10079280637E+04  0.50400001928E-02 0.  1.
       -1   -1    0    0    0  501  0.00000000000E+00  0.00000000000E+00 -0.10786700202E+04  0.10786700202E+04  0.50400001928E-02 0. -1.
    10030    2    1    2    0    0  0.00000000000E+00  0.00000000000E+00 -0.70741956508E+02  0.20865980839E+04  0.20853985565E+04 0.  0.
        1    1    3    3  502    0  0.27379219730E+03 -0.99704556820E+03 -0.17020661719E+03  0.10478703760E+04  0.50400001928E-02 0. -1.
       -1    1    3    3    0  502 -0.27379219730E+03  0.99704556820E+03  0.99464660685E+02  0.10387277079E+04  0.50400001928E-02 0.  1.
</event>
<event>
 5   0  0.1881144E-06  0.2904474E+04  0.7818609E-02  0.8271548E-01
        1   -1    0    0  501    0  0.00000000000E+00  0.00000000000E+00  0.15967252285E+04  0.15967252285E+04  0.50400001928E-02 0. -1.
       -1   -1    0    0    0  501  0.00000000000E+00  0.00000000000E+00 -0.13208232838E+04  0.13208232838E+04  0.50400001928E-02 0.  1.
    10030    2    1    2    0    0  0.00000000000E+00  0.00000000000E+00  0.27590194470E+03  0.29175485123E+04  0.29044736939E+04 0.  0.
        3    1    3    3  502    0  0.10156829206E+03 -0.52647369592E+03  0.14936565008E+04  0.15869783940E+04  0.10100000352E+00 0. -1.
       -3    1    3    3    0  502 -0.10156829206E+03  0.52647369592E+03 -0.12177545561E+04  0.13305701183E+04  0.10100000352E+00 0.  1.
</event>
<event>
 5   0  0.5373060E-06  0.2017493E+04  0.7818609E-02  0.8598486E-01
        2   -1    0    0  501    0  0.00000000000E+00  0.00000000000E+00  0.16967069095E+04  0.16967069095E+04  0.25500000920E-02 0. -1.
       -2   -1    0    0    0  501  0.00000000000E+00  0.00000000000E+00 -0.59973204664E+03  0.59973204665E+03  0.25500000920E-02 0.  1.
    10030    2    1    2    0    0  0.00000000000E+00  0.00000000000E+00  0.10969748628E+04  0.22964389561E+04  0.20174930061E+04 0.  0.
        5    1    3    3  502    0  0.42116363877E+03 -0.91102057463E+02 -0.48968703556E+03  0.65229891790E+03  0.46999998093E+01 0.  1.
       -5    1    3    3    0  502 -0.42116363877E+03  0.91102057463E+02  0.15866618984E+04  0.16441400382E+04  0.46999998093E+01 0. -1.
</event>
<event>
 5   0  0.5108810E-06  0.3404806E+04  0.7818609E-02  0.8136728E-01
       -2   -1    0    0    0  501  0.00000000000E+00  0.00000000000E+00  0.17716812171E+04  0.17716812171E+04  0.25500000920E-02 0.  1.
        2   -1    0    0  501    0  0.00000000000E+00  0.00000000000E+00 -0.16358338404E+04  0.16358338404E+04  0.25500000920E-02 0. -1.
    10030    2    1    2    0    0  0.00000000000E+00  0.00000000000E+00  0.13584737676E+03  0.34075150575E+04  0.34048060675E+04 0.  0.
        1    1    3    3  502    0  0.35965076024E+01  0.10976431218E+04 -0.12343966932E+04  0.16518379321E+04  0.50400001928E-02 0. -1.
       -1    1    3    3    0  502 -0.35965076024E+01 -0.10976431218E+04  0.13702440699E+04  0.17556771255E+04  0.50400001928E-02 0.  1.
</event>
<event>
 5   0  0.1886248E-06  0.3126138E+04  0.7818609E-02  0.8208601E-01
        1   -1    0    0  501    0  0.00000000000E+00  0.00000000000E+00  0.15126634485E+04  0.15126634485E+04  0.50400001928E-02 0. -1.
       -1   -1    0    0    0  501  0.00000000000E+00  0.00000000000E+00 -0.16151539191E+04  0.16151539191E+04  0.50400001928E-02 0.  1.
    10030    2    1    2    0    0  0.00000000000E+00  0.00000000000E+00 -0.10249047068E+03  0.31278173676E+04  0.31261377431E+04 0.  0.
        4    1    3    3  502    0 -0.98896295554E+03  0.82926972315E+03 -0.93344834529E+03  0.15928161939E+04  0.12699999809E+01 0.  1.
       -4    1    3    3    0  502  0.98896295554E+03 -0.82926972315E+03  0.83095787461E+03  0.15350011738E+04  0.12699999809E+01 0. -1.
</event>
<event>
 5   0  0.1881144E-06  0.3206289E+04  0.7818609E-02  0.8187158E-01
        1   -1    0    0  501    0  0.00000000000E+00  0.00000000000E+00  0.22067010368E+04  0.22067010368E+04  0.50400001928E-02 0.  1.
       -1   -1    0    0    0  501  0.00000000000E+00  0.00000000000E+00 -0.11646674509E+04  0.11646674509E+04  0.50400001928E-02 0. -1.
    10030    2    1    2    0    0  0.00000000000E+00  0.00000000000E+00  0.10420335859E+04  0.33713684877E+04  0.32062893640E+04 0.  0.
        3    1    3    3  502    0  0.30375208579E+03  0.89167285229E+03  0.18850041587E+04  0.21072699148E+04  0.10100000352E+00 0.  1.
       -3    1    3    3    0  502 -0.30375208579E+03 -0.89167285229E+03 -0.84297057284E+03  0.12640985729E+04  0.10100000352E+00 0. -1.
</event>
<event>
 5   0  0.5373060E-06  0.3095365E+04  0.7818609E-02  0.8217011E-01
       -2   -1    0    0    0  501  0.00000000000E+00  0.00000000000E+00  0.11098645890E+04  0.11098645890E+04  0.25500000920E-02 0.  1.
        2   -1    0    0  501    0  0.00000000000E+00  0.00000000000E+00 -0.21582097073E+04  0.21582097073E+04  0.25500000920E-02 0. -1.
    10030    2    1    2    0    0  0.00000000000E+00  0.00000000000E+00 -0.10483451183E+04  0.32680742964E+04  0.30953646182E+04 0.  0.
        5    1    3    3  502    0 -0.13833246978E+04 -0.56277896177E+03 -0.95302739738E+03  0.17716068101E+04  0.46999998093E+01 0. -1.
       -5    1    3    3    0  502  0.13833246978E+04  0.56277896177E+03 -0.95317720914E+02  0.14964674862E+04  0.46999998093E+01 0.  1.
</event>
<event>
 5   0  0.1881144E-06  0.2267355E+04  0.7818609E-02  0.8490905E-01
        1   -1    0    0  501    0  0.00000000000E+00  0.00000000000E+00  0.74616949946E+03  0.74616949948E+03  0.50400001928E-02 0. -1.
       -1   -1    0    0    0  501  0.00000000000E+00  0.00000000000E+00 -0.17224300872E+04  0.17224300872E+04  0.50400001928E-02 0.  1.
    10030    2    1    2    0    0  0.00000000000E+00  0.00000000000E+00 -0.97626058772E+03  0.24685995867E+04  0.22673551076E+04 0.  0.
        3    1    3    3  502    0 -0.38981150038E+03 -0.31961390853E+03 -0.15936982590E+04  0.16715203281E+04  0.10100000352E+00 0.  1.
       -3    1    3    3    0  502  0.38981150038E+03  0.31961390853E+03  0.61743767126E+03  0.79707925857E+03  0.10100000352E+00 0. -1.
</event>
<event>
 5   0  0.1881144E-06  0.3316068E+04  0.7818609E-02  0.8158819E-01
        1   -1    0    0  501    0  0.00000000000E+00  0.00000000000E+00  0.19067991156E+04  0.19067991156E+04  0.50400001928E-02 0. -1.
       -1   -1    0    0    0  501  0.00000000000E+00  0.00000000000E+00 -0.14417231688E+04  0.14417231688E+04  0.50400001928E-02 0.  1.
    10030    2    1    2    0    0  0.00000000000E+00  0.00000000000E+00  0.46507594686E+03  0.33485222844E+04  0.33160678299E+04 0.  0.
        3    1    3    3  502    0  0.10668268795E+04  0.12615277644E+04  0.91512395719E+02  0.16546741129E+04  0.10100000352E+00 0. -1.
       -3    1    3    3    0  502 -0.10668268795E+04 -0.12615277644E+04  0.37356355114E+03  0.16938481715E+04  0.10100000352E+00 0.  1.
</event>
<event>
 5   0  0.5121624E-06  0.3219798E+04  0.7818609E-02  0.8183608E-01
       -2   -1    0    0    0  501  0.00000000000E+00  0.00000000000E+00  0.12105280296E+04  0.12105280296E+04  0.25500000920E-02 0.  1.
        2   -1    0    0  501    0  0.00000000000E+00  0.00000000000E+00 -0.21410285723E+04  0.21410285723E+04  0.25500000920E-02 0. -1.
    10030    2    1    2    0    0  0.00000000000E+00  0.00000000000E+00 -0.93050054265E+03  0.33515566019E+04  0.32197981918E+04 0.  0.
        4    1    3    3  502    0  0.98560253408E+03  0.10727568610E+04  0.24803065069E+03  0.14777484409E+04  0.12699999809E+01 0.  1.
       -4    1    3    3    0  502 -0.98560253408E+03 -0.10727568610E+04 -0.11785311933E+04  0.18738081611E+04  0.12699999809E+01 0. -1.
</event>
<event>
 5   0  0.5347280E-06  0.2993188E+04  0.7818609E-02  0.8245679E-01
       -2   -1    0    0    0  501  0.00000000000E+00  0.00000000000E+00  0.78275373699E+03  0.78275373699E+03  0.25500000920E-02 0. -1.
        2   -1    0    0  501    0  0.00000000000E+00  0.00000000000E+00 -0.28614286618E+04  0.28614286618E+04  0.25500000920E-02 0.  1.
    10030    2    1    2    0    0  0.00000000000E+00  0.00000000000E+00 -0.20786749248E+04  0.36441823988E+04  0.29931882521E+04 0.  0.
        2    1    3    3  502    0 -0.12883829173E+04 -0.76017586010E+03 -0.98494270698E+03  0.17910639341E+04  0.25500000920E-02 0.  1.
       -2    1    3    3    0  502  0.12883829173E+04  0.76017586010E+03 -0.10937322178E+04  0.18531184647E+04  0.25500000920E-02 0. -1.
</event>
<event>
 5   0  0.1969465E-06  0.2796465E+04  0.7818609E-02  0.8304367E-01
        1   -1    0    0  501    0  0.00000000000E+00  0.00000000000E+00  0.11772243190E+04  0.11772243190E+04  0.50400001928E-02 0. -1.
       -1   -1    0    0    0  501  0.00000000000E+00  0.00000000000E+00 -0.16607318848E+04  0.16607318848E+04  0.50400001928E-02 0.  1.
    10030    2    1    2    0    0  0.00000000000E+00  0.00000000000E+00 -0.48350756583E+03  0.28379562038E+04  0.27964648842E+04 0.  0.
        2    1    3    3  502    0  0.66164424597E+03  0.78341981169E+03  0.72289368658E+03  0.12546294240E+04  0.25500000920E-02 0. -1.
       -2    1    3    3    0  502 -0.66164424597E+03 -0.78341981169E+03 -0.12064012524E+04  0.15833267797E+04  0.25500000920E-02 0.  1.
</event>
<event>
 5   0  0.5347280E-06  0.3280501E+04  0.7818609E-02  0.8167875E-01
        2   -1    0    0  501    0  0.00000000000E+00  0.00000000000E+00  0.13774039278E+04  0.13774039278E+04  0.25500000920E-02 0.  1.
       -2   -1    0    0    0  501  0.00000000000E+00  0.00000000000E+00 -0.19532559956E+04  0.19532559956E+04  0.25500000920E-02 0. -1.
    10030    2    1    2    0    0  0.00000000000E+00  0.00000000000E+00 -0.57585206780E+03  0.33306599234E+04  0.32805014740E+04 0.  0.
        2    1    3    3  502    0 -0.73002550001E+03  0.10569626791E+03 -0.17753563803E+04  0.19224981687E+04  0.25500000920E-02 0. -1.
       -2    1    3    3    0  502  0.73002550001E+03 -0.10569626791E+03  0.11995043124E+04  0.14081617547E+04  0.25500000920E-02 0.  1.
</event>
<event>
 5   0  0.1969465E-06  0.3129833E+04  0.7818609E-02  0.8207598E-01
       -1   -1    0    0    0  501  0.00000000000E+00  0.00000000000E+00  0.24533500870E+04  0.24533500870E+04  0.50400001928E-02 0. -1.
        1   -1    0    0  501    0  0.00000000000E+00  0.00000000000E+00 -0.99821224821E+03  0.99821224822E+03  0.50400001928E-02 0.  1.
    10030    2    1    2    0    0  0.00000000000E+00  0.00000000000E+00  0.14551378388E+04  0.34515623352E+04  0.31298332901E+04 0.  0.
        2    1    3    3  502    0  0.11311932136E+04 -0.63019165740E+03  0.16966638061E+04  0.21343401047E+04  0.25500000920E-02 0. -1.
       -2    1    3    3    0  502 -0.11311932136E+04  0.63019165740E+03 -0.24152596738E+03  0.13172222305E+04  0.25500000920E-02 0.  1.
</event>
<event>
 5   0  0.1729500E-06  0.2998574E+04  0.7818609E-02  0.8244138E-01
        3   -1    0    0  501    0  0.00000000000E+00  0.00000000000E+00  0.16046614598E+04  0.16046614630E+04  0.10100000352E+00 0. -1.
       -3   -1    0    0    0  501  0.00000000000E+00  0.00000000000E+00 -0.14008319884E+04  0.14008319921E+04  0.10100000352E+00 0.  1.
    10030    2    1    2    0    0  0.00000000000E+00  0.00000000000E+00  0.20382947140E+03  0.30054934551E+04  0.29985737368E+04 0.  0.
        5    1    3    3  502    0 -0.10775354314E+04 -0.30424772251E+03 -0.89747685879E+03  0.14349690187E+04  0.46999998093E+01 0.  1.
       -5    1    3    3    0  502  0.10775354314E+04  0.30424772251E+03  0.11013063302E+04  0.15705244364E+04  0.46999998093E+01 0. -1.
</event>
<event>
 5   0  0.1977015E-06  0.2674430E+04  0.7818609E-02  0.8343349E-01
        1   -1    0    0  501    0  0.00000000000E+00  0.00000000000E+00  0.11357431083E+04  0.11357431083E+04  0.50400001928E-02 0.  1.
       -1   -1    0    0    0  501  0.00000000000E+00  0.00000000000E+00 -0.15744266397E+04  0.15744266397E+04  0.50400001928E-02 0. -1.
    10030    2    1    2    0    0  0.00000000000E+00  0.00000000000E+00 -0.43868353142E+03  0.27101697480E+04  0.26744301865E+04 0.  0.
        1    1    3    3  502    0 -0.78128820535E+03 -0.71158203377E+02  0.87802811080E+03  0.11774583275E+04  0.50400001928E-02 0.  1.
       -1    1    3    3    0  502  0.78128820535E+03  0.71158203377E+02 -0.13167116422E+04  0.15327114205E+04  0.50400001928E-02 0. -1.
</event>
<event>
 5   0  0.5347280E-06  0.3179155E+04  0.7818609E-02  0.8194344E-01
       -2   -1    0    0    0  501  0.00000000000E+00  0.00000000000E+00  0.16052829937E+04  0.16052829937E+04  0.25500000920E-02 0. -1.
        2   -1    0    0  501    0  0.00000000000E+00  0.00000000000E+00 -0.15740257050E+04  0.15740257050E+04  0.25500000920E-02 0.  1.
    10030    2    1    2    0    0  0.00000000000E+00  0.00000000000E+00  0.31257288644E+02  0.31793086987E+04  0.31791550424E+04 0.  0.
        2    1    3    3  502    0  0.43883619450E+03  0.15095734239E+04 -0.21968586945E+03  0.15873408610E+04  0.25500000920E-02 0.  1.
       -2    1    3    3    0  502 -0.43883619450E+03 -0.15095734239E+04  0.25094315810E+03  0.15919678377E+04  0.25500000920E-02 0. -1.
</event>
<event>
 5   0  0.5121624E-06  0.3214120E+04  0.7818609E-02  0.8185098E-01
        2   -1    0    0  501    0  0.00000000000E+00  0.00000000000E+00  0.11568557273E+04  0.11568557273E+04  0.25500000920E-02 0. -1.
       -2   -1    0    0    0  501  0.00000000000E+00  0.00000000000E+00 -0.22324667672E+04  0.22324667672E+04  0.25500000920E-02 0.  1.
    10030    2    1    2    0    0  0.00000000000E+00  0.00000000000E+00 -0.10756110399E+04  0.33893224944E+04  0.32141200759E+04 0.  0.
        4    1    3    3  502    0  0.56817920204E+02 -0.16045509178E+04 -0.46453087697E+03  0.16714073329E+04  0.12699999809E+01 0. -1.
       -4    1    3    3    0  502 -0.56817920204E+02  0.16045509178E+04 -0.61108016291E+03  0.17179151615E+04  0.12699999809E+01 0.  1.
</event>
<event>
 5   0  0.5108810E-06  0.3114745E+04  0.7818609E-02  0.8211703E-01
        2   -1    0    0  501    0  0.00000000000E+00  0.00000000000E+00  0.14056067541E+04  0.14056067541E+04  0.25500000920E-02 0.  1.
       -2   -1    0    0    0  501  0.00000000000E+00  0.00000000000E+00 -0.17255241050E+04  0.17255241050E+04  0.25500000920E-02 0. -1.
    10030    2    1    2    0    0  0.00000000000E+00  0.00000000000E+00 -0.31991735091E+03  0.31311308591E+04  0.31147445072E+04 0.  0.
        1    1    3    3  502    0 -0.12374596478E+04  0.57913075027E+03 -0.91135978075E+03  0.16423384109E+04  0.50400001928E-02 0. -1.
       -1    1    3    3    0  502  0.12374596478E+04 -0.57913075027E+03  0.59144242985E+03  0.14887924482E+04  0.50400001928E-02 0.  1.
</event>
<event>
 5   0  0.5108810E-06  0.3181985E+04  0.7818609E-02  0.8193591E-01
       -2   -1    0    0    0  501  0.00000000000E+00  0.00000000000E+00  0.18033925014E+04  0.18033925014E+04  0.25500000920E-02 0. -1.
        2   -1    0    0  501    0  0.00000000000E+00  0.00000000000E+00 -0.14036089107E+04  0.14036089107E+04  0.25500000920E-02 0.  1.
    10030    2    1    2    0    0  0.00000000000E+00  0.00000000000E+00  0.39978359067E+03  0.32070014120E+04  0.31819854081E+04 0.  0.
        1    1    3    3  502    0  0.18695131127E+03  0.12821143269E+04 -0.73067076278E+03  0.14874971273E+04  0.50400001928E-02 0.  1.
       -1    1    3    3    0  502 -0.18695131127E+03 -0.12821143269E+04  0.11304543535E+04  0.17195042848E+04  0.50400001928E-02 0. -1.
</event>
<event>
 5   0  0.1969465E-06  0.3167222E+04  0.7818609E-02  0.8197528E-01
        1   -1    0    0  501    0  0.00000000000E+00  0.00000000000E+00  0.21389045402E+04  0.21389045402E+04  0.50400001928E-02 0. -1.
       -1   -1    0    0    0  501  0.00000000000E+00  0.00000000000E+00 -0.11724806862E+04  0.11724806862E+04  0.50400001928E-02 0.  1.
    10030    2    1    2    0    0  0.00000000000E+00  0.00000000000E+00  0.96642385396E+03  0.33113852264E+04  0.31672222928E+04 0.  0.
        2    1    3    3  502    0  0.78513946964E+03 -0.24517159023E+03 -0.93162859609E+03  0.12427730833E+04  0.25500000920E-02 0.  1.
       -2    1    3    3    0  502 -0.78513946964E+03  0.24517159023E+03  0.18980524500E+04  0.20686121431E+04  0.25500000920E-02 0. -1.
</event>
<event>
 5   0  0.5373060E-06  0.3207687E+04  0.7818609E-02  0.8186790E-01
       -2   -1    0    0    0  501  0.00000000000E+00  0.00000000000E+00  0.19858454110E+04  0.19858454110E+04  0.25500000920E-02 0. -1.
        2   -1    0    0  501    0  0.00000000000E+00  0.00000000000E+00 -0.12953247750E+04  0.12953247750E+04  0.25500000920E-02 0.  1.
    10030    2    1    2    0    0  0.00000000000E+00  0.00000000000E+00  0.69052063596E+03  0.32811701860E+04  0.32076874911E+04 0.  0.
        5    1    3    3  502    0 -0.55367011732E+03  0.10420397963E+04 -0.76585314871E+03  0.14067518158E+04  0.46999998093E+01 0.  1.
       -5    1    3    3    0  502  0.55367011732E+03 -0.10420397963E+04  0.14563737847E+04  0.18744183702E+04  0.46999998093E+01 0. -1.
</event>
<event>
 5   0  0.5108810E-06  0.3162318E+04  0.7818609E-02  0.8198840E-01
       -2   -1    0    0    0  501  0.00000000000E+00  0.00000000000E+00  0.16813235520E+04  0.16813235520E+04  0.25500000920E-02 0. -1.
        2   -1    0    0  501    0  0.00000000000E+00  0.00000000000E+00 -0.14869621662E+04  0.14869621662E+04  0.25500000920E-02 0.  1.
    10030    2    1    2    0    0  0.00000000000E+00  0.00000000000E+00  0.19436138586E+03  0.31682857182E+04  0.31623184602E+04 0.  0.
        1    1    3    3  502    0 -0.10317916946E+04  0.10899338195E+04 -0.40126657121E+03  0.15535651557E+04  0.50400001928E-02 0.  1.
       -1    1    3    3    0  502  0.10317916946E+04 -0.10899338195E+04  0.59562795707E+03  0.16147205625E+04  0.50400001928E-02 0. -1.
</event>
<event>
 5   0  0.5373060E-06  0.3104340E+04  0.7818609E-02  0.8214548E-01
        2   -1    0    0  501    0  0.00000000000E+00  0.00000000000E+00  0.25012942232E+04  0.25012942232E+04  0.25500000920E-02 0. -1.
       -2   -1    0    0    0  501  0.00000000000E+00  0.00000000000E+00 -0.96319386191E+03  0.96319386191E+03  0.25500000920E-02 0.  1.
    10030    2    1    2    0    0  0.00000000000E+00  0.00000000000E+00  0.15381003613E+04  0.34644880851E+04  0.31043396996E+04 0.  0.
        5    1    3    3  502    0 -0.11876358018E+04  0.87131002355E+03  0.22283068921E+03  0.14897434547E+04  0.46999998093E+01 0.  1.
       -5    1    3    3    0  502  0.11876358018E+04 -0.87131002355E+03  0.13152696720E+04  0.19747446303E+04  0.46999998093E+01 0. -1.
</event>
<event>
 5   0  0.5121624E-06  0.3285632E+04  0.7818609E-02  0.8166561E-01
        2   -1    0    0  501    0  0.00000000000E+00  0.00000000000E+00  0.18585784947E+04  0.18585784947E+04  0.25500000920E-02 0. -1.
       -2   -1    0    0    0  501  0.00000000000E+00  0.00000000000E+00 -0.14521011980E+04  0.14521011980E+04  0.25500000920E-02 0.  1.
    10030    2    1    2    0    0  0.00000000000E+00  0.00000000000E+00  0.40647729672E+03  0.33106796926E+04  0.32856317862E+04 0.  0.
        4    1    3    3  502    0  0.67772262225E+03  0.55474137889E+03 -0.11972479603E+04  0.14833914660E+04  0.12699999809E+01 0.  1.
       -4    1    3    3    0  502 -0.67772262225E+03 -0.55474137889E+03  0.16037252570E+04  0.18272882266E+04  0.12699999809E+01 0. -1.
</event>
<event>
 5   0  0.1977015E-06  0.3236844E+04  0.7818609E-02  0.8179154E-01
       -1   -1    0    0    0  501  0.00000000000E+00  0.00000000000E+00  0.13256369141E+04  0.13256369141E+04  0.50400001928E-02 0.  1.
        1   -1    0    0  501    0  0.00000000000E+00  0.00000000000E+00 -0.19758731183E+04  0.19758731184E+04  0.50400001928E-02 0. -1.
    10030    2    1    2    0    0  0.00000000000E+00  0.00000000000E+00 -0.65023620427E+03  0.33015100324E+04  0.32368443541E+04 0.  0.
        1    1    3    3  502    0  0.10839033661E+04  0.64972253663E+03 -0.13564084019E+04  0.18538688288E+04  0.50400001928E-02 0. -1.
       -1    1    3    3    0  502 -0.10839033661E+04 -0.64972253663E+03  0.70617219763E+03  0.14476412036E+04  0.50400001928E-02 0.  1.
</event>
<event>
 5   0  0.5131083E-06  0.3104959E+04  0.7818609E-02  0.8214378E-01
        2   -1    0    0  501    0  0.00000000000E+00  0.00000000000E+00  0.12040460414E+04  0.12040460414E+04  0.25500000920E-02 0.  1.
       -2   -1    0    0    0  501  0.00000000000E+00  0.00000000000E+00 -0.20017442407E+04  0.20017442407E+04  0.25500000920E-02 0. -1.
    10030    2    1    2    0    0  0.00000000000E+00  0.00000000000E+00 -0.79769819924E+03  0.32057902821E+04  0.31049587623E+04 0.  0.
        3    1    3    3  502    0 -0.14137919048E+04  0.31804746300E+03 -0.97392014804E+03  0.17459903218E+04  0.10100000352E+00 0. -1.
       -3    1    3    3    0  502  0.14137919048E+04 -0.31804746300E+03  0.17622194881E+03  0.14597999603E+04  0.10100000352E+00 0.  1.
</event>
<event>
 5   0  0.5108810E-06  0.3212529E+04  0.7818609E-02  0.8185516E-01
        2   -1    0    0  501    0  0.00000000000E+00  0.00000000000E+00  0.14594219528E+04  0.14594219528E+04  0.25500000920E-02 0.  1.
       -2   -1    0    0    0  501  0.00000000000E+00  0.00000000000E+00 -0.17678819939E+04  0.17678819939E+04  0.25500000920E-02 0. -1.
    10030    2    1    2    0    0  0.00000000000E+00  0.00000000000E+00 -0.30846004102E+03  0.32273039467E+04  0.32125290921E+04 0.  0.
        1    1    3    3  502    0 -0.22721089148E+03 -0.14540555844E+04 -0.80076067802E+03  0.16754462377E+04  0.50400001928E-02 0. -1.
       -1    1    3    3    0  502  0.22721089148E+03  0.14540555844E+04  0.49230063699E+03  0.15518577090E+04  0.50400001928E-02 0.  1.
</event>
<event>
 5   0  0.1886248E-06  0.3055074E+04  0.7818609E-02  0.8228177E-01
        1   -1    0    0  501    0  0.00000000000E+00  0.00000000000E+00  0.27102411376E+04  0.27102411376E+04  0.50400001928E-02 0. -1.
       -1   -1    0    0    0  501  0.00000000000E+00  0.00000000000E+00 -0.86094531121E+03  0.86094531122E+03  0.50400001928E-02 0.  1.
    10030    2    1    2    0    0  0.00000000000E+00  0.00000000000E+00  0.18492958264E+04  0.35711864489E+04  0.30550740742E+04 0.  0.
        4    1    3    3  502    0  0.14885891255E+04 -0.20000096797E+03  0.59929324705E+03  0.16171122350E+04  0.12699999809E+01 0. -1.
       -4    1    3    3    0  502 -0.14885891255E+04  0.20000096797E+03  0.12500025794E+04  0.19540742138E+04  0.12699999809E+01 0.  1.
</event>
<event>
 5   0  0.5131083E-06  0.3231357E+04  0.7818609E-02  0.8180585E-01
       -2   -1    0    0    0  501  0.00000000000E+00  0.00000000000E+00  0.19179728588E+04  0.19179728588E+04  0.25500000920E-02 0.  1.
        2   -1    0    0  501    0  0.00000000000E+00  0.00000000000E+00 -0.13610294013E+04  0.13610294013E+04  0.25500000920E-02 0. -1.
    10030    2    1    2    0    0  0.00000000000E+00  0.00000000000E+00  0.55694345758E+03  0.32790022601E+04  0.32313572701E+04 0.  0.
        3    1    3    3  502    0  0.80898526148E+03 -0.13181260369E+04 -0.19586469265E+03  0.15589343766E+04  0.10100000352E+00 0. -1.
       -3    1    3    3    0  502 -0.80898526148E+03  0.13181260369E+04  0.75280815023E+03  0.17200678835E+04  0.10100000352E+00 0.  1.
</event>
<event>
 5   0  0.5108810E-06  0.1980894E+04  0.7818609E-02  0.8615606E-01
        2   -1    0    0  501    0  0.00000000000E+00  0.00000000000E+00  0.16672839904E+04  0.16672839904E+04  0.25500000920E-02 0.  1.
       -2   -1    0    0    0  501  0.00000000000E+00  0.00000000000E+00 -0.58837303200E+03  0.58837303200E+03  0.25500000920E-02 0. -1.
    10030    2    1    2    0    0  0.00000000000E+00  0.00000000000E+00  0.10789109584E+04  0.22556570224E+04  0.19808936737E+04 0.  0.
        1    1    3    3  502    0  0.25063458176E+02 -0.92042546760E+03  0.95500344697E+03  0.13265906686E+04  0.50400001928E-02 0.  1.
       -1    1    3    3    0  502 -0.25063458176E+02  0.92042546760E+03  0.12390751146E+03  0.92906635380E+03  0.50400001928E-02 0. -1.
</event>
<event>
 5   0  0.1969465E-06  0.2170097E+04  0.7818609E-02  0.8530978E-01
       -1   -1    0    0    0  501  0.00000000000E+00  0.00000000000E+00  0.78904664876E+03  0.78904664878E+03  0.50400001928E-02 0.  1.
        1   -1    0    0  501    0  0.00000000000E+00  0.00000000000E+00 -0.14920923213E+04  0.14920923213E+04  0.50400001928E-02 0. -1.
    10030    2    1    2    0    0  0.00000000000E+00  0.00000000000E+00 -0.70304567249E+03  0.22811389700E+04  0.21700971829E+04 0.  0.
        2    1    3    3  502    0 -0.74130297971E+03  0.71248350000E+03  0.12867000023E+02  0.10282647544E+04  0.25500000920E-02 0.  1.
       -2    1    3    3    0  502  0.74130297971E+03 -0.71248350000E+03 -0.71591267252E+03  0.12528742156E+04  0.25500000920E-02 0. -1.
</event>
<event>
 5   0  0.5373060E-06  0.3183458E+04  0.7818609E-02  0.8193199E-01
        2   -1    0    0  501    0  0.00000000000E+00  0.00000000000E+00  0.27753347609E+04  0.27753347609E+04  0.25500000920E-02 0. -1.
       -2   -1    0    0    0  501  0.00000000000E+00  0.00000000000E+00 -0.91289957728E+03  0.91289957728E+03  0.25500000920E-02 0.  1.
    10030    2    1    2    0    0  0.00000000000E+00  0.00000000000E+00  0.18624351836E+04  0.36882343382E+04  0.31834584527E+04 0.  0.
        5    1    3    3  502    0 -0.83264878251E+02  0.15215748679E+04  0.39845948393E+03  0.15750921144E+04  0.46999998093E+01 0.  1.
       -5    1    3    3    0  502  0.83264878251E+02 -0.15215748679E+04  0.14639756997E+04  0.21131422238E+04  0.46999998093E+01 0. -1.
</event>
<event>
 5   0  0.1977015E-06  0.2576537E+04  0.7818609E-02  0.8376215E-01
        1   -1    0    0  501    0  0.00000000000E+00  0.00000000000E+00  0.18726059582E+04  0.18726059582E+04  0.50400001928E-02 0.  1.
       -1   -1    0    0    0  501  0.00000000000E+00  0.00000000000E+00 -0.88627054060E+03  0.88627054061E+03  0.50400001928E-02 0. -1.
    10030    2    1    2    0    0  0.00000000000E+00  0.00000000000E+00  0.98633541762E+03  0.27588764988E+04  0.25765368190E+04 0.  0.
        1    1    3    3  502    0 -0.75092379428E+03  0.10305407642E+03 -0.62224747799E+03  0.98066233300E+03  0.50400001928E-02 0. -1.
       -1    1    3    3    0  502  0.75092379428E+03 -0.10305407642E+03  0.16085828956E+04  0.17782141658E+04  0.50400001928E-02 0.  1.
</event>
<event>
 5   0  0.5108810E-06  0.2537799E+04  0.7818609E-02  0.8389642E-01
        2   -1    0    0  501    0  0.00000000000E+00  0.00000000000E+00  0.13084201950E+04  0.13084201950E+04  0.25500000920E-02 0. -1.
       -2   -1    0    0    0  501  0.00000000000E+00  0.00000000000E+00 -0.12305728838E+04  0.12305728838E+04  0.25500000920E-02 0.  1.
    10030    2    1    2    0    0  0.00000000000E+00  0.00000000000E+00  0.77847311245E+02  0.25389930788E+04  0.25377993716E+04 0.  0.
        1    1    3    3  502    0 -0.13027114696E+02  0.93933995858E+03 -0.81445889189E+03  0.12433312311E+04  0.50400001928E-02 0.  1.
       -1    1    3    3    0  502  0.13027114696E+02 -0.93933995858E+03  0.89230620314E+03  0.12956618477E+04  0.50400001928E-02 0. -1.
</event>
<event>
 5   0  0.5347280E-06  0.2025850E+04  0.7818609E-02  0.8594629E-01
       -2   -1    0    0    0  501  0.00000000000E+00  0.00000000000E+00  0.73314147352E+03  0.73314147353E+03  0.25500000920E-02 0. -1.
        2   -1    0    0  501    0  0.00000000000E+00  0.00000000000E+00 -0.13994803949E+04  0.13994803949E+04  0.25500000920E-02 0.  1.
    10030    2    1    2    0    0  0.00000000000E+00  0.00000000000E+00 -0.66633892133E+03  0.21326218684E+04  0.20258500624E+04 0.  0.
        2    1    3    3  502    0 -0.77631847354E+02  0.18568516265E+03 -0.13782202392E+04  0.13928376471E+04  0.25500000920E-02 0.  1.
       -2    1    3    3    0  502  0.77631847354E+02 -0.18568516265E+03  0.71188131787E+03  0.73978422131E+03  0.25500000920E-02 0. -1.
</event>
<event>
 5   0  0.1846850E-06  0.3411064E+04  0.7818609E-02  0.8135196E-01
        1   -1    0    0  501    0  0.00000000000E+00  0.00000000000E+00  0.16068303301E+04  0.16068303301E+04  0.50400001928E-02 0. -1.
       -1   -1    0    0    0  501  0.00000000000E+00  0.00000000000E+00 -0.18102967730E+04  0.18102967730E+04  0.50400001928E-02 0.  1.
    10030    2    1    2    0    0  0.00000000000E+00  0.00000000000E+00 -0.20346644297E+03  0.34171271031E+04  0.34110642101E+04 0.  0.
        5    1    3    3  502    0 -0.51316114253E+03 -0.16404989400E+03  0.15193429080E+04  0.16120396050E+04  0.46999998093E+01 0. -1.
       -5    1    3    3    0  502  0.51316114253E+03  0.16404989400E+03 -0.17228093510E+04  0.18050874981E+04  0.46999998093E+01 0.  1.
</event>
<event>
 5   0  0.1881144E-06  0.3230130E+04  0.7818609E-02  0.8180905E-01
       -1   -1    0    0    0  501  0.00000000000E+00  0.00000000000E+00  0.17195668328E+04  0.17195668328E+04  0.50400001928E-02 0. -1.
        1   -1    0    0  501    0  0.00000000000E+00  0.00000000000E+00 -0.15169139622E+04  0.15169139622E+04  0.50400001928E-02 0.  1.
    10030    2    1    2    0    0  0.00000000000E+00  0.00000000000E+00  0.20265287059E+03  0.32364807951E+04  0.32301299898E+04 0.  0.
        3    1    3    3  502    0 -0.16081433026E+04  0.11657868902E+03  0.77648209183E+01  0.16123820190E+04  0.10100000352E+00 0. -1.
       -3    1    3    3    0  502  0.16081433026E+04 -0.11657868902E+03  0.19488804967E+03  0.16240987761E+04  0.10100000352E+00 0.  1.
</event>
<event>
 5   0  0.5108810E-06  0.3221698E+04  0.7818609E-02  0.8183110E-01
       -2   -1    0    0    0  501  0.00000000000E+00  0.00000000000E+00  0.19451005016E+04  0.19451005016E+04  0.25500000920E-02 0. -1.
        2   -1    0    0  501    0  0.00000000000E+00  0.00000000000E+00 -0.13340363339E+04  0.13340363339E+04  0.25500000920E-02 0.  1.
    10030    2    1    2    0    0  0.00000000000E+00  0.00000000000E+00  0.61106416769E+03  0.32791368354E+04  0.32216981498E+04 0.  0.
        1    1    3    3  502    0 -0.13523021965E+04  0.54281476254E+03 -0.39334325841E+03  0.15093336332E+04  0.50400001928E-02 0. -1.
       -1    1    3    3    0  502  0.13523021965E+04 -0.54281476254E+03  0.10044074261E+04  0.17698032023E+04  0.50400001928E-02 0.  1.
</event>
<event>
 5   0  0.5373060E-06  0.3244963E+04  0.7818609E-02  0.8177043E-01
       -2   -1    0    0    0  501  0.00000000000E+00  0.00000000000E+00  0.10921176883E+04  0.10921176883E+04  0.25500000920E-02 0. -1.
        2   -1    0    0  501    0  0.00000000000E+00  0.00000000000E+00 -0.24104050662E+04  0.24104050662E+04  0.25500000920E-02 0.  1.
    10030    2    1    2    0    0  0.00000000000E+00  0.00000000000E+00 -0.13182873779E+04  0.35025227546E+04  0.32449628712E+04 0.  0.
        5    1    3    3  502    0  0.55515439922E+03 -0.86822886034E+03  0.69348074475E+03  0.12421575561E+04  0.46999998093E+01 0. -1.
       -5    1    3    3    0  502 -0.55515439922E+03  0.86822886034E+03 -0.20117681227E+04  0.22603651984E+04  0.46999998093E+01 0.  1.
</event>
<event>
 5   0  0.1846850E-06  0.3108853E+04  0.7818609E-02  0.8213312E-01
        1   -1    0    0  501    0  0.00000000000E+00  0.00000000000E+00  0.20746945215E+04  0.20746945215E+04  0.50400001928E-02 0.  1.
       -1   -1    0    0    0  501  0.00000000000E+00  0.00000000000E+00 -0.11646256047E+04  0.11646256048E+04  0.50400001928E-02 0. -1.
    10030    2    1    2    0    0  0.00000000000E+00  0.00000000000E+00  0.91006891676E+03  0.32393201263E+04  0.31088533975E+04 0.  0.
        5    1    3    3  502    0  0.78959163671E+03  0.13342791720E+04  0.33870505694E+03  0.15869779668E+04  0.46999998093E+01 0. -1.
       -5    1    3    3    0  502 -0.78959163671E+03 -0.13342791720E+04  0.57136385982E+03  0.16523421594E+04  0.46999998093E+01 0.  1.
</event>
<event>
 5   0  0.5108810E-06  0.3202567E+04  0.7818609E-02  0.8188140E-01
       -2   -1    0    0    0  501  0.00000000000E+00  0.00000000000E+00  0.10166494451E+04  0.10166494451E+04  0.25500000920E-02 0.  1.
        2   -1    0    0  501    0  0.00000000000E+00  0.00000000000E+00 -0.25221172133E+04  0.25221172133E+04  0.25500000920E-02 0. -1.
    10030    2    1    2    0    0  0.00000000000E+00  0.00000000000E+00 -0.15054677682E+04  0.35387666584E+04  0.32025671361E+04 0.  0.
        1    1    3    3  502    0 -0.14392847535E+04  0.69460181405E+03 -0.86376512832E+03  0.18166184186E+04  0.50400001928E-02 0. -1.
       -1    1    3    3    0  502  0.14392847535E+04 -0.69460181405E+03 -0.64170263986E+03  0.17221482398E+04  0.50400001928E-02 0.  1.
</event>
<event>
 5   0  0.1977015E-06  0.3301255E+04  0.7818609E-02  0.8162576E-01
        1   -1    0    0  501    0  0.00000000000E+00  0.00000000000E+00  0.13074804553E+04  0.13074804554E+04  0.50400001928E-02 0.  1.
       -1   -1    0    0    0  501  0.00000000000E+00  0.00000000000E+00 -0.20838327794E+04  0.20838327795E+04  0.50400001928E-02 0. -1.
    10030    2    1    2    0    0  0.00000000000E+00  0.00000000000E+00 -0.77635232410E+03  0.33913132348E+04  0.33012546896E+04 0.  0.
        1    1    3    3  502    0 -0.12498964976E+04  0.80038461958E+03  0.35382579620E+03  0.15257947070E+04  0.50400001928E-02 0.  1.
       -1    1    3    3    0  502  0.12498964976E+04 -0.80038461958E+03 -0.11301781203E+04  0.18655185278E+04  0.50400001928E-02 0. -1.
</event>
<event>
 5   0  0.5131083E-06  0.3195755E+04  0.7818609E-02  0.8189939E-01
        2   -1    0    0  501    0  0.00000000000E+00  0.00000000000E+00  0.19021325047E+04  0.19021325047E+04  0.25500000920E-02 0.  1.
       -2   -1    0    0    0  501  0.00000000000E+00  0.00000000000E+00 -0.13422894227E+04  0.13422894227E+04  0.25500000920E-02 0. -1.
    10030    2    1    2    0    0  0.00000000000E+00  0.00000000000E+00  0.55984308207E+03  0.32444219274E+04  0.31957548977E+04 0.  0.
        3    1    3    3  502    0 -0.91456111865E+03 -0.64035443734E+03 -0.88061247241E+03  0.14219543530E+04  0.10100000352E+00 0. -1.
       -3    1    3    3    0  502  0.91456111865E+03  0.64035443734E+03  0.14404555545E+04  0.18224675744E+04  0.10100000352E+00 0.  1.
</event>
<event>
 5   0  0.5121624E-06  0.2426016E+04  0.7818609E-02  0.8429827E-01
       -2   -1    0    0    0  501  0.00000000000E+00  0.00000000000E+00  0.79693741556E+03  0.79693741557E+03  0.25500000920E-02 0. -1.
        2   -1    0    0  501    0  0.00000000000E+00  0.00000000000E+00 -0.18463038946E+04  0.18463038946E+04  0.25500000920E-02 0.  1.
    10030    2    1    2    0    0  0.00000000000E+00  0.00000000000E+00 -0.10493664790E+04  0.26432413102E+04  0.24260162028E+04 0.  0.
        4    1    3    3  502    0  0.85568400504E+03 -0.31675698806E+03  0.34616990204E+03  0.97589206368E+03  0.12699999809E+01 0. -1.
       -4    1    3    3    0  502 -0.85568400504E+03  0.31675698806E+03 -0.13955363811E+04  0.16673492465E+04  0.12699999809E+01 0.  1.
</event>
<event>
 5   0  0.5347280E-06  0.3230057E+04  0.7818609E-02  0.8180924E-01
       -2   -1    0    0    0  501  0.00000000000E+00  0.00000000000E+00  0.85597432502E+03  0.85597432503E+03  0.25500000920E-02 0. -1.
        2   -1    0    0  501    0  0.00000000000E+00  0.00000000000E+00 -0.30471899084E+04  0.30471899084E+04  0.25500000920E-02 0.  1.
    10030    2    1    2    0    0  0.00000000000E+00  0.00000000000E+00 -0.21912155834E+04  0.39031642335E+04  0.32300565476E+04 0.  0.
        2    1    3    3  502    0 -0.57911159148E+03  0.74809359925E+03 -0.26773061655E+04  0.28395391479E+04  0.25500000920E-02 0.  1.
       -2    1    3    3    0  502  0.57911159148E+03 -0.74809359925E+03  0.48609058209E+03  0.10636250856E+04  0.25500000920E-02 0. -1.
</event>
<event>
 5   0  0.5347280E-06  0.3083902E+04  0.7818609E-02  0.8220170E-01
        2   -1    0    0  501    0  0.00000000000E+00  0.00000000000E+00  0.17533554420E+04  0.17533554420E+04  0.25500000920E-02 0. -1.
       -2   -1    0    0    0  501  0.00000000000E+00  0.00000000000E+00 -0.13560358142E+04  0.13560358142E+04  0.25500000920E-02 0.  1.
    10030    2    1    2    0    0  0.00000000000E+00  0.00000000000E+00  0.39731962775E+03  0.31093912562E+04  0.30839019273E+04 0.  0.
        2    1    3    3  502    0  0.75156998975E+03 -0.13322017745E+04  0.21288727606E+01  0.15295828025E+04  0.25500000920E-02 0. -1.
       -2    1    3    3    0  502 -0.75156998975E+03  0.13322017745E+04  0.39519075499E+03  0.15798084537E+04  0.25500000920E-02 0.  1.
</event>
<event>
 5   0  0.5108810E-06  0.3190150E+04  0.7818609E-02  0.8191424E-01
        2   -1    0    0  501    0  0.00000000000E+00  0.00000000000E+00  0.26489950205E+04  0.26489950205E+04  0.25500000920E-02 0. -1.
       -2   -1    0    0    0  501  0.00000000000E+00  0.00000000000E+00 -0.96046368948E+03  0.96046368948E+03  0.25500000920E-02 0.  1.
    10030    2    1    2    0    0  0.00000000000E+00  0.00000000000E+00  0.16885313310E+04  0.36094587099E+04  0.31901495456E+04 0.  0.
        1    1    3    3  502    0  0.42233335377E+03 -0.14888867902E+03 -0.88788173700E+03  0.99441806067E+03  0.50400001928E-02 0.  1.
       -1    1    3    3    0  502 -0.42233335377E+03  0.14888867902E+03  0.25764130680E+04  0.26150406493E+04  0.50400001928E-02 0. -1.
</event>
<event>
 5   0  0.1846850E-06  0.2996236E+04  0.7818609E-02  0.8244807E-01
        1   -1    0    0  501    0  0.00000000000E+00  0.00000000000E+00  0.20374732766E+04  0.20374732767E+04  0.50400001928E-02 0. -1.
       -1   -1    0    0    0  501  0.00000000000E+00  0.00000000000E+00 -0.11015392895E+04  0.11015392895E+04  0.50400001928E-02 0.  1.
    10030    2    1    2    0    0  0.00000000000E+00  0.00000000000E+00  0.93593398715E+03  0.31390125662E+04  0.29962355485E+04 0.  0.
        5    1    3    3  502    0 -0.55593232266E+03  0.95574641849E+03 -0.59105480325E+03  0.12537463197E+04  0.46999998093E+01 0.  1.
       -5    1    3    3    0  502  0.55593232266E+03 -0.95574641849E+03  0.15269887904E+04  0.18852662464E+04  0.46999998093E+01 0. -1.
</event>
<event>
 5   0  0.1977015E-06  0.3189815E+04  0.7818609E-02  0.8191512E-01
        1   -1    0    0  501    0  0.00000000000E+00  0.00000000000E+00  0.21716436995E+04  0.21716436995E+04  0.50400001928E-02 0. -1.
       -1   -1    0    0    0  501  0.00000000000E+00  0.00000000000E+00 -0.11713382801E+04  0.11713382801E+04  0.50400001928E-02 0.  1.
    10030    2    1    2    0    0  0.00000000000E+00  0.00000000000E+00  0.10003054194E+04  0.33429819796E+04  0.31898146629E+04 0.  0.
        1    1    3    3  502    0  0.13648937912E+04  0.34352419503E+03 -0.28605992826E+03  0.14362361283E+04  0.50400001928E-02 0.  1.
       -1    1    3    3    0  502 -0.13648937912E+04 -0.34352419503E+03  0.12863653476E+04  0.19067458513E+04  0.50400001928E-02 0. -1.
</event>
<event>
 5   0  0.5108810E-06  0.2799838E+04  0.7818609E-02  0.8303319E-01
       -2   -1    0    0    0  501  0.00000000000E+00  0.00000000000E+00  0.21291727569E+04  0.21291727569E+04  0.25500000920E-02 0. -1.
        2   -1    0    0  501    0  0.00000000000E+00  0.00000000000E+00 -0.92043890006E+03  0.92043890006E+03  0.25500000920E-02 0.  1.
    10030    2    1    2    0    0  0.00000000000E+00  0.00000000000E+00  0.12087338568E+04  0.30496116570E+04  0.27998381599E+04 0.  0.
        1    1    3    3  502    0  0.30110344663E+03 -0.26979689335E+03  0.20642008025E+04  0.21034206908E+04  0.50400001928E-02 0. -1.
       -1    1    3    3    0  502 -0.30110344663E+03  0.26979689335E+03 -0.85546694570E+03  0.94619096616E+03  0.50400001928E-02 0.  1.
</event>
<event>
 5   0  0.1969465E-06  0.3267319E+04  0.7818609E-02  0.8171261E-01
       -1   -1    0    0    0  501  0.00000000000E+00  0.00000000000E+00  0.18880604921E+04  0.18880604921E+04  0.50400001928E-02 0.  1.
        1   -1    0    0  501    0  0.00000000000E+00  0.00000000000E+00 -0.14135367750E+04  0.14135367750E+04  0.50400001928E-02 0. -1.
    10030    2    1    2    0    0  0.00000000000E+00  0.00000000000E+00  0.47452371715E+03  0.33015972671E+04  0.32673187411E+04 0.  0.
        2    1    3    3  502    0 -0.43054223818E+02 -0.80693486569E+03 -0.11974384873E+04  0.14445956094E+04  0.25500000920E-02 0. -1.
       -2    1    3    3    0  502  0.43054223818E+02  0.80693486569E+03  0.16719622045E+04  0.18570016578E+04  0.25500000920E-02 0.  1.
</event>
<event>
 5   0  0.1881144E-06  0.3205315E+04  0.7818609E-02  0.8187415E-01
        1   -1    0    0  501    0  0.00000000000E+00  0.00000000000E+00  0.18056816106E+04  0.18056816106E+04  0.50400001928E-02 0. -1.
       -1   -1    0    0    0  501  0.00000000000E+00  0.00000000000E+00 -0.14224607584E+04  0.14224607585E+04  0.50400001928E-02 0.  1.
    10030    2    1    2    0    0  0.00000000000E+00  0.00000000000E+00  0.38322085213E+03  0.32281423690E+04  0.32053151067E+04 0.  0.
        3    1    3    3  502    0  0.10068021085E+04 -0.61574530240E+03  0.12836380341E+04  0.17437085123E+04  0.10100000352E+00 0. -1.
       -3    1    3    3    0  502 -0.10068021085E+04  0.61574530240E+03 -0.90041718198E+03  0.14844338567E+04  0.10100000352E+00 0.  1.
</event>
<event>
 5   0  0.1886248E-06  0.3153078E+04  0.7818609E-02  0.8201320E-01
       -1   -1    0    0    0  501  0.00000000000E+00  0.00000000000E+00  0.26587848736E+04  0.26587848736E+04  0.50400001928E-02 0.  1.
        1   -1    0    0  501    0  0.00000000000E+00  0.00000000000E+00 -0.93481612270E+03  0.93481612271E+03  0.50400001928E-02 0. -1.
    10030    2    1    2    0    0  0.00000000000E+00  0.00000000000E+00  0.17239687509E+04  0.35936009964E+04  0.31530778403E+04 0.  0.
        4    1    3    3  502    0 -0.12525644880E+04  0.95731203453E+03  0.85007311641E+03  0.17910862749E+04  0.12699999809E+01 0.  1.
       -4    1    3    3    0  502  0.12525644880E+04 -0.95731203453E+03  0.87389563453E+03  0.18025147214E+04  0.12699999809E+01 0. -1.
</event>
<event>
 5   0  0.5108810E-06  0.2439373E+04  0.7818609E-02  0.8424908E-01
       -2   -1    0    0    0  501  0.00000000000E+00  0.00000000000E+00  0.93448454302E+03  0.93448454303E+03  0.25500000920E-02 0. -1.
        2   -1    0    0  501    0  0.00000000000E+00  0.00000000000E+00 -0.15919311440E+04  0.15919311441E+04  0.25500000920E-02 0.  1.
    10030    2    1    2    0    0  0.00000000000E+00  0.00000000000E+00 -0.65744660103E+03  0.25264156871E+04  0.24393729093E+04 0.  0.
        1    1    3    3  502    0 -0.45906414839E+03  0.39869375237E+03 -0.14237773588E+04  0.15481726545E+04  0.50400001928E-02 0.  1.
       -1    1    3    3    0  502  0.45906414839E+03 -0.39869375237E+03  0.76633075779E+03  0.97824303262E+03  0.50400001928E-02 0. -1.
</event>
<event>
 5   0  0.1969465E-06  0.3181473E+04  0.7818609E-02  0.8193727E-01
       -1   -1    0    0    0  501  0.00000000000E+00  0.00000000000E+00  0.15600522338E+04  0.15600522338E+04  0.50400001928E-02 0. -1.
        1   -1    0    0  501    0  0.00000000000E+00  0.00000000000E+00 -0.16220246391E+04  0.16220246391E+04  0.50400001928E-02 0.  1.
    10030    2    1    2    0    0  0.00000000000E+00  0.00000000000E+00 -0.61972405379E+02  0.31820768729E+04  0.31814733452E+04 0.  0.
        2    1    3    3  502    0  0.12406240732E+04 -0.97935332357E+03  0.14838587362E+03  0.15875450831E+04  0.25500000920E-02 0. -1.
       -2    1    3    3    0  502 -0.12406240732E+04  0.97935332357E+03 -0.21035827900E+03  0.15945317898E+04  0.25500000920E-02 0.  1.
</event>
<event>
 5   0  0.1846850E-06  0.2793743E+04  0.7818609E-02  0.8305214E-01
       -1   -1    0    0    0  501  0.00000000000E+00  0.00000000000E+00  0.18100493677E+04  0.18100493677E+04  0.50400001928E-02 0.  1.
        1   -1    0    0  501    0  0.00000000000E+00  0.00000000000E+00 -0.10780091563E+04  0.10780091564E+04  0.50400001928E-02 0. -1.
    10030    2    1    2    0    0  0.00000000000E+00  0.00000000000E+00  0.73204021135E+03  0.28880585241E+04  0.27937428599E+04 0.  0.
        5    1    3    3  502    0  0.13818487755E+04  0.47987033585E+02  0.57126475952E+03  0.14960529099E+04  0.46999998093E+01 0. -1.
       -5    1    3    3    0  502 -0.13818487755E+04 -0.47987033585E+02  0.16077545183E+03  0.13920056141E+04  0.46999998093E+01 0.  1.
</event>
<event>
 5   0  0.1846850E-06  0.3244244E+04  0.7818609E-02  0.8177229E-01
        1   -1    0    0  501    0  0.00000000000E+00  0.00000000000E+00  0.15342811969E+04  0.15342811969E+04  0.50400001928E-02 0. -1.
       -1   -1    0    0    0  501  0.00000000000E+00  0.00000000000E+00 -0.17149915408E+04  0.17149915408E+04  0.50400001928E-02 0.  1.
    10030    2    1    2    0    0  0.00000000000E+00  0.00000000000E+00 -0.18071034392E+03  0.32492727376E+04  0.32442436862E+04 0.  0.
        5    1    3    3  502    0 -0.57114547432E+03 -0.11787990853E+03 -0.16063575174E+04  0.17089497913E+04  0.46999998093E+01 0.  1.
       -5    1    3    3    0  502  0.57114547432E+03  0.11787990853E+03  0.14256471735E+04  0.15403229463E+04  0.46999998093E+01 0. -1.
</event>
<event>
 5   0  0.5108810E-06  0.3207159E+04  0.7818609E-02  0.8186929E-01
       -2   -1    0    0    0  501  0.00000000000E+00  0.00000000000E+00  0.11607337935E+04  0.11607337935E+04  0.25500000920E-02 0. -1.
        2   -1    0    0  501    0  0.00000000000E+00  0.00000000000E+00 -0.22153806127E+04  0.22153806127E+04  0.25500000920E-02 0.  1.
    10030    2    1    2    0    0  0.00000000000E+00  0.00000000000E+00 -0.10546468192E+04  0.33761144061E+04  0.32071589561E+04 0.  0.
        1    1    3    3  502    0  0.60099983929E+03 -0.10647899071E+04  0.56487471242E+03  0.13468711125E+04  0.50400001928E-02 0. -1.
       -1    1    3    3    0  502 -0.60099983929E+03  0.10647899071E+04 -0.16195215317E+04  0.20292432936E+04  0.50400001928E-02 0.  1.
</event>
<event>
 5   0  0.1846850E-06  0.3163148E+04  0.7818609E-02  0.8198618E-01
        1   -1    0    0  501    0  0.00000000000E+00  0.00000000000E+00  0.18865353254E+04  0.18865353255E+04  0.50400001928E-02 0.  1.
       -1   -1    0    0    0  501  0.00000000000E+00  0.00000000000E+00 -0.13259104323E+04  0.13259104323E+04  0.50400001928E-02 0. -1.
    10030    2    1    2    0    0  0.00000000000E+00  0.00000000000E+00  0.56062489318E+03  0.32124457577E+04  0.31631483486E+04 0.  0.
        5    1    3    3  502    0 -0.24066691665E+03  0.10716500087E+04 -0.87540376803E+03  0.14045312930E+04  0.46999998093E+01 0. -1.
       -5    1    3    3    0  502  0.24066691665E+03 -0.10716500087E+04  0.14360286612E+04  0.18079144647E+04  0.46999998093E+01 0.  1.
</event>
<event>
 5   0  0.5347280E-06  0.3285785E+04  0.7818609E-02  0.8166522E-01
        2   -1    0    0  501    0  0.00000000000E+00  0.00000000000E+00  0.13721318786E+04  0.13721318786E+04  0.25500000920E-02 0. -1.
       -2   -1    0    0    0  501  0.00000000000E+00  0.00000000000E+00 -0.19670817983E+04  0.19670817983E+04  0.25500000920E-02 0.  1.
    10030    2    1    2    0    0  0.00000000000E+00  0.00000000000E+00 -0.59494991976E+03  0.33392136769E+04  0.32857849249E+04 0.  0.
        2    1    3    3  502    0  0.12103130418E+04 -0.79754611169E+03 -0.10834578685E+04  0.18096459356E+04  0.25500000920E-02 0.  1.
       -2    1    3    3    0  502 -0.12103130418E+04  0.79754611169E+03  0.48850794871E+03  0.15295677413E+04  0.25500000920E-02 0. -1.
</event>
<event>
 5   0  0.1969465E-06  0.3174966E+04  0.7818609E-02  0.8195460E-01
        1   -1    0    0  501    0  0.00000000000E+00  0.00000000000E+00  0.25077471443E+04  0.25077471443E+04  0.50400001928E-02 0. -1.
       -1   -1    0    0    0  501  0.00000000000E+00  0.00000000000E+00 -0.10049265022E+04  0.10049265022E+04  0.50400001928E-02 0.  1.
    10030    2    1    2    0    0  0.00000000000E+00  0.00000000000E+00  0.15028206421E+04  0.35126736466E+04  0.31749655534E+04 0.  0.
        2    1    3    3  502    0 -0.25797317091E+03  0.10178235610E+04 -0.56585599193E+03  0.11927732232E+04  0.25500000920E-02 0.  1.
       -2    1    3    3    0  502  0.25797317091E+03 -0.10178235610E+04  0.20686766340E+04  0.23199004234E+04  0.25500000920E-02 0. -1.
</event>
<event>
 5   0  0.5373060E-06  0.3341645E+04  0.7818609E-02  0.8152379E-01
        2   -1    0    0  501    0  0.00000000000E+00  0.00000000000E+00  0.25859021602E+04  0.25859021602E+04  0.25500000920E-02 0.  1.
       -2   -1    0    0    0  501  0.00000000000E+00  0.00000000000E+00 -0.10795644007E+04  0.10795644007E+04  0.25500000920E-02 0. -1.
    10030    2    1    2    0    0  0.00000000000E+00  0.00000000000E+00  0.15063377595E+04  0.36654665609E+04  0.33416450535E+04 0.  0.
        5    1    3    3  502    0  0.38562835452E+03  0.14386671706E+04  0.15836014410E+04  0.21740027759E+04  0.46999998093E+01 0.  1.
       -5    1    3    3    0  502 -0.38562835452E+03 -0.14386671706E+04 -0.77263681581E+02  0.14914637850E+04  0.46999998093E+01 0. -1.
</event>
<event>
 5   0  0.5121624E-06  0.3301866E+04  0.7818609E-02  0.8162421E-01
       -2   -1    0    0    0  501  0.00000000000E+00  0.00000000000E+00  0.11471377374E+04  0.11471377374E+04  0.25500000920E-02 0. -1.
        2   -1    0    0  501    0  0.00000000000E+00  0.00000000000E+00 -0.23759824884E+04  0.23759824884E+04  0.25500000920E-02 0.  1.
    10030    2    1    2    0    0  0.00000000000E+00  0.00000000000E+00 -0.12288447510E+04  0.35231202258E+04  0.33018656399E+04 0.  0.
        4    1    3    3  502    0 -0.13276781236E+04  0.17656854170E+03 -0.16443330711E+04  0.21207872387E+04  0.12699999809E+01 0.  1.
       -4    1    3    3    0  502  0.13276781236E+04 -0.17656854170E+03  0.41548832018E+03  0.14023329872E+04  0.12699999809E+01 0. -1.
</event>
<event>
 5   0  0.5121624E-06  0.3214055E+04  0.7818609E-02  0.8185115E-01
       -2   -1    0    0    0  501  0.00000000000E+00  0.00000000000E+00  0.16082456098E+04  0.16082456098E+04  0.25500000920E-02 0. -1.
        2   -1    0    0  501    0  0.00000000000E+00  0.00000000000E+00 -0.16058104620E+04  0.16058104620E+04  0.25500000920E-02 0.  1.
    10030    2    1    2    0    0  0.00000000000E+00  0.00000000000E+00  0.24351477484E+01  0.32140560718E+04  0.32140551493E+04 0.  0.
        4    1    3    3  502    0 -0.87053423697E+03  0.78261791748E+03  0.11022244068E+04  0.16078622199E+04  0.12699999809E+01 0. -1.
       -4    1    3    3    0  502  0.87053423697E+03 -0.78261791748E+03 -0.10997892590E+04  0.16061938518E+04  0.12699999809E+01 0.  1.
</event>
<event>
 5   0  0.1846850E-06  0.3269249E+04  0.7818609E-02  0.8170764E-01
       -1   -1    0    0    0  501  0.00000000000E+00  0.00000000000E+00  0.22551731377E+04  0.22551731377E+04  0.50400001928E-02 0. -1.
        1   -1    0    0  501    0  0.00000000000E+00  0.00000000000E+00 -0.11848300348E+04  0.11848300348E+04  0.50400001928E-02 0.  1.
    10030    2    1    2    0    0  0.00000000000E+00  0.00000000000E+00  0.10703431029E+04  0.34400031725E+04  0.32692487622E+04 0.  0.
        5    1    3    3  502    0  0.76398054985E+02 -0.16644755466E+03  0.22443363399E+04  0.22518013118E+04  0.46999998093E+01 0. -1.
       -5    1    3    3    0  502 -0.76398054985E+02  0.16644755466E+03 -0.11739932370E+04  0.11882018607E+04  0.46999998093E+01 0.  1.
</event>
<event>
 5   0  0.1729500E-06  0.3181770E+04  0.7818609E-02  0.8193648E-01
       -3   -1    0    0    0  501  0.00000000000E+00  0.00000000000E+00  0.19805791103E+04  0.19805791128E+04  0.10100000352E+00 0.  1.
        3   -1    0    0  501    0  0.00000000000E+00  0.00000000000E+00 -0.12778658606E+04  0.12778658646E+04  0.10100000352E+00 0. -1.
    10030    2    1    2    0    0  0.00000000000E+00  0.00000000000E+00  0.70271324965E+03  0.32584449775E+04  0.31817695957E+04 0.  0.
        4    1    3    3  502    0 -0.10483737223E+04  0.10120196366E+04  0.10052108342E+04  0.17702320867E+04  0.12699999809E+01 0.  1.
       -4    1    3    3    0  502  0.10483737223E+04 -0.10120196366E+04 -0.30249758460E+03  0.14882128907E+04  0.12699999809E+01 0. -1.
</event>
<event>
 5   0  0.1846850E-06  0.3220011E+04  0.7818609E-02  0.8183552E-01
        1   -1    0    0  501    0  0.00000000000E+00  0.00000000000E+00  0.19521716066E+04  0.19521716066E+04  0.50400001928E-02 0. -1.
       -1   -1    0    0    0  501  0.00000000000E+00  0.00000000000E+00 -0.13278121766E+04  0.13278121766E+04  0.50400001928E-02 0.  1.
    10030    2    1    2    0    0  0.00000000000E+00  0.00000000000E+00  0.62435943001E+03  0.32799837831E+04  0.32200107018E+04 0.  0.
        5    1    3    3  502    0 -0.32788415003E+03 -0.70002312067E+03 -0.11264113644E+04  0.13661497125E+04  0.46999998093E+01 0.  1.
       -5    1    3    3    0  502  0.32788415003E+03  0.70002312067E+03  0.17507707944E+04  0.19138340706E+04  0.46999998093E+01 0. -1.
</event>
<event>
 5   0  0.5121624E-06  0.3087017E+04  0.7818609E-02  0.8219310E-01
        2   -1    0    0  501    0  0.00000000000E+00  0.00000000000E+00  0.25768644440E+04  0.25768644440E+04  0.25500000920E-02 0.  1.
       -2   -1    0    0    0  501  0.00000000000E+00  0.00000000000E+00 -0.92454165661E+03  0.92454165662E+03  0.25500000920E-02 0. -1.
    10030    2    1    2    0    0  0.00000000000E+00  0.00000000000E+00  0.16523227874E+04  0.35014061006E+04  0.30870170210E+04 0.  0.
        4    1    3    3  502    0 -0.14050964720E+03 -0.27211854506E+03  0.25420568378E+04  0.25604386427E+04  0.12699999809E+01 0.  1.
       -4    1    3    3    0  502  0.14050964720E+03  0.27211854506E+03 -0.88973405040E+03  0.94096745792E+03  0.12699999809E+01 0. -1.
</event>
<event>
 5   0  0.5373060E-06  0.3188365E+04  0.7818609E-02  0.8191897E-01
        2   -1    0    0  501    0  0.00000000000E+00  0.00000000000E+00  0.16484588488E+04  0.16484588488E+04  0.25500000920E-02 0.  1.
       -2   -1    0    0    0  501  0.00000000000E+00  0.00000000000E+00 -0.15416932041E+04  0.15416932041E+04  0.25500000920E-02 0. -1.
    10030    2    1    2    0    0  0.00000000000E+00  0.00000000000E+00  0.10676564475E+03  0.31901520529E+04  0.31883649756E+04 0.  0.
        5    1    3    3  502    0  0.91154174918E+03  0.41453526990E+03  0.12945005325E+04  0.16366128342E+04  0.46999998093E+01 0.  1.
       -5    1    3    3    0  502 -0.91154174918E+03 -0.41453526990E+03 -0.11877348877E+04  0.15535392187E+04  0.46999998093E+01 0. -1.
</event>
<event>
 5   0  0.1881144E-06  0.2834704E+04  0.7818609E-02  0.8292574E-01
        1   -1    0    0  501    0  0.00000000000E+00  0.00000000000E+00  0.30541384704E+04  0.30541384704E+04  0.50400001928E-02 0.  1.
       -1   -1    0    0    0  501  0.00000000000E+00  0.00000000000E+00 -0.65775891566E+03  0.65775891568E+03  0.50400001928E-02 0. -1.
    10030    2    1    2    0    0  0.00000000000E+00  0.00000000000E+00  0.23963795547E+04  0.37118973861E+04  0.28347040823E+04 0.  0.
        3    1    3    3  502    0 -0.48040284326E+03  0.12916637556E+04  0.16319010887E+04  0.21359502154E+04  0.10100000352E+00 0.  1.
       -3    1    3    3    0  502  0.48040284326E+03 -0.12916637556E+04  0.76447846605E+03  0.15759471706E+04  0.10100000352E+00 0. -1.
</event>
<event>
 5   0  0.5121624E-06  0.3005229E+04  0.7818609E-02  0.8242239E-01
       -2   -1    0    0    0  501  0.00000000000E+00  0.00000000000E+00  0.27720092761E+04  0.27720092761E+04  0.25500000920E-02 0. -1.
        2   -1    0    0  501    0  0.00000000000E+00  0.00000000000E+00 -0.81451734762E+03  0.81451734762E+03  0.25500000920E-02 0.  1.
    10030    2    1    2    0    0  0.00000000000E+00  0.00000000000E+00  0.19574919284E+04  0.35865266237E+04  0.30052285391E+04 0.  0.
        4    1    3    3  502    0  0.34218148458E+03  0.58242031473E+02  0.27235079017E+04  0.27455376898E+04  0.12699999809E+01 0. -1.
       -4    1    3    3    0  502 -0.34218148458E+03 -0.58242031473E+02 -0.76601597329E+03  0.84098893385E+03  0.12699999809E+01 0.  1.
</event>
<event>
 5   0  0.5108810E-06  0.2820616E+04  0.7818609E-02  0.8296896E-01
       -2   -1    0    0    0  501  0.00000000000E+00  0.00000000000E+00  0.12673791350E+04  0.12673791350E+04  0.25500000920E-02 0.  1.
        2   -1    0    0  501    0  0.00000000000E+00  0.00000000000E+00 -0.15693554678E+04  0.15693554678E+04  0.25500000920E-02 0. -1.
    10030    2    1    2    0    0  0.00000000000E+00  0.00000000000E+00 -0.30197633273E+03  0.28367346028E+04  0.28206158018E+04 0.  0.
        1    1    3    3  502    0  0.12006953338E+03 -0.50816214229E+03 -0.14685599107E+04  0.15586255699E+04  0.50400001928E-02 0. -1.
       -1    1    3    3    0  502 -0.12006953338E+03  0.50816214229E+03  0.11665835780E+04  0.12781090330E+04  0.50400001928E-02 0.  1.
</event>
<event>
 5   0  0.1881144E-06  0.3164979E+04  0.7818609E-02  0.8198128E-01
        1   -1    0    0  501    0  0.00000000000E+00  0.00000000000E+00  0.22093326702E+04  0.22093326702E+04  0.50400001928E-02 0.  1.
       -1   -1    0    0    0  501  0.00000000000E+00  0.00000000000E+00 -0.11334977634E+04  0.11334977634E+04  0.50400001928E-02 0. -1.
    10030    2    1    2    0    0  0.00000000000E+00  0.00000000000E+00  0.10758349068E+04  0.33428304336E+04  0.31649793934E+04 0.  0.
        3    1    3    3  502    0 -0.33108950001E+03 -0.13155000748E+03 -0.10905903252E+04  0.11473068155E+04  0.10100000352E+00 0. -1.
       -3    1    3    3    0  502  0.33108950001E+03  0.13155000748E+03  0.21664252319E+04  0.21955236180E+04  0.10100000352E+00 0.  1.
</event>
<event>
 5   0  0.5131083E-06  0.3029777E+04  0.7818609E-02  0.8235279E-01
        2   -1    0    0  501    0  0.00000000000E+00  0.00000000000E+00  0.19259242366E+04  0.19259242366E+04  0.25500000920E-02 0.  1.
       -2   -1    0    0    0  501  0.00000000000E+00  0.00000000000E+00 -0.11915772320E+04  0.11915772320E+04  0.25500000920E-02 0. -1.
    10030    2    1    2    0    0  0.00000000000E+00  0.00000000000E+00  0.73434700456E+03  0.31175014686E+04  0.30297772003E+04 0.  0.
        3    1    3    3  502    0 -0.85187695267E+03 -0.86955861855E+03  0.12949802336E+04  0.17773014233E+04  0.10100000352E+00 0.  1.
       -3    1    3    3    0  502  0.85187695267E+03  0.86955861855E+03 -0.56063322909E+03  0.13402000453E+04  0.10100000352E+00 0. -1.
</event>
<event>
 5   0  0.1881144E-06  0.3256651E+04  0.7818609E-02  0.8174014E-01
        1   -1    0    0  501    0  0.00000000000E+00  0.00000000000E+00  0.18879194176E+04  0.18879194176E+04  0.50400001928E-02 0. -1.
       -1   -1    0    0    0  501  0.00000000000E+00  0.00000000000E+00 -0.14044265253E+04  0.14044265253E+04  0.50400001928E-02 0.  1.
    10030    2    1    2    0    0  0.00000000000E+00  0.00000000000E+00  0.48349289230E+03  0.32923459429E+04  0.32566511067E+04 0.  0.
        3    1    3    3  502    0 -0.23041782147E+03  0.14096124689E+04  0.10322015392E+04  0.17622541567E+04  0.10100000352E+00 0. -1.
       -3    1    3    3    0  502  0.23041782147E+03 -0.14096124689E+04 -0.54870864694E+03  0.15300917863E+04  0.10100000352E+00 0.  1.
</event>
<event>
 5   0  0.1846850E-06  0.3216998E+04  0.7818609E-02  0.8184342E-01
        1   -1    0    0  501    0  0.00000000000E+00  0.00000000000E+00  0.14342171447E+04  0.14342171447E+04  0.50400001928E-02 0. -1.
       -1   -1    0    0    0  501  0.00000000000E+00  0.00000000000E+00 -0.18039588585E+04  0.18039588585E+04  0.50400001928E-02 0.  1.
    10030    2    1    2    0    0  0.00000000000E+00  0.00000000000E+00 -0.36974171375E+03  0.32381760032E+04  0.32169978074E+04 0.  0.
        5    1    3    3  502    0 -0.10625655751E+04  0.67909011611E+02 -0.13984568590E+04  0.17576577914E+04  0.46999998093E+01 0.  1.
       -5    1    3    3    0  502  0.10625655751E+04 -0.67909011611E+02  0.10287151452E+04  0.14805182118E+04  0.46999998093E+01 0. -1.
</event>
<event>
 5   0  0.1977015E-06  0.3106180E+04  0.7818609E-02  0.8214044E-01
       -1   -1    0    0    0  501  0.00000000000E+00  0.00000000000E+00  0.10408430443E+04  0.10408430443E+04  0.50400001928E-02 0.  1.
        1   -1    0    0  501    0  0.00000000000E+00  0.00000000000E+00 -0.23174373981E+04  0.23174373981E+04  0.50400001928E-02 0. -1.
    10030    2    1    2    0    0  0.00000000000E+00  0.00000000000E+00 -0.12765943538E+04  0.33582804424E+04  0.31061800311E+04 0.  0.
        1    1    3    3  502    0  0.90737055981E+03 -0.66199271396E+03 -0.17979816963E+04  0.21199749683E+04  0.50400001928E-02 0. -1.
       -1    1    3    3    0  502 -0.90737055981E+03  0.66199271396E+03  0.52138734248E+03  0.12383054741E+04  0.50400001928E-02 0.  1.
</event>
<event>
 5   0  0.1977015E-06  0.3196414E+04  0.7818609E-02  0.8189765E-01
        1   -1    0    0  501    0  0.00000000000E+00  0.00000000000E+00  0.12809093870E+04  0.12809093870E+04  0.50400001928E-02 0. -1.
       -1   -1    0    0    0  501  0.00000000000E+00  0.00000000000E+00 -0.19941030479E+04  0.19941030479E+04  0.50400001928E-02 0.  1.
    10030    2    1    2    0    0  0.00000000000E+00  0.00000000000E+00 -0.71319366091E+03  0.32750124348E+04  0.31964138109E+04 0.  0.
        1    1    3    3  502    0  0.73276839086E+02  0.46312638185E+03 -0.19220443078E+04  0.19784109436E+04  0.50400001928E-02 0.  1.
       -1    1    3    3    0  502 -0.73276839086E+02 -0.46312638185E+03  0.12088506469E+04  0.12966014913E+04  0.50400001928E-02 0. -1.
</event>
<event>
 5   0  0.5131083E-06  0.3199319E+04  0.7818609E-02  0.8188997E-01
        2   -1    0    0  501    0  0.00000000000E+00  0.00000000000E+00  0.17367468897E+04  0.17367468897E+04  0.25500000920E-02 0.  1.
       -2   -1    0    0    0  501  0.00000000000E+00  0.00000000000E+00 -0.14733925430E+04  0.14733925430E+04  0.25500000920E-02 0. -1.
    10030    2    1    2    0    0  0.00000000000E+00  0.00000000000E+00  0.26335434672E+03  0.32101394327E+04  0.31993186252E+04 0.  0.
        3    1    3    3  502    0  0.58494750512E+02  0.82322219067E+03 -0.12432836286E+04  0.14922702846E+04  0.10100000352E+00 0. -1.
       -3    1    3    3    0  502 -0.58494750512E+02 -0.82322219067E+03  0.15066379753E+04  0.17178691481E+04  0.10100000352E+00 0.  1.
</event>
<event>
 5   0  0.1977015E-06  0.2819696E+04  0.7818609E-02  0.8297179E-01
       -1   -1    0    0    0  501  0.00000000000E+00  0.00000000000E+00  0.12260692137E+04  0.12260692137E+04  0.50400001928E-02 0.  1.
        1   -1    0    0  501    0  0.00000000000E+00  0.00000000000E+00 -0.16211741984E+04  0.16211741984E+04  0.50400001928E-02 0. -1.
    10030    2    1    2    0    0  0.00000000000E+00  0.00000000000E+00 -0.39510498471E+03  0.28472434122E+04  0.28196962778E+04 0.  0.
        1    1    3    3  502    0  0.83369014208E+03  0.91657834362E+03  0.48171300111E+03  0.13293616996E+04  0.50400001928E-02 0.  1.
       -1    1    3    3    0  502 -0.83369014208E+03 -0.91657834362E+03 -0.87681798582E+03  0.15178817125E+04  0.50400001928E-02 0. -1.
</event>
<event>
 5   0  0.1969465E-06  0.3189034E+04  0.7818609E-02  0.8191719E-01
       -1   -1    0    0    0  501  0.00000000000E+00  0.00000000000E+00  0.13460715533E+04  0.13460715533E+04  0.50400001928E-02 0.  1.
        1   -1    0    0  501    0  0.00000000000E+00  0.00000000000E+00 -0.18888182856E+04  0.18888182856E+04  0.50400001928E-02 0. -1.
    10030    2    1    2    0    0  0.00000000000E+00  0.00000000000E+00 -0.54274673229E+03  0.32348898389E+04  0.31890340629E+04 0.  0.
        2    1    3    3  502    0 -0.26681818201E+03  0.12966856814E+04  0.63016888014E+03  0.14661850211E+04  0.25500000920E-02 0.  1.
       -2    1    3    3    0  502  0.26681818201E+03 -0.12966856814E+04 -0.11729156124E+04  0.17687048178E+04  0.25500000920E-02 0. -1.
</event>
<event>
 5   0  0.1846850E-06  0.3316024E+04  0.7818609E-02  0.8158830E-01
        1   -1    0    0  501    0  0.00000000000E+00  0.00000000000E+00  0.15202913427E+04  0.15202913427E+04  0.50400001928E-02 0. -1.
       -1   -1    0    0    0  501  0.00000000000E+00  0.00000000000E+00 -0.18082085483E+04  0.18082085483E+04  0.50400001928E-02 0.  1.
    10030    2    1    2    0    0  0.00000000000E+00  0.00000000000E+00 -0.28791720559E+03  0.33284998911E+04  0.33160240059E+04 0.  0.
        5    1    3    3  502    0  0.37201966407E+03 -0.43966733595E+03 -0.17045671303E+04  0.17992435045E+04  0.46999998093E+01 0.  1.
       -5    1    3    3    0  502 -0.37201966407E+03  0.43966733595E+03  0.14166499247E+04  0.15292563866E+04  0.46999998093E+01 0. -1.
</event>
<event>
 5   0  0.5121624E-06  0.3067043E+04  0.7818609E-02  0.8224841E-01
        2   -1    0    0  501    0  0.00000000000E+00  0.00000000000E+00  0.26910655241E+04  0.26910655241E+04  0.25500000920E-02 0.  1.
       -2   -1    0    0    0  501  0.00000000000E+00  0.00000000000E+00 -0.87388761685E+03  0.87388761685E+03  0.25500000920E-02 0. -1.
    10030    2    1    2    0    0  0.00000000000E+00  0.00000000000E+00  0.18171779073E+04  0.35649531410E+04  0.30670434217E+04 0.  0.
        4    1    3    3  502    0 -0.13397393975E+04 -0.76240341706E+02  0.17713669338E+04  0.22222638615E+04  0.12699999809E+01 0.  1.
       -4    1    3    3    0  502  0.13397393975E+04  0.76240341706E+02  0.45810973447E+02  0.13426892795E+04  0.12699999809E+01 0. -1.
</event>
<event>
 5   0  0.5131083E-06  0.2960550E+04  0.7818609E-02  0.8255087E-01
       -2   -1    0    0    0  501  0.00000000000E+00  0.00000000000E+00  0.13258110976E+04  0.13258110976E+04  0.25500000920E-02 0. -1.
        2   -1    0    0  501    0  0.00000000000E+00  0.00000000000E+00 -0.16527344464E+04  0.16527344464E+04  0.25500000920E-02 0.  1.
    10030    2    1    2    0    0  0.00000000000E+00  0.00000000000E+00 -0.32692334877E+03  0.29785455439E+04  0.29605497262E+04 0.  0.
        3    1    3    3  502    0  0.20540899206E+03 -0.71865113080E+03 -0.14489455739E+04  0.16303667036E+04  0.10100000352E+00 0.  1.
       -3    1    3    3    0  502 -0.20540899206E+03  0.71865113080E+03  0.11220222251E+04  0.13481788404E+04  0.10100000352E+00 0. -1.
</event>
<event>
 5   0  0.1886248E-06  0.3170017E+04  0.7818609E-02  0.8196781E-01
       -1   -1    0    0    0  501  0.00000000000E+00  0.00000000000E+00  0.95408022804E+03  0.95408022805E+03  0.50400001928E-02 0.  1.
        1   -1    0    0  501    0  0.00000000000E+00  0.00000000000E+00 -0.26331665382E+04  0.26331665382E+04  0.50400001928E-02 0. -1.
    10030    2    1    2    0    0  0.00000000000E+00  0.00000000000E+00 -0.16790863102E+04  0.35872467663E+04  0.31700171175E+04 0.  0.
        4    1    3    3  502    0 -0.12990975617E+04 -0.55845626971E+03 -0.16498339255E+04  0.21728970235E+04  0.12699999809E+01 0. -1.
       -4    1    3    3    0  502  0.12990975617E+04  0.55845626971E+03 -0.29252384643E+02  0.14143497428E+04  0.12699999809E+01 0.  1.
</event>
<event>
 5   0  0.1969465E-06  0.2726842E+04  0.7818609E-02  0.8326348E-01
       -1   -1    0    0    0  501  0.00000000000E+00  0.00000000000E+00  0.16541356221E+04  0.16541356221E+04  0.50400001928E-02 0. -1.
        1   -1    0    0  501    0  0.00000000000E+00  0.00000000000E+00 -0.11237991939E+04  0.11237991939E+04  0.50400001928E-02 0.  1.
    10030    2    1    2    0    0  0.00000000000E+00  0.00000000000E+00  0.53033642825E+03  0.27779348160E+04  0.27268416006E+04 0.  0.
        2    1    3    3  502    0 -0.39276588727E+03 -0.81490073896E+02  0.15926615176E+04  0.16423995811E+04  0.25500000920E-02 0. -1.
       -2    1    3    3    0  502  0.39276588727E+03  0.81490073896E+02 -0.10623250893E+04  0.11355352349E+04  0.25500000920E-02 0.  1.
</event>
<event>
 5   0  0.1886248E-06  0.2039326E+04  0.7818609E-02  0.8588452E-01
       -1   -1    0    0    0  501  0.00000000000E+00  0.00000000000E+00  0.87408105682E+03  0.87408105684E+03  0.50400001928E-02 0.  1.
        1   -1    0    0  501    0  0.00000000000E+00  0.00000000000E+00 -0.11894917125E+04  0.11894917125E+04  0.50400001928E-02 0. -1.
    10030    2    1    2    0    0  0.00000000000E+00  0.00000000000E+00 -0.31541065569E+03  0.20635727694E+04  0.20393255485E+04 0.  0.
        4    1    3    3  502    0  0.32431785187E+03  0.32940292910E+03 -0.10773691202E+04  0.11723541243E+04  0.12699999809E+01 0. -1.
       -4    1    3    3    0  502 -0.32431785187E+03 -0.32940292910E+03  0.76195846451E+03  0.89121864505E+03  0.12699999809E+01 0.  1.
</event>
<event>
 5   0  0.1881144E-06  0.2442764E+04  0.7818609E-02  0.8423665E-01
        1   -1    0    0  501    0  0.00000000000E+00  0.00000000000E+00  0.17899201318E+04  0.17899201318E+04  0.50400001928E-02 0.  1.
       -1   -1    0    0    0  501  0.00000000000E+00  0.00000000000E+00 -0.83343056994E+03  0.83343056995E+03  0.50400001928E-02 0. -1.
    10030    2    1    2    0    0  0.00000000000E+00  0.00000000000E+00  0.95648956182E+03  0.26233507017E+04  0.24427641356E+04 0.  0.
        3    1    3    3  502    0  0.93275544410E+03 -0.75223087405E+03  0.73213292022E+03  0.14042445049E+04  0.10100000352E+00 0. -1.
       -3    1    3    3    0  502 -0.93275544410E+03  0.75223087405E+03  0.22435664160E+03  0.12191061968E+04  0.10100000352E+00 0.  1.
</event>
<event>
 5   0  0.1977015E-06  0.2780984E+04  0.7818609E-02  0.8309197E-01
       -1   -1    0    0    0  501  0.00000000000E+00  0.00000000000E+00  0.13455371950E+04  0.13455371950E+04  0.50400001928E-02 0. -1.
        1   -1    0    0  501    0  0.00000000000E+00  0.00000000000E+00 -0.14369485412E+04  0.14369485412E+04  0.50400001928E-02 0.  1.
    10030    2    1    2    0    0  0.00000000000E+00  0.00000000000E+00 -0.91411346203E+02  0.27824857362E+04  0.27809837896E+04 0.  0.
        1    1    3    3  502    0  0.10204363242E+04  0.38460696417E+03  0.81746234559E+03  0.13628857234E+04  0.50400001928E-02 0. -1.
       -1    1    3    3    0  502 -0.10204363242E+04 -0.38460696417E+03 -0.90887369179E+03  0.14196000128E+04  0.50400001928E-02 0.  1.
</event>
<event>
 5   0  0.5121624E-06  0.3218984E+04  0.7818609E-02  0.8183821E-01
        2   -1    0    0  501    0  0.00000000000E+00  0.00000000000E+00  0.16868698337E+04  0.16868698337E+04  0.25500000920E-02 0.  1.
       -2   -1    0    0    0  501  0.00000000000E+00  0.00000000000E+00 -0.15356636656E+04  0.15356636656E+04  0.25500000920E-02 0. -1.
    10030    2    1    2    0    0  0.00000000000E+00  0.00000000000E+00  0.15120616809E+03  0.32225334994E+04  0.32189841331E+04 0.  0.
        4    1    3    3  502    0 -0.26401879768E+03 -0.18264175622E+03 -0.15032849982E+04  0.15371829219E+04  0.12699999809E+01 0. -1.
       -4    1    3    3    0  502  0.26401879768E+03  0.18264175622E+03  0.16544911663E+04  0.16853505775E+04  0.12699999809E+01 0.  1.
</event>
<event>
 5   0  0.5121624E-06  0.3210995E+04  0.7818609E-02  0.8185919E-01
        2   -1    0    0  501    0  0.00000000000E+00  0.00000000000E+00  0.15639259963E+04  0.15639259963E+04  0.25500000920E-02 0. -1.
       -2   -1    0    0    0  501  0.00000000000E+00  0.00000000000E+00 -0.16481740100E+04  0.16481740100E+04  0.25500000920E-02 0.  1.
    10030    2    1    2    0    0  0.00000000000E+00  0.00000000000E+00 -0.84248013722E+02  0.32121000063E+04  0.32109949740E+04 0.  0.
        4    1    3    3  502    0 -0.75899216211E+03 -0.46617511961E+03  0.12940872365E+04  0.15710034159E+04  0.12699999809E+01 0. -1.
       -4    1    3    3    0  502  0.75899216211E+03  0.46617511961E+03 -0.13783352502E+04  0.16410965904E+04  0.12699999809E+01 0.  1.
</event>
<event>
 5   0  0.1977015E-06  0.3198138E+04  0.7818609E-02  0.8189309E-01
        1   -1    0    0  501    0  0.00000000000E+00  0.00000000000E+00  0.30009327289E+04  0.30009327289E+04  0.50400001928E-02 0.  1.
       -1   -1    0    0    0  501  0.00000000000E+00  0.00000000000E+00 -0.85207579379E+03  0.85207579380E+03  0.50400001928E-02 0. -1.
    10030    2    1    2    0    0  0.00000000000E+00  0.00000000000E+00  0.21488569352E+04  0.38530085227E+04  0.31981382942E+04 0.  0.
        1    1    3    3  502    0 -0.41249506940E+03 -0.38925107375E+03 -0.72682919681E+03  0.92192692881E+03  0.50400001928E-02 0. -1.
       -1    1    3    3    0  502  0.41249506940E+03  0.38925107375E+03  0.28756861320E+04  0.29310815939E+04  0.50400001928E-02 0.  1.
</event>
<event>
 5   0  0.1886248E-06  0.3224092E+04  0.7818609E-02  0.8182483E-01
        1   -1    0    0  501    0  0.00000000000E+00  0.00000000000E+00  0.17678408727E+04  0.17678408727E+04  0.50400001928E-02 0.  1.
       -1   -1    0    0    0  501  0.00000000000E+00  0.00000000000E+00 -0.14699804495E+04  0.14699804495E+04  0.50400001928E-02 0. -1.
    10030    2    1    2    0    0  0.00000000000E+00  0.00000000000E+00  0.29786042324E+03  0.32378213222E+04  0.32240915127E+04 0.  0.
        4    1    3    3  502    0  0.11897519175E+04 -0.10148764098E+04  0.54201263553E+03  0.16550719206E+04  0.12699999809E+01 0.  1.
       -4    1    3    3    0  502 -0.11897519175E+04  0.10148764098E+04 -0.24415221229E+03  0.15827494016E+04  0.12699999809E+01 0. -1.
</event>
<event>
 5   0  0.5121624E-06  0.3125512E+04  0.7818609E-02  0.8208771E-01
        2   -1    0    0  501    0  0.00000000000E+00  0.00000000000E+00  0.15977930328E+04  0.15977930328E+04  0.25500000920E-02 0. -1.
       -2   -1    0    0    0  501  0.00000000000E+00  0.00000000000E+00 -0.15284875717E+04  0.15284875717E+04  0.25500000920E-02 0.  1.
    10030    2    1    2    0    0  0.00000000000E+00  0.00000000000E+00  0.69305461127E+02  0.31262806045E+04  0.31255123054E+04 0.  0.
        4    1    3    3  502    0 -0.11710313339E+04 -0.51090578663E+03  0.93479953875E+03  0.15830953535E+04  0.12699999809E+01 0. -1.
       -4    1    3    3    0  502  0.11710313339E+04  0.51090578663E+03 -0.86549407762E+03  0.15431852510E+04  0.12699999809E+01 0.  1.
</event>
<event>
 5   0  0.5121624E-06  0.3263061E+04  0.7818609E-02  0.8172359E-01
        2   -1    0    0  501    0  0.00000000000E+00  0.00000000000E+00  0.23798878183E+04  0.23798878183E+04  0.25500000920E-02 0.  1.
       -2   -1    0    0    0  501  0.00000000000E+00  0.00000000000E+00 -0.11184947318E+04  0.11184947318E+04  0.25500000920E-02 0. -1.
    10030    2    1    2    0    0  0.00000000000E+00  0.00000000000E+00  0.12613930865E+04  0.34983825501E+04  0.32630611316E+04 0.  0.
        4    1    3    3  502    0  0.14242975341E+04 -0.11814796989E+03 -0.21301777832E+03  0.14449777144E+04  0.12699999809E+01 0. -1.
       -4    1    3    3    0  502 -0.14242975341E+04  0.11814796989E+03  0.14744108648E+04  0.20534048357E+04  0.12699999809E+01 0.  1.
</event>
<event>
 5   0  0.5373060E-06  0.3176476E+04  0.7818609E-02  0.8195058E-01
       -2   -1    0    0    0  501  0.00000000000E+00  0.00000000000E+00  0.91662260914E+03  0.91662260915E+03  0.25500000920E-02 0. -1.
        2   -1    0    0  501    0  0.00000000000E+00  0.00000000000E+00 -0.27519501696E+04  0.27519501696E+04  0.25500000920E-02 0.  1.
    10030    2    1    2    0    0  0.00000000000E+00  0.00000000000E+00 -0.18353275605E+04  0.36685727787E+04  0.31764758741E+04 0.  0.
        5    1    3    3  502    0 -0.26742393105E+03  0.48727487775E+03  0.80061577270E+03  0.97465895106E+03  0.46999998093E+01 0. -1.
       -5    1    3    3    0  502  0.26742393105E+03 -0.48727487775E+03 -0.26359433332E+04  0.26939138277E+04  0.46999998093E+01 0.  1.
</event>
<event>
 5   0  0.5108810E-06  0.3152018E+04  0.7818609E-02  0.8201605E-01
       -2   -1    0    0    0  501  0.00000000000E+00  0.00000000000E+00  0.14096194455E+04  0.14096194455E+04  0.25500000920E-02 0.  1.
        2   -1    0    0  501    0  0.00000000000E+00  0.00000000000E+00 -0.17620393427E+04  0.17620393427E+04  0.25500000920E-02 0. -1.
    10030    2    1    2    0    0  0.00000000000E+00  0.00000000000E+00 -0.35241989722E+03  0.31716587882E+04  0.31520183510E+04 0.  0.
        1    1    3    3  502    0  0.82699229906E+03 -0.96997803820E+03 -0.11088245418E+04  0.16894571678E+04  0.50400001928E-02 0. -1.
       -1    1    3    3    0  502 -0.82699229906E+03  0.96997803820E+03  0.75640464455E+03  0.14822016204E+04  0.50400001928E-02 0.  1.
</event>
<event>
 5   0  0.1846850E-06  0.3261383E+04  0.7818609E-02  0.8172792E-01
        1   -1    0    0  501    0  0.00000000000E+00  0.00000000000E+00  0.32672568414E+04  0.32672568414E+04  0.50400001928E-02 0.  1.
       -1   -1    0    0    0  501  0.00000000000E+00  0.00000000000E+00 -0.81387997648E+03  0.81387997650E+03  0.50400001928E-02 0. -1.
    10030    2    1    2    0    0  0.00000000000E+00  0.00000000000E+00  0.24533768649E+04  0.40811368179E+04  0.32613830939E+04 0.  0.
        5    1    3    3  502    0  0.14394695541E+04  0.29391262578E+03  0.21121252028E+04  0.25728490417E+04  0.46999998093E+01 0.  1.
       -5    1    3    3    0  502 -0.14394695541E+04 -0.29391262578E+03  0.34125166204E+03  0.15082877762E+04  0.46999998093E+01 0. -1.
</event>
<event>
 5   0  0.5373060E-06  0.3151397E+04  0.7818609E-02  0.8201772E-01
       -2   -1    0    0    0  501  0.00000000000E+00  0.00000000000E+00  0.17406073816E+04  0.17406073816E+04  0.25500000920E-02 0.  1.
        2   -1    0    0  501    0  0.00000000000E+00  0.00000000000E+00 -0.14264134801E+04  0.14264134801E+04  0.25500000920E-02 0. -1.
    10030    2    1    2    0    0  0.00000000000E+00  0.00000000000E+00  0.31419390150E+03  0.31670208618E+04  0.31513970443E+04 0.  0.
        5    1    3    3  502    0 -0.95171473076E+03  0.34568029024E+03 -0.10561779865E+04  0.14631438142E+04  0.46999998093E+01 0. -1.
       -5    1    3    3    0  502  0.95171473076E+03 -0.34568029024E+03  0.13703718880E+04  0.17038770476E+04  0.46999998093E+01 0.  1.
</event>
<event>
 5   0  0.1969465E-06  0.3184576E+04  0.7818609E-02  0.8192903E-01
       -1   -1    0    0    0  501  0.00000000000E+00  0.00000000000E+00  0.11367041644E+04  0.11367041644E+04  0.50400001928E-02 0.  1.
        1   -1    0    0  501    0  0.00000000000E+00  0.00000000000E+00 -0.22304666428E+04  0.22304666428E+04  0.50400001928E-02 0. -1.
    10030    2    1    2    0    0  0.00000000000E+00  0.00000000000E+00 -0.10937624784E+04  0.33671708073E+04  0.31845757780E+04 0.  0.
        2    1    3    3  502    0  0.11478625828E+04 -0.10994244201E+04 -0.64751263188E+03  0.17162736300E+04  0.25500000920E-02 0. -1.
       -2    1    3    3    0  502 -0.11478625828E+04  0.10994244201E+04 -0.44624984654E+03  0.16508971773E+04  0.25500000920E-02 0.  1.
</event>
<event>
 5   0  0.5373060E-06  0.3095375E+04  0.7818609E-02  0.8217008E-01
       -2   -1    0    0    0  501  0.00000000000E+00  0.00000000000E+00  0.80320898889E+03  0.80320898890E+03  0.25500000920E-02 0. -1.
        2   -1    0    0  501    0  0.00000000000E+00  0.00000000000E+00 -0.29822074691E+04  0.29822074691E+04  0.25500000920E-02 0.  1.
    10030    2    1    2    0    0  0.00000000000E+00  0.00000000000E+00 -0.21789984802E+04  0.37854164580E+04  0.30953745143E+04 0.  0.
        5    1    3    3  502    0 -0.50660517632E+03  0.75413690780E+03 -0.26217940596E+04  0.27747427739E+04  0.46999998093E+01 0.  1.
       -5    1    3    3    0  502  0.50660517632E+03 -0.75413690780E+03  0.44279557947E+03  0.10106736840E+04  0.46999998093E+01 0. -1.
</event>
<event>
 5   0  0.1881144E-06  0.3166823E+04  0.7818609E-02  0.8197635E-01
       -1   -1    0    0    0  501  0.00000000000E+00  0.00000000000E+00  0.12020122085E+04  0.12020122085E+04  0.50400001928E-02 0.  1.
        1   -1    0    0  501    0  0.00000000000E+00  0.00000000000E+00 -0.20858286665E+04  0.20858286665E+04  0.50400001928E-02 0. -1.
    10030    2    1    2    0    0  0.00000000000E+00  0.00000000000E+00 -0.88381645802E+03  0.32878408750E+04  0.31668227118E+04 0.  0.
        3    1    3    3  502    0 -0.88063400133E+03  0.10194243849E+04 -0.13058430836E+04  0.18761579065E+04  0.10100000352E+00 0. -1.
       -3    1    3    3    0  502  0.88063400133E+03 -0.10194243849E+04  0.42202662561E+03  0.14116829686E+04  0.10100000352E+00 0.  1.
</event>
<event>
 5   0  0.1886248E-06  0.2448171E+04  0.7818609E-02  0.8421686E-01
       -1   -1    0    0    0  501  0.00000000000E+00  0.00000000000E+00  0.92941124203E+03  0.92941124204E+03  0.50400001928E-02 0.  1.
        1   -1    0    0  501    0  0.00000000000E+00  0.00000000000E+00 -0.16121877008E+04  0.16121877008E+04  0.50400001928E-02 0. -1.
    10030    2    1    2    0    0  0.00000000000E+00  0.00000000000E+00 -0.68277645880E+03  0.25415989429E+04  0.24481710508E+04 0.  0.
        4    1    3    3  502    0  0.23433318694E+03 -0.26440761154E+03 -0.15581039887E+04  0.15976586243E+04  0.12699999809E+01 0. -1.
       -4    1    3    3    0  502 -0.23433318694E+03  0.26440761154E+03  0.87532752986E+03  0.94394031854E+03  0.12699999809E+01 0.  1.
</event>
<event>
 5   0  0.1881144E-06  0.3163876E+04  0.7818609E-02  0.8198423E-01
        1   -1    0    0  501    0  0.00000000000E+00  0.00000000000E+00  0.19957741276E+04  0.19957741276E+04  0.50400001928E-02 0.  1.
       -1   -1    0    0    0  501  0.00000000000E+00  0.00000000000E+00 -0.12539134402E+04  0.12539134402E+04  0.50400001928E-02 0. -1.
    10030    2    1    2    0    0  0.00000000000E+00  0.00000000000E+00  0.74186068744E+03  0.32496875679E+04  0.31638761052E+04 0.  0.
        3    1    3    3  502    0  0.84981976563E+03  0.90201516967E+03  0.13808077867E+04  0.18553854463E+04  0.10100000352E+00 0.  1.
       -3    1    3    3    0  502 -0.84981976563E+03 -0.90201516967E+03 -0.63894709924E+03  0.13943021216E+04  0.10100000352E+00 0. -1.
</event>
<event>
 5   0  0.1881144E-06  0.3292001E+04  0.7818609E-02  0.8164934E-01
        1   -1    0    0  501    0  0.00000000000E+00  0.00000000000E+00  0.19449486850E+04  0.19449486851E+04  0.50400001928E-02 0. -1.
       -1   -1    0    0    0  501  0.00000000000E+00  0.00000000000E+00 -0.13930024109E+04  0.13930024109E+04  0.50400001928E-02 0.  1.
    10030    2    1    2    0    0  0.00000000000E+00  0.00000000000E+00  0.55194627419E+03  0.33379510959E+04  0.32920013410E+04 0.  0.
        3    1    3    3  502    0  0.26848060600E+03  0.10389923895E+04 -0.98953872995E+03  0.14597170718E+04  0.10100000352E+00 0.  1.
       -3    1    3    3    0  502 -0.26848060600E+03 -0.10389923895E+04  0.15414850041E+04  0.18782340242E+04  0.10100000352E+00 0. -1.
</event>
<event>
 5   0  0.5347280E-06  0.3321564E+04  0.7818609E-02  0.8157430E-01
        2   -1    0    0  501    0  0.00000000000E+00  0.00000000000E+00  0.17874125226E+04  0.17874125226E+04  0.25500000920E-02 0.  1.
       -2   -1    0    0    0  501  0.00000000000E+00  0.00000000000E+00 -0.15431228707E+04  0.15431228707E+04  0.25500000920E-02 0. -1.
    10030    2    1    2    0    0  0.00000000000E+00  0.00000000000E+00  0.24428965186E+03  0.33305353934E+04  0.33215641756E+04 0.  0.
        2    1    3    3  502    0  0.15697247211E+04 -0.45775456489E+03 -0.16953981739E+03  0.16438730764E+04  0.25500000920E-02 0. -1.
       -2    1    3    3    0  502 -0.15697247211E+04  0.45775456489E+03  0.41382946926E+03  0.16866623169E+04  0.25500000920E-02 0.  1.
</event>
<event>
 5   0  0.1846850E-06  0.3218103E+04  0.7818609E-02  0.8184052E-01
        1   -1    0    0  501    0  0.00000000000E+00  0.00000000000E+00  0.29368923876E+04  0.29368923876E+04  0.50400001928E-02 0. -1.
       -1   -1    0    0    0  501  0.00000000000E+00  0.00000000000E+00 -0.88156017089E+03  0.88156017090E+03  0.50400001928E-02 0.  1.
    10030    2    1    2    0    0  0.00000000000E+00  0.00000000000E+00  0.20553322167E+04  0.38184525585E+04  0.32181033887E+04 0.  0.
        5    1    3    3  502    0  0.17447296965E+02  0.15637660420E+04  0.14769245923E+04  0.21510455559E+04  0.46999998093E+01 0. -1.
       -5    1    3    3    0  502 -0.17447296965E+02 -0.15637660420E+04  0.57840762445E+03  0.16674070026E+04  0.46999998093E+01 0.  1.
</event>
<event>
 5   0  0.1969465E-06  0.3501529E+04  0.7818609E-02  0.8113428E-01
       -1   -1    0    0    0  501  0.00000000000E+00  0.00000000000E+00  0.13246297236E+04  0.13246297236E+04  0.50400001928E-02 0. -1.
        1   -1    0    0  501    0  0.00000000000E+00  0.00000000000E+00 -0.23139877065E+04  0.23139877065E+04  0.50400001928E-02 0.  1.
    10030    2    1    2    0    0  0.00000000000E+00  0.00000000000E+00 -0.98935798288E+03  0.36386174301E+04  0.35015293208E+04 0.  0.
        2    1    3    3  502    0 -0.60362866684E+03  0.18225847802E+02 -0.22023290660E+04  0.22836271727E+04  0.25500000920E-02 0.  1.
       -2    1    3    3    0  502  0.60362866684E+03 -0.18225847802E+02  0.12129710832E+04  0.13549902574E+04  0.25500000920E-02 0. -1.
</event>
<event>
 5   0  0.1881144E-06  0.3215860E+04  0.7818609E-02  0.8184641E-01
        1   -1    0    0  501    0  0.00000000000E+00  0.00000000000E+00  0.24872004281E+04  0.24872004281E+04  0.50400001928E-02 0.  1.
       -1   -1    0    0    0  501  0.00000000000E+00  0.00000000000E+00 -0.10394976121E+04  0.10394976121E+04  0.50400001928E-02 0. -1.
    10030    2    1    2    0    0  0.00000000000E+00  0.00000000000E+00  0.14477028160E+04  0.35266980403E+04  0.32158600131E+04 0.  0.
        3    1    3    3  502    0  0.11906406678E+04 -0.10708017065E+04  0.88351741048E+03  0.18288916095E+04  0.10100000352E+00 0. -1.
       -3    1    3    3    0  502 -0.11906406678E+04  0.10708017065E+04  0.56418540553E+03  0.16978064308E+04  0.10100000352E+00 0.  1.
</event>
<event>
 5   0  0.5108810E-06  0.3222587E+04  0.7818609E-02  0.8182877E-01
       -2   -1    0    0    0  501  0.00000000000E+00  0.00000000000E+00  0.12154826505E+04  0.12154826506E+04  0.25500000920E-02 0.  1.
        2   -1    0    0  501    0  0.00000000000E+00  0.00000000000E+00 -0.21359962057E+04  0.21359962057E+04  0.25500000920E-02 0. -1.
    10030    2    1    2    0    0  0.00000000000E+00  0.00000000000E+00 -0.92051355520E+03  0.33514788563E+04  0.32225867434E+04 0.  0.
        1    1    3    3  502    0 -0.16082973227E+04  0.19145723130E+01 -0.56237990956E+03  0.17037884570E+04  0.50400001928E-02 0. -1.
       -1    1    3    3    0  502  0.16082973227E+04 -0.19145723130E+01 -0.35813364563E+03  0.16476903993E+04  0.50400001928E-02 0.  1.
</event>
<event>
 5   0  0.5347280E-06  0.3336492E+04  0.7818609E-02  0.8153671E-01
       -2   -1    0    0    0  501  0.00000000000E+00  0.00000000000E+00  0.15887825881E+04  0.15887825881E+04  0.25500000920E-02 0. -1.
        2   -1    0    0  501    0  0.00000000000E+00  0.00000000000E+00 -0.17516841494E+04  0.17516841494E+04  0.25500000920E-02 0.  1.
    10030    2    1    2    0    0  0.00000000000E+00  0.00000000000E+00 -0.16290156135E+03  0.33404667375E+04  0.33364923356E+04 0.  0.
        2    1    3    3  502    0  0.19444084075E+03 -0.21178195878E+03  0.15637919446E+04  0.15900012845E+04  0.25500000920E-02 0. -1.
       -2    1    3    3    0  502 -0.19444084075E+03  0.21178195878E+03 -0.17266935060E+04  0.17504654530E+04  0.25500000920E-02 0.  1.
</event>
<event>
 5   0  0.1881144E-06  0.3236043E+04  0.7818609E-02  0.8179363E-01
        1   -1    0    0  501    0  0.00000000000E+00  0.00000000000E+00  0.15279703631E+04  0.15279703631E+04  0.50400001928E-02 0.  1.
       -1   -1    0    0    0  501  0.00000000000E+00  0.00000000000E+00 -0.17133798294E+04  0.17133798294E+04  0.50400001928E-02 0. -1.
    10030    2    1    2    0    0  0.00000000000E+00  0.00000000000E+00 -0.18540946624E+03  0.32413501925E+04  0.32360430158E+04 0.  0.
        3    1    3    3  502    0 -0.66083238307E+03  0.44619265966E+03  0.13175127362E+04  0.15400088144E+04  0.10100000352E+00 0.  1.
       -3    1    3    3    0  502  0.66083238307E+03 -0.44619265966E+03 -0.15029222025E+04  0.17013413781E+04  0.10100000352E+00 0. -1.
</event>
<event>
 5   0  0.5108810E-06  0.2986687E+04  0.7818609E-02  0.8247543E-01
        2   -1    0    0  501    0  0.00000000000E+00  0.00000000000E+00  0.18414696680E+04  0.18414696680E+04  0.25500000920E-02 0. -1.
       -2   -1    0    0    0  501  0.00000000000E+00  0.00000000000E+00 -0.12110301580E+04  0.12110301580E+04  0.25500000920E-02 0.  1.
    10030    2    1    2    0    0  0.00000000000E+00  0.00000000000E+00  0.63043951000E+03  0.30524998259E+04  0.29866873307E+04 0.  0.
        1    1    3    3  502    0 -0.60613391779E+03 -0.22274418872E+03 -0.10609506574E+04  0.12420264077E+04  0.50400001928E-02 0.  1.
       -1    1    3    3    0  502  0.60613391779E+03  0.22274418872E+03  0.16913901674E+04  0.18104734183E+04  0.50400001928E-02 0. -1.
</event>
<event>
 5   0  0.1977015E-06  0.2292282E+04  0.7818609E-02  0.8480971E-01
       -1   -1    0    0    0  501  0.00000000000E+00  0.00000000000E+00  0.14195576467E+04  0.14195576467E+04  0.50400001928E-02 0.  1.
        1   -1    0    0  501    0  0.00000000000E+00  0.00000000000E+00 -0.92538607078E+03  0.92538607079E+03  0.50400001928E-02 0. -1.
    10030    2    1    2    0    0  0.00000000000E+00  0.00000000000E+00  0.49417157594E+03  0.23449437175E+04  0.22922817218E+04 0.  0.
        1    1    3    3  502    0 -0.78085813468E+03 -0.12941350371E+03 -0.60090417198E+03  0.99376712834E+03  0.50400001928E-02 0. -1.
       -1    1    3    3    0  502  0.78085813468E+03  0.12941350371E+03  0.10950757479E+04  0.13511765892E+04  0.50400001928E-02 0.  1.
</event>
<event>
 5   0  0.1881144E-06  0.3241672E+04  0.7818609E-02  0.8177897E-01
        1   -1    0    0  501    0  0.00000000000E+00  0.00000000000E+00  0.18175844207E+04  0.18175844208E+04  0.50400001928E-02 0. -1.
       -1   -1    0    0    0  501  0.00000000000E+00  0.00000000000E+00 -0.14453853654E+04  0.14453853654E+04  0.50400001928E-02 0.  1.
    10030    2    1    2    0    0  0.00000000000E+00  0.00000000000E+00  0.37219905536E+03  0.32629697862E+04  0.32416723598E+04 0.  0.
        3    1    3    3  502    0 -0.12668364532E+04  0.10106913936E+04  0.21344822947E+03  0.16346044932E+04  0.10100000352E+00 0. -1.
       -3    1    3    3    0  502  0.12668364532E+04 -0.10106913936E+04  0.15875082589E+03  0.16283652929E+04  0.10100000352E+00 0.  1.
</event>
<event>
 5   0  0.5121624E-06  0.3240407E+04  0.7818609E-02  0.8178227E-01
       -2   -1    0    0    0  501  0.00000000000E+00  0.00000000000E+00  0.16607575503E+04  0.16607575503E+04  0.25500000920E-02 0.  1.
        2   -1    0    0  501    0  0.00000000000E+00  0.00000000000E+00 -0.15806394781E+04  0.15806394781E+04  0.25500000920E-02 0. -1.
    10030    2    1    2    0    0  0.00000000000E+00  0.00000000000E+00  0.80118072201E+02  0.32413970285E+04  0.32404067323E+04 0.  0.
        4    1    3    3  502    0 -0.16201835821E+04 -0.25889796049E+01  0.32587328381E+02  0.16205138350E+04  0.12699999809E+01 0. -1.
       -4    1    3    3    0  502  0.16201835821E+04  0.25889796049E+01  0.47530743820E+02  0.16208831935E+04  0.12699999809E+01 0.  1.
</event>
<event>
 5   0  0.5373060E-06  0.3191100E+04  0.7818609E-02  0.8191172E-01
       -2   -1    0    0    0  501  0.00000000000E+00  0.00000000000E+00  0.18898549403E+04  0.18898549403E+04  0.25500000920E-02 0.  1.
        2   -1    0    0  501    0  0.00000000000E+00  0.00000000000E+00 -0.13470764265E+04  0.13470764265E+04  0.25500000920E-02 0. -1.
    10030    2    1    2    0    0  0.00000000000E+00  0.00000000000E+00  0.54277851380E+03  0.32369313669E+04  0.31910995219E+04 0.  0.
        5    1    3    3  502    0  0.79030566371E+03 -0.13172021645E+04 -0.16626123595E+03  0.15450791154E+04  0.46999998093E+01 0.  1.
       -5    1    3    3    0  502 -0.79030566371E+03  0.13172021645E+04  0.70903974975E+03  0.16918522515E+04  0.46999998093E+01 0. -1.
</event>
<event>
 5   0  0.5108810E-06  0.3223402E+04  0.7818609E-02  0.8182664E-01
        2   -1    0    0  501    0  0.00000000000E+00  0.00000000000E+00  0.17121450605E+04  0.17121450605E+04  0.25500000920E-02 0. -1.
       -2   -1    0    0    0  501  0.00000000000E+00  0.00000000000E+00 -0.15171500200E+04  0.15171500200E+04  0.25500000920E-02 0.  1.
    10030    2    1    2    0    0  0.00000000000E+00  0.00000000000E+00  0.19499504054E+03  0.32292950805E+04  0.32234024960E+04 0.  0.
        1    1    3    3  502    0  0.13115490365E+04 -0.89238551914E+03  0.38274265904E+03  0.16318715430E+04  0.50400001928E-02 0. -1.
       -1    1    3    3    0  502 -0.13115490365E+04  0.89238551914E+03 -0.18774761850E+03  0.15974235375E+04  0.50400001928E-02 0.  1.
</event>
<event>
 5   0  0.5373060E-06  0.2449307E+04  0.7818609E-02  0.8421271E-01
       -2   -1    0    0    0  501  0.00000000000E+00  0.00000000000E+00  0.16869243831E+04  0.16869243831E+04  0.25500000920E-02 0. -1.
        2   -1    0    0  501    0  0.00000000000E+00  0.00000000000E+00 -0.88905950930E+03  0.88905950930E+03  0.25500000920E-02 0.  1.
    10030    2    1    2    0    0  0.00000000000E+00  0.00000000000E+00  0.79786487376E+03  0.25759838924E+04  0.24493069748E+04 0.  0.
        5    1    3    3  502    0 -0.45873037957E+03 -0.11013691416E+04  0.10840927110E+03  0.11980075990E+04  0.46999998093E+01 0.  1.
       -5    1    3    3    0  502  0.45873037957E+03  0.11013691416E+04  0.68945560266E+03  0.13779762934E+04  0.46999998093E+01 0. -1.
</event>
<event>
 5   0  0.5121624E-06  0.3284640E+04  0.7818609E-02  0.8166815E-01
       -2   -1    0    0    0  501  0.00000000000E+00  0.00000000000E+00  0.12932536660E+04  0.12932536660E+04  0.25500000920E-02 0. -1.
        2   -1    0    0  501    0  0.00000000000E+00  0.00000000000E+00 -0.20856038973E+04  0.20856038973E+04  0.25500000920E-02 0.  1.
    10030    2    1    2    0    0  0.00000000000E+00  0.00000000000E+00 -0.79235023127E+03  0.33788575633E+04  0.32846399413E+04 0.  0.
        4    1    3    3  502    0  0.10832070982E+04 -0.48525807911E+03  0.77146098872E+03  0.14156153048E+04  0.12699999809E+01 0. -1.
       -4    1    3    3    0  502 -0.10832070982E+04  0.48525807911E+03 -0.15638112200E+04  0.19632422585E+04  0.12699999809E+01 0.  1.
</event>
<event>
 5   0  0.1881144E-06  0.3202453E+04  0.7818609E-02  0.8188170E-01
        1   -1    0    0  501    0  0.00000000000E+00  0.00000000000E+00  0.19048528595E+04  0.19048528595E+04  0.50400001928E-02 0. -1.
       -1   -1    0    0    0  501  0.00000000000E+00  0.00000000000E+00 -0.13459972318E+04  0.13459972318E+04  0.50400001928E-02 0.  1.
    10030    2    1    2    0    0  0.00000000000E+00  0.00000000000E+00  0.55885562772E+03  0.32508500914E+04  0.32024532321E+04 0.  0.
        3    1    3    3  502    0 -0.13550971898E+04  0.63334729544E+02 -0.58409044204E+03  0.14769770941E+04  0.10100000352E+00 0.  1.
       -3    1    3    3    0  502  0.13550971898E+04 -0.63334729544E+02  0.11429460698E+04  0.17738729973E+04  0.10100000352E+00 0. -1.
</event>
<event>
 5   0  0.1881144E-06  0.2965522E+04  0.7818609E-02  0.8253645E-01
        1   -1    0    0  501    0  0.00000000000E+00  0.00000000000E+00  0.21669176399E+04  0.21669176400E+04  0.50400001928E-02 0. -1.
       -1   -1    0    0    0  501  0.00000000000E+00  0.00000000000E+00 -0.10146117161E+04  0.10146117161E+04  0.50400001928E-02 0.  1.
    10030    2    1    2    0    0  0.00000000000E+00  0.00000000000E+00  0.11523059239E+04  0.31815293560E+04  0.29655218936E+04 0.  0.
        3    1    3    3  502    0 -0.18472700580E+03  0.22407225624E+03  0.21361102968E+04  0.21557596464E+04  0.10100000352E+00 0. -1.
       -3    1    3    3    0  502  0.18472700580E+03 -0.22407225624E+03 -0.98380437297E+03  0.10257697096E+04  0.10100000352E+00 0.  1.
</event>
<event>
 5   0  0.5131083E-06  0.3220871E+04  0.7818609E-02  0.8183327E-01
       -2   -1    0    0    0  501  0.00000000000E+00  0.00000000000E+00  0.15246576085E+04  0.15246576085E+04  0.25500000920E-02 0. -1.
        2   -1    0    0  501    0  0.00000000000E+00  0.00000000000E+00 -0.17010394424E+04  0.17010394424E+04  0.25500000920E-02 0.  1.
    10030    2    1    2    0    0  0.00000000000E+00  0.00000000000E+00 -0.17638183391E+03  0.32256970508E+04  0.32208711419E+04 0.  0.
        3    1    3    3  502    0  0.41007180562E+03 -0.70653713180E+03 -0.14781281203E+04  0.16888506016E+04  0.10100000352E+00 0.  1.
       -3    1    3    3    0  502 -0.41007180562E+03  0.70653713180E+03  0.13017462863E+04  0.15368464493E+04  0.10100000352E+00 0. -1.
</event>
<event>
 5   0  0.5121624E-06  0.3244502E+04  0.7818609E-02  0.8177162E-01
        2   -1    0    0  501    0  0.00000000000E+00  0.00000000000E+00  0.15646186373E+04  0.15646186373E+04  0.25500000920E-02 0. -1.
       -2   -1    0    0    0  501  0.00000000000E+00  0.00000000000E+00 -0.16820064014E+04  0.16820064014E+04  0.25500000920E-02 0.  1.
    10030    2    1    2    0    0  0.00000000000E+00  0.00000000000E+00 -0.11738776409E+03  0.32466250386E+04  0.32445021582E+04 0.  0.
        4    1    3    3  502    0 -0.14244233428E+04 -0.55519808281E+03 -0.60170000571E+03  0.16429459152E+04  0.12699999809E+01 0.  1.
       -4    1    3    3    0  502  0.14244233428E+04  0.55519808281E+03  0.48431224162E+03  0.16036791234E+04  0.12699999809E+01 0. -1.
</event>
<event>
 5   0  0.1969465E-06  0.3185245E+04  0.7818609E-02  0.8192725E-01
       -1   -1    0    0    0  501  0.00000000000E+00  0.00000000000E+00  0.11305202534E+04  0.11305202534E+04  0.50400001928E-02 0.  1.
        1   -1    0    0  501    0  0.00000000000E+00  0.00000000000E+00 -0.22436094976E+04  0.22436094976E+04  0.50400001928E-02 0. -1.
    10030    2    1    2    0    0  0.00000000000E+00  0.00000000000E+00 -0.11130892442E+04  0.33741297510E+04  0.31852447176E+04 0.  0.
        2    1    3    3  502    0 -0.13569250868E+04 -0.83290581449E+03 -0.59713379693E+03  0.17004548093E+04  0.25500000920E-02 0.  1.
       -2    1    3    3    0  502  0.13569250868E+04  0.83290581449E+03 -0.51595544728E+03  0.16736749417E+04  0.25500000920E-02 0. -1.
</event>
<event>
 5   0  0.1977015E-06  0.3141721E+04  0.7818609E-02  0.8204380E-01
       -1   -1    0    0    0  501  0.00000000000E+00  0.00000000000E+00  0.11829597351E+04  0.11829597351E+04  0.50400001928E-02 0.  1.
        1   -1    0    0  501    0  0.00000000000E+00  0.00000000000E+00 -0.20859570458E+04  0.20859570458E+04  0.50400001928E-02 0. -1.
    10030    2    1    2    0    0  0.00000000000E+00  0.00000000000E+00 -0.90299731069E+03  0.32689167808E+04  0.31417213080E+04 0.  0.
        1    1    3    3  502    0 -0.14699059811E+04 -0.52785392137E+03 -0.27630777221E+03  0.15860641036E+04  0.50400001928E-02 0.  1.
       -1    1    3    3    0  502  0.14699059811E+04  0.52785392137E+03 -0.62668953848E+03  0.16828526773E+04  0.50400001928E-02 0. -1.
</event>
<event>
 5   0  0.1969465E-06  0.3223259E+04  0.7818609E-02  0.8182701E-01
        1   -1    0    0  501    0  0.00000000000E+00  0.00000000000E+00  0.22501255606E+04  0.22501255606E+04  0.50400001928E-02 0. -1.
       -1   -1    0    0    0  501  0.00000000000E+00  0.00000000000E+00 -0.11543132601E+04  0.11543132601E+04  0.50400001928E-02 0.  1.
    10030    2    1    2    0    0  0.00000000000E+00  0.00000000000E+00  0.10958123005E+04  0.34044388207E+04  0.32232590783E+04 0.  0.
        2    1    3    3  502    0  0.34895499752E+03 -0.14683531173E+04  0.11449398840E+04  0.18943911437E+04  0.25500000920E-02 0. -1.
       -2    1    3    3    0  502 -0.34895499752E+03  0.14683531173E+04 -0.49127583439E+02  0.15100476770E+04  0.25500000920E-02 0.  1.
</event>
<event>
 5   0  0.5121624E-06  0.3243453E+04  0.7818609E-02  0.8177435E-01
       -2   -1    0    0    0  501  0.00000000000E+00  0.00000000000E+00  0.20880650840E+04  0.20880650840E+04  0.25500000920E-02 0.  1.
        2   -1    0    0  501    0  0.00000000000E+00  0.00000000000E+00 -0.12595380623E+04  0.12595380623E+04  0.25500000920E-02 0. -1.
    10030    2    1    2    0    0  0.00000000000E+00  0.00000000000E+00  0.82852702164E+03  0.33476031463E+04  0.32434533755E+04 0.  0.
        4    1    3    3  502    0  0.74866004444E+03  0.62964104086E+03  0.17492644288E+04  0.20042124033E+04  0.12699999809E+01 0.  1.
       -4    1    3    3    0  502 -0.74866004444E+03 -0.62964104086E+03 -0.92073740720E+03  0.13433907430E+04  0.12699999809E+01 0. -1.
</event>
<event>
 5   0  0.5121624E-06  0.2730435E+04  0.7818609E-02  0.8325197E-01
       -2   -1    0    0    0  501  0.00000000000E+00  0.00000000000E+00  0.16722208681E+04  0.16722208681E+04  0.25500000920E-02 0. -1.
        2   -1    0    0  501    0  0.00000000000E+00  0.00000000000E+00 -0.11145766639E+04  0.11145766639E+04  0.25500000920E-02 0.  1.
    10030    2    1    2    0    0  0.00000000000E+00  0.00000000000E+00  0.55764420421E+03  0.27867975321E+04  0.27304346589E+04 0.  0.
        4    1    3    3  502    0  0.45750022890E+03 -0.90353805416E+03  0.12132141481E+04  0.15803726322E+04  0.12699999809E+01 0. -1.
       -4    1    3    3    0  502 -0.45750022890E+03  0.90353805416E+03 -0.65556994386E+03  0.12064248998E+04  0.12699999809E+01 0.  1.
</event>
<event>
 5   0  0.5373060E-06  0.3209951E+04  0.7818609E-02  0.8186194E-01
       -2   -1    0    0    0  501  0.00000000000E+00  0.00000000000E+00  0.12701624626E+04  0.12701624626E+04  0.25500000920E-02 0. -1.
        2   -1    0    0  501    0  0.00000000000E+00  0.00000000000E+00 -0.20280453358E+04  0.20280453358E+04  0.25500000920E-02 0.  1.
    10030    2    1    2    0    0  0.00000000000E+00  0.00000000000E+00 -0.75788287319E+03  0.32982077984E+04  0.32099514377E+04 0.  0.
        5    1    3    3  502    0  0.10010078586E+04 -0.11646446422E+04 -0.85814524048E+03  0.17592183547E+04  0.46999998093E+01 0.  1.
       -5    1    3    3    0  502 -0.10010078586E+04  0.11646446422E+04  0.10026236729E+03  0.15389894438E+04  0.46999998093E+01 0. -1.
</event>
<event>
 5   0  0.1881144E-06  0.3214638E+04  0.7818609E-02  0.8184962E-01
        1   -1    0    0  501    0  0.00000000000E+00  0.00000000000E+00  0.17656223910E+04  0.17656223910E+04  0.50400001928E-02 0.  1.
       -1   -1    0    0    0  501  0.00000000000E+00  0.00000000000E+00 -0.14632090451E+04  0.14632090451E+04  0.50400001928E-02 0. -1.
    10030    2    1    2    0    0  0.00000000000E+00  0.00000000000E+00  0.30241334590E+03  0.32288314361E+04  0.32146381773E+04 0.  0.
        3    1    3    3  502    0  0.13278489572E+04  0.68058115081E+03  0.75142445898E+03  0.16706323006E+04  0.10100000352E+00 0.  1.
       -3    1    3    3    0  502 -0.13278489572E+04 -0.68058115081E+03 -0.44901111308E+03  0.15581991355E+04  0.10100000352E+00 0. -1.
</event>
<event>
 5   0  0.1969465E-06  0.3274738E+04  0.7818609E-02  0.8169353E-01
       -1   -1    0    0    0  501  0.00000000000E+00  0.00000000000E+00  0.16192777525E+04  0.16192777525E+04  0.50400001928E-02 0.  1.
        1   -1    0    0  501    0  0.00000000000E+00  0.00000000000E+00 -0.16556625767E+04  0.16556625767E+04  0.50400001928E-02 0. -1.
    10030    2    1    2    0    0  0.00000000000E+00  0.00000000000E+00 -0.36384824266E+02  0.32749403292E+04  0.32747382040E+04 0.  0.
        2    1    3    3  502    0 -0.37002083443E+03  0.39306484331E+03  0.15277238780E+04  0.16202949227E+04  0.25500000920E-02 0.  1.
       -2    1    3    3    0  502  0.37002083443E+03 -0.39306484331E+03 -0.15641087023E+04  0.16546454066E+04  0.25500000920E-02 0. -1.
</event>
<event>
 5   0  0.5108810E-06  0.3206114E+04  0.7818609E-02  0.8187204E-01
       -2   -1    0    0    0  501  0.00000000000E+00  0.00000000000E+00  0.12396405743E+04  0.12396405743E+04  0.25500000920E-02 0.  1.
        2   -1    0    0  501    0  0.00000000000E+00  0.00000000000E+00 -0.20730131424E+04  0.20730131424E+04  0.25500000920E-02 0. -1.
    10030    2    1    2    0    0  0.00000000000E+00  0.00000000000E+00 -0.83337256807E+03  0.33126537167E+04  0.32061136613E+04 0.  0.
        1    1    3    3  502    0 -0.17854705575E+03  0.15342861225E+04 -0.85974603678E+03  0.17677885068E+04  0.50400001928E-02 0. -1.
       -1    1    3    3    0  502  0.17854705575E+03 -0.15342861225E+04  0.26373468707E+02  0.15448652099E+04  0.50400001928E-02 0.  1.
</event>
<event>
 5   0  0.1886248E-06  0.3434527E+04  0.7818609E-02  0.8129484E-01
       -1   -1    0    0    0  501  0.00000000000E+00  0.00000000000E+00  0.14117722039E+04  0.14117722039E+04  0.50400001928E-02 0.  1.
        1   -1    0    0  501    0  0.00000000000E+00  0.00000000000E+00 -0.20888591883E+04  0.20888591883E+04  0.50400001928E-02 0. -1.
    10030    2    1    2    0    0  0.00000000000E+00  0.00000000000E+00 -0.67708698442E+03  0.35006313922E+04  0.34345266573E+04 0.  0.
        4    1    3    3  502    0  0.61438705752E+03 -0.13428684805E+04 -0.12318974636E+04  0.19231069097E+04  0.12699999809E+01 0. -1.
       -4    1    3    3    0  502 -0.61438705752E+03  0.13428684805E+04  0.55481047920E+03  0.15775244825E+04  0.12699999809E+01 0.  1.
</event>
<event>
 5   0  0.5121624E-06  0.3177981E+04  0.7818609E-02  0.8194657E-01
        2   -1    0    0  501    0  0.00000000000E+00  0.00000000000E+00  0.13645723247E+04  0.13645723247E+04  0.25500000920E-02 0. -1.
       -2   -1    0    0    0  501  0.00000000000E+00  0.00000000000E+00 -0.18503162214E+04  0.18503162214E+04  0.25500000920E-02 0.  1.
    10030    2    1    2    0    0  0.00000000000E+00  0.00000000000E+00 -0.48574389674E+03  0.32148885461E+04  0.31779806844E+04 0.  0.
        4    1    3    3  502    0 -0.14675739295E+04 -0.59383433692E+03 -0.38037787733E+03  0.16282203170E+04  0.12699999809E+01 0.  1.
       -4    1    3    3    0  502  0.14675739295E+04  0.59383433692E+03 -0.10536601941E+03  0.15866682291E+04  0.12699999809E+01 0. -1.
</event>
<event>
 5   0  0.5347280E-06  0.2960870E+04  0.7818609E-02  0.8254994E-01
       -2   -1    0    0    0  501  0.00000000000E+00  0.00000000000E+00  0.86401932633E+03  0.86401932633E+03  0.25500000920E-02 0. -1.
        2   -1    0    0  501    0  0.00000000000E+00  0.00000000000E+00 -0.25366188371E+04  0.25366188371E+04  0.25500000920E-02 0.  1.
    10030    2    1    2    0    0  0.00000000000E+00  0.00000000000E+00 -0.16725995108E+04  0.34006381635E+04  0.29608699389E+04 0.  0.
        2    1    3    3  502    0 -0.10449269240E+04 -0.10210553459E+04 -0.11111347849E+04  0.18354963378E+04  0.25500000920E-02 0.  1.
       -2    1    3    3    0  502  0.10449269240E+04  0.10210553459E+04 -0.56146472584E+03  0.15651418256E+04  0.25500000920E-02 0. -1.
</event>
<event>
 5   0  0.1886248E-06  0.3205042E+04  0.7818609E-02  0.8187487E-01
       -1   -1    0    0    0  501  0.00000000000E+00  0.00000000000E+00  0.13522817325E+04  0.13522817325E+04  0.50400001928E-02 0. -1.
        1   -1    0    0  501    0  0.00000000000E+00  0.00000000000E+00 -0.18990674489E+04  0.18990674489E+04  0.50400001928E-02 0.  1.
    10030    2    1    2    0    0  0.00000000000E+00  0.00000000000E+00 -0.54678571633E+03  0.32513491814E+04  0.32050424147E+04 0.  0.
        4    1    3    3  502    0  0.83465918437E+03  0.12827735078E+04  0.20877292558E+03  0.15445878329E+04  0.12699999809E+01 0. -1.
       -4    1    3    3    0  502 -0.83465918437E+03 -0.12827735078E+04 -0.75555864191E+03  0.17067613485E+04  0.12699999809E+01 0.  1.
</event>
<event>
 5   0  0.5121624E-06  0.2906905E+04  0.7818609E-02  0.8270826E-01
       -2   -1    0    0    0  501  0.00000000000E+00  0.00000000000E+00  0.11034700068E+04  0.11034700068E+04  0.25500000920E-02 0. -1.
        2   -1    0    0  501    0  0.00000000000E+00  0.00000000000E+00 -0.19144370220E+04  0.19144370220E+04  0.25500000920E-02 0.  1.
    10030    2    1    2    0    0  0.00000000000E+00  0.00000000000E+00 -0.81096701520E+03  0.30179070287E+04  0.29069047687E+04 0.  0.
        4    1    3    3  502    0  0.13141297142E+04 -0.50091475690E+03 -0.78647039859E+03  0.16113316853E+04  0.12699999809E+01 0. -1.
       -4    1    3    3    0  502 -0.13141297142E+04  0.50091475690E+03 -0.24496616608E+02  0.14065753434E+04  0.12699999809E+01 0.  1.
</event>
<event>
 5   0  0.1881144E-06  0.3259422E+04  0.7818609E-02  0.8173298E-01
        1   -1    0    0  501    0  0.00000000000E+00  0.00000000000E+00  0.24907302735E+04  0.24907302735E+04  0.50400001928E-02 0.  1.
       -1   -1    0    0    0  501  0.00000000000E+00  0.00000000000E+00 -0.10663370448E+04  0.10663370448E+04  0.50400001928E-02 0. -1.
    10030    2    1    2    0    0  0.00000000000E+00  0.00000000000E+00  0.14243932287E+04  0.35570673182E+04  0.32594220096E+04 0.  0.
        3    1    3    3  502    0 -0.13011501173E+03  0.14827011504E+03 -0.10532598125E+04  0.10715736960E+04  0.10100000352E+00 0. -1.
       -3    1    3    3    0  502  0.13011501173E+03 -0.14827011504E+03  0.24776530412E+04  0.24854936222E+04  0.10100000352E+00 0.  1.
</event>
<event>
 5   0  0.5373060E-06  0.2992786E+04  0.7818609E-02  0.8245794E-01
       -2   -1    0    0    0  501  0.00000000000E+00  0.00000000000E+00  0.11886143470E+04  0.11886143470E+04  0.25500000920E-02 0.  1.
        2   -1    0    0  501    0  0.00000000000E+00  0.00000000000E+00 -0.18838674387E+04  0.18838674387E+04  0.25500000920E-02 0. -1.
    10030    2    1    2    0    0  0.00000000000E+00  0.00000000000E+00 -0.69525309175E+03  0.30724817857E+04  0.29927859032E+04 0.  0.
        5    1    3    3  502    0 -0.15154022325E+03 -0.14828234397E+04 -0.48320375692E+03  0.15669198299E+04  0.46999998093E+01 0. -1.
       -5    1    3    3    0  502  0.15154022325E+03  0.14828234397E+04 -0.21204933483E+03  0.15055619559E+04  0.46999998093E+01 0.  1.
</event>
<event>
 5   0  0.5373060E-06  0.3168679E+04  0.7818609E-02  0.8197138E-01
       -2   -1    0    0    0  501  0.00000000000E+00  0.00000000000E+00  0.13827928004E+04  0.13827928004E+04  0.25500000920E-02 0.  1.
        2   -1    0    0  501    0  0.00000000000E+00  0.00000000000E+00 -0.18152623427E+04  0.18152623427E+04  0.25500000920E-02 0. -1.
    10030    2    1    2    0    0  0.00000000000E+00  0.00000000000E+00 -0.43246954222E+03  0.31980551431E+04  0.31686790297E+04 0.  0.
        5    1    3    3  502    0 -0.21939968661E+03  0.74746637498E+03 -0.16086142152E+04  0.17873175396E+04  0.46999998093E+01 0. -1.
       -5    1    3    3    0  502  0.21939968661E+03 -0.74746637498E+03  0.11761446729E+04  0.14107376035E+04  0.46999998093E+01 0.  1.
</event>
<event>
 5   0  0.5108810E-06  0.3199951E+04  0.7818609E-02  0.8188830E-01
        2   -1    0    0  501    0  0.00000000000E+00  0.00000000000E+00  0.23828597945E+04  0.23828597945E+04  0.25500000920E-02 0.  1.
       -2   -1    0    0    0  501  0.00000000000E+00  0.00000000000E+00 -0.10743065354E+04  0.10743065354E+04  0.25500000920E-02 0. -1.
    10030    2    1    2    0    0  0.00000000000E+00  0.00000000000E+00  0.13085532591E+04  0.34571663299E+04  0.31999511560E+04 0.  0.
        1    1    3    3  502    0  0.20855879241E+03 -0.10687088921E+04  0.19208068219E+04  0.22079706323E+04  0.50400001928E-02 0.  1.
       -1    1    3    3    0  502 -0.20855879241E+03  0.10687088921E+04 -0.61225356279E+03  0.12491956977E+04  0.50400001928E-02 0. -1.
</event>
<event>
 5   0  0.1886248E-06  0.3204757E+04  0.7818609E-02  0.8187562E-01
        1   -1    0    0  501    0  0.00000000000E+00  0.00000000000E+00  0.24261242690E+04  0.24261242690E+04  0.50400001928E-02 0. -1.
       -1   -1    0    0    0  501  0.00000000000E+00  0.00000000000E+00 -0.10583205682E+04  0.10583205682E+04  0.50400001928E-02 0.  1.
    10030    2    1    2    0    0  0.00000000000E+00  0.00000000000E+00  0.13678037008E+04  0.34844448373E+04  0.32047572233E+04 0.  0.
        4    1    3    3  502    0 -0.20312877663E+03 -0.15645861149E+04  0.98838593072E+03  0.18617463231E+04  0.12699999809E+01 0.  1.
       -4    1    3    3    0  502  0.20312877663E+03  0.15645861149E+04  0.37941777008E+03  0.16226985142E+04  0.12699999809E+01 0. -1.
</event>
<event>
 5   0  0.1881144E-06  0.2143568E+04  0.7818609E-02  0.8542290E-01
       -1   -1    0    0    0  501  0.00000000000E+00  0.00000000000E+00  0.12544357826E+04  0.12544357826E+04  0.50400001928E-02 0.  1.
        1   -1    0    0  501    0  0.00000000000E+00  0.00000000000E+00 -0.91572726138E+03  0.91572726139E+03  0.50400001928E-02 0. -1.
    10030    2    1    2    0    0  0.00000000000E+00  0.00000000000E+00  0.33870852124E+03  0.21701630440E+04  0.21435680944E+04 0.  0.
        3    1    3    3  502    0  0.56379943960E+03  0.42563192173E+03  0.98538728260E+03  0.12124439978E+04  0.10100000352E+00 0.  1.
       -3    1    3    3    0  502 -0.56379943960E+03 -0.42563192173E+03 -0.64667876136E+03  0.95771904622E+03  0.10100000352E+00 0. -1.
</event>
<event>
 5   0  0.1881144E-06  0.3176600E+04  0.7818609E-02  0.8195025E-01
       -1   -1    0    0    0  501  0.00000000000E+00  0.00000000000E+00  0.10507225970E+04  0.10507225970E+04  0.50400001928E-02 0. -1.
        1   -1    0    0  501    0  0.00000000000E+00  0.00000000000E+00 -0.24009156863E+04  0.24009156863E+04  0.50400001928E-02 0.  1.
    10030    2    1    2    0    0  0.00000000000E+00  0.00000000000E+00 -0.13501930893E+04  0.34516382833E+04  0.31765996695E+04 0.  0.
        3    1    3    3  502    0  0.75811918147E+03 -0.69238431892E+03 -0.19918606830E+04  0.22409037751E+04  0.10100000352E+00 0.  1.
       -3    1    3    3    0  502 -0.75811918147E+03  0.69238431892E+03  0.64166759369E+03  0.12107345082E+04  0.10100000352E+00 0. -1.
</event>
<event>
 5   0  0.5121624E-06  0.3376835E+04  0.7818609E-02  0.8143615E-01
       -2   -1    0    0    0  501  0.00000000000E+00  0.00000000000E+00  0.18599787032E+04  0.18599787032E+04  0.25500000920E-02 0. -1.
        2   -1    0    0  501    0  0.00000000000E+00  0.00000000000E+00 -0.15326809204E+04  0.15326809204E+04  0.25500000920E-02 0.  1.
    10030    2    1    2    0    0  0.00000000000E+00  0.00000000000E+00  0.32729778281E+03  0.33926596235E+04  0.33768351281E+04 0.  0.
        4    1    3    3  502    0  0.96427086086E+03 -0.13571984938E+04  0.44593927528E+03  0.17235630232E+04  0.12699999809E+01 0.  1.
       -4    1    3    3    0  502 -0.96427086086E+03  0.13571984938E+04 -0.11864149248E+03  0.16690966004E+04  0.12699999809E+01 0. -1.
</event>
<event>
 5   0  0.1846850E-06  0.3139946E+04  0.7818609E-02  0.8204860E-01
       -1   -1    0    0    0  501  0.00000000000E+00  0.00000000000E+00  0.82026662369E+03  0.82026662371E+03  0.50400001928E-02 0.  1.
        1   -1    0    0  501    0  0.00000000000E+00  0.00000000000E+00 -0.30048944508E+04  0.30048944508E+04  0.50400001928E-02 0. -1.
    10030    2    1    2    0    0  0.00000000000E+00  0.00000000000E+00 -0.21846278271E+04  0.38251610745E+04  0.31399456210E+04 0.  0.
        5    1    3    3  502    0  0.63517288300E+02  0.64972610052E+03 -0.28316964723E+04  0.29059775383E+04  0.46999998093E+01 0. -1.
       -5    1    3    3    0  502 -0.63517288300E+02 -0.64972610052E+03  0.64706864523E+03  0.91918353622E+03  0.46999998093E+01 0.  1.
</event>
<event>
 5   0  0.1886248E-06  0.3160136E+04  0.7818609E-02  0.8199425E-01
       -1   -1    0    0    0  501  0.00000000000E+00  0.00000000000E+00  0.15194916763E+04  0.15194916763E+04  0.50400001928E-02 0.  1.
        1   -1    0    0  501    0  0.00000000000E+00  0.00000000000E+00 -0.16430593431E+04  0.16430593431E+04  0.50400001928E-02 0. -1.
    10030    2    1    2    0    0  0.00000000000E+00  0.00000000000E+00 -0.12356766684E+03  0.31625510194E+04  0.31601360702E+04 0.  0.
        4    1    3    3  502    0 -0.11384561614E+04  0.28773910948E+03  0.99625498411E+03  0.15399356586E+04  0.12699999809E+01 0.  1.
       -4    1    3    3    0  502  0.11384561614E+04 -0.28773910948E+03 -0.11198226509E+04  0.16226153608E+04  0.12699999809E+01 0. -1.
</event>
<event>
 5   0  0.1969465E-06  0.3197508E+04  0.7818609E-02  0.8189476E-01
       -1   -1    0    0    0  501  0.00000000000E+00  0.00000000000E+00  0.11837441266E+04  0.11837441266E+04  0.50400001928E-02 0.  1.
        1   -1    0    0  501    0  0.00000000000E+00  0.00000000000E+00 -0.21592625361E+04  0.21592625361E+04  0.50400001928E-02 0. -1.
    10030    2    1    2    0    0  0.00000000000E+00  0.00000000000E+00 -0.97551840956E+03  0.33430066627E+04  0.31975079952E+04 0.  0.
        2    1    3    3  502    0  0.24347175368E+03  0.15800429287E+04 -0.50255200839E+03  0.16758200001E+04  0.25500000920E-02 0.  1.
       -2    1    3    3    0  502 -0.24347175368E+03 -0.15800429287E+04 -0.47296640118E+03  0.16671866627E+04  0.25500000920E-02 0. -1.
</event>
<event>
 5   0  0.5131083E-06  0.2046885E+04  0.7818609E-02  0.8585009E-01
        2   -1    0    0  501    0  0.00000000000E+00  0.00000000000E+00  0.15593343813E+04  0.15593343813E+04  0.25500000920E-02 0.  1.
       -2   -1    0    0    0  501  0.00000000000E+00  0.00000000000E+00 -0.67171891742E+03  0.67171891743E+03  0.25500000920E-02 0. -1.
    10030    2    1    2    0    0  0.00000000000E+00  0.00000000000E+00  0.88761546385E+03  0.22310532987E+04  0.20468848551E+04 0.  0.
        3    1    3    3  502    0  0.75819834187E+03 -0.42041946852E+02  0.11916943243E+04  0.14130702827E+04  0.10100000352E+00 0.  1.
       -3    1    3    3    0  502 -0.75819834187E+03  0.42041946852E+02 -0.30407886049E+03  0.81798301603E+03  0.10100000352E+00 0. -1.
</event>
<event>
 5   0  0.5121624E-06  0.3210423E+04  0.7818609E-02  0.8186070E-01
        2   -1    0    0  501    0  0.00000000000E+00  0.00000000000E+00  0.29274866223E+04  0.29274866223E+04  0.25500000920E-02 0. -1.
       -2   -1    0    0    0  501  0.00000000000E+00  0.00000000000E+00 -0.88017630695E+03  0.88017630695E+03  0.25500000920E-02 0.  1.
    10030    2    1    2    0    0  0.00000000000E+00  0.00000000000E+00  0.20473103154E+04  0.38076629293E+04  0.32104232518E+04 0.  0.
        4    1    3    3  502    0  0.25644742947E+01 -0.39189839510E+03 -0.82256263414E+03  0.91115411901E+03  0.12699999809E+01 0.  1.
       -4    1    3    3    0  502 -0.25644742947E+01  0.39189839510E+03  0.28698729495E+04  0.28965088103E+04  0.12699999809E+01 0. -1.
</event>
<event>
 5   0  0.5108810E-06  0.3146680E+04  0.7818609E-02  0.8203042E-01
       -2   -1    0    0    0  501  0.00000000000E+00  0.00000000000E+00  0.10862057895E+04  0.10862057895E+04  0.25500000920E-02 0.  1.
        2   -1    0    0  501    0  0.00000000000E+00  0.00000000000E+00 -0.22789414947E+04  0.22789414947E+04  0.25500000920E-02 0. -1.
    10030    2    1    2    0    0  0.00000000000E+00  0.00000000000E+00 -0.11927357051E+04  0.33651472842E+04  0.31466804385E+04 0.  0.
        1    1    3    3  502    0  0.32243182668E+03  0.14703333844E+04 -0.10859239010E+04  0.18560908553E+04  0.50400001928E-02 0.  1.
       -1    1    3    3    0  502 -0.32243182668E+03 -0.14703333844E+04 -0.10681180413E+03  0.15090564290E+04  0.50400001928E-02 0. -1.
</event>
<event>
 5   0  0.5131083E-06  0.3009416E+04  0.7818609E-02  0.8241047E-01
       -2   -1    0    0    0  501  0.00000000000E+00  0.00000000000E+00  0.14943710454E+04  0.14943710454E+04  0.25500000920E-02 0. -1.
        2   -1    0    0  501    0  0.00000000000E+00  0.00000000000E+00 -0.15151160020E+04  0.15151160020E+04  0.25500000920E-02 0.  1.
    10030    2    1    2    0    0  0.00000000000E+00  0.00000000000E+00 -0.20744956598E+02  0.30094870474E+04  0.30094155471E+04 0.  0.
        3    1    3    3  502    0  0.12170437527E+04 -0.86380064516E+03 -0.20220618644E+03  0.15060658693E+04  0.10100000352E+00 0.  1.
       -3    1    3    3    0  502 -0.12170437527E+04  0.86380064516E+03  0.18146122985E+03  0.15034211781E+04  0.10100000352E+00 0. -1.
</event>
<event>
 5   0  0.1846850E-06  0.3190175E+04  0.7818609E-02  0.8191417E-01
       -1   -1    0    0    0  501  0.00000000000E+00  0.00000000000E+00  0.13034957102E+04  0.13034957102E+04  0.50400001928E-02 0. -1.
        1   -1    0    0  501    0  0.00000000000E+00  0.00000000000E+00 -0.19519085726E+04  0.19519085726E+04  0.50400001928E-02 0.  1.
    10030    2    1    2    0    0  0.00000000000E+00  0.00000000000E+00 -0.64841286235E+03  0.32554042828E+04  0.31901751996E+04 0.  0.
        5    1    3    3  502    0 -0.15926801330E+04 -0.87391405319E+02 -0.32817138220E+03  0.16284918821E+04  0.46999998093E+01 0.  1.
       -5    1    3    3    0  502  0.15926801330E+04  0.87391405319E+02 -0.32024148015E+03  0.16269124007E+04  0.46999998093E+01 0. -1.
</event>
<event>
 5   0  0.1886248E-06  0.3199440E+04  0.7818609E-02  0.8188965E-01
       -1   -1    0    0    0  501  0.00000000000E+00  0.00000000000E+00  0.29814583122E+04  0.29814583122E+04  0.50400001928E-02 0.  1.
        1   -1    0    0  501    0  0.00000000000E+00  0.00000000000E+00 -0.85833947856E+03  0.85833947858E+03  0.50400001928E-02 0. -1.
    10030    2    1    2    0    0  0.00000000000E+00  0.00000000000E+00  0.21231188336E+04  0.38397977908E+04  0.31994395591E+04 0.  0.
        4    1    3    3  502    0 -0.38917580996E+03  0.66655496087E+03 -0.62008099033E+03  0.99007846880E+03  0.12699999809E+01 0. -1.
       -4    1    3    3    0  502  0.38917580996E+03 -0.66655496087E+03  0.27431998239E+04  0.28497193220E+04  0.12699999809E+01 0.  1.
</event>
<event>
 5   0  0.1846850E-06  0.3198927E+04  0.7818609E-02  0.8189101E-01
       -1   -1    0    0    0  501  0.00000000000E+00  0.00000000000E+00  0.15835049092E+04  0.15835049092E+04  0.50400001928E-02 0. -1.
        1   -1    0    0  501    0  0.00000000000E+00  0.00000000000E+00 -0.16155832147E+04  0.16155832147E+04  0.50400001928E-02 0.  1.
    10030    2    1    2    0    0  0.00000000000E+00  0.00000000000E+00 -0.32078305459E+02  0.31990881239E+04  0.31989272900E+04 0.  0.
        5    1    3    3  502    0 -0.11972281475E+04  0.17374523708E+03 -0.10623800624E+04  0.16100360653E+04  0.46999998093E+01 0.  1.
       -5    1    3    3    0  502  0.11972281475E+04 -0.17374523708E+03  0.10303017570E+04  0.15890520586E+04  0.46999998093E+01 0. -1.
</event>
<event>
 5   0  0.1977015E-06  0.3166872E+04  0.7818609E-02  0.8197621E-01
       -1   -1    0    0    0  501  0.00000000000E+00  0.00000000000E+00  0.12941476275E+04  0.12941476275E+04  0.50400001928E-02 0. -1.
        1   -1    0    0  501    0  0.00000000000E+00  0.00000000000E+00 -0.19373905901E+04  0.19373905901E+04  0.50400001928E-02 0.  1.
    10030    2    1    2    0    0  0.00000000000E+00  0.00000000000E+00 -0.64324296265E+03  0.32315382176E+04  0.31668719176E+04 0.  0.
        1    1    3    3  502    0  0.14740006061E+03  0.26461217964E+03  0.12643098928E+04  0.13000868773E+04  0.50400001928E-02 0. -1.
       -1    1    3    3    0  502 -0.14740006061E+03 -0.26461217964E+03 -0.19075528555E+04  0.19314513403E+04  0.50400001928E-02 0.  1.
</event>
<event>
 5   0  0.5121624E-06  0.3183602E+04  0.7818609E-02  0.8193161E-01
        2   -1    0    0  501    0  0.00000000000E+00  0.00000000000E+00  0.11130624342E+04  0.11130624342E+04  0.25500000920E-02 0.  1.
       -2   -1    0    0    0  501  0.00000000000E+00  0.00000000000E+00 -0.22764495228E+04  0.22764495228E+04  0.25500000920E-02 0. -1.
    10030    2    1    2    0    0  0.00000000000E+00  0.00000000000E+00 -0.11633870886E+04  0.33895119570E+04  0.31836020148E+04 0.  0.
        4    1    3    3  502    0  0.75435718497E+03 -0.32833836686E+03  0.86915008810E+03  0.11967808213E+04  0.12699999809E+01 0.  1.
       -4    1    3    3    0  502 -0.75435718497E+03  0.32833836686E+03 -0.20325371767E+04  0.21927311357E+04  0.12699999809E+01 0. -1.
</event>
<event>
 5   0  0.5108810E-06  0.3164215E+04  0.7818609E-02  0.8198332E-01
       -2   -1    0    0    0  501  0.00000000000E+00  0.00000000000E+00  0.11492283030E+04  0.11492283030E+04  0.25500000920E-02 0. -1.
        2   -1    0    0  501    0  0.00000000000E+00  0.00000000000E+00 -0.21780394041E+04  0.21780394041E+04  0.25500000920E-02 0.  1.
    10030    2    1    2    0    0  0.00000000000E+00  0.00000000000E+00 -0.10288111011E+04  0.33272677071E+04  0.31642152445E+04 0.  0.
        1    1    3    3  502    0  0.12733704836E+04  0.48442503179E+03  0.33135716408E+03  0.14021189572E+04  0.50400001928E-02 0. -1.
       -1    1    3    3    0  502 -0.12733704836E+04 -0.48442503179E+03 -0.13601682651E+04  0.19251487499E+04  0.50400001928E-02 0.  1.
</event>
<event>
 5   0  0.5347280E-06  0.2408963E+04  0.7818609E-02  0.8436155E-01
        2   -1    0    0  501    0  0.00000000000E+00  0.00000000000E+00  0.14990486778E+04  0.14990486778E+04  0.25500000920E-02 0. -1.
       -2   -1    0    0    0  501  0.00000000000E+00  0.00000000000E+00 -0.96779788555E+03  0.96779788556E+03  0.25500000920E-02 0.  1.
    10030    2    1    2    0    0  0.00000000000E+00  0.00000000000E+00  0.53125079228E+03  0.24668465634E+04  0.24089633793E+04 0.  0.
        2    1    3    3  502    0  0.19731854881E+03 -0.87448214359E+03 -0.55814312747E+03  0.10560195926E+04  0.25500000920E-02 0.  1.
       -2    1    3    3    0  502 -0.19731854881E+03  0.87448214359E+03  0.10893939198E+04  0.14108269708E+04  0.25500000920E-02 0. -1.
</event>
<event>
 5   0  0.1881144E-06  0.3219568E+04  0.7818609E-02  0.8183668E-01
       -1   -1    0    0    0  501  0.00000000000E+00  0.00000000000E+00  0.16968283269E+04  0.16968283269E+04  0.50400001928E-02 0.  1.
        1   -1    0    0  501    0  0.00000000000E+00  0.00000000000E+00 -0.15272049211E+04  0.15272049211E+04  0.50400001928E-02 0. -1.
    10030    2    1    2    0    0  0.00000000000E+00  0.00000000000E+00  0.16962340583E+03  0.32240332481E+04  0.32195680277E+04 0.  0.
        3    1    3    3  502    0 -0.12002624974E+04 -0.10063801336E+04 -0.28715133484E+03  0.15924468391E+04  0.10100000352E+00 0. -1.
       -3    1    3    3    0  502  0.12002624974E+04  0.10063801336E+04  0.45677474067E+03  0.16315864090E+04  0.10100000352E+00 0.  1.
</event>
<event>
 5   0  0.5131083E-06  0.3228435E+04  0.7818609E-02  0.8181348E-01
       -2   -1    0    0    0  501  0.00000000000E+00  0.00000000000E+00  0.13519453384E+04  0.13519453385E+04  0.25500000920E-02 0.  1.
        2   -1    0    0  501    0  0.00000000000E+00  0.00000000000E+00 -0.19273699201E+04  0.19273699201E+04  0.25500000920E-02 0. -1.
    10030    2    1    2    0    0  0.00000000000E+00  0.00000000000E+00 -0.57542458163E+03  0.32793152585E+04  0.32284353975E+04 0.  0.
        3    1    3    3  502    0 -0.13970846034E+04  0.51397066013E+03  0.34637540985E+03  0.15283936546E+04  0.10100000352E+00 0.  1.
       -3    1    3    3    0  502  0.13970846034E+04 -0.51397066013E+03 -0.92179999148E+03  0.17509216039E+04  0.10100000352E+00 0. -1.
</event>
<event>
 5   0  0.5373060E-06  0.1988084E+04  0.7818609E-02  0.8612212E-01
        2   -1    0    0  501    0  0.00000000000E+00  0.00000000000E+00  0.13299311450E+04  0.13299311450E+04  0.25500000920E-02 0. -1.
       -2   -1    0    0    0  501  0.00000000000E+00  0.00000000000E+00 -0.74298538717E+03  0.74298538717E+03  0.25500000920E-02 0.  1.
    10030    2    1    2    0    0  0.00000000000E+00  0.00000000000E+00  0.58694575782E+03  0.20729165322E+04  0.19880839084E+04 0.  0.
        5    1    3    3  502    0 -0.47530250321E+03 -0.59282137924E+03 -0.37477048366E+03  0.84724533794E+03  0.46999998093E+01 0.  1.
       -5    1    3    3    0  502  0.47530250321E+03  0.59282137924E+03  0.96171624148E+03  0.12256711942E+04  0.46999998093E+01 0. -1.
</event>
<event>
 5   0  0.5108810E-06  0.3117197E+04  0.7818609E-02  0.8211034E-01
        2   -1    0    0  501    0  0.00000000000E+00  0.00000000000E+00  0.19648686746E+04  0.19648686746E+04  0.25500000920E-02 0. -1.
       -2   -1    0    0    0  501  0.00000000000E+00  0.00000000000E+00 -0.12363318497E+04  0.12363318497E+04  0.25500000920E-02 0.  1.
    10030    2    1    2    0    0  0.00000000000E+00  0.00000000000E+00  0.72853682490E+03  0.32012005244E+04  0.31171972816E+04 0.  0.
        1    1    3    3  502    0 -0.10065488200E+04  0.66522102342E+03 -0.64901801020E+03  0.13699941295E+04  0.50400001928E-02 0.  1.
       -1    1    3    3    0  502  0.10065488200E+04 -0.66522102342E+03  0.13775548351E+04  0.18312063949E+04  0.50400001928E-02 0. -1.
</event>
<event>
 5   0  0.1881144E-06  0.3205022E+04  0.7818609E-02  0.8187492E-01
        1   -1    0    0  501    0  0.00000000000E+00  0.00000000000E+00  0.20043481704E+04  0.20043481704E+04  0.50400001928E-02 0. -1.
       -1   -1    0    0    0  501  0.00000000000E+00  0.00000000000E+00 -0.12812348423E+04  0.12812348423E+04  0.50400001928E-02 0.  1.
    10030    2    1    2    0    0  0.00000000000E+00  0.00000000000E+00  0.72311332807E+03  0.32855830127E+04  0.32050215051E+04 0.  0.
        3    1    3    3  502    0 -0.22705653037E+03 -0.92074841449E+02 -0.12619197276E+04  0.12854858434E+04  0.10100000352E+00 0.  1.
       -3    1    3    3    0  502  0.22705653037E+03  0.92074841449E+02  0.19850330557E+04  0.20000971693E+04  0.10100000352E+00 0. -1.
</event>
<event>
 5   0  0.1886248E-06  0.3167863E+04  0.7818609E-02  0.8197356E-01
        1   -1    0    0  501    0  0.00000000000E+00  0.00000000000E+00  0.14961262629E+04  0.14961262629E+04  0.50400001928E-02 0.  1.
       -1   -1    0    0    0  501  0.00000000000E+00  0.00000000000E+00 -0.16768897395E+04  0.16768897395E+04  0.50400001928E-02 0. -1.
    10030    2    1    2    0    0  0.00000000000E+00  0.00000000000E+00 -0.18076347663E+03  0.31730160024E+04  0.31678628627E+04 0.  0.
        4    1    3    3  502    0  0.63587757258E+03 -0.95266526405E+03  0.10054389596E+04  0.15240802167E+04  0.12699999809E+01 0.  1.
       -4    1    3    3    0  502 -0.63587757258E+03  0.95266526405E+03 -0.11862024363E+04  0.16489357857E+04  0.12699999809E+01 0. -1.
</event>
<event>
 5   0  0.1881144E-06  0.3214937E+04  0.7818609E-02  0.8184884E-01
        1   -1    0    0  501    0  0.00000000000E+00  0.00000000000E+00  0.19210292171E+04  0.19210292171E+04  0.50400001928E-02 0. -1.
       -1   -1    0    0    0  501  0.00000000000E+00  0.00000000000E+00 -0.13450886094E+04  0.13450886094E+04  0.50400001928E-02 0.  1.
    10030    2    1    2    0    0  0.00000000000E+00  0.00000000000E+00  0.57594060769E+03  0.32661178265E+04  0.32149367137E+04 0.  0.
        3    1    3    3  502    0 -0.40732519152E+02 -0.78604424167E+03 -0.11359237580E+04  0.13819723160E+04  0.10100000352E+00 0.  1.
       -3    1    3    3    0  502  0.40732519152E+02  0.78604424167E+03  0.17118643657E+04  0.18841455105E+04  0.10100000352E+00 0. -1.
</event>
<event>
 5   0  0.5121624E-06  0.3192022E+04  0.7818609E-02  0.8190927E-01
       -2   -1    0    0    0  501  0.00000000000E+00  0.00000000000E+00  0.94659040302E+03  0.94659040302E+03  0.25500000920E-02 0.  1.
        2   -1    0    0  501    0  0.00000000000E+00  0.00000000000E+00 -0.26909742186E+04  0.26909742186E+04  0.25500000920E-02 0. -1.
    10030    2    1    2    0    0  0.00000000000E+00  0.00000000000E+00 -0.17443838156E+04  0.36375646216E+04  0.31920215351E+04 0.  0.
        4    1    3    3  502    0  0.26816994959E+03 -0.57583782169E+03  0.79632806626E+03  0.10186482812E+04  0.12699999809E+01 0.  1.
       -4    1    3    3    0  502 -0.26816994959E+03  0.57583782169E+03 -0.25407118819E+04  0.26189163404E+04  0.12699999809E+01 0. -1.
</event>
<event>
 5   0  0.5373060E-06  0.3328086E+04  0.7818609E-02  0.8155785E-01
        2   -1    0    0  501    0  0.00000000000E+00  0.00000000000E+00  0.17767981001E+04  0.17767981001E+04  0.25500000920E-02 0. -1.
       -2   -1    0    0    0  501  0.00000000000E+00  0.00000000000E+00 -0.15584434712E+04  0.15584434712E+04  0.25500000920E-02 0.  1.
    10030    2    1    2    0    0  0.00000000000E+00  0.00000000000E+00  0.21835462889E+03  0.33352415713E+04  0.33280861760E+04 0.  0.
        5    1    3    3  502    0 -0.84999393428E+03  0.85071551539E+03 -0.10434305725E+04  0.15921608041E+04  0.46999998093E+01 0.  1.
       -5    1    3    3    0  502  0.84999393428E+03 -0.85071551539E+03  0.12617852014E+04  0.17430807672E+04  0.46999998093E+01 0. -1.
</event>
<event>
 5   0  0.5347280E-06  0.3136805E+04  0.7818609E-02  0.8205709E-01
       -2   -1    0    0    0  501  0.00000000000E+00  0.00000000000E+00  0.16483891429E+04  0.16483891429E+04  0.25500000920E-02 0. -1.
        2   -1    0    0  501    0  0.00000000000E+00  0.00000000000E+00 -0.14922969601E+04  0.14922969601E+04  0.25500000920E-02 0.  1.
    10030    2    1    2    0    0  0.00000000000E+00  0.00000000000E+00  0.15609218277E+03  0.31406861030E+04  0.31368048119E+04 0.  0.
        2    1    3    3  502    0  0.12200295122E+04  0.53699914771E+03  0.90553468736E+03  0.16114692567E+04  0.25500000920E-02 0. -1.
       -2    1    3    3    0  502 -0.12200295122E+04 -0.53699914771E+03 -0.74944250460E+03  0.15292168463E+04  0.25500000920E-02 0.  1.
</event>
<event>
 5   0  0.5131083E-06  0.3114662E+04  0.7818609E-02  0.8211726E-01
       -2   -1    0    0    0  501  0.00000000000E+00  0.00000000000E+00  0.94055910322E+03  0.94055910322E+03  0.25500000920E-02 0.  1.
        2   -1    0    0  501    0  0.00000000000E+00  0.00000000000E+00 -0.25785510323E+04  0.25785510323E+04  0.25500000920E-02 0. -1.
    10030    2    1    2    0    0  0.00000000000E+00  0.00000000000E+00 -0.16379919291E+04  0.35191101355E+04  0.31146618735E+04 0.  0.
        3    1    3    3  502    0  0.11892266099E+04  0.95332414742E+03 -0.11801829157E+04  0.19276718041E+04  0.10100000352E+00 0.  1.
       -3    1    3    3    0  502 -0.11892266099E+04 -0.95332414742E+03 -0.45780901339E+03  0.15914383314E+04  0.10100000352E+00 0. -1.
</event>
<event>
 5   0  0.5347280E-06  0.3192375E+04  0.7818609E-02  0.8190834E-01
       -2   -1    0    0    0  501  0.00000000000E+00  0.00000000000E+00  0.24447633718E+04  0.24447633718E+04  0.25500000920E-02 0. -1.
        2   -1    0    0  501    0  0.00000000000E+00  0.00000000000E+00 -0.10421518560E+04  0.10421518560E+04  0.25500000920E-02 0.  1.
    10030    2    1    2    0    0  0.00000000000E+00  0.00000000000E+00  0.14026115158E+04  0.34869152278E+04  0.31923750941E+04 0.  0.
        2    1    3    3  502    0 -0.90102115502E+03  0.33477464057E+03 -0.69059194207E+03  0.11835668178E+04  0.25500000920E-02 0.  1.
       -2    1    3    3    0  502  0.90102115502E+03 -0.33477464057E+03  0.20932034579E+04  0.23033484100E+04  0.25500000920E-02 0. -1.
</event>
<event>
 5   0  0.5131083E-06  0.3105383E+04  0.7818609E-02  0.8214262E-01
        2   -1    0    0  501    0  0.00000000000E+00  0.00000000000E+00  0.16028719663E+04  0.16028719663E+04  0.25500000920E-02 0. -1.
       -2   -1    0    0    0  501  0.00000000000E+00  0.00000000000E+00 -0.15040820478E+04  0.15040820478E+04  0.25500000920E-02 0.  1.
    10030    2    1    2    0    0  0.00000000000E+00  0.00000000000E+00  0.98789918544E+02  0.31069540141E+04  0.31053830356E+04 0.  0.
        3    1    3    3  502    0  0.70341431057E+03  0.13683422169E+04 -0.15975343094E+03  0.15468268435E+04  0.10100000352E+00 0.  1.
       -3    1    3    3    0  502 -0.70341431057E+03 -0.13683422169E+04  0.25854334948E+03  0.15601271706E+04  0.10100000352E+00 0. -1.
</event>
<event>
 5   0  0.5131083E-06  0.2999587E+04  0.7818609E-02  0.8243849E-01
        2   -1    0    0  501    0  0.00000000000E+00  0.00000000000E+00  0.11021119599E+04  0.11021119599E+04  0.25500000920E-02 0.  1.
       -2   -1    0    0    0  501  0.00000000000E+00  0.00000000000E+00 -0.20409731640E+04  0.20409731640E+04  0.25500000920E-02 0. -1.
    10030    2    1    2    0    0  0.00000000000E+00  0.00000000000E+00 -0.93886120409E+03  0.31430851238E+04  0.29995872608E+04 0.  0.
        3    1    3    3  502    0 -0.10894185961E+04 -0.38425366402E+03  0.53283028906E+03  0.12721603212E+04  0.10100000352E+00 0.  1.
       -3    1    3    3    0  502  0.10894185961E+04  0.38425366402E+03 -0.14716914931E+04  0.18709248026E+04  0.10100000352E+00 0. -1.
</event>
<event>
 5   0  0.5121624E-06  0.3164742E+04  0.7818609E-02  0.8198191E-01
        2   -1    0    0  501    0  0.00000000000E+00  0.00000000000E+00  0.23493134944E+04  0.23493134944E+04  0.25500000920E-02 0.  1.
       -2   -1    0    0    0  501  0.00000000000E+00  0.00000000000E+00 -0.10657997128E+04  0.10657997128E+04  0.25500000920E-02 0. -1.
    10030    2    1    2    0    0  0.00000000000E+00  0.00000000000E+00  0.12835137816E+04  0.34151132072E+04  0.31647417889E+04 0.  0.
        4    1    3    3  502    0  0.12128657003E+04 -0.92770867972E+03  0.19394533981E+03  0.15392540431E+04  0.12699999809E+01 0.  1.
       -4    1    3    3    0  502 -0.12128657003E+04  0.92770867972E+03  0.10895684418E+04  0.18758591641E+04  0.12699999809E+01 0. -1.
</event>
<event>
 5   0  0.1846850E-06  0.3606454E+04  0.7818609E-02  0.8089015E-01
        1   -1    0    0  501    0  0.00000000000E+00  0.00000000000E+00  0.17921233989E+04  0.17921233989E+04  0.50400001928E-02 0. -1.
       -1   -1    0    0    0  501  0.00000000000E+00  0.00000000000E+00 -0.18143989767E+04  0.18143989767E+04  0.50400001928E-02 0.  1.
    10030    2    1    2    0    0  0.00000000000E+00  0.00000000000E+00 -0.22275577735E+02  0.36065223756E+04  0.36064535828E+04 0.  0.
        5    1    3    3  502    0  0.89068530024E+03  0.72312192905E+03 -0.14023433732E+04  0.18118539276E+04  0.46999998093E+01 0.  1.
       -5    1    3    3    0  502 -0.89068530024E+03 -0.72312192905E+03  0.13800677955E+04  0.17946684481E+04  0.46999998093E+01 0. -1.
</event>
<event>
 5   0  0.1969465E-06  0.3201154E+04  0.7818609E-02  0.8188512E-01
        1   -1    0    0  501    0  0.00000000000E+00  0.00000000000E+00  0.14350846880E+04  0.14350846880E+04  0.50400001928E-02 0. -1.
       -1   -1    0    0    0  501  0.00000000000E+00  0.00000000000E+00 -0.17851537285E+04  0.17851537285E+04  0.50400001928E-02 0.  1.
    10030    2    1    2    0    0  0.00000000000E+00  0.00000000000E+00 -0.35006904048E+03  0.32202384166E+04  0.32011540304E+04 0.  0.
        2    1    3    3  502    0  0.67822004339E+03 -0.13830244627E+04  0.26242316416E+03  0.15625636015E+04  0.25500000920E-02 0. -1.
       -2    1    3    3    0  502 -0.67822004339E+03  0.13830244627E+04 -0.61249220464E+03  0.16576748151E+04  0.25500000920E-02 0.  1.
</event>
<event>
 5   0  0.1969465E-06  0.3156782E+04  0.7818609E-02  0.8200325E-01
       -1   -1    0    0    0  501  0.00000000000E+00  0.00000000000E+00  0.18081604859E+04  0.18081604859E+04  0.50400001928E-02 0.  1.
        1   -1    0    0  501    0  0.00000000000E+00  0.00000000000E+00 -0.13778192100E+04  0.13778192100E+04  0.50400001928E-02 0. -1.
    10030    2    1    2    0    0  0.00000000000E+00  0.00000000000E+00  0.43034127593E+03  0.31859796960E+04  0.31567820655E+04 0.  0.
        2    1    3    3  502    0  0.11029668379E+04  0.10894343415E+04  0.51441807709E+03  0.16334102326E+04  0.25500000920E-02 0.  1.
       -2    1    3    3    0  502 -0.11029668379E+04 -0.10894343415E+04 -0.84076801165E+02  0.15525694633E+04  0.25500000920E-02 0. -1.
</event>
<event>
 5   0  0.1881144E-06  0.3206786E+04  0.7818609E-02  0.8187027E-01
        1   -1    0    0  501    0  0.00000000000E+00  0.00000000000E+00  0.15862612950E+04  0.15862612950E+04  0.50400001928E-02 0. -1.
       -1   -1    0    0    0  501  0.00000000000E+00  0.00000000000E+00 -0.16207099601E+04  0.16207099601E+04  0.50400001928E-02 0.  1.
    10030    2    1    2    0    0  0.00000000000E+00  0.00000000000E+00 -0.34448665022E+02  0.32069712551E+04  0.32067862293E+04 0.  0.
        3    1    3    3  502    0  0.13605679406E+04 -0.43247424178E+03 -0.74712285376E+03  0.16113260563E+04  0.10100000352E+00 0.  1.
       -3    1    3    3    0  502 -0.13605679406E+04  0.43247424178E+03  0.71267418874E+03  0.15956451988E+04  0.10100000352E+00 0. -1.
</event>
<event>
 5   0  0.5108810E-06  0.3133669E+04  0.7818609E-02  0.8206558E-01
        2   -1    0    0  501    0  0.00000000000E+00  0.00000000000E+00  0.14612669896E+04  0.14612669896E+04  0.25500000920E-02 0. -1.
       -2   -1    0    0    0  501  0.00000000000E+00  0.00000000000E+00 -0.16800281166E+04  0.16800281166E+04  0.25500000920E-02 0.  1.
    10030    2    1    2    0    0  0.00000000000E+00  0.00000000000E+00 -0.21876112700E+03  0.31412951063E+04  0.31336685392E+04 0.  0.
        1    1    3    3  502    0  0.55683756736E+02  0.11425684438E+03  0.14560905149E+04  0.14616274815E+04  0.50400001928E-02 0. -1.
       -1    1    3    3    0  502 -0.55683756736E+02 -0.11425684438E+03 -0.16748516419E+04  0.16796676247E+04  0.50400001928E-02 0.  1.
</event>
<event>
 5   0  0.1881144E-06  0.2154562E+04  0.7818609E-02  0.8537582E-01
        1   -1    0    0  501    0  0.00000000000E+00  0.00000000000E+00  0.12144320001E+04  0.12144320001E+04  0.50400001928E-02 0. -1.
       -1   -1    0    0    0  501  0.00000000000E+00  0.00000000000E+00 -0.95561937400E+03  0.95561937402E+03  0.50400001928E-02 0.  1.
    10030    2    1    2    0    0  0.00000000000E+00  0.00000000000E+00  0.25881262609E+03  0.21700513741E+04  0.21545623664E+04 0.  0.
        3    1    3    3  502    0  0.76405312588E+03  0.44560641039E+03  0.74880088249E+03  0.11588981940E+04  0.10100000352E+00 0. -1.
       -3    1    3    3    0  502 -0.76405312588E+03 -0.44560641039E+03 -0.48998825640E+03  0.10111531802E+04  0.10100000352E+00 0.  1.
</event>
<event>
 5   0  0.5131083E-06  0.2715862E+04  0.7818609E-02  0.8329877E-01
        2   -1    0    0  501    0  0.00000000000E+00  0.00000000000E+00  0.22207427733E+04  0.22207427733E+04  0.25500000920E-02 0. -1.
       -2   -1    0    0    0  501  0.00000000000E+00  0.00000000000E+00 -0.83034208504E+03  0.83034208505E+03  0.25500000920E-02 0.  1.
    10030    2    1    2    0    0  0.00000000000E+00  0.00000000000E+00  0.13904006882E+04  0.30510848583E+04  0.27158616936E+04 0.  0.
        3    1    3    3  502    0  0.56426398851E+03  0.62553941709E+03 -0.50128477993E+03  0.98029579815E+03  0.10100000352E+00 0.  1.
       -3    1    3    3    0  502 -0.56426398851E+03 -0.62553941709E+03  0.18916854682E+04  0.20707890602E+04  0.10100000352E+00 0. -1.
</event>
<event>
 5   0  0.1977015E-06  0.3211936E+04  0.7818609E-02  0.8185672E-01
       -1   -1    0    0    0  501  0.00000000000E+00  0.00000000000E+00  0.92694646133E+03  0.92694646134E+03  0.50400001928E-02 0.  1.
        1   -1    0    0  501    0  0.00000000000E+00  0.00000000000E+00 -0.27823972404E+04  0.27823972404E+04  0.50400001928E-02 0. -1.
    10030    2    1    2    0    0  0.00000000000E+00  0.00000000000E+00 -0.18554507790E+04  0.37093437017E+04  0.32119360367E+04 0.  0.
        1    1    3    3  502    0 -0.15260098288E+04 -0.15075168021E+03 -0.37664766458E+03  0.15790172671E+04  0.50400001928E-02 0.  1.
       -1    1    3    3    0  502  0.15260098288E+04  0.15075168021E+03 -0.14788031145E+04  0.21303264346E+04  0.50400001928E-02 0. -1.
</event>
<event>
 5   0  0.5121624E-06  0.3202699E+04  0.7818609E-02  0.8188105E-01
       -2   -1    0    0    0  501  0.00000000000E+00  0.00000000000E+00  0.16931429276E+04  0.16931429276E+04  0.25500000920E-02 0. -1.
        2   -1    0    0  501    0  0.00000000000E+00  0.00000000000E+00 -0.15145323033E+04  0.15145323033E+04  0.25500000920E-02 0.  1.
    10030    2    1    2    0    0  0.00000000000E+00  0.00000000000E+00  0.17861062435E+03  0.32076752309E+04  0.32026986483E+04 0.  0.
        4    1    3    3  502    0  0.84159822999E+03  0.12105991031E+04  0.71516051207E+03  0.16386866510E+04  0.12699999809E+01 0. -1.
       -4    1    3    3    0  502 -0.84159822999E+03 -0.12105991031E+04 -0.53654988772E+03  0.15689885799E+04  0.12699999809E+01 0.  1.
</event>
<event>
 5   0  0.5121624E-06  0.3171583E+04  0.7818609E-02  0.8196363E-01
       -2   -1    0    0    0  501  0.00000000000E+00  0.00000000000E+00  0.14230846536E+04  0.14230846536E+04  0.25500000920E-02 0.  1.
        2   -1    0    0  501    0  0.00000000000E+00  0.00000000000E+00 -0.17671012902E+04  0.17671012902E+04  0.25500000920E-02 0. -1.
    10030    2    1    2    0    0  0.00000000000E+00  0.00000000000E+00 -0.34401663658E+03  0.31901859438E+04  0.31715830290E+04 0.  0.
        4    1    3    3  502    0 -0.13438737583E+04  0.48541612289E+03  0.51985433042E+03  0.15204853266E+04  0.12699999809E+01 0.  1.
       -4    1    3    3    0  502  0.13438737583E+04 -0.48541612289E+03 -0.86387096700E+03  0.16697006172E+04  0.12699999809E+01 0. -1.
</event>
<event>
 5   0  0.1846850E-06  0.3192092E+04  0.7818609E-02  0.8190909E-01
       -1   -1    0    0    0  501  0.00000000000E+00  0.00000000000E+00  0.12333914913E+04  0.12333914913E+04  0.50400001928E-02 0. -1.
        1   -1    0    0  501    0  0.00000000000E+00  0.00000000000E+00 -0.20653324307E+04  0.20653324307E+04  0.50400001928E-02 0.  1.
    10030    2    1    2    0    0  0.00000000000E+00  0.00000000000E+00 -0.83194093939E+03  0.32987239220E+04  0.31920923838E+04 0.  0.
        5    1    3    3  502    0 -0.70518051137E+03  0.88220129235E+03 -0.15813757233E+04  0.19432781432E+04  0.46999998093E+01 0.  1.
       -5    1    3    3    0  502  0.70518051137E+03 -0.88220129235E+03  0.74943478388E+03  0.13554457787E+04  0.46999998093E+01 0. -1.
</event>
<event>
 5   0  0.1881144E-06  0.3168621E+04  0.7818609E-02  0.8197154E-01
        1   -1    0    0  501    0  0.00000000000E+00  0.00000000000E+00  0.19103004555E+04  0.19103004555E+04  0.50400001928E-02 0. -1.
       -1   -1    0    0    0  501  0.00000000000E+00  0.00000000000E+00 -0.13139501310E+04  0.13139501311E+04  0.50400001928E-02 0.  1.
    10030    2    1    2    0    0  0.00000000000E+00  0.00000000000E+00  0.59635032448E+03  0.32242505866E+04  0.31686208570E+04 0.  0.
        3    1    3    3  502    0  0.12933475598E+04  0.38437390310E+03 -0.54679400515E+03  0.14558416473E+04  0.10100000352E+00 0.  1.
       -3    1    3    3    0  502 -0.12933475598E+04 -0.38437390310E+03  0.11431443296E+04  0.17684089392E+04  0.10100000352E+00 0. -1.
</event>
<event>
 5   0  0.1969465E-06  0.2252021E+04  0.7818609E-02  0.8497082E-01
       -1   -1    0    0    0  501  0.00000000000E+00  0.00000000000E+00  0.74578624248E+03  0.74578624249E+03  0.50400001928E-02 0.  1.
        1   -1    0    0  501    0  0.00000000000E+00  0.00000000000E+00 -0.17000852692E+04  0.17000852692E+04  0.50400001928E-02 0. -1.
    10030    2    1    2    0    0  0.00000000000E+00  0.00000000000E+00 -0.95429902674E+03  0.24458715117E+04  0.22520214962E+04 0.  0.
        2    1    3    3  502    0  0.22766124424E+03  0.10802995034E+04 -0.23667809435E+03  0.11291116772E+04  0.25500000920E-02 0.  1.
       -2    1    3    3    0  502 -0.22766124424E+03 -0.10802995034E+04 -0.71762093239E+03  0.13167598345E+04  0.25500000920E-02 0. -1.
</event>
<event>
 5   0  0.5121624E-06  0.3244969E+04  0.7818609E-02  0.8177041E-01
        2   -1    0    0  501    0  0.00000000000E+00  0.00000000000E+00  0.18965574296E+04  0.18965574296E+04  0.25500000920E-02 0.  1.
       -2   -1    0    0    0  501  0.00000000000E+00  0.00000000000E+00 -0.13880182365E+04  0.13880182365E+04  0.25500000920E-02 0. -1.
    10030    2    1    2    0    0  0.00000000000E+00  0.00000000000E+00  0.50853919301E+03  0.32845756661E+04  0.32449692133E+04 0.  0.
        4    1    3    3  502    0  0.35386252450E+03  0.12281840253E+04  0.12658675849E+04  0.17989099593E+04  0.12699999809E+01 0. -1.
       -4    1    3    3    0  502 -0.35386252450E+03 -0.12281840253E+04 -0.75732839186E+03  0.14856657068E+04  0.12699999809E+01 0.  1.
</event>
<event>
 5   0  0.1881144E-06  0.2198360E+04  0.7818609E-02  0.8519111E-01
       -1   -1    0    0    0  501  0.00000000000E+00  0.00000000000E+00  0.14795070555E+04  0.14795070555E+04  0.50400001928E-02 0.  1.
        1   -1    0    0  501    0  0.00000000000E+00  0.00000000000E+00 -0.81662085675E+03  0.81662085676E+03  0.50400001928E-02 0. -1.
    10030    2    1    2    0    0  0.00000000000E+00  0.00000000000E+00  0.66288619878E+03  0.22961279123E+04  0.21983596787E+04 0.  0.
        3    1    3    3  502    0 -0.40621992020E+03 -0.78223048594E+03  0.10173823009E+04  0.13460928323E+04  0.10100000352E+00 0.  1.
       -3    1    3    3    0  502  0.40621992020E+03  0.78223048594E+03 -0.35449610211E+03  0.95003508004E+03  0.10100000352E+00 0. -1.
</event>
<event>
 5   0  0.5347280E-06  0.3294002E+04  0.7818609E-02  0.8164423E-01
       -2   -1    0    0    0  501  0.00000000000E+00  0.00000000000E+00  0.90285959135E+03  0.90285959135E+03  0.25500000920E-02 0.  1.
        2   -1    0    0  501    0  0.00000000000E+00  0.00000000000E+00 -0.30044669297E+04  0.30044669297E+04  0.25500000920E-02 0. -1.
    10030    2    1    2    0    0  0.00000000000E+00  0.00000000000E+00 -0.21016073384E+04  0.39073265211E+04  0.32940016906E+04 0.  0.
        2    1    3    3  502    0 -0.12903807960E+04  0.17687287458E+03  0.14498693069E+03  0.13104914431E+04  0.25500000920E-02 0.  1.
       -2    1    3    3    0  502  0.12903807960E+04 -0.17687287458E+03 -0.22465942690E+04  0.25968350780E+04  0.25500000920E-02 0. -1.
</event>
<event>
 5   0  0.5121624E-06  0.3153329E+04  0.7818609E-02  0.8201253E-01
       -2   -1    0    0    0  501  0.00000000000E+00  0.00000000000E+00  0.94006090661E+03  0.94006090661E+03  0.25500000920E-02 0.  1.
        2   -1    0    0  501    0  0.00000000000E+00  0.00000000000E+00 -0.26443723398E+04  0.26443723399E+04  0.25500000920E-02 0. -1.
    10030    2    1    2    0    0  0.00000000000E+00  0.00000000000E+00 -0.17043114332E+04  0.35844332465E+04  0.31533290721E+04 0.  0.
        4    1    3    3  502    0 -0.49628503096E+02  0.30021828413E+03  0.90636522309E+03  0.95608239027E+03  0.12699999809E+01 0.  1.
       -4    1    3    3    0  502  0.49628503096E+02 -0.30021828413E+03 -0.26106766563E+04  0.26283508562E+04  0.12699999809E+01 0. -1.
</event>
<event>
 5   0  0.1846850E-06  0.3193002E+04  0.7818609E-02  0.8190668E-01
       -1   -1    0    0    0  501  0.00000000000E+00  0.00000000000E+00  0.18637077272E+04  0.18637077272E+04  0.50400001928E-02 0. -1.
        1   -1    0    0  501    0  0.00000000000E+00  0.00000000000E+00 -0.13676050808E+04  0.13676050808E+04  0.50400001928E-02 0.  1.
    10030    2    1    2    0    0  0.00000000000E+00  0.00000000000E+00  0.49610264646E+03  0.32313128080E+04  0.31930024471E+04 0.  0.
        5    1    3    3  502    0 -0.43806503745E+03  0.11607364143E+04 -0.76878486636E+03  0.14595417984E+04  0.46999998093E+01 0.  1.
       -5    1    3    3    0  502  0.43806503745E+03 -0.11607364143E+04  0.12648875128E+04  0.17717710096E+04  0.46999998093E+01 0. -1.
</event>
<event>
 5   0  0.1969465E-06  0.3219051E+04  0.7818609E-02  0.8183804E-01
        1   -1    0    0  501    0  0.00000000000E+00  0.00000000000E+00  0.11237015746E+04  0.11237015747E+04  0.50400001928E-02 0.  1.
       -1   -1    0    0    0  501  0.00000000000E+00  0.00000000000E+00 -0.23053910630E+04  0.23053910630E+04  0.50400001928E-02 0. -1.
    10030    2    1    2    0    0  0.00000000000E+00  0.00000000000E+00 -0.11816894884E+04  0.34290926377E+04  0.32190505232E+04 0.  0.
        2    1    3    3  502    0  0.10545727228E+04 -0.85269590080E+03  0.33252316812E+03  0.13963472291E+04  0.25500000920E-02 0.  1.
       -2    1    3    3    0  502 -0.10545727228E+04  0.85269590080E+03 -0.15142126565E+04  0.20327454086E+04  0.25500000920E-02 0. -1.
</event>
<event>
 5   0  0.5347280E-06  0.3234065E+04  0.7818609E-02  0.8179878E-01
        2   -1    0    0  501    0  0.00000000000E+00  0.00000000000E+00  0.22934342339E+04  0.22934342339E+04  0.25500000920E-02 0.  1.
       -2   -1    0    0    0  501  0.00000000000E+00  0.00000000000E+00 -0.11401217798E+04  0.11401217798E+04  0.25500000920E-02 0. -1.
    10030    2    1    2    0    0  0.00000000000E+00  0.00000000000E+00  0.11533124541E+04  0.34335560137E+04  0.32340651326E+04 0.  0.
        2    1    3    3  502    0  0.15152129100E+04  0.45077489619E+03  0.21548667659E+03  0.15954631546E+04  0.25500000920E-02 0. -1.
       -2    1    3    3    0  502 -0.15152129100E+04 -0.45077489619E+03  0.93782577751E+03  0.18380928591E+04  0.25500000920E-02 0.  1.
</event>
<event>
 5   0  0.5131083E-06  0.3204027E+04  0.7818609E-02  0.8187754E-01
        2   -1    0    0  501    0  0.00000000000E+00  0.00000000000E+00  0.15730858505E+04  0.15730858505E+04  0.25500000920E-02 0. -1.
       -2   -1    0    0    0  501  0.00000000000E+00  0.00000000000E+00 -0.16314734244E+04  0.16314734244E+04  0.25500000920E-02 0.  1.
    10030    2    1    2    0    0  0.00000000000E+00  0.00000000000E+00 -0.58387573838E+02  0.32045592749E+04  0.32040273154E+04 0.  0.
        3    1    3    3  502    0  0.17643582326E+03  0.74199820087E+03 -0.14382416662E+04  0.16279527114E+04  0.10100000352E+00 0.  1.
       -3    1    3    3    0  502 -0.17643582326E+03 -0.74199820087E+03  0.13798540924E+04  0.15766065635E+04  0.10100000352E+00 0. -1.
</event>
<event>
 5   0  0.5373060E-06  0.3168679E+04  0.7818609E-02  0.8197138E-01
       -2   -1    0    0    0  501  0.00000000000E+00  0.00000000000E+00  0.16584115893E+04  0.16584115893E+04  0.25500000920E-02 0.  1.
        2   -1    0    0  501    0  0.00000000000E+00  0.00000000000E+00 -0.15135760660E+04  0.15135760660E+04  0.25500000920E-02 0. -1.
    10030    2    1    2    0    0  0.00000000000E+00  0.00000000000E+00  0.14483552327E+03  0.31719876553E+04  0.31686792764E+04 0.  0.
        5    1    3    3  502    0  0.36645230153E+03  0.17812331694E+03  0.16050599998E+04  0.16559755126E+04  0.46999998093E+01 0.  1.
       -5    1    3    3    0  502 -0.36645230153E+03 -0.17812331694E+03 -0.14602244765E+04  0.15160121428E+04  0.46999998093E+01 0. -1.
</event>
<event>
 5   0  0.1969465E-06  0.3266825E+04  0.7818609E-02  0.8171389E-01
        1   -1    0    0  501    0  0.00000000000E+00  0.00000000000E+00  0.22650020299E+04  0.22650020299E+04  0.50400001928E-02 0. -1.
       -1   -1    0    0    0  501  0.00000000000E+00  0.00000000000E+00 -0.11779396818E+04  0.11779396818E+04  0.50400001928E-02 0.  1.
    10030    2    1    2    0    0  0.00000000000E+00  0.00000000000E+00  0.10870623481E+04  0.34429417117E+04  0.32668246175E+04 0.  0.
        2    1    3    3  502    0  0.11877742009E+04  0.20841654171E+03  0.17046475889E+04  0.20880776828E+04  0.25500000920E-02 0. -1.
       -2    1    3    3    0  502 -0.11877742009E+04 -0.20841654171E+03 -0.61758524082E+03  0.13548640289E+04  0.25500000920E-02 0.  1.
</event>
<event>
 5   0  0.5347280E-06  0.3139300E+04  0.7818609E-02  0.8205034E-01
       -2   -1    0    0    0  501  0.00000000000E+00  0.00000000000E+00  0.80572570925E+03  0.80572570926E+03  0.25500000920E-02 0.  1.
        2   -1    0    0  501    0  0.00000000000E+00  0.00000000000E+00 -0.30578662748E+04  0.30578662748E+04  0.25500000920E-02 0. -1.
    10030    2    1    2    0    0  0.00000000000E+00  0.00000000000E+00 -0.22521405655E+04  0.38635919841E+04  0.31393002233E+04 0.  0.
        2    1    3    3  502    0 -0.28531484562E+03 -0.16056523938E+03  0.76323783326E+03  0.83049247279E+03  0.25500000920E-02 0.  1.
       -2    1    3    3    0  502  0.28531484562E+03  0.16056523938E+03 -0.30153783988E+04  0.30330995113E+04  0.25500000920E-02 0. -1.
</event>
<event>
 5   0  0.1969465E-06  0.3245901E+04  0.7818609E-02  0.8176799E-01
       -1   -1    0    0    0  501  0.00000000000E+00  0.00000000000E+00  0.11249348326E+04  0.11249348326E+04  0.50400001928E-02 0. -1.
        1   -1    0    0  501    0  0.00000000000E+00  0.00000000000E+00 -0.23414404701E+04  0.23414404701E+04  0.50400001928E-02 0.  1.
    10030    2    1    2    0    0  0.00000000000E+00  0.00000000000E+00 -0.12165056375E+04  0.34663753027E+04  0.32459007646E+04 0.  0.
        2    1    3    3  502    0  0.14467226591E+01 -0.62669184182E+03  0.99050579322E+03  0.11721119759E+04  0.25500000920E-02 0. -1.
       -2    1    3    3    0  502 -0.14467226591E+01  0.62669184182E+03 -0.22070114307E+04  0.22942633268E+04  0.25500000920E-02 0.  1.
</event>
<event>
 5   0  0.5373060E-06  0.3186127E+04  0.7818609E-02  0.8192491E-01
        2   -1    0    0  501    0  0.00000000000E+00  0.00000000000E+00  0.11922002883E+04  0.11922002883E+04  0.25500000920E-02 0.  1.
       -2   -1    0    0    0  501  0.00000000000E+00  0.00000000000E+00 -0.21287126311E+04  0.21287126311E+04  0.25500000920E-02 0. -1.
    10030    2    1    2    0    0  0.00000000000E+00  0.00000000000E+00 -0.93651234276E+03  0.33209129194E+04  0.31861273122E+04 0.  0.
        5    1    3    3  502    0  0.79217274988E+03  0.87262079009E+03 -0.15854314162E+04  0.19755048910E+04  0.46999998093E+01 0. -1.
       -5    1    3    3    0  502 -0.79217274988E+03 -0.87262079009E+03  0.64891907341E+03  0.13454080284E+04  0.46999998093E+01 0.  1.
</event>
<event>
 5   0  0.1977015E-06  0.3208398E+04  0.7818609E-02  0.8186603E-01
        1   -1    0    0  501    0  0.00000000000E+00  0.00000000000E+00  0.15524801848E+04  0.15524801848E+04  0.50400001928E-02 0.  1.
       -1   -1    0    0    0  501  0.00000000000E+00  0.00000000000E+00 -0.16576404983E+04  0.16576404983E+04  0.50400001928E-02 0. -1.
    10030    2    1    2    0    0  0.00000000000E+00  0.00000000000E+00 -0.10516031342E+03  0.32101206831E+04  0.32083977479E+04 0.  0.
        1    1    3    3  502    0  0.14717261838E+04  0.63679060401E+03 -0.81289013091E+01  0.16036041633E+04  0.50400001928E-02 0. -1.
       -1    1    3    3    0  502 -0.14717261838E+04 -0.63679060401E+03 -0.97031412110E+02  0.16065165198E+04  0.50400001928E-02 0.  1.
</event>
<event>
 5   0  0.1969465E-06  0.3131064E+04  0.7818609E-02  0.8207264E-01
        1   -1    0    0  501    0  0.00000000000E+00  0.00000000000E+00  0.32121763132E+04  0.32121763132E+04  0.50400001928E-02 0.  1.
       -1   -1    0    0    0  501  0.00000000000E+00  0.00000000000E+00 -0.76299975080E+03  0.76299975082E+03  0.50400001928E-02 0. -1.
    10030    2    1    2    0    0  0.00000000000E+00  0.00000000000E+00  0.24491765624E+04  0.39751760640E+04  0.31310635423E+04 0.  0.
        2    1    3    3  502    0  0.41330864901E+02  0.14150493379E+04  0.37593701764E+03  0.14647189186E+04  0.25500000920E-02 0. -1.
       -2    1    3    3    0  502 -0.41330864901E+02 -0.14150493379E+04  0.20732395448E+04  0.25104571455E+04  0.25500000920E-02 0.  1.
</event>
<event>
 5   0  0.1977015E-06  0.2916931E+04  0.7818609E-02  0.8267858E-01
        1   -1    0    0  501    0  0.00000000000E+00  0.00000000000E+00  0.14626792125E+04  0.14626792125E+04  0.50400001928E-02 0.  1.
       -1   -1    0    0    0  501  0.00000000000E+00  0.00000000000E+00 -0.14542636463E+04  0.14542636463E+04  0.50400001928E-02 0. -1.
    10030    2    1    2    0    0  0.00000000000E+00  0.00000000000E+00  0.84155662451E+01  0.29169428588E+04  0.29169307191E+04 0.  0.
        1    1    3    3  502    0 -0.94516276319E+03 -0.32339142402E+03  0.10668535106E+04  0.14615372301E+04  0.50400001928E-02 0.  1.
       -1    1    3    3    0  502  0.94516276319E+03  0.32339142402E+03 -0.10584379443E+04  0.14554056287E+04  0.50400001928E-02 0. -1.
</event>
<event>
 5   0  0.5373060E-06  0.3418536E+04  0.7818609E-02  0.8133372E-01
        2   -1    0    0  501    0  0.00000000000E+00  0.00000000000E+00  0.21506929804E+04  0.21506929804E+04  0.25500000920E-02 0. -1.
       -2   -1    0    0    0  501  0.00000000000E+00  0.00000000000E+00 -0.13584445657E+04  0.13584445657E+04  0.25500000920E-02 0.  1.
    10030    2    1    2    0    0  0.00000000000E+00  0.00000000000E+00  0.79224841474E+03  0.35091375461E+04  0.34185360561E+04 0.  0.
        5    1    3    3  502    0  0.95611972669E+03 -0.12351295551E+04 -0.31643833100E+03  0.15936954719E+04  0.46999998093E+01 0.  1.
       -5    1    3    3    0  502 -0.95611972669E+03  0.12351295551E+04  0.11086867457E+04  0.19154420743E+04  0.46999998093E+01 0. -1.
</event>
<event>
 5   0  0.1846850E-06  0.3203904E+04  0.7818609E-02  0.8187787E-01
       -1   -1    0    0    0  501  0.00000000000E+00  0.00000000000E+00  0.13001274217E+04  0.13001274217E+04  0.50400001928E-02 0.  1.
        1   -1    0    0  501    0  0.00000000000E+00  0.00000000000E+00 -0.19738450496E+04  0.19738450496E+04  0.50400001928E-02 0. -1.
    10030    2    1    2    0    0  0.00000000000E+00  0.00000000000E+00 -0.67371762794E+03  0.32739724713E+04  0.32039039156E+04 0.  0.
        5    1    3    3  502    0 -0.43197728297E+03  0.11291361187E+04  0.73716237541E+03  0.14159742954E+04  0.46999998093E+01 0.  1.
       -5    1    3    3    0  502  0.43197728297E+03 -0.11291361187E+04 -0.14108800034E+04  0.18579981758E+04  0.46999998093E+01 0. -1.
</event>
<event>
 5   0  0.1881144E-06  0.3197891E+04  0.7818609E-02  0.8189374E-01
       -1   -1    0    0    0  501  0.00000000000E+00  0.00000000000E+00  0.10457593507E+04  0.10457593507E+04  0.50400001928E-02 0.  1.
        1   -1    0    0  501    0  0.00000000000E+00  0.00000000000E+00 -0.24447560238E+04  0.24447560238E+04  0.50400001928E-02 0. -1.
    10030    2    1    2    0    0  0.00000000000E+00  0.00000000000E+00 -0.13989966731E+04  0.34905153745E+04  0.31978908500E+04 0.  0.
        3    1    3    3  502    0  0.44485982417E+03  0.49095290524E+03 -0.22878887594E+04  0.23818837091E+04  0.10100000352E+00 0. -1.
       -3    1    3    3    0  502 -0.44485982417E+03 -0.49095290524E+03  0.88889208625E+03  0.11086316654E+04  0.10100000352E+00 0.  1.
</event>
<event>
 5   0  0.5108810E-06  0.3160711E+04  0.7818609E-02  0.8199271E-01
       -2   -1    0    0    0  501  0.00000000000E+00  0.00000000000E+00  0.13942036780E+04  0.13942036780E+04  0.25500000920E-02 0.  1.
        2   -1    0    0  501    0  0.00000000000E+00  0.00000000000E+00 -0.17913617303E+04  0.17913617303E+04  0.25500000920E-02 0. -1.
    10030    2    1    2    0    0  0.00000000000E+00  0.00000000000E+00 -0.39715805237E+03  0.31855654083E+04  0.31607107511E+04 0.  0.
        1    1    3    3  502    0  0.14331255147E+04 -0.66455469350E+03 -0.24411652512E+03  0.15984600587E+04  0.50400001928E-02 0. -1.
       -1    1    3    3    0  502 -0.14331255147E+04  0.66455469350E+03 -0.15304152725E+03  0.15871053496E+04  0.50400001928E-02 0.  1.
</event>
<event>
 5   0  0.1881144E-06  0.3254831E+04  0.7818609E-02  0.8174485E-01
       -1   -1    0    0    0  501  0.00000000000E+00  0.00000000000E+00  0.23563570158E+04  0.23563570158E+04  0.50400001928E-02 0.  1.
        1   -1    0    0  501    0  0.00000000000E+00  0.00000000000E+00 -0.11239729805E+04  0.11239729806E+04  0.50400001928E-02 0. -1.
    10030    2    1    2    0    0  0.00000000000E+00  0.00000000000E+00  0.12323840353E+04  0.34803299964E+04  0.32548312511E+04 0.  0.
        3    1    3    3  502    0 -0.78857865359E+03 -0.57337941838E+03  0.20094869565E+04  0.22335304092E+04  0.10100000352E+00 0.  1.
       -3    1    3    3    0  502  0.78857865359E+03  0.57337941838E+03 -0.77710292119E+03  0.12467995872E+04  0.10100000352E+00 0. -1.
</event>
<event>
 5   0  0.5131083E-06  0.3222704E+04  0.7818609E-02  0.8182847E-01
        2   -1    0    0  501    0  0.00000000000E+00  0.00000000000E+00  0.16291559478E+04  0.16291559478E+04  0.25500000920E-02 0.  1.
       -2   -1    0    0    0  501  0.00000000000E+00  0.00000000000E+00 -0.15937421936E+04  0.15937421936E+04  0.25500000920E-02 0. -1.
    10030    2    1    2    0    0  0.00000000000E+00  0.00000000000E+00  0.35413754204E+02  0.32228981414E+04  0.32227035694E+04 0.  0.
        3    1    3    3  502    0  0.72219141768E+03 -0.89850359826E+03  0.11436458055E+04  0.16238210796E+04  0.10100000352E+00 0. -1.
       -3    1    3    3    0  502 -0.72219141768E+03  0.89850359826E+03 -0.11082320513E+04  0.15990770618E+04  0.10100000352E+00 0.  1.
</event>
<event>
 5   0  0.1977015E-06  0.3204898E+04  0.7818609E-02  0.8187525E-01
       -1   -1    0    0    0  501  0.00000000000E+00  0.00000000000E+00  0.14710609042E+04  0.14710609042E+04  0.50400001928E-02 0.  1.
        1   -1    0    0  501    0  0.00000000000E+00  0.00000000000E+00 -0.17455724884E+04  0.17455724884E+04  0.50400001928E-02 0. -1.
    10030    2    1    2    0    0  0.00000000000E+00  0.00000000000E+00 -0.27451158419E+03  0.32166333926E+04  0.32048984029E+04 0.  0.
        1    1    3    3  502    0  0.10850588816E+04 -0.72699132026E+03  0.79456941580E+03  0.15287935481E+04  0.50400001928E-02 0.  1.
       -1    1    3    3    0  502 -0.10850588816E+04  0.72699132026E+03 -0.10690810000E+04  0.16878398445E+04  0.50400001928E-02 0. -1.
</event>
<event>
 5   0  0.1977015E-06  0.3193005E+04  0.7818609E-02  0.8190667E-01
        1   -1    0    0  501    0  0.00000000000E+00  0.00000000000E+00  0.88833778523E+03  0.88833778525E+03  0.50400001928E-02 0.  1.
       -1   -1    0    0    0  501  0.00000000000E+00  0.00000000000E+00 -0.28692016885E+04  0.28692016885E+04  0.50400001928E-02 0. -1.
    10030    2    1    2    0    0  0.00000000000E+00  0.00000000000E+00 -0.19808639033E+04  0.37575394737E+04  0.31930050256E+04 0.  0.
        1    1    3    3  502    0 -0.74350288350E+03 -0.13003522541E+04 -0.16404577148E+04  0.22214441331E+04  0.50400001928E-02 0.  1.
       -1    1    3    3    0  502  0.74350288350E+03  0.13003522541E+04 -0.34040618846E+03  0.15360953406E+04  0.50400001928E-02 0. -1.
</event>
<event>
 5   0  0.5108810E-06  0.3028273E+04  0.7818609E-02  0.8235703E-01
       -2   -1    0    0    0  501  0.00000000000E+00  0.00000000000E+00  0.16268985367E+04  0.16268985367E+04  0.25500000920E-02 0.  1.
        2   -1    0    0  501    0  0.00000000000E+00  0.00000000000E+00 -0.14091897912E+04  0.14091897912E+04  0.25500000920E-02 0. -1.
    10030    2    1    2    0    0  0.00000000000E+00  0.00000000000E+00  0.21770874550E+03  0.30360883279E+04  0.30282726491E+04 0.  0.
        1    1    3    3  502    0 -0.77152724224E+03 -0.16458073170E+03  0.14045782751E+04  0.16109566207E+04  0.50400001928E-02 0.  1.
       -1    1    3    3    0  502  0.77152724224E+03  0.16458073170E+03 -0.11868695296E+04  0.14251317073E+04  0.50400001928E-02 0. -1.
</event>
<event>
 5   0  0.1881144E-06  0.2323458E+04  0.7818609E-02  0.8468729E-01
        1   -1    0    0  501    0  0.00000000000E+00  0.00000000000E+00  0.23812803505E+04  0.23812803506E+04  0.50400001928E-02 0.  1.
       -1   -1    0    0    0  501  0.00000000000E+00  0.00000000000E+00 -0.56675999824E+03  0.56675999826E+03  0.50400001928E-02 0. -1.
    10030    2    1    2    0    0  0.00000000000E+00  0.00000000000E+00  0.18145203523E+04  0.29480403488E+04  0.23234581531E+04 0.  0.
        3    1    3    3  502    0  0.10683767193E+03 -0.22544952016E+03 -0.53236923195E+03  0.58792753262E+03  0.10100000352E+00 0. -1.
       -3    1    3    3    0  502 -0.10683767193E+03  0.22544952016E+03  0.23468895843E+04  0.23601128162E+04  0.10100000352E+00 0.  1.
</event>
<event>
 5   0  0.1977015E-06  0.2838464E+04  0.7818609E-02  0.8291425E-01
       -1   -1    0    0    0  501  0.00000000000E+00  0.00000000000E+00  0.12010224092E+04  0.12010224092E+04  0.50400001928E-02 0. -1.
        1   -1    0    0  501    0  0.00000000000E+00  0.00000000000E+00 -0.16770874568E+04  0.16770874568E+04  0.50400001928E-02 0.  1.
    10030    2    1    2    0    0  0.00000000000E+00  0.00000000000E+00 -0.47606504753E+03  0.28781098660E+04  0.28384641043E+04 0.  0.
        1    1    3    3  502    0 -0.24748353258E+03 -0.12522089431E+04  0.39107213034E+03  0.13349954110E+04  0.50400001928E-02 0. -1.
       -1    1    3    3    0  502  0.24748353258E+03  0.12522089431E+04 -0.86713717787E+03  0.15431144551E+04  0.50400001928E-02 0.  1.
</event>
<event>
 5   0  0.5131083E-06  0.3211666E+04  0.7818609E-02  0.8185743E-01
        2   -1    0    0  501    0  0.00000000000E+00  0.00000000000E+00  0.14841346646E+04  0.14841346646E+04  0.25500000920E-02 0.  1.
       -2   -1    0    0    0  501  0.00000000000E+00  0.00000000000E+00 -0.17375108058E+04  0.17375108058E+04  0.25500000920E-02 0. -1.
    10030    2    1    2    0    0  0.00000000000E+00  0.00000000000E+00 -0.25337614120E+03  0.32216454705E+04  0.32116662449E+04 0.  0.
        3    1    3    3  502    0  0.47097898939E+02 -0.14790115876E+04 -0.75232990168E+03  0.16600282466E+04  0.10100000352E+00 0.  1.
       -3    1    3    3    0  502 -0.47097898939E+02  0.14790115876E+04  0.49895376048E+03  0.15616172238E+04  0.10100000352E+00 0. -1.
</event>
<event>
 5   0  0.5373060E-06  0.2361470E+04  0.7818609E-02  0.8454071E-01
        2   -1    0    0  501    0  0.00000000000E+00  0.00000000000E+00  0.14617613687E+04  0.14617613687E+04  0.25500000920E-02 0.  1.
       -2   -1    0    0    0  501  0.00000000000E+00  0.00000000000E+00 -0.95373665359E+03  0.95373665360E+03  0.25500000920E-02 0. -1.
    10030    2    1    2    0    0  0.00000000000E+00  0.00000000000E+00  0.50802471514E+03  0.24154980223E+04  0.23614702168E+04 0.  0.
        5    1    3    3  502    0  0.49738097155E+02 -0.27431030178E+03  0.14276040944E+04  0.14545774508E+04  0.46999998093E+01 0.  1.
       -5    1    3    3    0  502 -0.49738097155E+02  0.27431030178E+03 -0.91957937929E+03  0.96092057153E+03  0.46999998093E+01 0. -1.
</event>
<event>
 5   0  0.5347280E-06  0.3423904E+04  0.7818609E-02  0.8132064E-01
        2   -1    0    0  501    0  0.00000000000E+00  0.00000000000E+00  0.30381471864E+04  0.30381471864E+04  0.25500000920E-02 0.  1.
       -2   -1    0    0    0  501  0.00000000000E+00  0.00000000000E+00 -0.96466020701E+03  0.96466020701E+03  0.25500000920E-02 0. -1.
    10030    2    1    2    0    0  0.00000000000E+00  0.00000000000E+00  0.20734869794E+04  0.40028073934E+04  0.34239040254E+04 0.  0.
        2    1    3    3  502    0 -0.61504290859E+02  0.16727465461E+04  0.61698801666E+03  0.17839669274E+04  0.25500000920E-02 0. -1.
       -2    1    3    3    0  502  0.61504290859E+02 -0.16727465461E+04  0.14564989627E+04  0.22188404660E+04  0.25500000920E-02 0.  1.
</event>
<event>
 5   0  0.5347280E-06  0.3202834E+04  0.7818609E-02  0.8188069E-01
        2   -1    0    0  501    0  0.00000000000E+00  0.00000000000E+00  0.17397453637E+04  0.17397453637E+04  0.25500000920E-02 0.  1.
       -2   -1    0    0    0  501  0.00000000000E+00  0.00000000000E+00 -0.14740873770E+04  0.14740873770E+04  0.25500000920E-02 0. -1.
    10030    2    1    2    0    0  0.00000000000E+00  0.00000000000E+00  0.26565798670E+03  0.32138327406E+04  0.32028341697E+04 0.  0.
        2    1    3    3  502    0  0.20876980245E+03  0.25759385281E+03  0.17049245486E+04  0.17368670472E+04  0.25500000920E-02 0.  1.
       -2    1    3    3    0  502 -0.20876980245E+03 -0.25759385281E+03 -0.14392665619E+04  0.14769656934E+04  0.25500000920E-02 0. -1.
</event>
<event>
 5   0  0.5131083E-06  0.3227381E+04  0.7818609E-02  0.8181623E-01
        2   -1    0    0  501    0  0.00000000000E+00  0.00000000000E+00  0.22565207032E+04  0.22565207032E+04  0.25500000920E-02 0.  1.
       -2   -1    0    0    0  501  0.00000000000E+00  0.00000000000E+00 -0.11539876501E+04  0.11539876501E+04  0.25500000920E-02 0. -1.
    10030    2    1    2    0    0  0.00000000000E+00  0.00000000000E+00  0.11025330531E+04  0.34105083533E+04  0.32273809963E+04 0.  0.
        3    1    3    3  502    0 -0.62577080328E+03  0.14797140140E+04  0.39151193966E+03  0.16536094674E+04  0.10100000352E+00 0. -1.
       -3    1    3    3    0  502  0.62577080328E+03 -0.14797140140E+04  0.71102111341E+03  0.17568988859E+04  0.10100000352E+00 0.  1.
</event>
<event>
 5   0  0.1969465E-06  0.3115541E+04  0.7818609E-02  0.8211486E-01
        1   -1    0    0  501    0  0.00000000000E+00  0.00000000000E+00  0.14300770267E+04  0.14300770267E+04  0.50400001928E-02 0. -1.
       -1   -1    0    0    0  501  0.00000000000E+00  0.00000000000E+00 -0.16968657415E+04  0.16968657415E+04  0.50400001928E-02 0.  1.
    10030    2    1    2    0    0  0.00000000000E+00  0.00000000000E+00 -0.26678871484E+03  0.31269427682E+04  0.31155408612E+04 0.  0.
        2    1    3    3  502    0 -0.41091463894E+03  0.12546220891E+04  0.69650615334E+03  0.14926648145E+04  0.25500000920E-02 0. -1.
       -2    1    3    3    0  502  0.41091463894E+03 -0.12546220891E+04 -0.96329486819E+03  0.16342779537E+04  0.25500000920E-02 0.  1.
</event>
<event>
 5   0  0.5108810E-06  0.2353235E+04  0.7818609E-02  0.8457222E-01
        2   -1    0    0  501    0  0.00000000000E+00  0.00000000000E+00  0.13452538449E+04  0.13452538449E+04  0.25500000920E-02 0.  1.
       -2   -1    0    0    0  501  0.00000000000E+00  0.00000000000E+00 -0.10291208081E+04  0.10291208081E+04  0.25500000920E-02 0. -1.
    10030    2    1    2    0    0  0.00000000000E+00  0.00000000000E+00  0.31613303678E+03  0.23743746530E+04  0.23532349853E+04 0.  0.
        1    1    3    3  502    0 -0.51716842250E+03 -0.29675352140E+03  0.11815271588E+04  0.13234546674E+04  0.50400001928E-02 0.  1.
       -1    1    3    3    0  502  0.51716842250E+03  0.29675352140E+03 -0.86539412201E+03  0.10509199856E+04  0.50400001928E-02 0. -1.
</event>
<event>
 5   0  0.1881144E-06  0.3154174E+04  0.7818609E-02  0.8201026E-01
       -1   -1    0    0    0  501  0.00000000000E+00  0.00000000000E+00  0.14579973617E+04  0.14579973617E+04  0.50400001928E-02 0.  1.
        1   -1    0    0  501    0  0.00000000000E+00  0.00000000000E+00 -0.17059036360E+04  0.17059036360E+04  0.50400001928E-02 0. -1.
    10030    2    1    2    0    0  0.00000000000E+00  0.00000000000E+00 -0.24790627433E+03  0.31639009977E+04  0.31541737432E+04 0.  0.
        3    1    3    3  502    0  0.10408917764E+04 -0.86266760279E+02 -0.13092509246E+04  0.16748240618E+04  0.10100000352E+00 0. -1.
       -3    1    3    3    0  502 -0.10408917764E+04  0.86266760279E+02  0.10613446502E+04  0.14890769359E+04  0.10100000352E+00 0.  1.
</event>
<event>
 5   0  0.1881144E-06  0.3216213E+04  0.7818609E-02  0.8184548E-01
        1   -1    0    0  501    0  0.00000000000E+00  0.00000000000E+00  0.19805043938E+04  0.19805043938E+04  0.50400001928E-02 0. -1.
       -1   -1    0    0    0  501  0.00000000000E+00  0.00000000000E+00 -0.13057314516E+04  0.13057314516E+04  0.50400001928E-02 0.  1.
    10030    2    1    2    0    0  0.00000000000E+00  0.00000000000E+00  0.67477294219E+03  0.32862358454E+04  0.32162132249E+04 0.  0.
        3    1    3    3  502    0  0.12531893312E+04  0.47069740214E+03  0.12478346034E+04  0.18300630459E+04  0.10100000352E+00 0. -1.
       -3    1    3    3    0  502 -0.12531893312E+04 -0.47069740214E+03 -0.57306166123E+03  0.14561727995E+04  0.10100000352E+00 0.  1.
</event>
<event>
 5   0  0.1886248E-06  0.2769985E+04  0.7818609E-02  0.8312648E-01
       -1   -1    0    0    0  501  0.00000000000E+00  0.00000000000E+00  0.11367107786E+04  0.11367107786E+04  0.50400001928E-02 0.  1.
        1   -1    0    0  501    0  0.00000000000E+00  0.00000000000E+00 -0.16875043942E+04  0.16875043942E+04  0.50400001928E-02 0. -1.
    10030    2    1    2    0    0  0.00000000000E+00  0.00000000000E+00 -0.55079361560E+03  0.28242151727E+04  0.27699851507E+04 0.  0.
        4    1    3    3  502    0 -0.57741886129E+02  0.13718662092E+04 -0.46019593782E+03  0.14481481055E+04  0.12699999809E+01 0. -1.
       -4    1    3    3    0  502  0.57741886129E+02 -0.13718662092E+04 -0.90597677780E+02  0.13760670672E+04  0.12699999809E+01 0.  1.
</event>
<event>
 5   0  0.5121624E-06  0.3242232E+04  0.7818609E-02  0.8177752E-01
       -2   -1    0    0    0  501  0.00000000000E+00  0.00000000000E+00  0.11050514277E+04  0.11050514277E+04  0.25500000920E-02 0.  1.
        2   -1    0    0  501    0  0.00000000000E+00  0.00000000000E+00 -0.23781846220E+04  0.23781846220E+04  0.25500000920E-02 0. -1.
    10030    2    1    2    0    0  0.00000000000E+00  0.00000000000E+00 -0.12731331943E+04  0.34832360496E+04  0.32422315227E+04 0.  0.
        4    1    3    3  502    0 -0.11938095117E+04  0.21841045580E+03 -0.17912273207E+04  0.21636499728E+04  0.12699999809E+01 0. -1.
       -4    1    3    3    0  502  0.11938095117E+04 -0.21841045580E+03  0.51809412640E+03  0.13195860768E+04  0.12699999809E+01 0.  1.
</event>
<event>
 5   0  0.1881144E-06  0.3222326E+04  0.7818609E-02  0.8182946E-01
        1   -1    0    0  501    0  0.00000000000E+00  0.00000000000E+00  0.20288921888E+04  0.20288921888E+04  0.50400001928E-02 0. -1.
       -1   -1    0    0    0  501  0.00000000000E+00  0.00000000000E+00 -0.12794398243E+04  0.12794398243E+04  0.50400001928E-02 0.  1.
    10030    2    1    2    0    0  0.00000000000E+00  0.00000000000E+00  0.74945236452E+03  0.33083320130E+04  0.32223255363E+04 0.  0.
        3    1    3    3  502    0  0.45166820873E+03 -0.11451951887E+04 -0.69242459377E+03  0.14124192081E+04  0.10100000352E+00 0.  1.
       -3    1    3    3    0  502 -0.45166820873E+03  0.11451951887E+04  0.14418769583E+04  0.18959128050E+04  0.10100000352E+00 0. -1.
</event>
<event>
 5   0  0.5373060E-06  0.3093604E+04  0.7818609E-02  0.8217496E-01
       -2   -1    0    0    0  501  0.00000000000E+00  0.00000000000E+00  0.17894524759E+04  0.17894524759E+04  0.25500000920E-02 0. -1.
        2   -1    0    0  501    0  0.00000000000E+00  0.00000000000E+00 -0.13370546065E+04  0.13370546065E+04  0.25500000920E-02 0.  1.
    10030    2    1    2    0    0  0.00000000000E+00  0.00000000000E+00  0.45239786943E+03  0.31265070824E+04  0.30936035144E+04 0.  0.
        5    1    3    3  502    0  0.68532806124E+03  0.12201539146E+04  0.89208724652E+03  0.16596059388E+04  0.46999998093E+01 0. -1.
       -5    1    3    3    0  502 -0.68532806124E+03 -0.12201539146E+04 -0.43968937708E+03  0.14669011436E+04  0.46999998093E+01 0.  1.
</event>
<event>
 5   0  0.1881144E-06  0.3204236E+04  0.7818609E-02  0.8187699E-01
       -1   -1    0    0    0  501  0.00000000000E+00  0.00000000000E+00  0.13688720259E+04  0.13688720259E+04  0.50400001928E-02 0.  1.
        1   -1    0    0  501    0  0.00000000000E+00  0.00000000000E+00 -0.18751079625E+04  0.18751079625E+04  0.50400001928E-02 0. -1.
    10030    2    1    2    0    0  0.00000000000E+00  0.00000000000E+00 -0.50623593656E+03  0.32439799884E+04  0.32042364678E+04 0.  0.
        3    1    3    3  502    0  0.85637192862E+03  0.84271721145E+03  0.81985661146E+03  0.14545480577E+04  0.10100000352E+00 0.  1.
       -3    1    3    3    0  502 -0.85637192862E+03 -0.84271721145E+03 -0.13260925480E+04  0.17894319307E+04  0.10100000352E+00 0. -1.
</event>
<event>
 5   0  0.5108810E-06  0.3252730E+04  0.7818609E-02  0.8175029E-01
        2   -1    0    0  501    0  0.00000000000E+00  0.00000000000E+00  0.11856907136E+04  0.11856907136E+04  0.25500000920E-02 0.  1.
       -2   -1    0    0    0  501  0.00000000000E+00  0.00000000000E+00 -0.22308203255E+04  0.22308203255E+04  0.25500000920E-02 0. -1.
    10030    2    1    2    0    0  0.00000000000E+00  0.00000000000E+00 -0.10451296118E+04  0.34165110391E+04  0.32527298957E+04 0.  0.
        1    1    3    3  502    0  0.46380154505E+03 -0.69912632172E+03 -0.19859781106E+04  0.21559217386E+04  0.50400001928E-02 0. -1.
       -1    1    3    3    0  502 -0.46380154505E+03  0.69912632172E+03  0.94084849879E+03  0.12605893005E+04  0.50400001928E-02 0.  1.
</event>
<event>
 5   0  0.1881144E-06  0.2091694E+04  0.7818609E-02  0.8564911E-01
        1   -1    0    0  501    0  0.00000000000E+00  0.00000000000E+00  0.15824295165E+04  0.15824295165E+04  0.50400001928E-02 0.  1.
       -1   -1    0    0    0  501  0.00000000000E+00  0.00000000000E+00 -0.69121329026E+03  0.69121329028E+03  0.50400001928E-02 0. -1.
    10030    2    1    2    0    0  0.00000000000E+00  0.00000000000E+00  0.89121622622E+03  0.22736428068E+04  0.20916943493E+04 0.  0.
        3    1    3    3  502    0  0.89672585500E+03 -0.52161914044E+03  0.58978245885E+03  0.11933344651E+04  0.10100000352E+00 0.  1.
       -3    1    3    3    0  502 -0.89672585500E+03  0.52161914044E+03  0.30143376738E+03  0.10803083416E+04  0.10100000352E+00 0. -1.
</event>
<event>
 5   0  0.5373060E-06  0.3250740E+04  0.7818609E-02  0.8175544E-01
       -2   -1    0    0    0  501  0.00000000000E+00  0.00000000000E+00  0.13797523698E+04  0.13797523698E+04  0.25500000920E-02 0.  1.
        2   -1    0    0  501    0  0.00000000000E+00  0.00000000000E+00 -0.19147117985E+04  0.19147117985E+04  0.25500000920E-02 0. -1.
    10030    2    1    2    0    0  0.00000000000E+00  0.00000000000E+00 -0.53495942876E+03  0.32944641683E+04  0.32507403104E+04 0.  0.
        5    1    3    3  502    0 -0.15081798380E+04 -0.35734207153E+01  0.34663015417E+03  0.15475121152E+04  0.46999998093E+01 0.  1.
       -5    1    3    3    0  502  0.15081798380E+04  0.35734207153E+01 -0.88158958294E+03  0.17469520531E+04  0.46999998093E+01 0. -1.
</event>
<event>
 5   0  0.5131083E-06  0.3174600E+04  0.7818609E-02  0.8195558E-01
        2   -1    0    0  501    0  0.00000000000E+00  0.00000000000E+00  0.16916247951E+04  0.16916247951E+04  0.25500000920E-02 0. -1.
       -2   -1    0    0    0  501  0.00000000000E+00  0.00000000000E+00 -0.14894092840E+04  0.14894092840E+04  0.25500000920E-02 0.  1.
    10030    2    1    2    0    0  0.00000000000E+00  0.00000000000E+00  0.20221551116E+03  0.31810340791E+04  0.31746002425E+04 0.  0.
        3    1    3    3  502    0 -0.14807520231E+04 -0.41509205402E+03  0.49508865647E+03  0.16155620555E+04  0.10100000352E+00 0. -1.
       -3    1    3    3    0  502  0.14807520231E+04  0.41509205402E+03 -0.29287314531E+03  0.15654720236E+04  0.10100000352E+00 0.  1.
</event>
<event>
 5   0  0.5131083E-06  0.3134823E+04  0.7818609E-02  0.8206246E-01
        2   -1    0    0  501    0  0.00000000000E+00  0.00000000000E+00  0.23292258690E+04  0.23292258690E+04  0.25500000920E-02 0.  1.
       -2   -1    0    0    0  501  0.00000000000E+00  0.00000000000E+00 -0.10547616951E+04  0.10547616951E+04  0.25500000920E-02 0. -1.
    10030    2    1    2    0    0  0.00000000000E+00  0.00000000000E+00  0.12744641738E+04  0.33839875641E+04  0.31348226271E+04 0.  0.
        3    1    3    3  502    0  0.33572017665E+03  0.73521952281E+03  0.20869268155E+04  0.22379721462E+04  0.10100000352E+00 0.  1.
       -3    1    3    3    0  502 -0.33572017665E+03 -0.73521952281E+03 -0.81246264168E+03  0.11460154179E+04  0.10100000352E+00 0. -1.
</event>
<event>
 5   0  0.1977015E-06  0.3321973E+04  0.7818609E-02  0.8157327E-01
        1   -1    0    0  501    0  0.00000000000E+00  0.00000000000E+00  0.19730502888E+04  0.19730502888E+04  0.50400001928E-02 0. -1.
       -1   -1    0    0    0  501  0.00000000000E+00  0.00000000000E+00 -0.13982797107E+04  0.13982797107E+04  0.50400001928E-02 0.  1.
    10030    2    1    2    0    0  0.00000000000E+00  0.00000000000E+00  0.57477057811E+03  0.33713299994E+04  0.33219730203E+04 0.  0.
        1    1    3    3  502    0 -0.28798456625E+03 -0.16184507357E+04  0.46031951007E+02  0.16445172041E+04  0.50400001928E-02 0.  1.
       -1    1    3    3    0  502  0.28798456625E+03  0.16184507357E+04  0.52873862710E+03  0.17268127953E+04  0.50400001928E-02 0. -1.
</event>
<event>
 5   0  0.1886248E-06  0.3211079E+04  0.7818609E-02  0.8185897E-01
       -1   -1    0    0    0  501  0.00000000000E+00  0.00000000000E+00  0.18132943292E+04  0.18132943292E+04  0.50400001928E-02 0.  1.
        1   -1    0    0  501    0  0.00000000000E+00  0.00000000000E+00 -0.14215878828E+04  0.14215878828E+04  0.50400001928E-02 0. -1.
    10030    2    1    2    0    0  0.00000000000E+00  0.00000000000E+00  0.39170644638E+03  0.32348822120E+04  0.32110790999E+04 0.  0.
        4    1    3    3  502    0 -0.65896820770E+03  0.53496848041E+03 -0.11770864366E+04  0.14511941517E+04  0.12699999809E+01 0. -1.
       -4    1    3    3    0  502  0.65896820770E+03 -0.53496848041E+03  0.15687928830E+04  0.17836880603E+04  0.12699999809E+01 0.  1.
</event>
<event>
 5   0  0.1977015E-06  0.3288151E+04  0.7818609E-02  0.8165917E-01
       -1   -1    0    0    0  501  0.00000000000E+00  0.00000000000E+00  0.22565431752E+04  0.22565431752E+04  0.50400001928E-02 0. -1.
        1   -1    0    0  501    0  0.00000000000E+00  0.00000000000E+00 -0.11978427794E+04  0.11978427794E+04  0.50400001928E-02 0.  1.
    10030    2    1    2    0    0  0.00000000000E+00  0.00000000000E+00  0.10587003958E+04  0.34543859546E+04  0.32881508170E+04 0.  0.
        1    1    3    3  502    0 -0.83582929194E+03  0.98515925709E+03  0.15975307280E+04  0.20545690045E+04  0.50400001928E-02 0. -1.
       -1    1    3    3    0  502  0.83582929194E+03 -0.98515925709E+03 -0.53883033221E+03  0.13998169502E+04  0.50400001928E-02 0.  1.
</event>
<event>
 5   0  0.1729500E-06  0.3085868E+04  0.7818609E-02  0.8219627E-01
        3   -1    0    0  501    0  0.00000000000E+00  0.00000000000E+00  0.26610187799E+04  0.26610187818E+04  0.10100000352E+00 0. -1.
       -3   -1    0    0    0  501  0.00000000000E+00  0.00000000000E+00 -0.89463681607E+03  0.89463682177E+03  0.10100000352E+00 0.  1.
    10030    2    1    2    0    0  0.00000000000E+00  0.00000000000E+00  0.17663819639E+04  0.35556556036E+04  0.30858680350E+04 0.  0.
        4    1    3    3  502    0  0.80251934887E+03  0.71664497537E+03 -0.39107550941E+03  0.11447964854E+04  0.12699999809E+01 0.  1.
       -4    1    3    3    0  502 -0.80251934887E+03 -0.71664497537E+03  0.21574574733E+04  0.24108591182E+04  0.12699999809E+01 0. -1.
</event>
<event>
 5   0  0.1846850E-06  0.2964512E+04  0.7818609E-02  0.8253938E-01
        1   -1    0    0  501    0  0.00000000000E+00  0.00000000000E+00  0.11981714621E+04  0.11981714622E+04  0.50400001928E-02 0.  1.
       -1   -1    0    0    0  501  0.00000000000E+00  0.00000000000E+00 -0.18336963944E+04  0.18336963944E+04  0.50400001928E-02 0. -1.
    10030    2    1    2    0    0  0.00000000000E+00  0.00000000000E+00 -0.63552493226E+03  0.30318678566E+04  0.29645118924E+04 0.  0.
        5    1    3    3  502    0  0.61491664601E+03 -0.13309006756E+04 -0.54099106436E+03  0.15627259873E+04  0.46999998093E+01 0.  1.
       -5    1    3    3    0  502 -0.61491664601E+03  0.13309006756E+04 -0.94533867900E+02  0.14691418692E+04  0.46999998093E+01 0. -1.
</event>
<event>
 5   0  0.1886248E-06  0.3273358E+04  0.7818609E-02  0.8169708E-01
        1   -1    0    0  501    0  0.00000000000E+00  0.00000000000E+00  0.16976849154E+04  0.16976849154E+04  0.50400001928E-02 0.  1.
       -1   -1    0    0    0  501  0.00000000000E+00  0.00000000000E+00 -0.15778653637E+04  0.15778653637E+04  0.50400001928E-02 0. -1.
    10030    2    1    2    0    0  0.00000000000E+00  0.00000000000E+00  0.11981955163E+03  0.32755502791E+04  0.32733580473E+04 0.  0.
        4    1    3    3  502    0 -0.15021816458E+04  0.20238729461E+03  0.67774233660E+03  0.16603754400E+04  0.12699999809E+01 0.  1.
       -4    1    3    3    0  502  0.15021816458E+04 -0.20238729461E+03 -0.55792278496E+03  0.16151748391E+04  0.12699999809E+01 0. -1.
</event>
<event>
 5   0  0.1969465E-06  0.3161607E+04  0.7818609E-02  0.8199031E-01
        1   -1    0    0  501    0  0.00000000000E+00  0.00000000000E+00  0.15326515432E+04  0.15326515432E+04  0.50400001928E-02 0.  1.
       -1   -1    0    0    0  501  0.00000000000E+00  0.00000000000E+00 -0.16304683873E+04  0.16304683873E+04  0.50400001928E-02 0. -1.
    10030    2    1    2    0    0  0.00000000000E+00  0.00000000000E+00 -0.97816844096E+02  0.31631199305E+04  0.31616071166E+04 0.  0.
        2    1    3    3  502    0 -0.13093586073E+02  0.14222598074E+04 -0.73912655608E+03  0.16029043850E+04  0.25500000920E-02 0. -1.
       -2    1    3    3    0  502  0.13093586073E+02 -0.14222598074E+04  0.64130971198E+03  0.15602155455E+04  0.25500000920E-02 0.  1.
</event>
<event>
 5   0  0.5347280E-06  0.3190158E+04  0.7818609E-02  0.8191421E-01
        2   -1    0    0  501    0  0.00000000000E+00  0.00000000000E+00  0.15683794765E+04  0.15683794765E+04  0.25500000920E-02 0. -1.
       -2   -1    0    0    0  501  0.00000000000E+00  0.00000000000E+00 -0.16222328453E+04  0.16222328453E+04  0.25500000920E-02 0.  1.
    10030    2    1    2    0    0  0.00000000000E+00  0.00000000000E+00 -0.53853368775E+02  0.31906123218E+04  0.31901578021E+04 0.  0.
        2    1    3    3  502    0  0.79827481507E+03  0.76871441293E+03  0.11204560878E+04  0.15759398383E+04  0.25500000920E-02 0. -1.
       -2    1    3    3    0  502 -0.79827481507E+03 -0.76871441293E+03 -0.11743094566E+04  0.16146724835E+04  0.25500000920E-02 0.  1.
</event>
<event>
 5   0  0.1846850E-06  0.3383081E+04  0.7818609E-02  0.8142071E-01
       -1   -1    0    0    0  501  0.00000000000E+00  0.00000000000E+00  0.12187899253E+04  0.12187899253E+04  0.50400001928E-02 0. -1.
        1   -1    0    0  501    0  0.00000000000E+00  0.00000000000E+00 -0.23476640456E+04  0.23476640457E+04  0.50400001928E-02 0.  1.
    10030    2    1    2    0    0  0.00000000000E+00  0.00000000000E+00 -0.11288741203E+04  0.35664539710E+04  0.33830810141E+04 0.  0.
        5    1    3    3  502    0  0.17497388521E+03  0.11848203280E+04 -0.18237009579E+04  0.21818162948E+04  0.46999998093E+01 0.  1.
       -5    1    3    3    0  502 -0.17497388521E+03 -0.11848203280E+04  0.69482683757E+03  0.13846376762E+04  0.46999998093E+01 0. -1.
</event>
<event>
 5   0  0.1881144E-06  0.3181171E+04  0.7818609E-02  0.8193808E-01
       -1   -1    0    0    0  501  0.00000000000E+00  0.00000000000E+00  0.26466290886E+04  0.26466290886E+04  0.50400001928E-02 0. -1.
        1   -1    0    0  501    0  0.00000000000E+00  0.00000000000E+00 -0.95591880576E+03  0.95591880578E+03  0.50400001928E-02 0.  1.
    10030    2    1    2    0    0  0.00000000000E+00  0.00000000000E+00  0.16907102828E+04  0.36025478943E+04  0.31811711791E+04 0.  0.
        3    1    3    3  502    0  0.15636678520E+03 -0.66821047056E+03 -0.77963826960E+03  0.10386489523E+04  0.10100000352E+00 0.  1.
       -3    1    3    3    0  502 -0.15636678520E+03  0.66821047056E+03  0.24703485524E+04  0.25638989420E+04  0.10100000352E+00 0. -1.
</event>
<event>
 5   0  0.5347280E-06  0.3199491E+04  0.7818609E-02  0.8188952E-01
        2   -1    0    0  501    0  0.00000000000E+00  0.00000000000E+00  0.21859173687E+04  0.21859173687E+04  0.25500000920E-02 0. -1.
       -2   -1    0    0    0  501  0.00000000000E+00  0.00000000000E+00 -0.11707601591E+04  0.11707601591E+04  0.25500000920E-02 0.  1.
    10030    2    1    2    0    0  0.00000000000E+00  0.00000000000E+00  0.10151572096E+04  0.33566775277E+04  0.31994905634E+04 0.  0.
        2    1    3    3  502    0 -0.79713135534E+03 -0.13274092257E+04  0.85636661195E+02  0.15507312107E+04  0.25500000920E-02 0.  1.
       -2    1    3    3    0  502  0.79713135534E+03  0.13274092257E+04  0.92952054840E+03  0.18059463170E+04  0.25500000920E-02 0. -1.
</event>
<event>
 5   0  0.1969465E-06  0.3144031E+04  0.7818609E-02  0.8203757E-01
        1   -1    0    0  501    0  0.00000000000E+00  0.00000000000E+00  0.22501356031E+04  0.22501356031E+04  0.50400001928E-02 0.  1.
       -1   -1    0    0    0  501  0.00000000000E+00  0.00000000000E+00 -0.10982597102E+04  0.10982597102E+04  0.50400001928E-02 0. -1.
    10030    2    1    2    0    0  0.00000000000E+00  0.00000000000E+00  0.11518758929E+04  0.33483953133E+04  0.31440313455E+04 0.  0.
        2    1    3    3  502    0 -0.96197766733E+03 -0.45148025747E+03 -0.65780806972E+03  0.12497787452E+04  0.25500000920E-02 0. -1.
       -2    1    3    3    0  502  0.96197766733E+03  0.45148025747E+03  0.18096839626E+04  0.20986165681E+04  0.25500000920E-02 0.  1.
</event>
<event>
 5   0  0.1846850E-06  0.3205400E+04  0.7818609E-02  0.8187392E-01
        1   -1    0    0  501    0  0.00000000000E+00  0.00000000000E+00  0.18619847825E+04  0.18619847826E+04  0.50400001928E-02 0. -1.
       -1   -1    0    0    0  501  0.00000000000E+00  0.00000000000E+00 -0.13795211443E+04  0.13795211443E+04  0.50400001928E-02 0.  1.
    10030    2    1    2    0    0  0.00000000000E+00  0.00000000000E+00  0.48246363821E+03  0.32415059269E+04  0.32054000549E+04 0.  0.
        5    1    3    3  502    0  0.51102252145E+03 -0.88584684416E+02  0.17747677034E+04  0.18490034491E+04  0.46999998093E+01 0. -1.
       -5    1    3    3    0  502 -0.51102252145E+03  0.88584684416E+02 -0.12923040652E+04  0.13925024778E+04  0.46999998093E+01 0.  1.
</event>
<event>
 5   0  0.5108810E-06  0.3169901E+04  0.7818609E-02  0.8196812E-01
        2   -1    0    0  501    0  0.00000000000E+00  0.00000000000E+00  0.15188105236E+04  0.15188105236E+04  0.25500000920E-02 0. -1.
       -2   -1    0    0    0  501  0.00000000000E+00  0.00000000000E+00 -0.16539704369E+04  0.16539704369E+04  0.25500000920E-02 0.  1.
    10030    2    1    2    0    0  0.00000000000E+00  0.00000000000E+00 -0.13515991325E+03  0.31727809605E+04  0.31699007589E+04 0.  0.
        1    1    3    3  502    0 -0.17841917179E+03 -0.15551452280E+04  0.18115665550E+03  0.15757943441E+04  0.50400001928E-02 0. -1.
       -1    1    3    3    0  502  0.17841917179E+03  0.15551452280E+04 -0.31631656875E+03  0.15969866164E+04  0.50400001928E-02 0.  1.
</event>
<event>
 5   0  0.5347280E-06  0.3219061E+04  0.7818609E-02  0.8183801E-01
       -2   -1    0    0    0  501  0.00000000000E+00  0.00000000000E+00  0.18779796031E+04  0.18779796031E+04  0.25500000920E-02 0.  1.
        2   -1    0    0  501    0  0.00000000000E+00  0.00000000000E+00 -0.13794551760E+04  0.13794551760E+04  0.25500000920E-02 0. -1.
    10030    2    1    2    0    0  0.00000000000E+00  0.00000000000E+00  0.49852442706E+03  0.32574347791E+04  0.32190611575E+04 0.  0.
        2    1    3    3  502    0 -0.38094515390E+03  0.39090004495E+03  0.17814674985E+04  0.18632091948E+04  0.25500000920E-02 0.  1.
       -2    1    3    3    0  502  0.38094515390E+03 -0.39090004495E+03 -0.12829430714E+04  0.13942255843E+04  0.25500000920E-02 0. -1.
</event>
<event>
 5   0  0.5121624E-06  0.3252819E+04  0.7818609E-02  0.8175005E-01
        2   -1    0    0  501    0  0.00000000000E+00  0.00000000000E+00  0.20990172347E+04  0.20990172347E+04  0.25500000920E-02 0.  1.
       -2   -1    0    0    0  501  0.00000000000E+00  0.00000000000E+00 -0.12602127372E+04  0.12602127372E+04  0.25500000920E-02 0. -1.
    10030    2    1    2    0    0  0.00000000000E+00  0.00000000000E+00  0.83880449754E+03  0.33592299719E+04  0.32528192417E+04 0.  0.
        4    1    3    3  502    0  0.13000029712E+04 -0.35049172718E+03  0.13615824271E+04  0.19148787153E+04  0.12699999809E+01 0.  1.
       -4    1    3    3    0  502 -0.13000029712E+04  0.35049172718E+03 -0.52277792955E+03  0.14443512566E+04  0.12699999809E+01 0. -1.
</event>
<event>
 5   0  0.5373060E-06  0.3166603E+04  0.7818609E-02  0.8197693E-01
        2   -1    0    0  501    0  0.00000000000E+00  0.00000000000E+00  0.22642100781E+04  0.22642100781E+04  0.25500000920E-02 0. -1.
       -2   -1    0    0    0  501  0.00000000000E+00  0.00000000000E+00 -0.11071604055E+04  0.11071604055E+04  0.25500000920E-02 0.  1.
    10030    2    1    2    0    0  0.00000000000E+00  0.00000000000E+00  0.11570496726E+04  0.33713704835E+04  0.31666030683E+04 0.  0.
        5    1    3    3  502    0  0.12929395676E+04 -0.19624767659E+03  0.15287735820E+04  0.20118092929E+04  0.46999998093E+01 0. -1.
       -5    1    3    3    0  502 -0.12929395676E+04  0.19624767659E+03 -0.37172390941E+03  0.13595611906E+04  0.46999998093E+01 0.  1.
</event>
<event>
 5   0  0.5121624E-06  0.2592811E+04  0.7818609E-02  0.8370647E-01
       -2   -1    0    0    0  501  0.00000000000E+00  0.00000000000E+00  0.89073180365E+03  0.89073180365E+03  0.25500000920E-02 0.  1.
        2   -1    0    0  501    0  0.00000000000E+00  0.00000000000E+00 -0.18868390575E+04  0.18868390575E+04  0.25500000920E-02 0. -1.
    10030    2    1    2    0    0  0.00000000000E+00  0.00000000000E+00 -0.99610725383E+03  0.27775708611E+04  0.25928112595E+04 0.  0.
        4    1    3    3  502    0 -0.20071011390E+03  0.31650845400E+03 -0.18275383084E+04  0.18655723070E+04  0.12699999809E+01 0. -1.
       -4    1    3    3    0  502  0.20071011390E+03 -0.31650845400E+03  0.83143105456E+03  0.91199855409E+03  0.12699999809E+01 0.  1.
</event>
<event>
 5   0  0.5108810E-06  0.3223965E+04  0.7818609E-02  0.8182517E-01
        2   -1    0    0  501    0  0.00000000000E+00  0.00000000000E+00  0.25202873166E+04  0.25202873166E+04  0.25500000920E-02 0.  1.
       -2   -1    0    0    0  501  0.00000000000E+00  0.00000000000E+00 -0.10310284664E+04  0.10310284664E+04  0.25500000920E-02 0. -1.
    10030    2    1    2    0    0  0.00000000000E+00  0.00000000000E+00  0.14892588502E+04  0.35513157830E+04  0.32239652398E+04 0.  0.
        1    1    3    3  502    0  0.11875377457E+04  0.88453378644E+03  0.42887437903E+02  0.14813795088E+04  0.50400001928E-02 0. -1.
       -1    1    3    3    0  502 -0.11875377457E+04 -0.88453378644E+03  0.14463714123E+04  0.20699362742E+04  0.50400001928E-02 0.  1.
</event>
<event>
 5   0  0.1969465E-06  0.3241413E+04  0.7818609E-02  0.8177965E-01
       -1   -1    0    0    0  501  0.00000000000E+00  0.00000000000E+00  0.13920752252E+04  0.13920752252E+04  0.50400001928E-02 0.  1.
        1   -1    0    0  501    0  0.00000000000E+00  0.00000000000E+00 -0.18868879768E+04  0.18868879769E+04  0.50400001928E-02 0. -1.
    10030    2    1    2    0    0  0.00000000000E+00  0.00000000000E+00 -0.49481275166E+03  0.32789632021E+04  0.32414132753E+04 0.  0.
        2    1    3    3  502    0 -0.56375511155E+03  0.87163906216E+03 -0.15064594553E+04  0.18294793169E+04  0.25500000920E-02 0. -1.
       -2    1    3    3    0  502  0.56375511155E+03 -0.87163906216E+03  0.10116467036E+04  0.14494838852E+04  0.25500000920E-02 0.  1.
</event>
<event>
 5   0  0.5347280E-06  0.3184976E+04  0.7818609E-02  0.8192796E-01
        2   -1    0    0  501    0  0.00000000000E+00  0.00000000000E+00  0.19643339965E+04  0.19643339965E+04  0.25500000920E-02 0.  1.
       -2   -1    0    0    0  501  0.00000000000E+00  0.00000000000E+00 -0.12910318311E+04  0.12910318311E+04  0.25500000920E-02 0. -1.
    10030    2    1    2    0    0  0.00000000000E+00  0.00000000000E+00  0.67330216538E+03  0.32553658276E+04  0.31849758029E+04 0.  0.
        2    1    3    3  502    0  0.75167380541E+01  0.15898197726E+04  0.43051924797E+03  0.16470975179E+04  0.25500000920E-02 0.  1.
       -2    1    3    3    0  502 -0.75167380541E+01 -0.15898197726E+04  0.24278291741E+03  0.16082683096E+04  0.25500000920E-02 0. -1.
</event>
<event>
 5   0  0.5131083E-06  0.3184061E+04  0.7818609E-02  0.8193039E-01
        2   -1    0    0  501    0  0.00000000000E+00  0.00000000000E+00  0.18388498284E+04  0.18388498284E+04  0.25500000920E-02 0. -1.
       -2   -1    0    0    0  501  0.00000000000E+00  0.00000000000E+00 -0.13783403827E+04  0.13783403827E+04  0.25500000920E-02 0.  1.
    10030    2    1    2    0    0  0.00000000000E+00  0.00000000000E+00  0.46050944571E+03  0.32171902111E+04  0.31840609141E+04 0.  0.
        3    1    3    3  502    0  0.22132331340E+03  0.56642103821E+03 -0.12563607880E+04  0.13958005737E+04  0.10100000352E+00 0.  1.
       -3    1    3    3    0  502 -0.22132331340E+03 -0.56642103821E+03  0.17168702337E+04  0.18213896374E+04  0.10100000352E+00 0. -1.
</event>
<event>
 5   0  0.5373060E-06  0.3167182E+04  0.7818609E-02  0.8197538E-01
       -2   -1    0    0    0  501  0.00000000000E+00  0.00000000000E+00  0.12765853728E+04  0.12765853728E+04  0.25500000920E-02 0. -1.
        2   -1    0    0  501    0  0.00000000000E+00  0.00000000000E+00 -0.19644282497E+04  0.19644282497E+04  0.25500000920E-02 0.  1.
    10030    2    1    2    0    0  0.00000000000E+00  0.00000000000E+00 -0.68784287693E+03  0.32410136226E+04  0.31671819459E+04 0.  0.
        5    1    3    3  502    0  0.85856402397E+03 -0.11159931380E+03 -0.17007844840E+04  0.19084749254E+04  0.46999998093E+01 0.  1.
       -5    1    3    3    0  502 -0.85856402397E+03  0.11159931380E+03  0.10129416070E+04  0.13325386971E+04  0.46999998093E+01 0. -1.
</event>
<event>
 5   0  0.5108810E-06  0.3181645E+04  0.7818609E-02  0.8193682E-01
       -2   -1    0    0    0  501  0.00000000000E+00  0.00000000000E+00  0.12502929334E+04  0.12502929334E+04  0.25500000920E-02 0.  1.
        2   -1    0    0  501    0  0.00000000000E+00  0.00000000000E+00 -0.20240988216E+04  0.20240988216E+04  0.25500000920E-02 0. -1.
    10030    2    1    2    0    0  0.00000000000E+00  0.00000000000E+00 -0.77380588823E+03  0.32743917549E+04  0.31816451424E+04 0.  0.
        1    1    3    3  502    0 -0.12519794610E+04  0.73078196387E+03  0.28734508307E+03  0.14778572483E+04  0.50400001928E-02 0.  1.
       -1    1    3    3    0  502  0.12519794610E+04 -0.73078196387E+03 -0.10611509713E+04  0.17965345066E+04  0.50400001928E-02 0. -1.
</event>
<event>
 5   0  0.1977015E-06  0.3152360E+04  0.7818609E-02  0.8201513E-01
        1   -1    0    0  501    0  0.00000000000E+00  0.00000000000E+00  0.26567565232E+04  0.26567565232E+04  0.50400001928E-02 0. -1.
       -1   -1    0    0    0  501  0.00000000000E+00  0.00000000000E+00 -0.93510395711E+03  0.93510395712E+03  0.50400001928E-02 0.  1.
    10030    2    1    2    0    0  0.00000000000E+00  0.00000000000E+00  0.17216525660E+04  0.35918604803E+04  0.31523600923E+04 0.  0.
        1    1    3    3  502    0  0.63938979834E+03 -0.63352485446E+03  0.23351181791E+04  0.25025886529E+04  0.50400001928E-02 0. -1.
       -1    1    3    3    0  502 -0.63938979834E+03  0.63352485446E+03 -0.61346561305E+03  0.10892718273E+04  0.50400001928E-02 0.  1.
</event>
<event>
 5   0  0.5347280E-06  0.3245267E+04  0.7818609E-02  0.8176963E-01
       -2   -1    0    0    0  501  0.00000000000E+00  0.00000000000E+00  0.25249616377E+04  0.25249616377E+04  0.25500000920E-02 0. -1.
        2   -1    0    0  501    0  0.00000000000E+00  0.00000000000E+00 -0.10427643794E+04  0.10427643794E+04  0.25500000920E-02 0.  1.
    10030    2    1    2    0    0  0.00000000000E+00  0.00000000000E+00  0.14821972583E+04  0.35677260171E+04  0.32452673574E+04 0.  0.
        2    1    3    3  502    0 -0.13293884896E+04  0.72086814413E+03  0.13877776010E+04  0.20525231563E+04  0.25500000920E-02 0. -1.
       -2    1    3    3    0  502  0.13293884896E+04 -0.72086814413E+03  0.94419657332E+02  0.15152028608E+04  0.25500000920E-02 0.  1.
</event>
<event>
 5   0  0.1846850E-06  0.3262390E+04  0.7818609E-02  0.8172532E-01
       -1   -1    0    0    0  501  0.00000000000E+00  0.00000000000E+00  0.18608022019E+04  0.18608022019E+04  0.50400001928E-02 0. -1.
        1   -1    0    0  501    0  0.00000000000E+00  0.00000000000E+00 -0.14299191168E+04  0.14299191168E+04  0.50400001928E-02 0.  1.
    10030    2    1    2    0    0  0.00000000000E+00  0.00000000000E+00  0.43088308509E+03  0.32907213187E+04  0.32623897015E+04 0.  0.
        5    1    3    3  502    0 -0.42691553339E+03 -0.27382853088E+03  0.17792391635E+04  0.18501224359E+04  0.46999998093E+01 0. -1.
       -5    1    3    3    0  502  0.42691553339E+03  0.27382853088E+03 -0.13483560784E+04  0.14405988828E+04  0.46999998093E+01 0.  1.
</event>
<event>
 5   0  0.5373060E-06  0.3187371E+04  0.7818609E-02  0.8192160E-01
       -2   -1    0    0    0  501  0.00000000000E+00  0.00000000000E+00  0.18018358933E+04  0.18018358933E+04  0.25500000920E-02 0. -1.
        2   -1    0    0  501    0  0.00000000000E+00  0.00000000000E+00 -0.14095809955E+04  0.14095809955E+04  0.25500000920E-02 0.  1.
    10030    2    1    2    0    0  0.00000000000E+00  0.00000000000E+00  0.39225489779E+03  0.32114168888E+04  0.31873711000E+04 0.  0.
        5    1    3    3  502    0  0.96901387998E+03 -0.95538280994E+03  0.10318834910E+04  0.17077909246E+04  0.46999998093E+01 0. -1.
       -5    1    3    3    0  502 -0.96901387998E+03  0.95538280994E+03 -0.63962859319E+03  0.15036259642E+04  0.46999998093E+01 0.  1.
</event>
<event>
 5   0  0.1886248E-06  0.3226295E+04  0.7818609E-02  0.8181907E-01
       -1   -1    0    0    0  501  0.00000000000E+00  0.00000000000E+00  0.19293662962E+04  0.19293662962E+04  0.50400001928E-02 0. -1.
        1   -1    0    0  501    0  0.00000000000E+00  0.00000000000E+00 -0.13487565476E+04  0.13487565477E+04  0.50400001928E-02 0.  1.
    10030    2    1    2    0    0  0.00000000000E+00  0.00000000000E+00  0.58060974854E+03  0.32781228438E+04  0.32262953521E+04 0.  0.
        4    1    3    3  502    0  0.31877644661E+03  0.61309675779E+03  0.17713686815E+04  0.19013823067E+04  0.12699999809E+01 0. -1.
       -4    1    3    3    0  502 -0.31877644661E+03 -0.61309675779E+03 -0.11907589330E+04  0.13767405372E+04  0.12699999809E+01 0.  1.
</event>
<event>
 5   0  0.5121624E-06  0.3207510E+04  0.7818609E-02  0.8186837E-01
        2   -1    0    0  501    0  0.00000000000E+00  0.00000000000E+00  0.17946283712E+04  0.17946283712E+04  0.25500000920E-02 0. -1.
       -2   -1    0    0    0  501  0.00000000000E+00  0.00000000000E+00 -0.14331828897E+04  0.14331828897E+04  0.25500000920E-02 0.  1.
    10030    2    1    2    0    0  0.00000000000E+00  0.00000000000E+00  0.36144548145E+03  0.32278112609E+04  0.32075103585E+04 0.  0.
        4    1    3    3  502    0 -0.15031799370E+04 -0.50816212700E+03  0.41511404944E+03  0.16401524189E+04  0.12699999809E+01 0. -1.
       -4    1    3    3    0  502  0.15031799370E+04  0.50816212700E+03 -0.53668567989E+02  0.15876588420E+04  0.12699999809E+01 0.  1.
</event>
<event>
 5   0  0.1977015E-06  0.2357249E+04  0.7818609E-02  0.8455685E-01
       -1   -1    0    0    0  501  0.00000000000E+00  0.00000000000E+00  0.84998774660E+03  0.84998774662E+03  0.50400001928E-02 0. -1.
        1   -1    0    0  501    0  0.00000000000E+00  0.00000000000E+00 -0.16343237050E+04  0.16343237050E+04  0.50400001928E-02 0.  1.
    10030    2    1    2    0    0  0.00000000000E+00  0.00000000000E+00 -0.78433595838E+03  0.24843114516E+04  0.23572485005E+04 0.  0.
        1    1    3    3  502    0  0.91531266987E+03  0.38416523328E+03 -0.10618526212E+04  0.14535856354E+04  0.50400001928E-02 0.  1.
       -1    1    3    3    0  502 -0.91531266987E+03 -0.38416523328E+03  0.27751666284E+03  0.10307258162E+04  0.50400001928E-02 0. -1.
</event>
<event>
 5   0  0.5108810E-06  0.2845241E+04  0.7818609E-02  0.8289359E-01
        2   -1    0    0  501    0  0.00000000000E+00  0.00000000000E+00  0.23185469805E+04  0.23185469805E+04  0.25500000920E-02 0.  1.
       -2   -1    0    0    0  501  0.00000000000E+00  0.00000000000E+00 -0.87289559840E+03  0.87289559840E+03  0.25500000920E-02 0. -1.
    10030    2    1    2    0    0  0.00000000000E+00  0.00000000000E+00  0.14456513821E+04  0.31914425789E+04  0.28452412579E+04 0.  0.
        1    1    3    3  502    0  0.63706343536E+03  0.83191781724E+03  0.18021522961E+04  0.20846318557E+04  0.50400001928E-02 0.  1.
       -1    1    3    3    0  502 -0.63706343536E+03 -0.83191781724E+03 -0.35650091402E+03  0.11068107232E+04  0.50400001928E-02 0. -1.
</event>
<event>
 5   0  0.1886248E-06  0.3254243E+04  0.7818609E-02  0.8174637E-01
        1   -1    0    0  501    0  0.00000000000E+00  0.00000000000E+00  0.20553884989E+04  0.20553884989E+04  0.50400001928E-02 0. -1.
       -1   -1    0    0    0  501  0.00000000000E+00  0.00000000000E+00 -0.12880893860E+04  0.12880893860E+04  0.50400001928E-02 0.  1.
    10030    2    1    2    0    0  0.00000000000E+00  0.00000000000E+00  0.76729911287E+03  0.33434778849E+04  0.32542428364E+04 0.  0.
        4    1    3    3  502    0  0.69660784440E+03 -0.11753190626E+04 -0.52425891420E+03  0.14633818400E+04  0.12699999809E+01 0.  1.
       -4    1    3    3    0  502 -0.69660784440E+03  0.11753190626E+04  0.12915580271E+04  0.18800960449E+04  0.12699999809E+01 0. -1.
</event>
<event>
 5   0  0.5131083E-06  0.3281258E+04  0.7818609E-02  0.8167681E-01
        2   -1    0    0  501    0  0.00000000000E+00  0.00000000000E+00  0.16358967472E+04  0.16358967472E+04  0.25500000920E-02 0.  1.
       -2   -1    0    0    0  501  0.00000000000E+00  0.00000000000E+00 -0.16453752381E+04  0.16453752381E+04  0.25500000920E-02 0. -1.
    10030    2    1    2    0    0  0.00000000000E+00  0.00000000000E+00 -0.94784908479E+01  0.32812719853E+04  0.32812582952E+04 0.  0.
        3    1    3    3  502    0 -0.54279369475E+03  0.13126532480E+04 -0.82570579118E+03  0.16430074888E+04  0.10100000352E+00 0. -1.
       -3    1    3    3    0  502  0.54279369475E+03 -0.13126532480E+04  0.81622730033E+03  0.16382644965E+04  0.10100000352E+00 0.  1.
</event>
<event>
 5   0  0.1881144E-06  0.2971615E+04  0.7818609E-02  0.8251883E-01
       -1   -1    0    0    0  501  0.00000000000E+00  0.00000000000E+00  0.13524137269E+04  0.13524137269E+04  0.50400001928E-02 0. -1.
        1   -1    0    0  501    0  0.00000000000E+00  0.00000000000E+00 -0.16323583654E+04  0.16323583654E+04  0.50400001928E-02 0.  1.
    10030    2    1    2    0    0  0.00000000000E+00  0.00000000000E+00 -0.27994463848E+03  0.29847720924E+04  0.29716149553E+04 0.  0.
        3    1    3    3  502    0 -0.81825162431E+03 -0.36304817717E+03  0.10511467598E+04  0.13806698449E+04  0.10100000352E+00 0. -1.
       -3    1    3    3    0  502  0.81825162431E+03  0.36304817717E+03 -0.13310913983E+04  0.16041022475E+04  0.10100000352E+00 0.  1.
</event>
<event>
 5   0  0.5108810E-06  0.3321384E+04  0.7818609E-02  0.8157475E-01
       -2   -1    0    0    0  501  0.00000000000E+00  0.00000000000E+00  0.13586452253E+04  0.13586452253E+04  0.25500000920E-02 0.  1.
        2   -1    0    0  501    0  0.00000000000E+00  0.00000000000E+00 -0.20298884010E+04  0.20298884010E+04  0.25500000920E-02 0. -1.
    10030    2    1    2    0    0  0.00000000000E+00  0.00000000000E+00 -0.67124317574E+03  0.33885336263E+04  0.33213841595E+04 0.  0.
        1    1    3    3  502    0 -0.10990351133E+04  0.39932559656E+03  0.86743875449E+03  0.14559495544E+04  0.50400001928E-02 0.  1.
       -1    1    3    3    0  502  0.10990351133E+04 -0.39932559656E+03 -0.15386819302E+04  0.19325840718E+04  0.50400001928E-02 0. -1.
</event>
<event>
 5   0  0.1886248E-06  0.2105645E+04  0.7818609E-02  0.8558761E-01
        1   -1    0    0  501    0  0.00000000000E+00  0.00000000000E+00  0.16692709805E+04  0.16692709805E+04  0.50400001928E-02 0.  1.
       -1   -1    0    0    0  501  0.00000000000E+00  0.00000000000E+00 -0.66402367012E+03  0.66402367014E+03  0.50400001928E-02 0. -1.
    10030    2    1    2    0    0  0.00000000000E+00  0.00000000000E+00  0.10052473104E+04  0.23332946506E+04  0.21056452151E+04 0.  0.
        4    1    3    3  502    0  0.73810143809E+03  0.59017114024E+03  0.10168387823E+04  0.13881853010E+04  0.12699999809E+01 0.  1.
       -4    1    3    3    0  502 -0.73810143809E+03 -0.59017114024E+03 -0.11591471985E+02  0.94510934965E+03  0.12699999809E+01 0. -1.
</event>
<event>
 5   0  0.5131083E-06  0.3219277E+04  0.7818609E-02  0.8183745E-01
        2   -1    0    0  501    0  0.00000000000E+00  0.00000000000E+00  0.23837633251E+04  0.23837633251E+04  0.25500000920E-02 0.  1.
       -2   -1    0    0    0  501  0.00000000000E+00  0.00000000000E+00 -0.10869102788E+04  0.10869102788E+04  0.25500000920E-02 0. -1.
    10030    2    1    2    0    0  0.00000000000E+00  0.00000000000E+00  0.12968530463E+04  0.34706736039E+04  0.32192774719E+04 0.  0.
        3    1    3    3  502    0 -0.55115108590E+03 -0.36838961319E+03  0.22297540875E+04  0.23262161824E+04  0.10100000352E+00 0.  1.
       -3    1    3    3    0  502  0.55115108590E+03  0.36838961319E+03 -0.93290104122E+03  0.11444574215E+04  0.10100000352E+00 0. -1.
</event>
<event>
 5   0  0.1886248E-06  0.3035127E+04  0.7818609E-02  0.8233771E-01
       -1   -1    0    0    0  501  0.00000000000E+00  0.00000000000E+00  0.13669676299E+04  0.13669676299E+04  0.50400001928E-02 0.  1.
        1   -1    0    0  501    0  0.00000000000E+00  0.00000000000E+00 -0.16847500690E+04  0.16847500690E+04  0.50400001928E-02 0. -1.
    10030    2    1    2    0    0  0.00000000000E+00  0.00000000000E+00 -0.31778243915E+03  0.30517176989E+04  0.30351268894E+04 0.  0.
        4    1    3    3  502    0  0.43374479420E+03  0.10379626923E+04  0.86525210898E+03  0.14192124302E+04  0.12699999809E+01 0.  1.
       -4    1    3    3    0  502 -0.43374479420E+03 -0.10379626923E+04 -0.11830345481E+04  0.16325052686E+04  0.12699999809E+01 0. -1.
</event>
<event>
 5   0  0.1729500E-06  0.2559470E+04  0.7818609E-02  0.8382100E-01
       -3   -1    0    0    0  501  0.00000000000E+00  0.00000000000E+00  0.12974348002E+04  0.12974348041E+04  0.10100000352E+00 0.  1.
        3   -1    0    0  501    0  0.00000000000E+00  0.00000000000E+00 -0.12622764363E+04  0.12622764403E+04  0.10100000352E+00 0. -1.
    10030    2    1    2    0    0  0.00000000000E+00  0.00000000000E+00  0.35158363891E+02  0.25597112444E+04  0.25594697779E+04 0.  0.
        4    1    3    3  502    0 -0.40422915589E+00 -0.91063615612E+03 -0.88165046194E+03  0.12675044466E+04  0.12699999809E+01 0. -1.
       -4    1    3    3    0  502  0.40422915589E+00  0.91063615612E+03  0.91680882583E+03  0.12922067978E+04  0.12699999809E+01 0.  1.
</event>
<event>
 5   0  0.1886248E-06  0.3157128E+04  0.7818609E-02  0.8200232E-01
       -1   -1    0    0    0  501  0.00000000000E+00  0.00000000000E+00  0.22205886218E+04  0.22205886218E+04  0.50400001928E-02 0. -1.
        1   -1    0    0  501    0  0.00000000000E+00  0.00000000000E+00 -0.11221640874E+04  0.11221640874E+04  0.50400001928E-02 0.  1.
    10030    2    1    2    0    0  0.00000000000E+00  0.00000000000E+00  0.10984245344E+04  0.33427527093E+04  0.31571283182E+04 0.  0.
        4    1    3    3  502    0 -0.52979134851E+03  0.11134665938E+04 -0.49431981095E+03  0.13284729643E+04  0.12699999809E+01 0.  1.
       -4    1    3    3    0  502  0.52979134851E+03 -0.11134665938E+04  0.15927443453E+04  0.20142797450E+04  0.12699999809E+01 0. -1.
</event>
<event>
 5   0  0.1846850E-06  0.3145868E+04  0.7818609E-02  0.8203261E-01
        1   -1    0    0  501    0  0.00000000000E+00  0.00000000000E+00  0.83302097310E+03  0.83302097311E+03  0.50400001928E-02 0.  1.
       -1   -1    0    0    0  501  0.00000000000E+00  0.00000000000E+00 -0.29700582919E+04  0.29700582919E+04  0.50400001928E-02 0. -1.
    10030    2    1    2    0    0  0.00000000000E+00  0.00000000000E+00 -0.21370373188E+04  0.38030792650E+04  0.31458676695E+04 0.  0.
        5    1    3    3  502    0  0.33693373211E+03 -0.42147113310E+03  0.71762126730E+03  0.89786671013E+03  0.46999998093E+01 0.  1.
       -5    1    3    3    0  502 -0.33693373211E+03  0.42147113310E+03 -0.28546585861E+04  0.29052125549E+04  0.46999998093E+01 0. -1.
</event>
<event>
 5   0  0.5347280E-06  0.2645693E+04  0.7818609E-02  0.8352844E-01
       -2   -1    0    0    0  501  0.00000000000E+00  0.00000000000E+00  0.17759867920E+04  0.17759867920E+04  0.25500000920E-02 0.  1.
        2   -1    0    0  501    0  0.00000000000E+00  0.00000000000E+00 -0.98532430153E+03  0.98532430154E+03  0.25500000920E-02 0. -1.
    10030    2    1    2    0    0  0.00000000000E+00  0.00000000000E+00  0.79066249047E+03  0.27613110935E+04  0.26456930626E+04 0.  0.
        2    1    3    3  502    0  0.10413161988E+04  0.54527538941E+03 -0.23803094373E+03  0.11993012159E+04  0.25500000920E-02 0. -1.
       -2    1    3    3    0  502 -0.10413161988E+04 -0.54527538941E+03  0.10286934342E+04  0.15620098776E+04  0.25500000920E-02 0.  1.
</event>
<event>
 5   0  0.5121624E-06  0.3238547E+04  0.7818609E-02  0.8178711E-01
        2   -1    0    0  501    0  0.00000000000E+00  0.00000000000E+00  0.22516121911E+04  0.22516121911E+04  0.25500000920E-02 0. -1.
       -2   -1    0    0    0  501  0.00000000000E+00  0.00000000000E+00 -0.11645196805E+04  0.11645196805E+04  0.25500000920E-02 0.  1.
    10030    2    1    2    0    0  0.00000000000E+00  0.00000000000E+00  0.10870925105E+04  0.34161318716E+04  0.32385470257E+04 0.  0.
        4    1    3    3  502    0 -0.40519304737E+03  0.13149725160E+04  0.14440013803E+04  0.19946116721E+04  0.12699999809E+01 0. -1.
       -4    1    3    3    0  502  0.40519304737E+03 -0.13149725160E+04 -0.35690886974E+03  0.14215201995E+04  0.12699999809E+01 0.  1.
</event>
<event>
 5   0  0.5131083E-06  0.3198980E+04  0.7818609E-02  0.8189087E-01
        2   -1    0    0  501    0  0.00000000000E+00  0.00000000000E+00  0.15709129183E+04  0.15709129183E+04  0.25500000920E-02 0.  1.
       -2   -1    0    0    0  501  0.00000000000E+00  0.00000000000E+00 -0.16285868651E+04  0.16285868651E+04  0.25500000920E-02 0. -1.
    10030    2    1    2    0    0  0.00000000000E+00  0.00000000000E+00 -0.57673946819E+02  0.31994997833E+04  0.31989799279E+04 0.  0.
        3    1    3    3  502    0  0.51827902747E+03  0.13333963394E+04  0.68668769059E+03  0.15868518969E+04  0.10100000352E+00 0.  1.
       -3    1    3    3    0  502 -0.51827902747E+03 -0.13333963394E+04 -0.74436163740E+03  0.16126478864E+04  0.10100000352E+00 0. -1.
</event>
<event>
 5   0  0.5373060E-06  0.3197586E+04  0.7818609E-02  0.8189455E-01
        2   -1    0    0  501    0  0.00000000000E+00  0.00000000000E+00  0.14504813570E+04  0.14504813570E+04  0.25500000920E-02 0.  1.
       -2   -1    0    0    0  501  0.00000000000E+00  0.00000000000E+00 -0.17622700384E+04  0.17622700384E+04  0.25500000920E-02 0. -1.
    10030    2    1    2    0    0  0.00000000000E+00  0.00000000000E+00 -0.31178868140E+03  0.32127513954E+04  0.31975864877E+04 0.  0.
        5    1    3    3  502    0 -0.10473152065E+04  0.44955866250E+03 -0.12824369250E+04  0.17157035552E+04  0.46999998093E+01 0. -1.
       -5    1    3    3    0  502  0.10473152065E+04 -0.44955866250E+03  0.97064824364E+03  0.14970478401E+04  0.46999998093E+01 0.  1.
</event>
<event>
 5   0  0.1886248E-06  0.3012696E+04  0.7818609E-02  0.8240115E-01
       -1   -1    0    0    0  501  0.00000000000E+00  0.00000000000E+00  0.18404663099E+04  0.18404663099E+04  0.50400001928E-02 0.  1.
        1   -1    0    0  501    0  0.00000000000E+00  0.00000000000E+00 -0.12328858752E+04  0.12328858752E+04  0.50400001928E-02 0. -1.
    10030    2    1    2    0    0  0.00000000000E+00  0.00000000000E+00  0.60758043466E+03  0.30733521851E+04  0.30126964117E+04 0.  0.
        4    1    3    3  502    0 -0.57886899475E+03  0.13648014935E+04  0.31372818435E+02  0.14828210601E+04  0.12699999809E+01 0.  1.
       -4    1    3    3    0  502  0.57886899475E+03 -0.13648014935E+04  0.57620761623E+03  0.15905311250E+04  0.12699999809E+01 0. -1.
</event>
<event>
 5   0  0.1977015E-06  0.3160108E+04  0.7818609E-02  0.8199433E-01
       -1   -1    0    0    0  501  0.00000000000E+00  0.00000000000E+00  0.17110744306E+04  0.17110744306E+04  0.50400001928E-02 0. -1.
        1   -1    0    0  501    0  0.00000000000E+00  0.00000000000E+00 -0.14590657546E+04  0.14590657547E+04  0.50400001928E-02 0.  1.
    10030    2    1    2    0    0  0.00000000000E+00  0.00000000000E+00  0.25200867591E+03  0.31701401852E+04  0.31601076597E+04 0.  0.
        1    1    3    3  502    0 -0.37419513492E+03 -0.26645267185E+03  0.16426078407E+04  0.17056317139E+04  0.50400001928E-02 0. -1.
       -1    1    3    3    0  502  0.37419513492E+03  0.26645267185E+03 -0.13905991648E+04  0.14645084713E+04  0.50400001928E-02 0.  1.
</event>
<event>
 5   0  0.5131083E-06  0.3096820E+04  0.7818609E-02  0.8216611E-01
       -2   -1    0    0    0  501  0.00000000000E+00  0.00000000000E+00  0.85458084736E+03  0.85458084737E+03  0.25500000920E-02 0. -1.
        2   -1    0    0  501    0  0.00000000000E+00  0.00000000000E+00 -0.28055545338E+04  0.28055545338E+04  0.25500000920E-02 0.  1.
    10030    2    1    2    0    0  0.00000000000E+00  0.00000000000E+00 -0.19509736865E+04  0.36601353812E+04  0.30968197693E+04 0.  0.
        3    1    3    3  502    0 -0.33594249191E+03  0.39066497330E+03 -0.27012637997E+04  0.27499641097E+04  0.10100000352E+00 0.  1.
       -3    1    3    3    0  502  0.33594249191E+03 -0.39066497330E+03  0.75029011320E+03  0.91017127146E+03  0.10100000352E+00 0. -1.
</event>
<event>
 5   0  0.5108810E-06  0.3130338E+04  0.7818609E-02  0.8207461E-01
        2   -1    0    0  501    0  0.00000000000E+00  0.00000000000E+00  0.17878828507E+04  0.17878828507E+04  0.25500000920E-02 0. -1.
       -2   -1    0    0    0  501  0.00000000000E+00  0.00000000000E+00 -0.13701985979E+04  0.13701985979E+04  0.25500000920E-02 0.  1.
    10030    2    1    2    0    0  0.00000000000E+00  0.00000000000E+00  0.41768425283E+03  0.31580814486E+04  0.31303383685E+04 0.  0.
        1    1    3    3  502    0  0.59193474365E+03  0.63389594204E+02 -0.12515190819E+04  0.13858950154E+04  0.50400001928E-02 0.  1.
       -1    1    3    3    0  502 -0.59193474365E+03 -0.63389594204E+02  0.16692033347E+04  0.17721864332E+04  0.50400001928E-02 0. -1.
</event>
<event>
 5   0  0.5131083E-06  0.3288745E+04  0.7818609E-02  0.8165765E-01
        2   -1    0    0  501    0  0.00000000000E+00  0.00000000000E+00  0.14419638860E+04  0.14419638860E+04  0.25500000920E-02 0. -1.
       -2   -1    0    0    0  501  0.00000000000E+00  0.00000000000E+00 -0.18751934416E+04  0.18751934416E+04  0.25500000920E-02 0.  1.
    10030    2    1    2    0    0  0.00000000000E+00  0.00000000000E+00 -0.43322955562E+03  0.33171573275E+04  0.32887451844E+04 0.  0.
        3    1    3    3  502    0  0.10172353542E+04 -0.12592907561E+04 -0.50786576672E+03  0.16966168163E+04  0.10100000352E+00 0.  1.
       -3    1    3    3    0  502 -0.10172353542E+04  0.12592907561E+04  0.74636211093E+02  0.16205405112E+04  0.10100000352E+00 0. -1.
</event>
<event>
 5   0  0.1881144E-06  0.2250576E+04  0.7818609E-02  0.8497667E-01
        1   -1    0    0  501    0  0.00000000000E+00  0.00000000000E+00  0.16143332680E+04  0.16143332681E+04  0.50400001928E-02 0. -1.
       -1   -1    0    0    0  501  0.00000000000E+00  0.00000000000E+00 -0.78439354666E+03  0.78439354668E+03  0.50400001928E-02 0.  1.
    10030    2    1    2    0    0  0.00000000000E+00  0.00000000000E+00  0.82993972139E+03  0.23987268147E+04  0.22505755687E+04 0.  0.
        3    1    3    3  502    0 -0.42174352946E+03  0.88569505214E+03 -0.17263818458E+03  0.99605586339E+03  0.10100000352E+00 0.  1.
       -3    1    3    3    0  502  0.42174352946E+03 -0.88569505214E+03  0.10025779060E+04  0.14026709513E+04  0.10100000352E+00 0. -1.
</event>
<event>
 5   0  0.5347280E-06  0.3208912E+04  0.7818609E-02  0.8186467E-01
        2   -1    0    0  501    0  0.00000000000E+00  0.00000000000E+00  0.27894363837E+04  0.27894363837E+04  0.25500000920E-02 0. -1.
       -2   -1    0    0    0  501  0.00000000000E+00  0.00000000000E+00 -0.92286725824E+03  0.92286725825E+03  0.25500000920E-02 0.  1.
    10030    2    1    2    0    0  0.00000000000E+00  0.00000000000E+00  0.18665691255E+04  0.37123036420E+04  0.32089122814E+04 0.  0.
        2    1    3    3  502    0 -0.40794681478E+03 -0.31924064461E+03 -0.82346580752E+03  0.97284691962E+03  0.25500000920E-02 0.  1.
       -2    1    3    3    0  502  0.40794681478E+03  0.31924064461E+03  0.26900349330E+04  0.27394567223E+04  0.25500000920E-02 0. -1.
</event>
<event>
 5   0  0.1977015E-06  0.2986282E+04  0.7818609E-02  0.8247659E-01
       -1   -1    0    0    0  501  0.00000000000E+00  0.00000000000E+00  0.18527026672E+04  0.18527026672E+04  0.50400001928E-02 0. -1.
        1   -1    0    0  501    0  0.00000000000E+00  0.00000000000E+00 -0.12033613361E+04  0.12033613361E+04  0.50400001928E-02 0.  1.
    10030    2    1    2    0    0  0.00000000000E+00  0.00000000000E+00  0.64934133115E+03  0.30560640033E+04  0.29862824762E+04 0.  0.
        1    1    3    3  502    0 -0.34289238562E+03 -0.14307238577E+04  0.58542822608E+03  0.15834368169E+04  0.50400001928E-02 0. -1.
       -1    1    3    3    0  502  0.34289238562E+03  0.14307238577E+04  0.63913105069E+02  0.14726271864E+04  0.50400001928E-02 0.  1.
</event>
<event>
 5   0  0.5131083E-06  0.3437799E+04  0.7818609E-02  0.8128691E-01
       -2   -1    0    0    0  501  0.00000000000E+00  0.00000000000E+00  0.16853739355E+04  0.16853739355E+04  0.25500000920E-02 0. -1.
        2   -1    0    0  501    0  0.00000000000E+00  0.00000000000E+00 -0.17530919103E+04  0.17530919104E+04  0.25500000920E-02 0.  1.
    10030    2    1    2    0    0  0.00000000000E+00  0.00000000000E+00 -0.67717974881E+02  0.34384658458E+04  0.34377989541E+04 0.  0.
        3    1    3    3  502    0  0.12013329297E+04 -0.93148432743E+03 -0.83635591961E+03  0.17350374909E+04  0.10100000352E+00 0.  1.
       -3    1    3    3    0  502 -0.12013329297E+04  0.93148432743E+03  0.76863794473E+03  0.17034283550E+04  0.10100000352E+00 0. -1.
</event>
<event>
 5   0  0.5347280E-06  0.3196366E+04  0.7818609E-02  0.8189778E-01
       -2   -1    0    0    0  501  0.00000000000E+00  0.00000000000E+00  0.12114562177E+04  0.12114562177E+04  0.25500000920E-02 0. -1.
        2   -1    0    0  501    0  0.00000000000E+00  0.00000000000E+00 -0.21083622520E+04  0.21083622520E+04  0.25500000920E-02 0.  1.
    10030    2    1    2    0    0  0.00000000000E+00  0.00000000000E+00 -0.89690603431E+03  0.33198184698E+04  0.31963657860E+04 0.  0.
        2    1    3    3  502    0 -0.17267086089E+02  0.13072984970E+04 -0.14031169318E+04  0.19178281041E+04  0.25500000920E-02 0.  1.
       -2    1    3    3    0  502  0.17267086089E+02 -0.13072984970E+04  0.50621089750E+03  0.14019903656E+04  0.25500000920E-02 0. -1.
</event>
<event>
 5   0  0.1977015E-06  0.2029693E+04  0.7818609E-02  0.8592863E-01
       -1   -1    0    0    0  501  0.00000000000E+00  0.00000000000E+00  0.44740300572E+03  0.44740300575E+03  0.50400001928E-02 0.  1.
        1   -1    0    0  501    0  0.00000000000E+00  0.00000000000E+00 -0.23019806305E+04  0.23019806305E+04  0.50400001928E-02 0. -1.
    10030    2    1    2    0    0  0.00000000000E+00  0.00000000000E+00 -0.18545776247E+04  0.27493836362E+04  0.20296926400E+04 0.  0.
        1    1    3    3  502    0 -0.11016678745E+01 -0.22668411514E+03  0.41266949334E+03  0.47083225515E+03  0.50400001928E-02 0.  1.
       -1    1    3    3    0  502  0.11016678745E+01  0.22668411514E+03 -0.22672471181E+04  0.22785513811E+04  0.50400001928E-02 0. -1.
</event>
<event>
 5   0  0.5373060E-06  0.2799403E+04  0.7818609E-02  0.8303454E-01
        2   -1    0    0  501    0  0.00000000000E+00  0.00000000000E+00  0.18952646836E+04  0.18952646836E+04  0.25500000920E-02 0.  1.
       -2   -1    0    0    0  501  0.00000000000E+00  0.00000000000E+00 -0.10337154208E+04  0.10337154208E+04  0.25500000920E-02 0. -1.
    10030    2    1    2    0    0  0.00000000000E+00  0.00000000000E+00  0.86154926285E+03  0.29289801044E+04  0.27994030291E+04 0.  0.
        5    1    3    3  502    0  0.38053853408E+03  0.10510211553E+04 -0.45064856994E+03  0.12052224975E+04  0.46999998093E+01 0. -1.
       -5    1    3    3    0  502 -0.38053853408E+03 -0.10510211553E+04  0.13121978328E+04  0.17237576069E+04  0.46999998093E+01 0.  1.
</event>
<event>
 5   0  0.5347280E-06  0.3206198E+04  0.7818609E-02  0.8187182E-01
       -2   -1    0    0    0  501  0.00000000000E+00  0.00000000000E+00  0.22272642455E+04  0.22272642455E+04  0.25500000920E-02 0. -1.
        2   -1    0    0  501    0  0.00000000000E+00  0.00000000000E+00 -0.11538490037E+04  0.11538490037E+04  0.25500000920E-02 0.  1.
    10030    2    1    2    0    0  0.00000000000E+00  0.00000000000E+00  0.10734152418E+04  0.33811132492E+04  0.32061981415E+04 0.  0.
        2    1    3    3  502    0 -0.38189001509E+03  0.15211265957E+04  0.88687798791E+03  0.18017265800E+04  0.25500000920E-02 0. -1.
       -2    1    3    3    0  502  0.38189001509E+03 -0.15211265957E+04  0.18653725391E+03  0.15793866692E+04  0.25500000920E-02 0.  1.
</event>
<event>
 5   0  0.5373060E-06  0.3268213E+04  0.7818609E-02  0.8171031E-01
       -2   -1    0    0    0  501  0.00000000000E+00  0.00000000000E+00  0.14653120734E+04  0.14653120734E+04  0.25500000920E-02 0. -1.
        2   -1    0    0  501    0  0.00000000000E+00  0.00000000000E+00 -0.18223448671E+04  0.18223448671E+04  0.25500000920E-02 0.  1.
    10030    2    1    2    0    0  0.00000000000E+00  0.00000000000E+00 -0.35703279370E+03  0.32876569405E+04  0.32682129280E+04 0.  0.
        5    1    3    3  502    0 -0.66369447654E+03 -0.87724361507E+03 -0.13941075923E+04  0.17758391783E+04  0.46999998093E+01 0.  1.
       -5    1    3    3    0  502  0.66369447654E+03  0.87724361507E+03  0.10370747986E+04  0.15118177622E+04  0.46999998093E+01 0. -1.
</event>
<event>
 5   0  0.1977015E-06  0.3141084E+04  0.7818609E-02  0.8204552E-01
       -1   -1    0    0    0  501  0.00000000000E+00  0.00000000000E+00  0.13544614491E+04  0.13544614492E+04  0.50400001928E-02 0. -1.
        1   -1    0    0  501    0  0.00000000000E+00  0.00000000000E+00 -0.18210939224E+04  0.18210939224E+04  0.50400001928E-02 0.  1.
    10030    2    1    2    0    0  0.00000000000E+00  0.00000000000E+00 -0.46663247326E+03  0.31755553716E+04  0.31410835794E+04 0.  0.
        1    1    3    3  502    0 -0.50464475268E+03 -0.10871380673E+04 -0.12593761615E+04  0.17385522195E+04  0.50400001928E-02 0.  1.
       -1    1    3    3    0  502  0.50464475268E+03  0.10871380673E+04  0.79274368821E+03  0.14370031521E+04  0.50400001928E-02 0. -1.
</event>
<event>
 5   0  0.5121624E-06  0.3322944E+04  0.7818609E-02  0.8157082E-01
        2   -1    0    0  501    0  0.00000000000E+00  0.00000000000E+00  0.23835737606E+04  0.23835737606E+04  0.25500000920E-02 0. -1.
       -2   -1    0    0    0  501  0.00000000000E+00  0.00000000000E+00 -0.11581304851E+04  0.11581304851E+04  0.25500000920E-02 0.  1.
    10030    2    1    2    0    0  0.00000000000E+00  0.00000000000E+00  0.12254432755E+04  0.35417042457E+04  0.33229441377E+04 0.  0.
        4    1    3    3  502    0  0.39267922602E+02 -0.32840926845E+03  0.23481302565E+04  0.23713101720E+04  0.12699999809E+01 0. -1.
       -4    1    3    3    0  502 -0.39267922602E+02  0.32840926845E+03 -0.11226869811E+04  0.11703940737E+04  0.12699999809E+01 0.  1.
</event>
<event>
 5   0  0.5131083E-06  0.3198248E+04  0.7818609E-02  0.8189280E-01
        2   -1    0    0  501    0  0.00000000000E+00  0.00000000000E+00  0.26534715998E+04  0.26534715998E+04  0.25500000920E-02 0. -1.
       -2   -1    0    0    0  501  0.00000000000E+00  0.00000000000E+00 -0.96371769590E+03  0.96371769591E+03  0.25500000920E-02 0.  1.
    10030    2    1    2    0    0  0.00000000000E+00  0.00000000000E+00  0.16897539039E+04  0.36171892957E+04  0.31982479806E+04 0.  0.
        3    1    3    3  502    0 -0.66221260705E+03  0.30610619392E+03 -0.76453975476E+03  0.10567627859E+04  0.10100000352E+00 0.  1.
       -3    1    3    3    0  502  0.66221260705E+03 -0.30610619392E+03  0.24542936587E+04  0.25604265098E+04  0.10100000352E+00 0. -1.
</event>
<event>
 5   0  0.5373060E-06  0.3222979E+04  0.7818609E-02  0.8182775E-01
        2   -1    0    0  501    0  0.00000000000E+00  0.00000000000E+00  0.14546620581E+04  0.14546620581E+04  0.25500000920E-02 0.  1.
       -2   -1    0    0    0  501  0.00000000000E+00  0.00000000000E+00 -0.17852250919E+04  0.17852250919E+04  0.25500000920E-02 0. -1.
    10030    2    1    2    0    0  0.00000000000E+00  0.00000000000E+00 -0.33056303385E+03  0.32398871500E+04  0.32229794951E+04 0.  0.
        5    1    3    3  502    0 -0.70419480459E+03  0.67130030015E+03 -0.14566774346E+04  0.17517036434E+04  0.46999998093E+01 0. -1.
       -5    1    3    3    0  502  0.70419480459E+03 -0.67130030015E+03  0.11261144008E+04  0.14881835066E+04  0.46999998093E+01 0.  1.
</event>
<event>
 5   0  0.5131083E-06  0.3059096E+04  0.7818609E-02  0.8227054E-01
        2   -1    0    0  501    0  0.00000000000E+00  0.00000000000E+00  0.10363119018E+04  0.10363119018E+04  0.25500000920E-02 0. -1.
       -2   -1    0    0    0  501  0.00000000000E+00  0.00000000000E+00 -0.22575417186E+04  0.22575417186E+04  0.25500000920E-02 0.  1.
    10030    2    1    2    0    0  0.00000000000E+00  0.00000000000E+00 -0.12212298168E+04  0.32938536204E+04  0.30590961749E+04 0.  0.
        3    1    3    3  502    0  0.36003356765E+03 -0.14855950129E+04 -0.55262435174E+03  0.16254262200E+04  0.10100000352E+00 0. -1.
       -3    1    3    3    0  502 -0.36003356765E+03  0.14855950129E+04 -0.66860546503E+03  0.16684274004E+04  0.10100000352E+00 0.  1.
</event>
<event>
 5   0  0.1881144E-06  0.3104982E+04  0.7818609E-02  0.8214372E-01
       -1   -1    0    0    0  501  0.00000000000E+00  0.00000000000E+00  0.10911280460E+04  0.10911280460E+04  0.50400001928E-02 0.  1.
        1   -1    0    0  501    0  0.00000000000E+00  0.00000000000E+00 -0.22089321221E+04  0.22089321221E+04  0.50400001928E-02 0. -1.
    10030    2    1    2    0    0  0.00000000000E+00  0.00000000000E+00 -0.11178040762E+04  0.33000601681E+04  0.31049816683E+04 0.  0.
        3    1    3    3  502    0  0.12045797356E+04  0.67051541751E+03  0.19982921481E+03  0.13930308646E+04  0.10100000352E+00 0.  1.
       -3    1    3    3    0  502 -0.12045797356E+04 -0.67051541751E+03 -0.13176332910E+04  0.19070293035E+04  0.10100000352E+00 0. -1.
</event>
<event>
 5   0  0.1881144E-06  0.2898455E+04  0.7818609E-02  0.8273337E-01
       -1   -1    0    0    0  501  0.00000000000E+00  0.00000000000E+00  0.13046861233E+04  0.13046861233E+04  0.50400001928E-02 0.  1.
        1   -1    0    0  501    0  0.00000000000E+00  0.00000000000E+00 -0.16097819443E+04  0.16097819443E+04  0.50400001928E-02 0. -1.
    10030    2    1    2    0    0  0.00000000000E+00  0.00000000000E+00 -0.30509582100E+03  0.29144680676E+04  0.28984548741E+04 0.  0.
        3    1    3    3  502    0  0.14202978588E+04  0.23538768919E+03 -0.31961874897E+03  0.14747235425E+04  0.10100000352E+00 0. -1.
       -3    1    3    3    0  502 -0.14202978588E+04 -0.23538768919E+03  0.14522927967E+02  0.14397445251E+04  0.10100000352E+00 0.  1.
</event>
<event>
 5   0  0.5121624E-06  0.3102559E+04  0.7818609E-02  0.8215036E-01
       -2   -1    0    0    0  501  0.00000000000E+00  0.00000000000E+00  0.12273343275E+04  0.12273343275E+04  0.25500000920E-02 0.  1.
        2   -1    0    0  501    0  0.00000000000E+00  0.00000000000E+00 -0.19607270432E+04  0.19607270432E+04  0.25500000920E-02 0. -1.
    10030    2    1    2    0    0  0.00000000000E+00  0.00000000000E+00 -0.73339271571E+03  0.31880613706E+04  0.31025586904E+04 0.  0.
        4    1    3    3  502    0  0.11737177674E+04 -0.71304816095E+03 -0.11079750821E+04  0.17645570189E+04  0.12699999809E+01 0. -1.
       -4    1    3    3    0  502 -0.11737177674E+04  0.71304816095E+03  0.37458236639E+03  0.14235043518E+04  0.12699999809E+01 0.  1.
</event>
<event>
 5   0  0.1846850E-06  0.3206067E+04  0.7818609E-02  0.8187217E-01
       -1   -1    0    0    0  501  0.00000000000E+00  0.00000000000E+00  0.11678015044E+04  0.11678015044E+04  0.50400001928E-02 0.  1.
        1   -1    0    0  501    0  0.00000000000E+00  0.00000000000E+00 -0.22004739378E+04  0.22004739378E+04  0.50400001928E-02 0. -1.
    10030    2    1    2    0    0  0.00000000000E+00  0.00000000000E+00 -0.10326724334E+04  0.33682754422E+04  0.32060672326E+04 0.  0.
        5    1    3    3  502    0 -0.14162990970E+04  0.15384677825E+03 -0.12884498077E+04  0.19208583915E+04  0.46999998093E+01 0.  1.
       -5    1    3    3    0  502  0.14162990970E+04 -0.15384677825E+03  0.25577737431E+03  0.14474170507E+04  0.46999998093E+01 0. -1.
</event>
<event>
 5   0  0.1881144E-06  0.3211248E+04  0.7818609E-02  0.8185853E-01
        1   -1    0    0  501    0  0.00000000000E+00  0.00000000000E+00  0.14794922812E+04  0.14794922812E+04  0.50400001928E-02 0. -1.
       -1   -1    0    0    0  501  0.00000000000E+00  0.00000000000E+00 -0.17425091947E+04  0.17425091947E+04  0.50400001928E-02 0.  1.
    10030    2    1    2    0    0  0.00000000000E+00  0.00000000000E+00 -0.26301691348E+03  0.32220014759E+04  0.32112482952E+04 0.  0.
        3    1    3    3  502    0  0.91417105876E+03  0.12582108698E+04  0.26885853248E+03  0.15783181676E+04  0.10100000352E+00 0. -1.
       -3    1    3    3    0  502 -0.91417105876E+03 -0.12582108698E+04 -0.53187544596E+03  0.16436833082E+04  0.10100000352E+00 0.  1.
</event>
<event>
 5   0  0.1729500E-06  0.3204998E+04  0.7818609E-02  0.8187499E-01
        3   -1    0    0  501    0  0.00000000000E+00  0.00000000000E+00  0.25423685254E+04  0.25423685274E+04  0.10100000352E+00 0. -1.
       -3   -1    0    0    0  501  0.00000000000E+00  0.00000000000E+00 -0.10100826839E+04  0.10100826890E+04  0.10100000352E+00 0.  1.
    10030    2    1    2    0    0  0.00000000000E+00  0.00000000000E+00  0.15322858415E+04  0.35524512164E+04  0.32049976201E+04 0.  0.
        3    1    3    3  502    0 -0.28769985285E+03  0.10304300767E+04  0.20885670621E+04  0.23466294406E+04  0.10100000352E+00 0.  1.
       -3    1    3    3    0  502  0.28769985285E+03 -0.10304300767E+04 -0.55628122066E+03  0.12058217758E+04  0.10100000352E+00 0. -1.
</event>
<event>
 5   0  0.1881144E-06  0.3196185E+04  0.7818609E-02  0.8189825E-01
        1   -1    0    0  501    0  0.00000000000E+00  0.00000000000E+00  0.14244554620E+04  0.14244554620E+04  0.50400001928E-02 0.  1.
       -1   -1    0    0    0  501  0.00000000000E+00  0.00000000000E+00 -0.17928957570E+04  0.17928957570E+04  0.50400001928E-02 0. -1.
    10030    2    1    2    0    0  0.00000000000E+00  0.00000000000E+00 -0.36844029500E+03  0.32173512190E+04  0.31961853224E+04 0.  0.
        3    1    3    3  502    0  0.15686835700E+04  0.17633385657E+03 -0.43494461399E+03  0.16373877364E+04  0.10100000352E+00 0. -1.
       -3    1    3    3    0  502 -0.15686835700E+04 -0.17633385657E+03  0.66504318988E+02  0.15799634826E+04  0.10100000352E+00 0.  1.
</event>
<event>
 5   0  0.5108810E-06  0.2966405E+04  0.7818609E-02  0.8253390E-01
        2   -1    0    0  501    0  0.00000000000E+00  0.00000000000E+00  0.13396057253E+04  0.13396057253E+04  0.25500000920E-02 0.  1.
       -2   -1    0    0    0  501  0.00000000000E+00  0.00000000000E+00 -0.16421915479E+04  0.16421915479E+04  0.25500000920E-02 0. -1.
    10030    2    1    2    0    0  0.00000000000E+00  0.00000000000E+00 -0.30258582258E+03  0.29817972732E+04  0.29664046923E+04 0.  0.
        1    1    3    3  502    0 -0.58280993379E+03  0.89416140888E+03  0.88395274253E+03  0.13858443257E+04  0.50400001928E-02 0.  1.
       -1    1    3    3    0  502  0.58280993379E+03 -0.89416140888E+03 -0.11865385651E+04  0.15959529475E+04  0.50400001928E-02 0. -1.
</event>
<event>
 5   0  0.1969465E-06  0.2942162E+04  0.7818609E-02  0.8260442E-01
       -1   -1    0    0    0  501  0.00000000000E+00  0.00000000000E+00  0.14491408202E+04  0.14491408202E+04  0.50400001928E-02 0.  1.
        1   -1    0    0  501    0  0.00000000000E+00  0.00000000000E+00 -0.14933535779E+04  0.14933535779E+04  0.50400001928E-02 0. -1.
    10030    2    1    2    0    0  0.00000000000E+00  0.00000000000E+00 -0.44212757670E+02  0.29424943981E+04  0.29421622176E+04 0.  0.
        2    1    3    3  502    0 -0.71131752152E+03 -0.15195413719E+03 -0.13009285602E+04  0.14904622756E+04  0.25500000920E-02 0. -1.
       -2    1    3    3    0  502  0.71131752152E+03  0.15195413719E+03  0.12567158026E+04  0.14520321225E+04  0.25500000920E-02 0.  1.
</event>
<event>
 5   0  0.1881144E-06  0.3312545E+04  0.7818609E-02  0.8159711E-01
       -1   -1    0    0    0  501  0.00000000000E+00  0.00000000000E+00  0.13816356620E+04  0.13816356620E+04  0.50400001928E-02 0. -1.
        1   -1    0    0  501    0  0.00000000000E+00  0.00000000000E+00 -0.19855004742E+04  0.19855004742E+04  0.50400001928E-02 0.  1.
    10030    2    1    2    0    0  0.00000000000E+00  0.00000000000E+00 -0.60386481224E+03  0.33671361363E+04  0.33125447995E+04 0.  0.
        3    1    3    3  502    0  0.40545522252E+03 -0.16420731774E+03 -0.19257194145E+04  0.19747792925E+04  0.10100000352E+00 0.  1.
       -3    1    3    3    0  502 -0.40545522252E+03  0.16420731774E+03  0.13218546022E+04  0.13923568437E+04  0.10100000352E+00 0. -1.
</event>
<event>
 5   0  0.1969465E-06  0.3205390E+04  0.7818609E-02  0.8187395E-01
       -1   -1    0    0    0  501  0.00000000000E+00  0.00000000000E+00  0.12092524823E+04  0.12092524824E+04  0.50400001928E-02 0.  1.
        1   -1    0    0  501    0  0.00000000000E+00  0.00000000000E+00 -0.21241484542E+04  0.21241484542E+04  0.50400001928E-02 0. -1.
    10030    2    1    2    0    0  0.00000000000E+00  0.00000000000E+00 -0.91489597189E+03  0.33334009366E+04  0.32053903295E+04 0.  0.
        2    1    3    3  502    0  0.67328258087E+03 -0.13848668432E+04  0.46701338014E+01  0.15398660387E+04  0.25500000920E-02 0.  1.
       -2    1    3    3    0  502 -0.67328258087E+03  0.13848668432E+04 -0.91956610569E+03  0.17935348979E+04  0.25500000920E-02 0. -1.
</event>
<event>
 5   0  0.1881144E-06  0.3031528E+04  0.7818609E-02  0.8234785E-01
       -1   -1    0    0    0  501  0.00000000000E+00  0.00000000000E+00  0.23192758126E+04  0.23192758126E+04  0.50400001928E-02 0.  1.
        1   -1    0    0  501    0  0.00000000000E+00  0.00000000000E+00 -0.99062832210E+03  0.99062832211E+03  0.50400001928E-02 0. -1.
    10030    2    1    2    0    0  0.00000000000E+00  0.00000000000E+00  0.13286474905E+04  0.33099041347E+04  0.30315278700E+04 0.  0.
        3    1    3    3  502    0 -0.74183949660E+03  0.95222054409E+03  0.16652918817E+04  0.20567563941E+04  0.10100000352E+00 0.  1.
       -3    1    3    3    0  502  0.74183949660E+03 -0.95222054409E+03 -0.33664439124E+03  0.12531477406E+04  0.10100000352E+00 0. -1.
</event>
<event>
 5   0  0.5373060E-06  0.2782623E+04  0.7818609E-02  0.8308684E-01
        2   -1    0    0  501    0  0.00000000000E+00  0.00000000000E+00  0.25053320010E+04  0.25053320010E+04  0.25500000920E-02 0.  1.
       -2   -1    0    0    0  501  0.00000000000E+00  0.00000000000E+00 -0.77265117519E+03  0.77265117520E+03  0.25500000920E-02 0. -1.
    10030    2    1    2    0    0  0.00000000000E+00  0.00000000000E+00  0.17326808259E+04  0.32779831762E+04  0.27826230178E+04 0.  0.
        5    1    3    3  502    0 -0.20164769475E+03  0.13402039443E+04  0.49584034027E+03  0.14431521535E+04  0.46999998093E+01 0. -1.
       -5    1    3    3    0  502  0.20164769475E+03 -0.13402039443E+04  0.12368404856E+04  0.18348310227E+04  0.46999998093E+01 0.  1.
</event>
<event>
 5   0  0.5108810E-06  0.3198647E+04  0.7818609E-02  0.8189175E-01
        2   -1    0    0  501    0  0.00000000000E+00  0.00000000000E+00  0.15656424625E+04  0.15656424625E+04  0.25500000920E-02 0. -1.
       -2   -1    0    0    0  501  0.00000000000E+00  0.00000000000E+00 -0.16337289515E+04  0.16337289515E+04  0.25500000920E-02 0.  1.
    10030    2    1    2    0    0  0.00000000000E+00  0.00000000000E+00 -0.68086489042E+02  0.31993714140E+04  0.31986468506E+04 0.  0.
        1    1    3    3  502    0  0.15354847054E+04 -0.42610520968E+03  0.10220981512E+03  0.15967860773E+04  0.50400001928E-02 0. -1.
       -1    1    3    3    0  502 -0.15354847054E+04  0.42610520968E+03 -0.17029630416E+03  0.16025853367E+04  0.50400001928E-02 0.  1.
</event>
<event>
 5   0  0.1977015E-06  0.3199266E+04  0.7818609E-02  0.8189011E-01
       -1   -1    0    0    0  501  0.00000000000E+00  0.00000000000E+00  0.89950906943E+03  0.89950906944E+03  0.50400001928E-02 0.  1.
        1   -1    0    0  501    0  0.00000000000E+00  0.00000000000E+00 -0.28446909645E+04  0.28446909645E+04  0.50400001928E-02 0. -1.
    10030    2    1    2    0    0  0.00000000000E+00  0.00000000000E+00 -0.19451818951E+04  0.37442000340E+04  0.31992657422E+04 0.  0.
        1    1    3    3  502    0 -0.56739594283E+03  0.14390305857E+04 -0.49564961224E+03  0.16243200795E+04  0.50400001928E-02 0.  1.
       -1    1    3    3    0  502  0.56739594283E+03 -0.14390305857E+04 -0.14495322828E+04  0.21198799545E+04  0.50400001928E-02 0. -1.
</event>
<event>
 5   0  0.5347280E-06  0.2950282E+04  0.7818609E-02  0.8258072E-01
       -2   -1    0    0    0  501  0.00000000000E+00  0.00000000000E+00  0.91112967355E+03  0.91112967356E+03  0.25500000920E-02 0. -1.
        2   -1    0    0  501    0  0.00000000000E+00  0.00000000000E+00 -0.23882884568E+04  0.23882884568E+04  0.25500000920E-02 0.  1.
    10030    2    1    2    0    0  0.00000000000E+00  0.00000000000E+00 -0.14771587832E+04  0.32994181303E+04  0.29502816692E+04 0.  0.
        2    1    3    3  502    0 -0.41769448414E+03  0.11383088101E+04  0.20097591263E+03  0.12290675111E+04  0.25500000920E-02 0. -1.
       -2    1    3    3    0  502  0.41769448414E+03 -0.11383088101E+04 -0.16781346958E+04  0.20703506193E+04  0.25500000920E-02 0.  1.
</event>
<event>
 5   0  0.5373060E-06  0.3525987E+04  0.7818609E-02  0.8107659E-01
        2   -1    0    0  501    0  0.00000000000E+00  0.00000000000E+00  0.22280109296E+04  0.22280109296E+04  0.25500000920E-02 0. -1.
       -2   -1    0    0    0  501  0.00000000000E+00  0.00000000000E+00 -0.13950318368E+04  0.13950318368E+04  0.25500000920E-02 0.  1.
    10030    2    1    2    0    0  0.00000000000E+00  0.00000000000E+00  0.83297909273E+03  0.36230427664E+04  0.35259870559E+04 0.  0.
        5    1    3    3  502    0 -0.75729688896E+03  0.28293529211E+03 -0.11933431168E+04  0.14414023872E+04  0.46999998093E+01 0.  1.
       -5    1    3    3    0  502  0.75729688896E+03 -0.28293529211E+03  0.20263222095E+04  0.21816403792E+04  0.46999998093E+01 0. -1.
</event>
<event>
 5   0  0.1969465E-06  0.3242449E+04  0.7818609E-02  0.8177695E-01
        1   -1    0    0  501    0  0.00000000000E+00  0.00000000000E+00  0.18211685210E+04  0.18211685210E+04  0.50400001928E-02 0. -1.
       -1   -1    0    0    0  501  0.00000000000E+00  0.00000000000E+00 -0.14432325494E+04  0.14432325494E+04  0.50400001928E-02 0.  1.
    10030    2    1    2    0    0  0.00000000000E+00  0.00000000000E+00  0.37793597156E+03  0.32644010704E+04  0.32424494984E+04 0.  0.
        2    1    3    3  502    0  0.11708978965E+02  0.12149308063E+04 -0.89169344364E+03  0.15070869788E+04  0.25500000920E-02 0.  1.
       -2    1    3    3    0  502 -0.11708978965E+02 -0.12149308063E+04  0.12696294152E+04  0.17573140915E+04  0.25500000920E-02 0. -1.
</event>
<event>
 5   0  0.5347280E-06  0.3190371E+04  0.7818609E-02  0.8191365E-01
       -2   -1    0    0    0  501  0.00000000000E+00  0.00000000000E+00  0.18883177012E+04  0.18883177012E+04  0.25500000920E-02 0. -1.
        2   -1    0    0  501    0  0.00000000000E+00  0.00000000000E+00 -0.13475573365E+04  0.13475573365E+04  0.25500000920E-02 0.  1.
    10030    2    1    2    0    0  0.00000000000E+00  0.00000000000E+00  0.54076036469E+03  0.32358750376E+04  0.31903707444E+04 0.  0.
        2    1    3    3  502    0 -0.50803789332E+03 -0.11138947094E+04 -0.76682584617E+03  0.14446057604E+04  0.25500000920E-02 0.  1.
       -2    1    3    3    0  502  0.50803789332E+03  0.11138947094E+04  0.13075862109E+04  0.17912692772E+04  0.25500000920E-02 0. -1.
</event>
<event>
 5   0  0.5131083E-06  0.3226754E+04  0.7818609E-02  0.8181787E-01
       -2   -1    0    0    0  501  0.00000000000E+00  0.00000000000E+00  0.19651189174E+04  0.19651189174E+04  0.25500000920E-02 0. -1.
        2   -1    0    0  501    0  0.00000000000E+00  0.00000000000E+00 -0.13245945485E+04  0.13245945485E+04  0.25500000920E-02 0.  1.
    10030    2    1    2    0    0  0.00000000000E+00  0.00000000000E+00  0.64052436889E+03  0.32897134659E+04  0.32267542857E+04 0.  0.
        3    1    3    3  502    0 -0.37550785303E+03  0.73064542905E+03  0.17359291909E+04  0.19204944823E+04  0.10100000352E+00 0. -1.
       -3    1    3    3    0  502  0.37550785303E+03 -0.73064542905E+03 -0.10954048220E+04  0.13692189836E+04  0.10100000352E+00 0.  1.
</event>
<event>
 5   0  0.1729500E-06  0.2235475E+04  0.7818609E-02  0.8503806E-01
        3   -1    0    0  501    0  0.00000000000E+00  0.00000000000E+00  0.73941695667E+03  0.73941696357E+03  0.10100000352E+00 0.  1.
       -3   -1    0    0    0  501  0.00000000000E+00  0.00000000000E+00 -0.16896241044E+04  0.16896241074E+04  0.10100000352E+00 0. -1.
    10030    2    1    2    0    0  0.00000000000E+00  0.00000000000E+00 -0.95020714775E+03  0.24290410710E+04  0.22354746478E+04 0.  0.
        4    1    3    3  502    0  0.68227536616E+03 -0.12695686398E+03  0.47695966983E+03  0.84208661082E+03  0.12699999809E+01 0.  1.
       -4    1    3    3    0  502 -0.68227536616E+03  0.12695686398E+03 -0.14271668176E+04  0.15869544602E+04  0.12699999809E+01 0. -1.
</event>
<event>
 5   0  0.1846850E-06  0.2767705E+04  0.7818609E-02  0.8313365E-01
        1   -1    0    0  501    0  0.00000000000E+00  0.00000000000E+00  0.19019641409E+04  0.19019641409E+04  0.50400001928E-02 0. -1.
       -1   -1    0    0    0  501  0.00000000000E+00  0.00000000000E+00 -0.10068788179E+04  0.10068788179E+04  0.50400001928E-02 0.  1.
    10030    2    1    2    0    0  0.00000000000E+00  0.00000000000E+00  0.89508532299E+03  0.29088429588E+04  0.27677047573E+04 0.  0.
        5    1    3    3  502    0  0.12566831600E+04  0.48565284135E+03  0.77975353101E+03  0.15566466864E+04  0.46999998093E+01 0.  1.
       -5    1    3    3    0  502 -0.12566831600E+04 -0.48565284135E+03  0.11533179197E+03  0.13521962725E+04  0.46999998093E+01 0. -1.
</event>
<event>
 5   0  0.5108810E-06  0.3413486E+04  0.7818609E-02  0.8134604E-01
        2   -1    0    0  501    0  0.00000000000E+00  0.00000000000E+00  0.23185868713E+04  0.23185868713E+04  0.25500000920E-02 0. -1.
       -2   -1    0    0    0  501  0.00000000000E+00  0.00000000000E+00 -0.12563561912E+04  0.12563561912E+04  0.25500000920E-02 0.  1.
    10030    2    1    2    0    0  0.00000000000E+00  0.00000000000E+00  0.10622306801E+04  0.35749430625E+04  0.34134855914E+04 0.  0.
        1    1    3    3  502    0  0.16672830741E+03 -0.12598090461E+04 -0.66209608559E+03  0.14329300010E+04  0.50400001928E-02 0.  1.
       -1    1    3    3    0  502 -0.16672830741E+03  0.12598090461E+04  0.17243267657E+04  0.21420130616E+04  0.50400001928E-02 0. -1.
</event>
<event>
 5   0  0.1886248E-06  0.3240507E+04  0.7818609E-02  0.8178200E-01
       -1   -1    0    0    0  501  0.00000000000E+00  0.00000000000E+00  0.92902187156E+03  0.92902187157E+03  0.50400001928E-02 0.  1.
        1   -1    0    0  501    0  0.00000000000E+00  0.00000000000E+00 -0.28257913264E+04  0.28257913264E+04  0.50400001928E-02 0. -1.
    10030    2    1    2    0    0  0.00000000000E+00  0.00000000000E+00 -0.18967694549E+04  0.37548131980E+04  0.32405073348E+04 0.  0.
        4    1    3    3  502    0 -0.69286592333E+03  0.10066556755E+04 -0.21810934214E+04  0.25001177897E+04  0.12699999809E+01 0. -1.
       -4    1    3    3    0  502  0.69286592333E+03 -0.10066556755E+04  0.28432396653E+03  0.12546954083E+04  0.12699999809E+01 0.  1.
</event>
<event>
 5   0  0.1969465E-06  0.3184374E+04  0.7818609E-02  0.8192956E-01
        1   -1    0    0  501    0  0.00000000000E+00  0.00000000000E+00  0.15369264922E+04  0.15369264922E+04  0.50400001928E-02 0.  1.
       -1   -1    0    0    0  501  0.00000000000E+00  0.00000000000E+00 -0.16494340559E+04  0.16494340559E+04  0.50400001928E-02 0. -1.
    10030    2    1    2    0    0  0.00000000000E+00  0.00000000000E+00 -0.11250756373E+03  0.31863605481E+04  0.31843736575E+04 0.  0.
        2    1    3    3  502    0  0.14194125771E+04  0.55151826244E+03 -0.52146799384E+03  0.16096065751E+04  0.25500000920E-02 0. -1.
       -2    1    3    3    0  502 -0.14194125771E+04 -0.55151826244E+03  0.40896043011E+03  0.15767539730E+04  0.25500000920E-02 0.  1.
</event>
<event>
 5   0  0.5121624E-06  0.2998154E+04  0.7818609E-02  0.8244258E-01
       -2   -1    0    0    0  501  0.00000000000E+00  0.00000000000E+00  0.85200666455E+03  0.85200666455E+03  0.25500000920E-02 0. -1.
        2   -1    0    0  501    0  0.00000000000E+00  0.00000000000E+00 -0.26375756864E+04  0.26375756864E+04  0.25500000920E-02 0.  1.
    10030    2    1    2    0    0  0.00000000000E+00  0.00000000000E+00 -0.17855690219E+04  0.34895823510E+04  0.29981541409E+04 0.  0.
        4    1    3    3  502    0 -0.29661578057E+03  0.97205328181E+03  0.38982238183E+03  0.10884997043E+04  0.12699999809E+01 0. -1.
       -4    1    3    3    0  502  0.29661578057E+03 -0.97205328181E+03 -0.21753914037E+04  0.24010826467E+04  0.12699999809E+01 0.  1.
</event>
<event>
 5   0  0.5347280E-06  0.3072423E+04  0.7818609E-02  0.8223347E-01
       -2   -1    0    0    0  501  0.00000000000E+00  0.00000000000E+00  0.15500839410E+04  0.15500839410E+04  0.25500000920E-02 0.  1.
        2   -1    0    0  501    0  0.00000000000E+00  0.00000000000E+00 -0.15224629108E+04  0.15224629108E+04  0.25500000920E-02 0. -1.
    10030    2    1    2    0    0  0.00000000000E+00  0.00000000000E+00  0.27621030238E+02  0.30725468518E+04  0.30724226980E+04 0.  0.
        2    1    3    3  502    0  0.11313255268E+04  0.34447346470E+03 -0.96673198386E+03  0.15274587209E+04  0.25500000920E-02 0. -1.
       -2    1    3    3    0  502 -0.11313255268E+04 -0.34447346470E+03  0.99435301410E+03  0.15450881309E+04  0.25500000920E-02 0.  1.
</event>
<event>
 5   0  0.5131083E-06  0.3158228E+04  0.7818609E-02  0.8199937E-01
       -2   -1    0    0    0  501  0.00000000000E+00  0.00000000000E+00  0.12123773815E+04  0.12123773815E+04  0.25500000920E-02 0.  1.
        2   -1    0    0  501    0  0.00000000000E+00  0.00000000000E+00 -0.20567856526E+04  0.20567856526E+04  0.25500000920E-02 0. -1.
    10030    2    1    2    0    0  0.00000000000E+00  0.00000000000E+00 -0.84440827114E+03  0.32691630342E+04  0.31582276067E+04 0.  0.
        3    1    3    3  502    0 -0.99341829421E+03  0.12035960410E+04 -0.67166099632E+03  0.16990149621E+04  0.10100000352E+00 0.  1.
       -3    1    3    3    0  502  0.99341829421E+03 -0.12035960410E+04 -0.17274727482E+03  0.15701480721E+04  0.10100000352E+00 0. -1.
</event>
<event>
 5   0  0.1729500E-06  0.3204304E+04  0.7818609E-02  0.8187682E-01
       -4   -1    0    0    0  501  0.00000000000E+00  0.00000000000E+00  0.20424501805E+04  0.20424505754E+04  0.12699999809E+01 0.  1.
        4   -1    0    0  501    0  0.00000000000E+00  0.00000000000E+00 -0.12567693872E+04  0.12567700289E+04  0.12699999809E+01 0. -1.
    10030    2    1    2    0    0  0.00000000000E+00  0.00000000000E+00  0.78568079330E+03  0.32992206043E+04  0.32043037133E+04 0.  0.
        1    1    3    3  502    0 -0.84077476820E+03  0.12616217909E+04 -0.14047861064E+03  0.15226050027E+04  0.50400001928E-02 0. -1.
       -1    1    3    3    0  502  0.84077476820E+03 -0.12616217909E+04  0.92615940394E+03  0.17766156016E+04  0.50400001928E-02 0.  1.
</event>
<event>
 5   0  0.5121624E-06  0.3141201E+04  0.7818609E-02  0.8204521E-01
       -2   -1    0    0    0  501  0.00000000000E+00  0.00000000000E+00  0.12343133411E+04  0.12343133411E+04  0.25500000920E-02 0. -1.
        2   -1    0    0  501    0  0.00000000000E+00  0.00000000000E+00 -0.19985087055E+04  0.19985087055E+04  0.25500000920E-02 0.  1.
    10030    2    1    2    0    0  0.00000000000E+00  0.00000000000E+00 -0.76419536438E+03  0.32328220467E+04  0.31412010172E+04 0.  0.
        4    1    3    3  502    0 -0.12388609113E+03 -0.89134616539E+03  0.94266863285E+03  0.13032542018E+04  0.12699999809E+01 0. -1.
       -4    1    3    3    0  502  0.12388609113E+03  0.89134616539E+03 -0.17068639972E+04  0.19295678449E+04  0.12699999809E+01 0.  1.
</event>
<event>
 5   0  0.5131083E-06  0.3339222E+04  0.7818609E-02  0.8152986E-01
       -2   -1    0    0    0  501  0.00000000000E+00  0.00000000000E+00  0.15813791315E+04  0.15813791315E+04  0.25500000920E-02 0.  1.
        2   -1    0    0  501    0  0.00000000000E+00  0.00000000000E+00 -0.17627655603E+04  0.17627655603E+04  0.25500000920E-02 0. -1.
    10030    2    1    2    0    0  0.00000000000E+00  0.00000000000E+00 -0.18138642876E+03  0.33441446919E+04  0.33392218680E+04 0.  0.
        3    1    3    3  502    0  0.99567209596E+03 -0.30155959700E+03  0.12171031402E+04  0.16011374636E+04  0.10100000352E+00 0.  1.
       -3    1    3    3    0  502 -0.99567209596E+03  0.30155959700E+03 -0.13984895689E+04  0.17430072283E+04  0.10100000352E+00 0. -1.
</event>
<event>
 5   0  0.1881144E-06  0.2877235E+04  0.7818609E-02  0.8279683E-01
       -1   -1    0    0    0  501  0.00000000000E+00  0.00000000000E+00  0.10983889374E+04  0.10983889374E+04  0.50400001928E-02 0.  1.
        1   -1    0    0  501    0  0.00000000000E+00  0.00000000000E+00 -0.18842330988E+04  0.18842330988E+04  0.50400001928E-02 0. -1.
    10030    2    1    2    0    0  0.00000000000E+00  0.00000000000E+00 -0.78584416144E+03  0.29826220362E+04  0.28772353336E+04 0.  0.
        3    1    3    3  502    0  0.96910502118E+03  0.46015003371E+03 -0.13865275965E+04  0.17531005053E+04  0.10100000352E+00 0. -1.
       -3    1    3    3    0  502 -0.96910502118E+03 -0.46015003371E+03  0.60068343508E+03  0.12295215309E+04  0.10100000352E+00 0.  1.
</event>
<event>
 5   0  0.5108810E-06  0.3235510E+04  0.7818609E-02  0.8179502E-01
        2   -1    0    0  501    0  0.00000000000E+00  0.00000000000E+00  0.16400868591E+04  0.16400868591E+04  0.25500000920E-02 0.  1.
       -2   -1    0    0    0  501  0.00000000000E+00  0.00000000000E+00 -0.15957267447E+04  0.15957267447E+04  0.25500000920E-02 0. -1.
    10030    2    1    2    0    0  0.00000000000E+00  0.00000000000E+00  0.44360114332E+02  0.32358136038E+04  0.32355095208E+04 0.  0.
        1    1    3    3  502    0 -0.13971665304E+04  0.65021004906E+03  0.51444887207E+03  0.16246553677E+04  0.50400001928E-02 0.  1.
       -1    1    3    3    0  502  0.13971665304E+04 -0.65021004906E+03 -0.47008875774E+03  0.16111582361E+04  0.50400001928E-02 0. -1.
</event>
<event>
 5   0  0.1969465E-06  0.2887488E+04  0.7818609E-02  0.8276610E-01
        1   -1    0    0  501    0  0.00000000000E+00  0.00000000000E+00  0.72087473285E+03  0.72087473287E+03  0.50400001928E-02 0.  1.
       -1   -1    0    0    0  501  0.00000000000E+00  0.00000000000E+00 -0.28914833899E+04  0.28914833899E+04  0.50400001928E-02 0. -1.
    10030    2    1    2    0    0  0.00000000000E+00  0.00000000000E+00 -0.21706086570E+04  0.36123581227E+04  0.28874884008E+04 0.  0.
        2    1    3    3  502    0 -0.12362335444E+03  0.13563034824E+04 -0.48590762395E+03  0.14460110958E+04  0.25500000920E-02 0.  1.
       -2    1    3    3    0  502  0.12362335444E+03 -0.13563034824E+04 -0.16847010331E+04  0.21663470269E+04  0.25500000920E-02 0. -1.
</event>
<event>
 5   0  0.1977015E-06  0.3262801E+04  0.7818609E-02  0.8172426E-01
       -1   -1    0    0    0  501  0.00000000000E+00  0.00000000000E+00  0.24313786128E+04  0.24313786129E+04  0.50400001928E-02 0.  1.
        1   -1    0    0  501    0  0.00000000000E+00  0.00000000000E+00 -0.10946332594E+04  0.10946332594E+04  0.50400001928E-02 0. -1.
    10030    2    1    2    0    0  0.00000000000E+00  0.00000000000E+00  0.13367453535E+04  0.35260118722E+04  0.32628011866E+04 0.  0.
        1    1    3    3  502    0  0.17434173428E+03 -0.92848227644E+03  0.21057019789E+04  0.23079114372E+04  0.50400001928E-02 0.  1.
       -1    1    3    3    0  502 -0.17434173428E+03  0.92848227644E+03 -0.76895662542E+03  0.12181004350E+04  0.50400001928E-02 0. -1.
</event>
<event>
 5   0  0.5121624E-06  0.3167806E+04  0.7818609E-02  0.8197372E-01
       -2   -1    0    0    0  501  0.00000000000E+00  0.00000000000E+00  0.17083983611E+04  0.17083983611E+04  0.25500000920E-02 0.  1.
        2   -1    0    0  501    0  0.00000000000E+00  0.00000000000E+00 -0.14684800872E+04  0.14684800872E+04  0.25500000920E-02 0. -1.
    10030    2    1    2    0    0  0.00000000000E+00  0.00000000000E+00  0.23991827396E+03  0.31768784483E+04  0.31678061647E+04 0.  0.
        4    1    3    3  502    0 -0.92069640792E+03  0.65846240993E+02  0.14107855262E+04  0.16859226011E+04  0.12699999809E+01 0.  1.
       -4    1    3    3    0  502  0.92069640792E+03 -0.65846240993E+02 -0.11708672523E+04  0.14909558472E+04  0.12699999809E+01 0. -1.
</event>
<event>
 5   0  0.5121624E-06  0.3127877E+04  0.7818609E-02  0.8208129E-01
       -2   -1    0    0    0  501  0.00000000000E+00  0.00000000000E+00  0.20145167177E+04  0.20145167177E+04  0.25500000920E-02 0.  1.
        2   -1    0    0  501    0  0.00000000000E+00  0.00000000000E+00 -0.12141391298E+04  0.12141391298E+04  0.25500000920E-02 0. -1.
    10030    2    1    2    0    0  0.00000000000E+00  0.00000000000E+00  0.80037758791E+03  0.32286558475E+04  0.31278769635E+04 0.  0.
        4    1    3    3  502    0 -0.69506626716E+02  0.10700054811E+04  0.15753602743E+04  0.19056506783E+04  0.12699999809E+01 0.  1.
       -4    1    3    3    0  502  0.69506626716E+02 -0.10700054811E+04 -0.77498268643E+03  0.13230051693E+04  0.12699999809E+01 0. -1.
</event>
<event>
 5   0  0.5121624E-06  0.2998539E+04  0.7818609E-02  0.8244148E-01
        2   -1    0    0  501    0  0.00000000000E+00  0.00000000000E+00  0.18587392493E+04  0.18587392493E+04  0.25500000920E-02 0. -1.
       -2   -1    0    0    0  501  0.00000000000E+00  0.00000000000E+00 -0.12093192912E+04  0.12093192912E+04  0.25500000920E-02 0.  1.
    10030    2    1    2    0    0  0.00000000000E+00  0.00000000000E+00  0.64941995808E+03  0.30680585405E+04  0.29985391320E+04 0.  0.
        4    1    3    3  502    0 -0.36734971276E+03  0.13514978961E+04 -0.22277997768E+03  0.14181413561E+04  0.12699999809E+01 0.  1.
       -4    1    3    3    0  502  0.36734971276E+03 -0.13514978961E+04  0.87219993576E+03  0.16499171844E+04  0.12699999809E+01 0. -1.
</event>
<event>
 5   0  0.1977015E-06  0.2363381E+04  0.7818609E-02  0.8453342E-01
       -1   -1    0    0    0  501  0.00000000000E+00  0.00000000000E+00  0.12342527875E+04  0.12342527875E+04  0.50400001928E-02 0. -1.
        1   -1    0    0  501    0  0.00000000000E+00  0.00000000000E+00 -0.11313664411E+04  0.11313664411E+04  0.50400001928E-02 0.  1.
    10030    2    1    2    0    0  0.00000000000E+00  0.00000000000E+00  0.10288634638E+03  0.23656192286E+04  0.23633807849E+04 0.  0.
        1    1    3    3  502    0 -0.55645310651E+01 -0.28166424007E+03 -0.10972615165E+04  0.11328497445E+04  0.50400001928E-02 0.  1.
       -1    1    3    3    0  502  0.55645310651E+01  0.28166424007E+03  0.12001478629E+04  0.12327694841E+04  0.50400001928E-02 0. -1.
</event>
<event>
 5   0  0.5131083E-06  0.3140536E+04  0.7818609E-02  0.8204700E-01
       -2   -1    0    0    0  501  0.00000000000E+00  0.00000000000E+00  0.11824641534E+04  0.11824641534E+04  0.25500000920E-02 0. -1.
        2   -1    0    0  501    0  0.00000000000E+00  0.00000000000E+00 -0.20852572864E+04  0.20852572864E+04  0.25500000920E-02 0.  1.
    10030    2    1    2    0    0  0.00000000000E+00  0.00000000000E+00 -0.90279313307E+03  0.32677214398E+04  0.31405362547E+04 0.  0.
        3    1    3    3  502    0 -0.32588895309E+02 -0.29486371485E+03 -0.20558346876E+04  0.20771285274E+04  0.10100000352E+00 0.  1.
       -3    1    3    3    0  502  0.32588895309E+02  0.29486371485E+03  0.11530415545E+04  0.11905929124E+04  0.10100000352E+00 0. -1.
</event>
<event>
 5   0  0.5108810E-06  0.3193331E+04  0.7818609E-02  0.8190581E-01
       -2   -1    0    0    0  501  0.00000000000E+00  0.00000000000E+00  0.12591849097E+04  0.12591849097E+04  0.25500000920E-02 0.  1.
        2   -1    0    0  501    0  0.00000000000E+00  0.00000000000E+00 -0.20245957655E+04  0.20245957655E+04  0.25500000920E-02 0. -1.
    10030    2    1    2    0    0  0.00000000000E+00  0.00000000000E+00 -0.76541085576E+03  0.32837806752E+04  0.31933308229E+04 0.  0.
        1    1    3    3  502    0 -0.67788470546E+03  0.12986335037E+04  0.27039306524E+03  0.14896607200E+04  0.50400001928E-02 0.  1.
       -1    1    3    3    0  502  0.67788470546E+03 -0.12986335037E+04 -0.10358039210E+04  0.17941199552E+04  0.50400001928E-02 0. -1.
</event>
<event>
 5   0  0.1969465E-06  0.3200677E+04  0.7818609E-02  0.8188638E-01
        1   -1    0    0  501    0  0.00000000000E+00  0.00000000000E+00  0.27500736599E+04  0.27500736599E+04  0.50400001928E-02 0. -1.
       -1   -1    0    0    0  501  0.00000000000E+00  0.00000000000E+00 -0.93127798963E+03  0.93127798964E+03  0.50400001928E-02 0.  1.
    10030    2    1    2    0    0  0.00000000000E+00  0.00000000000E+00  0.18187956702E+04  0.36813516495E+04  0.32006768467E+04 0.  0.
        2    1    3    3  502    0  0.61643083674E+03  0.83934772222E+03  0.23070389147E+04  0.25311894692E+04  0.25500000920E-02 0. -1.
       -2    1    3    3    0  502 -0.61643083674E+03 -0.83934772222E+03 -0.48824324442E+03  0.11501621803E+04  0.25500000920E-02 0.  1.
</event>
<event>
 5   0  0.1977015E-06  0.3102110E+04  0.7818609E-02  0.8215159E-01
        1   -1    0    0  501    0  0.00000000000E+00  0.00000000000E+00  0.16655517156E+04  0.16655517156E+04  0.50400001928E-02 0.  1.
       -1   -1    0    0    0  501  0.00000000000E+00  0.00000000000E+00 -0.14444287968E+04  0.14444287968E+04  0.50400001928E-02 0. -1.
    10030    2    1    2    0    0  0.00000000000E+00  0.00000000000E+00  0.22112291880E+03  0.31099805124E+04  0.31021095149E+04 0.  0.
        1    1    3    3  502    0 -0.62079304915E+03  0.13571756636E+04  0.53407986266E+03  0.15851028647E+04  0.50400001928E-02 0. -1.
       -1    1    3    3    0  502  0.62079304915E+03 -0.13571756636E+04 -0.31295694386E+03  0.15248776477E+04  0.50400001928E-02 0.  1.
</event>
<event>
 5   0  0.1969465E-06  0.3105462E+04  0.7818609E-02  0.8214241E-01
        1   -1    0    0  501    0  0.00000000000E+00  0.00000000000E+00  0.21773234971E+04  0.21773234971E+04  0.50400001928E-02 0.  1.
       -1   -1    0    0    0  501  0.00000000000E+00  0.00000000000E+00 -0.11073103420E+04  0.11073103420E+04  0.50400001928E-02 0. -1.
    10030    2    1    2    0    0  0.00000000000E+00  0.00000000000E+00  0.10700131551E+04  0.32846338391E+04  0.31054615285E+04 0.  0.
        2    1    3    3  502    0 -0.11473139359E+04  0.98317318048E+02 -0.56671315504E+03  0.12834170650E+04  0.25500000920E-02 0. -1.
       -2    1    3    3    0  502  0.11473139359E+04 -0.98317318048E+02  0.16367263102E+04  0.20012167741E+04  0.25500000920E-02 0.  1.
</event>
<event>
 5   0  0.5131083E-06  0.3224413E+04  0.7818609E-02  0.8182399E-01
       -2   -1    0    0    0  501  0.00000000000E+00  0.00000000000E+00  0.11526068680E+04  0.11526068680E+04  0.25500000920E-02 0. -1.
        2   -1    0    0  501    0  0.00000000000E+00  0.00000000000E+00 -0.22550704033E+04  0.22550704033E+04  0.25500000920E-02 0.  1.
    10030    2    1    2    0    0  0.00000000000E+00  0.00000000000E+00 -0.11024635353E+04  0.34076772713E+04  0.32244128983E+04 0.  0.
        3    1    3    3  502    0 -0.52268049648E+03  0.15200722443E+04 -0.68236084288E+03  0.17462619676E+04  0.10100000352E+00 0. -1.
       -3    1    3    3    0  502  0.52268049648E+03 -0.15200722443E+04 -0.42010269241E+03  0.16614153038E+04  0.10100000352E+00 0.  1.
</event>
<event>
 5   0  0.1969465E-06  0.3206974E+04  0.7818609E-02  0.8186978E-01
        1   -1    0    0  501    0  0.00000000000E+00  0.00000000000E+00  0.20926483686E+04  0.20926483686E+04  0.50400001928E-02 0.  1.
       -1   -1    0    0    0  501  0.00000000000E+00  0.00000000000E+00 -0.12286683510E+04  0.12286683510E+04  0.50400001928E-02 0. -1.
    10030    2    1    2    0    0  0.00000000000E+00  0.00000000000E+00  0.86398001761E+03  0.33213167196E+04  0.32069741628E+04 0.  0.
        2    1    3    3  502    0  0.14209558949E+04  0.17923536896E+03  0.11787605982E+04  0.18549171196E+04  0.25500000920E-02 0.  1.
       -2    1    3    3    0  502 -0.14209558949E+04 -0.17923536896E+03 -0.31478058063E+03  0.14663995999E+04  0.25500000920E-02 0. -1.
</event>
<event>
 5   0  0.5121624E-06  0.3235068E+04  0.7818609E-02  0.8179617E-01
       -2   -1    0    0    0  501  0.00000000000E+00  0.00000000000E+00  0.14770587569E+04  0.14770587569E+04  0.25500000920E-02 0. -1.
        2   -1    0    0  501    0  0.00000000000E+00  0.00000000000E+00 -0.17713691602E+04  0.17713691602E+04  0.25500000920E-02 0.  1.
    10030    2    1    2    0    0  0.00000000000E+00  0.00000000000E+00 -0.29431040328E+03  0.32484279171E+04  0.32350680548E+04 0.  0.
        4    1    3    3  502    0  0.14933061442E+04 -0.33438022642E+03 -0.67338176641E+03  0.16718905444E+04  0.12699999809E+01 0.  1.
       -4    1    3    3    0  502 -0.14933061442E+04  0.33438022642E+03  0.37907136313E+03  0.15765373727E+04  0.12699999809E+01 0. -1.
</event>
<event>
 5   0  0.1881144E-06  0.3646037E+04  0.7818609E-02  0.8080027E-01
       -1   -1    0    0    0  501  0.00000000000E+00  0.00000000000E+00  0.13268719591E+04  0.13268719591E+04  0.50400001928E-02 0.  1.
        1   -1    0    0  501    0  0.00000000000E+00  0.00000000000E+00 -0.25046855531E+04  0.25046855532E+04  0.50400001928E-02 0. -1.
    10030    2    1    2    0    0  0.00000000000E+00  0.00000000000E+00 -0.11778135941E+04  0.38315575122E+04  0.36460373156E+04 0.  0.
        3    1    3    3  502    0 -0.87887643075E+03  0.15828988476E+04 -0.36498129064E+03  0.18469444754E+04  0.10100000352E+00 0.  1.
       -3    1    3    3    0  502  0.87887643075E+03 -0.15828988476E+04 -0.81283230343E+03  0.19846130369E+04  0.10100000352E+00 0. -1.
</event>
<event>
 5   0  0.1977015E-06  0.3185887E+04  0.7818609E-02  0.8192554E-01
        1   -1    0    0  501    0  0.00000000000E+00  0.00000000000E+00  0.28148155712E+04  0.28148155713E+04  0.50400001928E-02 0.  1.
       -1   -1    0    0    0  501  0.00000000000E+00  0.00000000000E+00 -0.90146893771E+03  0.90146893772E+03  0.50400001928E-02 0. -1.
    10030    2    1    2    0    0  0.00000000000E+00  0.00000000000E+00  0.19133466335E+04  0.37162845090E+04  0.31858868799E+04 0.  0.
        1    1    3    3  502    0  0.46527333819E+03  0.14588174533E+04  0.14689191957E+04  0.21218744649E+04  0.50400001928E-02 0.  1.
       -1    1    3    3    0  502 -0.46527333819E+03 -0.14588174533E+04  0.44442743779E+03  0.15944100441E+04  0.50400001928E-02 0. -1.
</event>
<event>
 5   0  0.5121624E-06  0.3137111E+04  0.7818609E-02  0.8205626E-01
       -2   -1    0    0    0  501  0.00000000000E+00  0.00000000000E+00  0.10379779738E+04  0.10379779738E+04  0.25500000920E-02 0. -1.
        2   -1    0    0  501    0  0.00000000000E+00  0.00000000000E+00 -0.23703455020E+04  0.23703455020E+04  0.25500000920E-02 0.  1.
    10030    2    1    2    0    0  0.00000000000E+00  0.00000000000E+00 -0.13323675282E+04  0.34083234758E+04  0.31371110413E+04 0.  0.
        4    1    3    3  502    0 -0.41269784021E+03  0.77394551041E+03 -0.20790127859E+04  0.22564589376E+04  0.12699999809E+01 0.  1.
       -4    1    3    3    0  502  0.41269784021E+03 -0.77394551041E+03  0.74664525773E+03  0.11518645381E+04  0.12699999809E+01 0. -1.
</event>
<event>
 5   0  0.5373060E-06  0.3141859E+04  0.7818609E-02  0.8204343E-01
        2   -1    0    0  501    0  0.00000000000E+00  0.00000000000E+00  0.15828202305E+04  0.15828202305E+04  0.25500000920E-02 0. -1.
       -2   -1    0    0    0  501  0.00000000000E+00  0.00000000000E+00 -0.15591278495E+04  0.15591278495E+04  0.25500000920E-02 0.  1.
    10030    2    1    2    0    0  0.00000000000E+00  0.00000000000E+00  0.23692381032E+02  0.31419480800E+04  0.31418587506E+04 0.  0.
        5    1    3    3  502    0  0.46623608307E+03  0.45987188170E+03 -0.14161085439E+04  0.15602063103E+04  0.46999998093E+01 0.  1.
       -5    1    3    3    0  502 -0.46623608307E+03 -0.45987188170E+03  0.14398009249E+04  0.15817417697E+04  0.46999998093E+01 0. -1.
</event>
<event>
 5   0  0.1969465E-06  0.3199985E+04  0.7818609E-02  0.8188821E-01
       -1   -1    0    0    0  501  0.00000000000E+00  0.00000000000E+00  0.94796933136E+03  0.94796933138E+03  0.50400001928E-02 0. -1.
        1   -1    0    0  501    0  0.00000000000E+00  0.00000000000E+00 -0.27004832767E+04  0.27004832767E+04  0.50400001928E-02 0.  1.
    10030    2    1    2    0    0  0.00000000000E+00  0.00000000000E+00 -0.17525139453E+04  0.36484526080E+04  0.31999845788E+04 0.  0.
        2    1    3    3  502    0 -0.58929745933E+03 -0.91182891866E+03 -0.22162434172E+04  0.24678813499E+04  0.25500000920E-02 0.  1.
       -2    1    3    3    0  502  0.58929745933E+03  0.91182891866E+03  0.46372947196E+03  0.11805712582E+04  0.25500000920E-02 0. -1.
</event>
<event>
 5   0  0.1969465E-06  0.2884821E+04  0.7818609E-02  0.8277408E-01
        1   -1    0    0  501    0  0.00000000000E+00  0.00000000000E+00  0.17903592456E+04  0.17903592456E+04  0.50400001928E-02 0. -1.
       -1   -1    0    0    0  501  0.00000000000E+00  0.00000000000E+00 -0.11620841537E+04  0.11620841537E+04  0.50400001928E-02 0.  1.
    10030    2    1    2    0    0  0.00000000000E+00  0.00000000000E+00  0.62827509193E+03  0.29524433994E+04  0.28848210404E+04 0.  0.
        2    1    3    3  502    0  0.98822930613E+03 -0.60791056941E+03 -0.56291933969E+03  0.12895854392E+04  0.25500000920E-02 0.  1.
       -2    1    3    3    0  502 -0.98822930613E+03  0.60791056941E+03  0.11911944316E+04  0.16628579602E+04  0.25500000920E-02 0. -1.
</event>
<event>
 5   0  0.1977015E-06  0.3331237E+04  0.7818609E-02  0.8154992E-01
       -1   -1    0    0    0  501  0.00000000000E+00  0.00000000000E+00  0.14148558000E+04  0.14148558000E+04  0.50400001928E-02 0.  1.
        1   -1    0    0  501    0  0.00000000000E+00  0.00000000000E+00 -0.19608246794E+04  0.19608246794E+04  0.50400001928E-02 0. -1.
    10030    2    1    2    0    0  0.00000000000E+00  0.00000000000E+00 -0.54596887942E+03  0.33756804793E+04  0.33312365094E+04 0.  0.
        1    1    3    3  502    0  0.13096727639E+04  0.39459512575E+03  0.69013588952E+03  0.15320690611E+04  0.50400001928E-02 0.  1.
       -1    1    3    3    0  502 -0.13096727639E+04 -0.39459512575E+03 -0.12361047689E+04  0.18436114183E+04  0.50400001928E-02 0. -1.
</event>
<event>
 5   0  0.1846850E-06  0.3263118E+04  0.7818609E-02  0.8172344E-01
        1   -1    0    0  501    0  0.00000000000E+00  0.00000000000E+00  0.20797926917E+04  0.20797926917E+04  0.50400001928E-02 0. -1.
       -1   -1    0    0    0  501  0.00000000000E+00  0.00000000000E+00 -0.12799279407E+04  0.12799279408E+04  0.50400001928E-02 0.  1.
    10030    2    1    2    0    0  0.00000000000E+00  0.00000000000E+00  0.79986475096E+03  0.33597206325E+04  0.32631180041E+04 0.  0.
        5    1    3    3  502    0 -0.56413374410E+03  0.12302702983E+04 -0.53816707617E+03  0.14565224955E+04  0.46999998093E+01 0.  1.
       -5    1    3    3    0  502  0.56413374410E+03 -0.12302702983E+04  0.13380318271E+04  0.19031981370E+04  0.46999998093E+01 0. -1.
</event>
<event>
 5   0  0.1881144E-06  0.3221134E+04  0.7818609E-02  0.8183258E-01
       -1   -1    0    0    0  501  0.00000000000E+00  0.00000000000E+00  0.16284475467E+04  0.16284475467E+04  0.50400001928E-02 0.  1.
        1   -1    0    0  501    0  0.00000000000E+00  0.00000000000E+00 -0.15928831611E+04  0.15928831612E+04  0.50400001928E-02 0. -1.
    10030    2    1    2    0    0  0.00000000000E+00  0.00000000000E+00  0.35564385519E+02  0.32213307078E+04  0.32211343815E+04 0.  0.
        3    1    3    3  502    0 -0.97113861541E+03 -0.29163530313E+03  0.12691638996E+04  0.16244809554E+04  0.10100000352E+00 0.  1.
       -3    1    3    3    0  502  0.97113861541E+03  0.29163530313E+03 -0.12335995141E+04  0.15968497524E+04  0.10100000352E+00 0. -1.
</event>
<event>
 5   0  0.5108810E-06  0.2899596E+04  0.7818609E-02  0.8272998E-01
        2   -1    0    0  501    0  0.00000000000E+00  0.00000000000E+00  0.15055426957E+04  0.15055426957E+04  0.25500000920E-02 0.  1.
       -2   -1    0    0    0  501  0.00000000000E+00  0.00000000000E+00 -0.13961171309E+04  0.13961171309E+04  0.25500000920E-02 0. -1.
    10030    2    1    2    0    0  0.00000000000E+00  0.00000000000E+00  0.10942556479E+03  0.29016598266E+04  0.28995957986E+04 0.  0.
        1    1    3    3  502    0  0.82062385862E+03  0.11941400405E+04  0.10494807000E+03  0.14527243548E+04  0.50400001928E-02 0.  1.
       -1    1    3    3    0  502 -0.82062385862E+03 -0.11941400405E+04  0.44774947844E+01  0.14489354718E+04  0.50400001928E-02 0. -1.
</event>
<event>
 5   0  0.1846850E-06  0.3030874E+04  0.7818609E-02  0.8234969E-01
       -1   -1    0    0    0  501  0.00000000000E+00  0.00000000000E+00  0.13279804556E+04  0.13279804556E+04  0.50400001928E-02 0. -1.
        1   -1    0    0  501    0  0.00000000000E+00  0.00000000000E+00 -0.17293544601E+04  0.17293544602E+04  0.50400001928E-02 0.  1.
    10030    2    1    2    0    0  0.00000000000E+00  0.00000000000E+00 -0.40137400455E+03  0.30573349158E+04  0.30308737512E+04 0.  0.
        5    1    3    3  502    0 -0.14881918156E+04 -0.89886398016E+01 -0.48906956455E+03  0.15665269882E+04  0.46999998093E+01 0. -1.
       -5    1    3    3    0  502  0.14881918156E+04  0.89886398016E+01  0.87695559999E+02  0.14908079276E+04  0.46999998093E+01 0.  1.
</event>
<event>
 5   0  0.1977015E-06  0.3103294E+04  0.7818609E-02  0.8214834E-01
       -1   -1    0    0    0  501  0.00000000000E+00  0.00000000000E+00  0.11800831225E+04  0.11800831225E+04  0.50400001928E-02 0. -1.
        1   -1    0    0  501    0  0.00000000000E+00  0.00000000000E+00 -0.20402029158E+04  0.20402029158E+04  0.50400001928E-02 0.  1.
    10030    2    1    2    0    0  0.00000000000E+00  0.00000000000E+00 -0.86011979331E+03  0.32202860383E+04  0.31032943963E+04 0.  0.
        1    1    3    3  502    0 -0.33332733007E+03  0.12984397394E+03 -0.19968284302E+04  0.20286178413E+04  0.50400001928E-02 0.  1.
       -1    1    3    3    0  502  0.33332733007E+03 -0.12984397394E+03  0.11367086369E+04  0.11916681970E+04  0.50400001928E-02 0. -1.
</event>
<event>
 5   0  0.1881144E-06  0.3213097E+04  0.7818609E-02  0.8185367E-01
       -1   -1    0    0    0  501  0.00000000000E+00  0.00000000000E+00  0.81526138580E+03  0.81526138582E+03  0.50400001928E-02 0.  1.
        1   -1    0    0  501    0  0.00000000000E+00  0.00000000000E+00 -0.31658543322E+04  0.31658543322E+04  0.50400001928E-02 0. -1.
    10030    2    1    2    0    0  0.00000000000E+00  0.00000000000E+00 -0.23505929464E+04  0.39811157180E+04  0.32130974403E+04 0.  0.
        3    1    3    3  502    0 -0.11547521872E+04 -0.11129866040E+04 -0.12915736683E+04  0.20592120691E+04  0.10100000352E+00 0. -1.
       -3    1    3    3    0  502  0.11547521872E+04  0.11129866040E+04 -0.10590192781E+04  0.19219036490E+04  0.10100000352E+00 0.  1.
</event>
<event>
 5   0  0.1886248E-06  0.3157718E+04  0.7818609E-02  0.8200074E-01
        1   -1    0    0  501    0  0.00000000000E+00  0.00000000000E+00  0.16146668440E+04  0.16146668440E+04  0.50400001928E-02 0.  1.
       -1   -1    0    0    0  501  0.00000000000E+00  0.00000000000E+00 -0.15438452014E+04  0.15438452014E+04  0.50400001928E-02 0. -1.
    10030    2    1    2    0    0  0.00000000000E+00  0.00000000000E+00  0.70821642562E+02  0.31585120454E+04  0.31577179475E+04 0.  0.
        4    1    3    3  502    0 -0.92895032145E+03 -0.10358466582E+04  0.78183373252E+03  0.15959926683E+04  0.12699999809E+01 0.  1.
       -4    1    3    3    0  502  0.92895032145E+03  0.10358466582E+04 -0.71101208995E+03  0.15625193772E+04  0.12699999809E+01 0. -1.
</event>
<event>
 5   0  0.1881144E-06  0.2427512E+04  0.7818609E-02  0.8429275E-01
       -1   -1    0    0    0  501  0.00000000000E+00  0.00000000000E+00  0.97713556053E+03  0.97713556054E+03  0.50400001928E-02 0. -1.
        1   -1    0    0  501    0  0.00000000000E+00  0.00000000000E+00 -0.15076762713E+04  0.15076762713E+04  0.50400001928E-02 0.  1.
    10030    2    1    2    0    0  0.00000000000E+00  0.00000000000E+00 -0.53054071076E+03  0.24848118318E+04  0.24275123880E+04 0.  0.
        3    1    3    3  502    0 -0.97247945344E+03  0.71488291331E+03 -0.39647637362E+03  0.12704201636E+04  0.10100000352E+00 0. -1.
       -3    1    3    3    0  502  0.97247945344E+03 -0.71488291331E+03 -0.13406433714E+03  0.12143916682E+04  0.10100000352E+00 0.  1.
</event>
<event>
 5   0  0.5108810E-06  0.2290259E+04  0.7818609E-02  0.8481772E-01
        2   -1    0    0  501    0  0.00000000000E+00  0.00000000000E+00  0.74125885401E+03  0.74125885401E+03  0.25500000920E-02 0. -1.
       -2   -1    0    0    0  501  0.00000000000E+00  0.00000000000E+00 -0.17690468478E+04  0.17690468478E+04  0.25500000920E-02 0.  1.
    10030    2    1    2    0    0  0.00000000000E+00  0.00000000000E+00 -0.10277879937E+04  0.25103057018E+04  0.22902590588E+04 0.  0.
        1    1    3    3  502    0 -0.82934679687E+03  0.57431781831E+03  0.80080477286E+02  0.10119634128E+04  0.50400001928E-02 0. -1.
       -1    1    3    3    0  502  0.82934679687E+03 -0.57431781831E+03 -0.11078684710E+04  0.14983422890E+04  0.50400001928E-02 0.  1.
</event>
<event>
 5   0  0.5131083E-06  0.3159068E+04  0.7818609E-02  0.8199712E-01
        2   -1    0    0  501    0  0.00000000000E+00  0.00000000000E+00  0.20768499618E+04  0.20768499618E+04  0.25500000920E-02 0.  1.
       -2   -1    0    0    0  501  0.00000000000E+00  0.00000000000E+00 -0.12013035104E+04  0.12013035104E+04  0.25500000920E-02 0. -1.
    10030    2    1    2    0    0  0.00000000000E+00  0.00000000000E+00  0.87554645147E+03  0.32781534722E+04  0.31590676787E+04 0.  0.
        3    1    3    3  502    0  0.11048777124E+04  0.90291473888E+03  0.11407445222E+04  0.18268300031E+04  0.10100000352E+00 0.  1.
       -3    1    3    3    0  502 -0.11048777124E+04 -0.90291473888E+03 -0.26519807073E+03  0.14513234691E+04  0.10100000352E+00 0. -1.
</event>
<event>
 5   0  0.1881144E-06  0.3269068E+04  0.7818609E-02  0.8170811E-01
        1   -1    0    0  501    0  0.00000000000E+00  0.00000000000E+00  0.17076604662E+04  0.17076604662E+04  0.50400001928E-02 0.  1.
       -1   -1    0    0    0  501  0.00000000000E+00  0.00000000000E+00 -0.15645389559E+04  0.15645389559E+04  0.50400001928E-02 0. -1.
    10030    2    1    2    0    0  0.00000000000E+00  0.00000000000E+00  0.14312151035E+03  0.32721994221E+04  0.32690679545E+04 0.  0.
        3    1    3    3  502    0  0.11172148933E+04  0.85300147879E+03 -0.76345694944E+03  0.15995771831E+04  0.10100000352E+00 0. -1.
       -3    1    3    3    0  502 -0.11172148933E+04 -0.85300147879E+03  0.90657845980E+03  0.16726222391E+04  0.10100000352E+00 0.  1.
</event>
<event>
 5   0  0.5373060E-06  0.3234957E+04  0.7818609E-02  0.8179646E-01
       -2   -1    0    0    0  501  0.00000000000E+00  0.00000000000E+00  0.13471503927E+04  0.13471503927E+04  0.25500000920E-02 0. -1.
        2   -1    0    0  501    0  0.00000000000E+00  0.00000000000E+00 -0.19420526318E+04  0.19420526318E+04  0.25500000920E-02 0.  1.
    10030    2    1    2    0    0  0.00000000000E+00  0.00000000000E+00 -0.59490223909E+03  0.32892030245E+04  0.32349571654E+04 0.  0.
        5    1    3    3  502    0 -0.34286775938E+03  0.15757879933E+04 -0.42423681025E+03  0.16675326268E+04  0.46999998093E+01 0. -1.
       -5    1    3    3    0  502  0.34286775938E+03 -0.15757879933E+04 -0.17066542884E+03  0.16216703977E+04  0.46999998093E+01 0.  1.
</event>
<event>
 5   0  0.1886248E-06  0.3202555E+04  0.7818609E-02  0.8188143E-01
        1   -1    0    0  501    0  0.00000000000E+00  0.00000000000E+00  0.21961630688E+04  0.21961630688E+04  0.50400001928E-02 0.  1.
       -1   -1    0    0    0  501  0.00000000000E+00  0.00000000000E+00 -0.11675317943E+04  0.11675317943E+04  0.50400001928E-02 0. -1.
    10030    2    1    2    0    0  0.00000000000E+00  0.00000000000E+00  0.10286312745E+04  0.33636948631E+04  0.32025553599E+04 0.  0.
        4    1    3    3  502    0  0.43961812557E+03  0.14080584235E+04 -0.14008763197E+03  0.14817283077E+04  0.12699999809E+01 0. -1.
       -4    1    3    3    0  502 -0.43961812557E+03 -0.14080584235E+04  0.11687189065E+04  0.18819665554E+04  0.12699999809E+01 0.  1.
</event>
<event>
 5   0  0.1969465E-06  0.2150682E+04  0.7818609E-02  0.8539240E-01
       -1   -1    0    0    0  501  0.00000000000E+00  0.00000000000E+00  0.76160282594E+03  0.76160282596E+03  0.50400001928E-02 0.  1.
        1   -1    0    0  501    0  0.00000000000E+00  0.00000000000E+00 -0.15183224711E+04  0.15183224711E+04  0.50400001928E-02 0. -1.
    10030    2    1    2    0    0  0.00000000000E+00  0.00000000000E+00 -0.75671964516E+03  0.22799252971E+04  0.21506823891E+04 0.  0.
        2    1    3    3  502    0 -0.20400451622E+02 -0.86635671109E+02  0.75769131881E+03  0.76290107652E+03  0.25500000920E-02 0.  1.
       -2    1    3    3    0  502  0.20400451622E+02  0.86635671109E+02 -0.15144109640E+04  0.15170242206E+04  0.25500000920E-02 0. -1.
</event>
<event>
 5   0  0.1977015E-06  0.2174191E+04  0.7818609E-02  0.8529248E-01
        1   -1    0    0  501    0  0.00000000000E+00  0.00000000000E+00  0.12490584183E+04  0.12490584183E+04  0.50400001928E-02 0.  1.
       -1   -1    0    0    0  501  0.00000000000E+00  0.00000000000E+00 -0.94613365545E+03  0.94613365547E+03  0.50400001928E-02 0. -1.
    10030    2    1    2    0    0  0.00000000000E+00  0.00000000000E+00  0.30292476289E+03  0.21951920738E+04  0.21741906147E+04 0.  0.
        1    1    3    3  502    0 -0.21883606515E+03 -0.48311518315E+02  0.12254823494E+04  0.12458050470E+04  0.50400001928E-02 0.  1.
       -1    1    3    3    0  502  0.21883606515E+03  0.48311518315E+02 -0.92255758656E+03  0.94938702685E+03  0.50400001928E-02 0. -1.
</event>
<event>
 5   0  0.1846850E-06  0.2088191E+04  0.7818609E-02  0.8566463E-01
       -1   -1    0    0    0  501  0.00000000000E+00  0.00000000000E+00  0.12843720581E+04  0.12843720581E+04  0.50400001928E-02 0. -1.
        1   -1    0    0  501    0  0.00000000000E+00  0.00000000000E+00 -0.84876881751E+03  0.84876881753E+03  0.50400001928E-02 0.  1.
    10030    2    1    2    0    0  0.00000000000E+00  0.00000000000E+00  0.43560324057E+03  0.21331408756E+04  0.20881905593E+04 0.  0.
        5    1    3    3  502    0 -0.57784006778E+03  0.66376047148E+03  0.79170992228E+03  0.11837667838E+04  0.46999998093E+01 0. -1.
       -5    1    3    3    0  502  0.57784006778E+03 -0.66376047148E+03 -0.35610668171E+03  0.94937409180E+03  0.46999998093E+01 0.  1.
</event>
<event>
 5   0  0.5373060E-06  0.3217083E+04  0.7818609E-02  0.8184320E-01
       -2   -1    0    0    0  501  0.00000000000E+00  0.00000000000E+00  0.14712915260E+04  0.14712915260E+04  0.25500000920E-02 0. -1.
        2   -1    0    0  501    0  0.00000000000E+00  0.00000000000E+00 -0.17585951931E+04  0.17585951931E+04  0.25500000920E-02 0.  1.
    10030    2    1    2    0    0  0.00000000000E+00  0.00000000000E+00 -0.28730366712E+03  0.32298867191E+04  0.32170832785E+04 0.  0.
        5    1    3    3  502    0 -0.27103798800E+03 -0.92862044419E+03 -0.14339071642E+04  0.17297136658E+04  0.46999998093E+01 0.  1.
       -5    1    3    3    0  502  0.27103798800E+03  0.92862044419E+03  0.11466034970E+04  0.15001730533E+04  0.46999998093E+01 0. -1.
</event>
<event>
 5   0  0.5121624E-06  0.3135674E+04  0.7818609E-02  0.8206015E-01
        2   -1    0    0  501    0  0.00000000000E+00  0.00000000000E+00  0.23324565761E+04  0.23324565761E+04  0.25500000920E-02 0. -1.
       -2   -1    0    0    0  501  0.00000000000E+00  0.00000000000E+00 -0.10538730517E+04  0.10538730517E+04  0.25500000920E-02 0.  1.
    10030    2    1    2    0    0  0.00000000000E+00  0.00000000000E+00  0.12785835244E+04  0.33863296278E+04  0.31356741731E+04 0.  0.
        4    1    3    3  502    0  0.91069967426E+03 -0.57689875812E+03 -0.59009436957E+03  0.12289829339E+04  0.12699999809E+01 0.  1.
       -4    1    3    3    0  502 -0.91069967426E+03  0.57689875812E+03  0.18686778940E+04  0.21573466940E+04  0.12699999809E+01 0. -1.
</event>
<event>
 5   0  0.1846850E-06  0.3205152E+04  0.7818609E-02  0.8187458E-01
       -1   -1    0    0    0  501  0.00000000000E+00  0.00000000000E+00  0.12719746391E+04  0.12719746391E+04  0.50400001928E-02 0.  1.
        1   -1    0    0  501    0  0.00000000000E+00  0.00000000000E+00 -0.20191041086E+04  0.20191041086E+04  0.50400001928E-02 0. -1.
    10030    2    1    2    0    0  0.00000000000E+00  0.00000000000E+00 -0.74712946944E+03  0.32910787477E+04  0.32051516157E+04 0.  0.
        5    1    3    3  502    0  0.14534842621E+04 -0.24792422216E+03 -0.10182047664E+04  0.17918833546E+04  0.46999998093E+01 0. -1.
       -5    1    3    3    0  502 -0.14534842621E+04  0.24792422216E+03  0.27107529694E+03  0.14991953931E+04  0.46999998093E+01 0.  1.
</event>
<event>
 5   0  0.1729500E-06  0.3224254E+04  0.7818609E-02  0.8182441E-01
        3   -1    0    0  501    0  0.00000000000E+00  0.00000000000E+00  0.19713431923E+04  0.19713431949E+04  0.10100000352E+00 0. -1.
       -3   -1    0    0    0  501  0.00000000000E+00  0.00000000000E+00 -0.13183665852E+04  0.13183665890E+04  0.10100000352E+00 0.  1.
    10030    2    1    2    0    0  0.00000000000E+00  0.00000000000E+00  0.65297660711E+03  0.32897097839E+04  0.32242537141E+04 0.  0.
        1    1    3    3  502    0  0.83031516957E+03 -0.13024575883E+04  0.79752495132E+03  0.17383512586E+04  0.50400001928E-02 0. -1.
       -1    1    3    3    0  502 -0.83031516957E+03  0.13024575883E+04 -0.14454834420E+03  0.15513585253E+04  0.50400001928E-02 0.  1.
</event>
<event>
 5   0  0.5108810E-06  0.3189877E+04  0.7818609E-02  0.8191496E-01
        2   -1    0    0  501    0  0.00000000000E+00  0.00000000000E+00  0.23509506712E+04  0.23509506712E+04  0.25500000920E-02 0.  1.
       -2   -1    0    0    0  501  0.00000000000E+00  0.00000000000E+00 -0.10820425957E+04  0.10820425957E+04  0.25500000920E-02 0. -1.
    10030    2    1    2    0    0  0.00000000000E+00  0.00000000000E+00  0.12689080755E+04  0.34329932669E+04  0.31898769673E+04 0.  0.
        1    1    3    3  502    0 -0.13769916797E+04 -0.68007197798E+03  0.17127534890E+03  0.15452958378E+04  0.50400001928E-02 0. -1.
       -1    1    3    3    0  502  0.13769916797E+04  0.68007197798E+03  0.10976327266E+04  0.18876974291E+04  0.50400001928E-02 0.  1.
</event>
<event>
 5   0  0.5121624E-06  0.3146245E+04  0.7818609E-02  0.8203160E-01
       -2   -1    0    0    0  501  0.00000000000E+00  0.00000000000E+00  0.14386137401E+04  0.14386137401E+04  0.25500000920E-02 0.  1.
        2   -1    0    0  501    0  0.00000000000E+00  0.00000000000E+00 -0.17202081662E+04  0.17202081662E+04  0.25500000920E-02 0. -1.
    10030    2    1    2    0    0  0.00000000000E+00  0.00000000000E+00 -0.28159442609E+03  0.31588219063E+04  0.31462454473E+04 0.  0.
        4    1    3    3  502    0 -0.80637634008E+03  0.43773054536E+03 -0.14237402374E+04  0.16937794156E+04  0.12699999809E+01 0. -1.
       -4    1    3    3    0  502  0.80637634008E+03 -0.43773054536E+03  0.11421458113E+04  0.14650424907E+04  0.12699999809E+01 0.  1.
</event>
<event>
 5   0  0.5121624E-06  0.3132318E+04  0.7818609E-02  0.8206924E-01
       -2   -1    0    0    0  501  0.00000000000E+00  0.00000000000E+00  0.14273766935E+04  0.14273766935E+04  0.25500000920E-02 0. -1.
        2   -1    0    0  501    0  0.00000000000E+00  0.00000000000E+00 -0.17184349473E+04  0.17184349473E+04  0.25500000920E-02 0.  1.
    10030    2    1    2    0    0  0.00000000000E+00  0.00000000000E+00 -0.29105825379E+03  0.31458116408E+04  0.31323179871E+04 0.  0.
        4    1    3    3  502    0  0.65961904526E+03  0.11495575693E+04  0.69249493584E+03  0.14953697667E+04  0.12699999809E+01 0. -1.
       -4    1    3    3    0  502 -0.65961904526E+03 -0.11495575693E+04 -0.98355318964E+03  0.16504418741E+04  0.12699999809E+01 0.  1.
</event>
<event>
 5   0  0.1977015E-06  0.3313026E+04  0.7818609E-02  0.8159589E-01
       -1   -1    0    0    0  501  0.00000000000E+00  0.00000000000E+00  0.16897960959E+04  0.16897960959E+04  0.50400001928E-02 0.  1.
        1   -1    0    0  501    0  0.00000000000E+00  0.00000000000E+00 -0.16238857360E+04  0.16238857360E+04  0.50400001928E-02 0. -1.
    10030    2    1    2    0    0  0.00000000000E+00  0.00000000000E+00  0.65910359942E+02  0.33136818319E+04  0.33130262763E+04 0.  0.
        1    1    3    3  502    0 -0.49665773535E+01  0.15173837827E+04 -0.63167428602E+03  0.16436211895E+04  0.50400001928E-02 0.  1.
       -1    1    3    3    0  502  0.49665773535E+01 -0.15173837827E+04  0.69758464596E+03  0.16700606424E+04  0.50400001928E-02 0. -1.
</event>
<event>
 5   0  0.1881144E-06  0.3231892E+04  0.7818609E-02  0.8180445E-01
        1   -1    0    0  501    0  0.00000000000E+00  0.00000000000E+00  0.14622669132E+04  0.14622669132E+04  0.50400001928E-02 0.  1.
       -1   -1    0    0    0  501  0.00000000000E+00  0.00000000000E+00 -0.17857759425E+04  0.17857759425E+04  0.50400001928E-02 0. -1.
    10030    2    1    2    0    0  0.00000000000E+00  0.00000000000E+00 -0.32350902934E+03  0.32480428557E+04  0.32318917526E+04 0.  0.
        3    1    3    3  502    0  0.16006502131E+04 -0.56129443943E+01 -0.38460225050E+03  0.16462173341E+04  0.10100000352E+00 0.  1.
       -3    1    3    3    0  502 -0.16006502131E+04  0.56129443943E+01  0.61093221154E+02  0.16018255216E+04  0.10100000352E+00 0. -1.
</event>
<event>
 5   0  0.1881144E-06  0.3175454E+04  0.7818609E-02  0.8195330E-01
       -1   -1    0    0    0  501  0.00000000000E+00  0.00000000000E+00  0.16106697756E+04  0.16106697756E+04  0.50400001928E-02 0.  1.
        1   -1    0    0  501    0  0.00000000000E+00  0.00000000000E+00 -0.15651108125E+04  0.15651108125E+04  0.50400001928E-02 0. -1.
    10030    2    1    2    0    0  0.00000000000E+00  0.00000000000E+00  0.45558963104E+02  0.31757805882E+04  0.31754537826E+04 0.  0.
        3    1    3    3  502    0  0.87643328440E+03  0.95405627285E+03  0.94076173832E+03  0.16010594406E+04  0.10100000352E+00 0.  1.
       -3    1    3    3    0  502 -0.87643328440E+03 -0.95405627285E+03 -0.89520277521E+03  0.15747211476E+04  0.10100000352E+00 0. -1.
</event>
<event>
 5   0  0.5121624E-06  0.3291325E+04  0.7818609E-02  0.8165106E-01
       -2   -1    0    0    0  501  0.00000000000E+00  0.00000000000E+00  0.95828292358E+03  0.95828292358E+03  0.25500000920E-02 0. -1.
        2   -1    0    0  501    0  0.00000000000E+00  0.00000000000E+00 -0.28261015750E+04  0.28261015750E+04  0.25500000920E-02 0.  1.
    10030    2    1    2    0    0  0.00000000000E+00  0.00000000000E+00 -0.18678186514E+04  0.37843844986E+04  0.32913248880E+04 0.  0.
        4    1    3    3  502    0  0.14731159891E+04 -0.66545240685E+03 -0.12888729175E+04  0.20673878769E+04  0.12699999809E+01 0.  1.
       -4    1    3    3    0  502 -0.14731159891E+04  0.66545240685E+03 -0.57894573391E+03  0.17169966217E+04  0.12699999809E+01 0. -1.
</event>
<event>
 5   0  0.1886248E-06  0.3029987E+04  0.7818609E-02  0.8235220E-01
        1   -1    0    0  501    0  0.00000000000E+00  0.00000000000E+00  0.26036692115E+04  0.26036692115E+04  0.50400001928E-02 0. -1.
       -1   -1    0    0    0  501  0.00000000000E+00  0.00000000000E+00 -0.88152694601E+03  0.88152694602E+03  0.50400001928E-02 0.  1.
    10030    2    1    2    0    0  0.00000000000E+00  0.00000000000E+00  0.17221422655E+04  0.34851961575E+04  0.30299865138E+04 0.  0.
        4    1    3    3  502    0 -0.11894157535E+04 -0.27638176941E+03  0.18925094159E+04  0.22522633548E+04  0.12699999809E+01 0. -1.
       -4    1    3    3    0  502  0.11894157535E+04  0.27638176941E+03 -0.17036715038E+03  0.12329328027E+04  0.12699999809E+01 0.  1.
</event>
<event>
 5   0  0.5108810E-06  0.3294295E+04  0.7818609E-02  0.8164348E-01
       -2   -1    0    0    0  501  0.00000000000E+00  0.00000000000E+00  0.13467234921E+04  0.13467234921E+04  0.25500000920E-02 0. -1.
        2   -1    0    0  501    0  0.00000000000E+00  0.00000000000E+00 -0.20145897344E+04  0.20145897344E+04  0.25500000920E-02 0.  1.
    10030    2    1    2    0    0  0.00000000000E+00  0.00000000000E+00 -0.66786624229E+03  0.33613132265E+04  0.32942952644E+04 0.  0.
        1    1    3    3  502    0 -0.13951379281E+04 -0.47245571782E+03 -0.10861354630E+04  0.18301132445E+04  0.50400001928E-02 0. -1.
       -1    1    3    3    0  502  0.13951379281E+04  0.47245571782E+03  0.41826922074E+03  0.15311999819E+04  0.50400001928E-02 0.  1.
</event>
<event>
 5   0  0.1846850E-06  0.3143141E+04  0.7818609E-02  0.8203997E-01
        1   -1    0    0  501    0  0.00000000000E+00  0.00000000000E+00  0.82074855392E+03  0.82074855394E+03  0.50400001928E-02 0.  1.
       -1   -1    0    0    0  501  0.00000000000E+00  0.00000000000E+00 -0.30092456400E+04  0.30092456400E+04  0.50400001928E-02 0. -1.
    10030    2    1    2    0    0  0.00000000000E+00  0.00000000000E+00 -0.21884970861E+04  0.38299941940E+04  0.31431411088E+04 0.  0.
        5    1    3    3  502    0  0.14511521435E+04  0.57364380941E+03 -0.13218947148E+04  0.20450764022E+04  0.46999998093E+01 0. -1.
       -5    1    3    3    0  502 -0.14511521435E+04 -0.57364380941E+03 -0.86660237129E+03  0.17849177918E+04  0.46999998093E+01 0.  1.
</event>
<event>
 5   0  0.5131083E-06  0.3199093E+04  0.7818609E-02  0.8189057E-01
       -2   -1    0    0    0  501  0.00000000000E+00  0.00000000000E+00  0.10504639675E+04  0.10504639675E+04  0.25500000920E-02 0.  1.
        2   -1    0    0  501    0  0.00000000000E+00  0.00000000000E+00 -0.24356373483E+04  0.24356373483E+04  0.25500000920E-02 0. -1.
    10030    2    1    2    0    0  0.00000000000E+00  0.00000000000E+00 -0.13851733808E+04  0.34861013158E+04  0.31990931667E+04 0.  0.
        3    1    3    3  502    0  0.76856020043E+03  0.44497235632E+03  0.75712978501E+03  0.11670178667E+04  0.10100000352E+00 0.  1.
       -3    1    3    3    0  502 -0.76856020043E+03 -0.44497235632E+03 -0.21423031658E+04  0.23190834491E+04  0.10100000352E+00 0. -1.
</event>
<event>
 5   0  0.5108810E-06  0.2058006E+04  0.7818609E-02  0.8579971E-01
       -2   -1    0    0    0  501  0.00000000000E+00  0.00000000000E+00  0.47968155604E+03  0.47968155605E+03  0.25500000920E-02 0.  1.
        2   -1    0    0  501    0  0.00000000000E+00  0.00000000000E+00 -0.22073969470E+04  0.22073969470E+04  0.25500000920E-02 0. -1.
    10030    2    1    2    0    0  0.00000000000E+00  0.00000000000E+00 -0.17277153910E+04  0.26870785031E+04  0.20580064163E+04 0.  0.
        1    1    3    3  502    0 -0.54974612410E+03  0.74967436332E+03 -0.28785839876E+03  0.97318801356E+03  0.50400001928E-02 0.  1.
       -1    1    3    3    0  502  0.54974612410E+03 -0.74967436332E+03 -0.14398569922E+04  0.17138904895E+04  0.50400001928E-02 0. -1.
</event>
<event>
 5   0  0.1846850E-06  0.3359705E+04  0.7818609E-02  0.8147867E-01
       -1   -1    0    0    0  501  0.00000000000E+00  0.00000000000E+00  0.14091102932E+04  0.14091102932E+04  0.50400001928E-02 0.  1.
        1   -1    0    0  501    0  0.00000000000E+00  0.00000000000E+00 -0.20026142518E+04  0.20026142519E+04  0.50400001928E-02 0. -1.
    10030    2    1    2    0    0  0.00000000000E+00  0.00000000000E+00 -0.59350395867E+03  0.34117245450E+04  0.33597049606E+04 0.  0.
        5    1    3    3  502    0  0.88507547165E+03  0.83587704457E+03  0.87868187141E+03  0.15013836769E+04  0.46999998093E+01 0.  1.
       -5    1    3    3    0  502 -0.88507547165E+03 -0.83587704457E+03 -0.14721858301E+04  0.19103408681E+04  0.46999998093E+01 0. -1.
</event>
<event>
 5   0  0.1969465E-06  0.3184989E+04  0.7818609E-02  0.8192793E-01
       -1   -1    0    0    0  501  0.00000000000E+00  0.00000000000E+00  0.15476066500E+04  0.15476066500E+04  0.50400001928E-02 0. -1.
        1   -1    0    0  501    0  0.00000000000E+00  0.00000000000E+00 -0.16386843767E+04  0.16386843767E+04  0.50400001928E-02 0.  1.
    10030    2    1    2    0    0  0.00000000000E+00  0.00000000000E+00 -0.91077726723E+02  0.31862910267E+04  0.31849890666E+04 0.  0.
        2    1    3    3  502    0  0.74345208301E+03  0.48842558964E+03 -0.13669718048E+04  0.16309176777E+04  0.25500000920E-02 0.  1.
       -2    1    3    3    0  502 -0.74345208301E+03 -0.48842558964E+03  0.12758940780E+04  0.15553733490E+04  0.25500000920E-02 0. -1.
</event>
<event>
 5   0  0.5347280E-06  0.3310858E+04  0.7818609E-02  0.8160138E-01
       -2   -1    0    0    0  501  0.00000000000E+00  0.00000000000E+00  0.13462219533E+04  0.13462219533E+04  0.25500000920E-02 0. -1.
        2   -1    0    0  501    0  0.00000000000E+00  0.00000000000E+00 -0.20356563104E+04  0.20356563104E+04  0.25500000920E-02 0.  1.
    10030    2    1    2    0    0  0.00000000000E+00  0.00000000000E+00 -0.68943435711E+03  0.33818782638E+04  0.33108580245E+04 0.  0.
        2    1    3    3  502    0 -0.10820575301E+03 -0.58641595030E+03  0.12327060277E+04  0.13693634662E+04  0.25500000920E-02 0. -1.
       -2    1    3    3    0  502  0.10820575301E+03  0.58641595030E+03 -0.19221403848E+04  0.20125147976E+04  0.25500000920E-02 0.  1.
</event>
<event>
 5   0  0.5347280E-06  0.3160003E+04  0.7818609E-02  0.8199461E-01
        2   -1    0    0  501    0  0.00000000000E+00  0.00000000000E+00  0.17338534065E+04  0.17338534065E+04  0.25500000920E-02 0.  1.
       -2   -1    0    0    0  501  0.00000000000E+00  0.00000000000E+00 -0.14398019539E+04  0.14398019539E+04  0.25500000920E-02 0. -1.
    10030    2    1    2    0    0  0.00000000000E+00  0.00000000000E+00  0.29405145258E+03  0.31736553604E+04  0.31600034952E+04 0.  0.
        2    1    3    3  502    0 -0.32160369621E+03  0.95997605863E+03 -0.10712368526E+04  0.14739509371E+04  0.25500000920E-02 0. -1.
       -2    1    3    3    0  502  0.32160369621E+03 -0.95997605863E+03  0.13652883051E+04  0.16997044233E+04  0.25500000920E-02 0.  1.
</event>
<event>
 5   0  0.1881144E-06  0.3207265E+04  0.7818609E-02  0.8186901E-01
        1   -1    0    0  501    0  0.00000000000E+00  0.00000000000E+00  0.26896628893E+04  0.26896628893E+04  0.50400001928E-02 0. -1.
       -1   -1    0    0    0  501  0.00000000000E+00  0.00000000000E+00 -0.95611887918E+03  0.95611887920E+03  0.50400001928E-02 0.  1.
    10030    2    1    2    0    0  0.00000000000E+00  0.00000000000E+00  0.17335440101E+04  0.36457817685E+04  0.32072651696E+04 0.  0.
        3    1    3    3  502    0  0.34044764422E+03  0.92615668267E+02  0.26449963729E+04  0.26684242697E+04  0.10100000352E+00 0. -1.
       -3    1    3    3    0  502 -0.34044764422E+03 -0.92615668267E+02 -0.91145236281E+03  0.97735749874E+03  0.10100000352E+00 0.  1.
</event>
<event>
 5   0  0.1969465E-06  0.3164192E+04  0.7818609E-02  0.8198339E-01
       -1   -1    0    0    0  501  0.00000000000E+00  0.00000000000E+00  0.11009303541E+04  0.11009303541E+04  0.50400001928E-02 0. -1.
        1   -1    0    0  501    0  0.00000000000E+00  0.00000000000E+00 -0.22735565022E+04  0.22735565022E+04  0.50400001928E-02 0.  1.
    10030    2    1    2    0    0  0.00000000000E+00  0.00000000000E+00 -0.11726261481E+04  0.33744868563E+04  0.31641917546E+04 0.  0.
        2    1    3    3  502    0  0.57346699491E+03 -0.70217878829E+03 -0.19690601332E+04  0.21677447390E+04  0.25500000920E-02 0.  1.
       -2    1    3    3    0  502 -0.57346699491E+03  0.70217878829E+03  0.79643398513E+03  0.12067421173E+04  0.25500000920E-02 0. -1.
</event>
<event>
 5   0  0.5108810E-06  0.2509484E+04  0.7818609E-02  0.8399615E-01
       -2   -1    0    0    0  501  0.00000000000E+00  0.00000000000E+00  0.14403790014E+04  0.14403790014E+04  0.25500000920E-02 0.  1.
        2   -1    0    0  501    0  0.00000000000E+00  0.00000000000E+00 -0.10930299271E+04  0.10930299271E+04  0.25500000920E-02 0. -1.
    10030    2    1    2    0    0  0.00000000000E+00  0.00000000000E+00  0.34734907428E+03  0.25334089284E+04  0.25094838950E+04 0.  0.
        1    1    3    3  502    0  0.50236049956E+03 -0.42837043583E+03  0.12508571105E+04  0.14143941504E+04  0.50400001928E-02 0.  1.
       -1    1    3    3    0  502 -0.50236049956E+03  0.42837043583E+03 -0.90350803623E+03  0.11190147780E+04  0.50400001928E-02 0. -1.
</event>
<event>
 5   0  0.1886248E-06  0.3085087E+04  0.7818609E-02  0.8219842E-01
        1   -1    0    0  501    0  0.00000000000E+00  0.00000000000E+00  0.21801431573E+04  0.21801431573E+04  0.50400001928E-02 0.  1.
       -1   -1    0    0    0  501  0.00000000000E+00  0.00000000000E+00 -0.10914150410E+04  0.10914150410E+04  0.50400001928E-02 0. -1.
    10030    2    1    2    0    0  0.00000000000E+00  0.00000000000E+00  0.10887281163E+04  0.32715581983E+04  0.30850873787E+04 0.  0.
        4    1    3    3  502    0 -0.40851078272E+03  0.14096251001E+04  0.40776118812E+02  0.14681921833E+04  0.12699999809E+01 0.  1.
       -4    1    3    3    0  502  0.40851078272E+03 -0.14096251001E+04  0.10479519975E+04  0.18033660150E+04  0.12699999809E+01 0. -1.
</event>
<event>
 5   0  0.5108810E-06  0.3184298E+04  0.7818609E-02  0.8192976E-01
       -2   -1    0    0    0  501  0.00000000000E+00  0.00000000000E+00  0.17621254596E+04  0.17621254596E+04  0.25500000920E-02 0.  1.
        2   -1    0    0  501    0  0.00000000000E+00  0.00000000000E+00 -0.14385688855E+04  0.14385688855E+04  0.25500000920E-02 0. -1.
    10030    2    1    2    0    0  0.00000000000E+00  0.00000000000E+00  0.32355657412E+03  0.32006943451E+04  0.31842982640E+04 0.  0.
        1    1    3    3  502    0 -0.42908233235E+03  0.75642009921E+03 -0.11787513632E+04  0.14648337075E+04  0.50400001928E-02 0. -1.
       -1    1    3    3    0  502  0.42908233235E+03 -0.75642009921E+03  0.15023079373E+04  0.17358606375E+04  0.50400001928E-02 0.  1.
</event>
<event>
 5   0  0.1977015E-06  0.3191562E+04  0.7818609E-02  0.8191049E-01
        1   -1    0    0  501    0  0.00000000000E+00  0.00000000000E+00  0.29369721781E+04  0.29369721781E+04  0.50400001928E-02 0.  1.
       -1   -1    0    0    0  501  0.00000000000E+00  0.00000000000E+00 -0.86705527476E+03  0.86705527477E+03  0.50400001928E-02 0. -1.
    10030    2    1    2    0    0  0.00000000000E+00  0.00000000000E+00  0.20699169033E+04  0.38040274528E+04  0.31915621372E+04 0.  0.
        1    1    3    3  502    0  0.91093212133E+03  0.11576037233E+04  0.30344405592E+03  0.15039687513E+04  0.50400001928E-02 0. -1.
       -1    1    3    3    0  502 -0.91093212133E+03 -0.11576037233E+04  0.17664728474E+04  0.23000587015E+04  0.50400001928E-02 0.  1.
</event>
<event>
 5   0  0.5121624E-06  0.3212753E+04  0.7818609E-02  0.8185457E-01
       -2   -1    0    0    0  501  0.00000000000E+00  0.00000000000E+00  0.15561585923E+04  0.15561585923E+04  0.25500000920E-02 0. -1.
        2   -1    0    0  501    0  0.00000000000E+00  0.00000000000E+00 -0.16582152409E+04  0.16582152409E+04  0.25500000920E-02 0.  1.
    10030    2    1    2    0    0  0.00000000000E+00  0.00000000000E+00 -0.10205664866E+03  0.32143738332E+04  0.32127532709E+04 0.  0.
        4    1    3    3  502    0  0.24797958345E+03  0.13928845977E+04 -0.81221620343E+03  0.16313546979E+04  0.12699999809E+01 0.  1.
       -4    1    3    3    0  502 -0.24797958345E+03 -0.13928845977E+04  0.71015955477E+03  0.15830191353E+04  0.12699999809E+01 0. -1.
</event>
<event>
 5   0  0.1729500E-06  0.3452737E+04  0.7818609E-02  0.8125083E-01
       -3   -1    0    0    0  501  0.00000000000E+00  0.00000000000E+00  0.11145940976E+04  0.11145941021E+04  0.10100000352E+00 0.  1.
        3   -1    0    0  501    0  0.00000000000E+00  0.00000000000E+00 -0.26739309116E+04  0.26739309135E+04  0.10100000352E+00 0. -1.
    10030    2    1    2    0    0  0.00000000000E+00  0.00000000000E+00 -0.15593368140E+04  0.37885250156E+04  0.34527366674E+04 0.  0.
        1    1    3    3  502    0  0.12660249136E+04 -0.62779972948E+02 -0.20656502078E+04  0.24235658002E+04  0.50400001928E-02 0. -1.
       -1    1    3    3    0  502 -0.12660249136E+04  0.62779972948E+02  0.50631339378E+03  0.13649592154E+04  0.50400001928E-02 0.  1.
</event>
<event>
 5   0  0.5131083E-06  0.3212503E+04  0.7818609E-02  0.8185523E-01
        2   -1    0    0  501    0  0.00000000000E+00  0.00000000000E+00  0.17780221147E+04  0.17780221147E+04  0.25500000920E-02 0.  1.
       -2   -1    0    0    0  501  0.00000000000E+00  0.00000000000E+00 -0.14510748576E+04  0.14510748576E+04  0.25500000920E-02 0. -1.
    10030    2    1    2    0    0  0.00000000000E+00  0.00000000000E+00  0.32694725703E+03  0.32290969723E+04  0.32125025677E+04 0.  0.
        3    1    3    3  502    0 -0.12424794370E+04 -0.85703468738E+02  0.11830816651E+04  0.17177841752E+04  0.10100000352E+00 0.  1.
       -3    1    3    3    0  502  0.12424794370E+04  0.85703468738E+02 -0.85613440806E+03  0.15113127971E+04  0.10100000352E+00 0. -1.
</event>
<event>
 5   0  0.5347280E-06  0.3279766E+04  0.7818609E-02  0.8168063E-01
        2   -1    0    0  501    0  0.00000000000E+00  0.00000000000E+00  0.17561610270E+04  0.17561610270E+04  0.25500000920E-02 0. -1.
       -2   -1    0    0    0  501  0.00000000000E+00  0.00000000000E+00 -0.15313038860E+04  0.15313038860E+04  0.25500000920E-02 0.  1.
    10030    2    1    2    0    0  0.00000000000E+00  0.00000000000E+00  0.22485714103E+03  0.32874649130E+04  0.32797659704E+04 0.  0.
        2    1    3    3  502    0 -0.12321214073E+04  0.29643736081E+03 -0.93079211923E+03  0.15723778936E+04  0.25500000920E-02 0.  1.
       -2    1    3    3    0  502  0.12321214073E+04 -0.29643736081E+03  0.11556492603E+04  0.17150870194E+04  0.25500000920E-02 0. -1.
</event>
<event>
 5   0  0.5108810E-06  0.3202083E+04  0.7818609E-02  0.8188267E-01
        2   -1    0    0  501    0  0.00000000000E+00  0.00000000000E+00  0.20172764004E+04  0.20172764004E+04  0.25500000920E-02 0. -1.
       -2   -1    0    0    0  501  0.00000000000E+00  0.00000000000E+00 -0.12706901534E+04  0.12706901534E+04  0.25500000920E-02 0.  1.
    10030    2    1    2    0    0  0.00000000000E+00  0.00000000000E+00  0.74658624701E+03  0.32879665539E+04  0.32020826090E+04 0.  0.
        1    1    3    3  502    0 -0.10335956028E+03 -0.80135688692E+03 -0.10459793793E+04  0.13217143870E+04  0.50400001928E-02 0.  1.
       -1    1    3    3    0  502  0.10335956028E+03  0.80135688692E+03  0.17925656263E+04  0.19662521668E+04  0.50400001928E-02 0. -1.
</event>
<event>
 5   0  0.1886248E-06  0.3117667E+04  0.7818609E-02  0.8210906E-01
       -1   -1    0    0    0  501  0.00000000000E+00  0.00000000000E+00  0.25193186109E+04  0.25193186109E+04  0.50400001928E-02 0. -1.
        1   -1    0    0  501    0  0.00000000000E+00  0.00000000000E+00 -0.96453152460E+03  0.96453152461E+03  0.50400001928E-02 0.  1.
    10030    2    1    2    0    0  0.00000000000E+00  0.00000000000E+00  0.15547870863E+04  0.34838501355E+04  0.31176672181E+04 0.  0.
        4    1    3    3  502    0 -0.26886902257E+02  0.58759507402E+03  0.23905459916E+04  0.24618494324E+04  0.12699999809E+01 0. -1.
       -4    1    3    3    0  502  0.26886902257E+02 -0.58759507402E+03 -0.83575890534E+03  0.10220007032E+04  0.12699999809E+01 0.  1.
</event>
<event>
 5   0  0.5347280E-06  0.3181537E+04  0.7818609E-02  0.8193710E-01
        2   -1    0    0  501    0  0.00000000000E+00  0.00000000000E+00  0.13852801694E+04  0.13852801694E+04  0.25500000920E-02 0.  1.
       -2   -1    0    0    0  501  0.00000000000E+00  0.00000000000E+00 -0.18267383287E+04  0.18267383287E+04  0.25500000920E-02 0. -1.
    10030    2    1    2    0    0  0.00000000000E+00  0.00000000000E+00 -0.44145815931E+03  0.32120184981E+04  0.31815369754E+04 0.  0.
        2    1    3    3  502    0 -0.15917650953E+03 -0.13601177678E+04 -0.10379825972E+04  0.17183321494E+04  0.25500000920E-02 0. -1.
       -2    1    3    3    0  502  0.15917650953E+03  0.13601177678E+04  0.59652443787E+03  0.14936863488E+04  0.25500000920E-02 0.  1.
</event>
<event>
 5   0  0.1846850E-06  0.3269963E+04  0.7818609E-02  0.8170581E-01
        1   -1    0    0  501    0  0.00000000000E+00  0.00000000000E+00  0.16906700840E+04  0.16906700840E+04  0.50400001928E-02 0.  1.
       -1   -1    0    0    0  501  0.00000000000E+00  0.00000000000E+00 -0.15811270494E+04  0.15811270495E+04  0.50400001928E-02 0. -1.
    10030    2    1    2    0    0  0.00000000000E+00  0.00000000000E+00  0.10954303456E+03  0.32717971335E+04  0.32699628142E+04 0.  0.
        5    1    3    3  502    0 -0.77812685919E+03 -0.12850517017E+04 -0.59080575630E+03  0.16142839951E+04  0.46999998093E+01 0. -1.
       -5    1    3    3    0  502  0.77812685919E+03  0.12850517017E+04  0.70034879086E+03  0.16575131384E+04  0.46999998093E+01 0.  1.
</event>
<event>
 5   0  0.1886248E-06  0.3173380E+04  0.7818609E-02  0.8195883E-01
        1   -1    0    0  501    0  0.00000000000E+00  0.00000000000E+00  0.20795207491E+04  0.20795207492E+04  0.50400001928E-02 0.  1.
       -1   -1    0    0    0  501  0.00000000000E+00  0.00000000000E+00 -0.12106564910E+04  0.12106564910E+04  0.50400001928E-02 0. -1.
    10030    2    1    2    0    0  0.00000000000E+00  0.00000000000E+00  0.86886425811E+03  0.32901772402E+04  0.31733800864E+04 0.  0.
        4    1    3    3  502    0  0.64064542808E+03 -0.14068213188E+04  0.63477611149E+02  0.15471275990E+04  0.12699999809E+01 0. -1.
       -4    1    3    3    0  502 -0.64064542808E+03  0.14068213188E+04  0.80538664696E+03  0.17430496412E+04  0.12699999809E+01 0.  1.
</event>
<event>
 5   0  0.1969465E-06  0.3162117E+04  0.7818609E-02  0.8198894E-01
       -1   -1    0    0    0  501  0.00000000000E+00  0.00000000000E+00  0.11851155308E+04  0.11851155309E+04  0.50400001928E-02 0.  1.
        1   -1    0    0  501    0  0.00000000000E+00  0.00000000000E+00 -0.21092844967E+04  0.21092844967E+04  0.50400001928E-02 0. -1.
    10030    2    1    2    0    0  0.00000000000E+00  0.00000000000E+00 -0.92416896581E+03  0.32944000275E+04  0.31621168960E+04 0.  0.
        2    1    3    3  502    0 -0.76550231393E+03  0.65588107055E+02 -0.19017201006E+04  0.20510570283E+04  0.25500000920E-02 0. -1.
       -2    1    3    3    0  502  0.76550231393E+03 -0.65588107055E+02  0.97755113481E+03  0.12433429992E+04  0.25500000920E-02 0.  1.
</event>
<event>
 5   0  0.1846850E-06  0.3250216E+04  0.7818609E-02  0.8175680E-01
       -1   -1    0    0    0  501  0.00000000000E+00  0.00000000000E+00  0.23453400288E+04  0.23453400288E+04  0.50400001928E-02 0. -1.
        1   -1    0    0  501    0  0.00000000000E+00  0.00000000000E+00 -0.11260528009E+04  0.11260528009E+04  0.50400001928E-02 0.  1.
    10030    2    1    2    0    0  0.00000000000E+00  0.00000000000E+00  0.12192872279E+04  0.34713928296E+04  0.32502164287E+04 0.  0.
        5    1    3    3  502    0 -0.15295824755E+04  0.12103991241E+03  0.11815056232E+04  0.19365564379E+04  0.46999998093E+01 0. -1.
       -5    1    3    3    0  502  0.15295824755E+04 -0.12103991241E+03  0.37781604661E+02  0.15348363917E+04  0.46999998093E+01 0.  1.
</event>
<event>
 5   0  0.5108810E-06  0.3171838E+04  0.7818609E-02  0.8196294E-01
       -2   -1    0    0    0  501  0.00000000000E+00  0.00000000000E+00  0.10045212874E+04  0.10045212874E+04  0.25500000920E-02 0. -1.
        2   -1    0    0  501    0  0.00000000000E+00  0.00000000000E+00 -0.25038189519E+04  0.25038189519E+04  0.25500000920E-02 0.  1.
    10030    2    1    2    0    0  0.00000000000E+00  0.00000000000E+00 -0.14992976645E+04  0.35083402393E+04  0.31718382285E+04 0.  0.
        1    1    3    3  502    0  0.10762760851E+04 -0.11643584298E+04 -0.71400125595E+03  0.17389360419E+04  0.50400001928E-02 0. -1.
       -1    1    3    3    0  502 -0.10762760851E+04  0.11643584298E+04 -0.78529640854E+03  0.17694041974E+04  0.50400001928E-02 0.  1.
</event>
<event>
 5   0  0.5121624E-06  0.3399688E+04  0.7818609E-02  0.8137983E-01
        2   -1    0    0  501    0  0.00000000000E+00  0.00000000000E+00  0.22994559794E+04  0.22994559794E+04  0.25500000920E-02 0.  1.
       -2   -1    0    0    0  501  0.00000000000E+00  0.00000000000E+00 -0.12565884024E+04  0.12565884024E+04  0.25500000920E-02 0. -1.
    10030    2    1    2    0    0  0.00000000000E+00  0.00000000000E+00  0.10428675770E+04  0.35560443818E+04  0.33996880536E+04 0.  0.
        4    1    3    3  502    0  0.74421871076E+03 -0.11192923733E+04 -0.56699610598E+03  0.14588225058E+04  0.12699999809E+01 0. -1.
       -4    1    3    3    0  502 -0.74421871076E+03  0.11192923733E+04  0.16098636830E+04  0.20972218760E+04  0.12699999809E+01 0.  1.
</event>
<event>
 5   0  0.5131083E-06  0.3240249E+04  0.7818609E-02  0.8178268E-01
       -2   -1    0    0    0  501  0.00000000000E+00  0.00000000000E+00  0.15980985852E+04  0.15980985852E+04  0.25500000920E-02 0.  1.
        2   -1    0    0  501    0  0.00000000000E+00  0.00000000000E+00 -0.16424539700E+04  0.16424539700E+04  0.25500000920E-02 0. -1.
    10030    2    1    2    0    0  0.00000000000E+00  0.00000000000E+00 -0.44355384796E+02  0.32405525552E+04  0.32402489816E+04 0.  0.
        3    1    3    3  502    0 -0.12260952745E+03  0.14186382534E+04 -0.79506039930E+03  0.16308551864E+04  0.10100000352E+00 0. -1.
       -3    1    3    3    0  502  0.12260952745E+03 -0.14186382534E+04  0.75070501450E+03  0.16096973688E+04  0.10100000352E+00 0.  1.
</event>
<event>
 5   0  0.1969465E-06  0.3189033E+04  0.7818609E-02  0.8191720E-01
       -1   -1    0    0    0  501  0.00000000000E+00  0.00000000000E+00  0.14558465613E+04  0.14558465613E+04  0.50400001928E-02 0. -1.
        1   -1    0    0  501    0  0.00000000000E+00  0.00000000000E+00 -0.17463942663E+04  0.17463942663E+04  0.50400001928E-02 0.  1.
    10030    2    1    2    0    0  0.00000000000E+00  0.00000000000E+00 -0.29054770498E+03  0.32022408277E+04  0.31890325100E+04 0.  0.
        2    1    3    3  502    0  0.77544098096E+02 -0.52351819487E+03 -0.16556305267E+04  0.17381590343E+04  0.25500000920E-02 0.  1.
       -2    1    3    3    0  502 -0.77544098096E+02  0.52351819487E+03  0.13650828217E+04  0.14640817934E+04  0.25500000920E-02 0. -1.
</event>
<event>
 5   0  0.1729500E-06  0.3146587E+04  0.7818609E-02  0.8203068E-01
        4   -1    0    0  501    0  0.00000000000E+00  0.00000000000E+00  0.15643218535E+04  0.15643223690E+04  0.12699999809E+01 0. -1.
       -4   -1    0    0    0  501  0.00000000000E+00  0.00000000000E+00 -0.15823153104E+04  0.15823158200E+04  0.12699999809E+01 0.  1.
    10030    2    1    2    0    0  0.00000000000E+00  0.00000000000E+00 -0.17993456880E+02  0.31466381891E+04  0.31465867426E+04 0.  0.
        5    1    3    3  502    0  0.38542570378E+03  0.14009314038E+04  0.59439375532E+03  0.15698687199E+04  0.46999998093E+01 0. -1.
       -5    1    3    3    0  502 -0.38542570378E+03 -0.14009314038E+04 -0.61238721220E+03  0.15767694692E+04  0.46999998093E+01 0.  1.
</event>
<event>
 5   0  0.1729500E-06  0.2904735E+04  0.7818609E-02  0.8271470E-01
        3   -1    0    0  501    0  0.00000000000E+00  0.00000000000E+00  0.10982540001E+04  0.10982540048E+04  0.10100000352E+00 0. -1.
       -3   -1    0    0    0  501  0.00000000000E+00  0.00000000000E+00 -0.19206590937E+04  0.19206590964E+04  0.10100000352E+00 0.  1.
    10030    2    1    2    0    0  0.00000000000E+00  0.00000000000E+00 -0.82240509360E+03  0.30189131011E+04  0.29047351298E+04 0.  0.
        5    1    3    3  502    0 -0.83615570214E+02  0.13736918344E+03 -0.19113692945E+04  0.19181283915E+04  0.46999998093E+01 0.  1.
       -5    1    3    3    0  502  0.83615570214E+02 -0.13736918344E+03  0.10889642009E+04  0.11007847097E+04  0.46999998093E+01 0. -1.
</event>
<event>
 5   0  0.1729500E-06  0.3205864E+04  0.7818609E-02  0.8187270E-01
       -3   -1    0    0    0  501  0.00000000000E+00  0.00000000000E+00  0.13566304707E+04  0.13566304745E+04  0.10100000352E+00 0. -1.
        3   -1    0    0  501    0  0.00000000000E+00  0.00000000000E+00 -0.18939505049E+04  0.18939505076E+04  0.10100000352E+00 0.  1.
    10030    2    1    2    0    0  0.00000000000E+00  0.00000000000E+00 -0.53732003423E+03  0.32505809821E+04  0.32058639868E+04 0.  0.
        1    1    3    3  502    0  0.69916327430E+03 -0.57014263416E+03  0.10747735608E+04  0.14032213348E+04  0.50400001928E-02 0. -1.
       -1    1    3    3    0  502 -0.69916327430E+03  0.57014263416E+03 -0.16120935950E+04  0.18473596473E+04  0.50400001928E-02 0.  1.
</event>
<event>
 5   0  0.1886248E-06  0.3210894E+04  0.7818609E-02  0.8185946E-01
        1   -1    0    0  501    0  0.00000000000E+00  0.00000000000E+00  0.16783017364E+04  0.16783017364E+04  0.50400001928E-02 0. -1.
       -1   -1    0    0    0  501  0.00000000000E+00  0.00000000000E+00 -0.15357545422E+04  0.15357545422E+04  0.50400001928E-02 0.  1.
    10030    2    1    2    0    0  0.00000000000E+00  0.00000000000E+00  0.14254719420E+03  0.32140562785E+04  0.32108936543E+04 0.  0.
        4    1    3    3  502    0 -0.35156684183E+03  0.42795147047E+03 -0.14371002161E+04  0.15401299781E+04  0.12699999809E+01 0.  1.
       -4    1    3    3    0  502  0.35156684183E+03 -0.42795147047E+03  0.15796474103E+04  0.16739263004E+04  0.12699999809E+01 0. -1.
</event>
<event>
 5   0  0.1881144E-06  0.3424945E+04  0.7818609E-02  0.8131811E-01
       -1   -1    0    0    0  501  0.00000000000E+00  0.00000000000E+00  0.27269656140E+04  0.27269656140E+04  0.50400001928E-02 0. -1.
        1   -1    0    0  501    0  0.00000000000E+00  0.00000000000E+00 -0.10753938957E+04  0.10753938957E+04  0.50400001928E-02 0.  1.
    10030    2    1    2    0    0  0.00000000000E+00  0.00000000000E+00  0.16515717183E+04  0.38023595097E+04  0.34249450653E+04 0.  0.
        3    1    3    3  502    0  0.82123144092E+03 -0.84251307248E+03  0.22072159757E+04  0.25012100533E+04  0.10100000352E+00 0. -1.
       -3    1    3    3    0  502 -0.82123144092E+03  0.84251307248E+03 -0.55564425742E+03  0.13011494564E+04  0.10100000352E+00 0.  1.
</event>
<event>
 5   0  0.5121624E-06  0.3266114E+04  0.7818609E-02  0.8171572E-01
       -2   -1    0    0    0  501  0.00000000000E+00  0.00000000000E+00  0.17383374130E+04  0.17383374130E+04  0.25500000920E-02 0. -1.
        2   -1    0    0  501    0  0.00000000000E+00  0.00000000000E+00 -0.15341528901E+04  0.15341528901E+04  0.25500000920E-02 0.  1.
    10030    2    1    2    0    0  0.00000000000E+00  0.00000000000E+00  0.20418452285E+03  0.32724903031E+04  0.32661141230E+04 0.  0.
        4    1    3    3  502    0 -0.80228872458E+02 -0.85714686593E+03  0.14925104002E+04  0.17229992250E+04  0.12699999809E+01 0. -1.
       -4    1    3    3    0  502  0.80228872458E+02  0.85714686593E+03 -0.12883258774E+04  0.15494910781E+04  0.12699999809E+01 0.  1.
</event>
<event>
 5   0  0.5373060E-06  0.3227840E+04  0.7818609E-02  0.8181503E-01
       -2   -1    0    0    0  501  0.00000000000E+00  0.00000000000E+00  0.12505372405E+04  0.12505372405E+04  0.25500000920E-02 0. -1.
        2   -1    0    0  501    0  0.00000000000E+00  0.00000000000E+00 -0.20828952650E+04  0.20828952650E+04  0.25500000920E-02 0.  1.
    10030    2    1    2    0    0  0.00000000000E+00  0.00000000000E+00 -0.83235802444E+03  0.33334325055E+04  0.32278402048E+04 0.  0.
        5    1    3    3  502    0 -0.12732150312E+04 -0.29438472024E+03  0.56189185651E+03  0.14224919780E+04  0.46999998093E+01 0. -1.
       -5    1    3    3    0  502  0.12732150312E+04  0.29438472024E+03 -0.13942498809E+04  0.19109405275E+04  0.46999998093E+01 0.  1.
</event>
<event>
 5   0  0.1846850E-06  0.3248087E+04  0.7818609E-02  0.8176232E-01
       -1   -1    0    0    0  501  0.00000000000E+00  0.00000000000E+00  0.16336465857E+04  0.16336465857E+04  0.50400001928E-02 0.  1.
        1   -1    0    0  501    0  0.00000000000E+00  0.00000000000E+00 -0.16144966196E+04  0.16144966196E+04  0.50400001928E-02 0. -1.
    10030    2    1    2    0    0  0.00000000000E+00  0.00000000000E+00  0.19149966149E+02  0.32481432053E+04  0.32480867540E+04 0.  0.
        5    1    3    3  502    0 -0.59777553930E+03  0.14070349623E+04 -0.53853290958E+03  0.16208401418E+04  0.46999998093E+01 0. -1.
       -5    1    3    3    0  502  0.59777553930E+03 -0.14070349623E+04  0.55768287573E+03  0.16273030635E+04  0.46999998093E+01 0.  1.
</event>
<event>
 5   0  0.5108810E-06  0.3155903E+04  0.7818609E-02  0.8200561E-01
       -2   -1    0    0    0  501  0.00000000000E+00  0.00000000000E+00  0.16186790968E+04  0.16186790968E+04  0.25500000920E-02 0.  1.
        2   -1    0    0  501    0  0.00000000000E+00  0.00000000000E+00 -0.15382481829E+04  0.15382481829E+04  0.25500000920E-02 0. -1.
    10030    2    1    2    0    0  0.00000000000E+00  0.00000000000E+00  0.80430913859E+02  0.31569272797E+04  0.31559025202E+04 0.  0.
        1    1    3    3  502    0 -0.13387672629E+04 -0.66753622776E+03  0.54240215440E+03  0.15912581490E+04  0.50400001928E-02 0.  1.
       -1    1    3    3    0  502  0.13387672629E+04  0.66753622776E+03 -0.46197124054E+03  0.15656691307E+04  0.50400001928E-02 0. -1.
</event>
<event>
 5   0  0.5347280E-06  0.2990427E+04  0.7818609E-02  0.8246470E-01
        2   -1    0    0  501    0  0.00000000000E+00  0.00000000000E+00  0.16229219325E+04  0.16229219325E+04  0.25500000920E-02 0.  1.
       -2   -1    0    0    0  501  0.00000000000E+00  0.00000000000E+00 -0.13775546879E+04  0.13775546879E+04  0.25500000920E-02 0. -1.
    10030    2    1    2    0    0  0.00000000000E+00  0.00000000000E+00  0.24536724465E+03  0.30004766204E+04  0.29904272044E+04 0.  0.
        2    1    3    3  502    0  0.59899520609E+03  0.77586625106E+02 -0.12497026149E+04  0.13880099304E+04  0.25500000920E-02 0. -1.
       -2    1    3    3    0  502 -0.59899520609E+03 -0.77586625106E+02  0.14950698596E+04  0.16124666900E+04  0.25500000920E-02 0.  1.
</event>
<event>
 5   0  0.5347280E-06  0.3856951E+04  0.7818609E-02  0.8034043E-01
       -2   -1    0    0    0  501  0.00000000000E+00  0.00000000000E+00  0.11188460393E+04  0.11188460393E+04  0.25500000920E-02 0. -1.
        2   -1    0    0  501    0  0.00000000000E+00  0.00000000000E+00 -0.33239769293E+04  0.33239769293E+04  0.25500000920E-02 0.  1.
    10030    2    1    2    0    0  0.00000000000E+00  0.00000000000E+00 -0.22051308900E+04  0.44428229686E+04  0.38569513464E+04 0.  0.
        2    1    3    3  502    0  0.13161968510E+04 -0.13892932935E+04 -0.13763893854E+04  0.23573200347E+04  0.25500000920E-02 0. -1.
       -2    1    3    3    0  502 -0.13161968510E+04  0.13892932935E+04 -0.82874150456E+03  0.20855029339E+04  0.25500000920E-02 0.  1.
</event>
<event>
 5   0  0.1886248E-06  0.3237716E+04  0.7818609E-02  0.8178927E-01
        1   -1    0    0  501    0  0.00000000000E+00  0.00000000000E+00  0.16144176986E+04  0.16144176986E+04  0.50400001928E-02 0. -1.
       -1   -1    0    0    0  501  0.00000000000E+00  0.00000000000E+00 -0.16233103396E+04  0.16233103396E+04  0.50400001928E-02 0.  1.
    10030    2    1    2    0    0  0.00000000000E+00  0.00000000000E+00 -0.88926409623E+01  0.32377280382E+04  0.32377158261E+04 0.  0.
        4    1    3    3  502    0  0.43764608012E+02 -0.87838048993E+03 -0.13635804708E+04  0.16225969738E+04  0.12699999809E+01 0.  1.
       -4    1    3    3    0  502 -0.43764608012E+02  0.87838048993E+03  0.13546878299E+04  0.16151310644E+04  0.12699999809E+01 0. -1.
</event>
<event>
 5   0  0.1977015E-06  0.3038005E+04  0.7818609E-02  0.8232961E-01
       -1   -1    0    0    0  501  0.00000000000E+00  0.00000000000E+00  0.11738820963E+04  0.11738820963E+04  0.50400001928E-02 0.  1.
        1   -1    0    0  501    0  0.00000000000E+00  0.00000000000E+00 -0.19655883934E+04  0.19655883934E+04  0.50400001928E-02 0. -1.
    10030    2    1    2    0    0  0.00000000000E+00  0.00000000000E+00 -0.79170629712E+03  0.31394704897E+04  0.30380052822E+04 0.  0.
        1    1    3    3  502    0  0.14695936783E+04 -0.15187225129E+03 -0.76062714877E+03  0.16617233282E+04  0.50400001928E-02 0. -1.
       -1    1    3    3    0  502 -0.14695936783E+04  0.15187225129E+03 -0.31079148355E+02  0.14777471615E+04  0.50400001928E-02 0.  1.
</event>
<event>
 5   0  0.5373060E-06  0.2625489E+04  0.7818609E-02  0.8359594E-01
        2   -1    0    0  501    0  0.00000000000E+00  0.00000000000E+00  0.69269346771E+03  0.69269346772E+03  0.25500000920E-02 0.  1.
       -2   -1    0    0    0  501  0.00000000000E+00  0.00000000000E+00 -0.24878222220E+04  0.24878222220E+04  0.25500000920E-02 0. -1.
    10030    2    1    2    0    0  0.00000000000E+00  0.00000000000E+00 -0.17951287543E+04  0.31805156897E+04  0.26254890607E+04 0.  0.
        5    1    3    3  502    0  0.63916788069E+03  0.83442031082E+03  0.55124972077E+02  0.10525462875E+04  0.46999998093E+01 0.  1.
       -5    1    3    3    0  502 -0.63916788069E+03 -0.83442031082E+03 -0.18502537264E+04  0.21279694022E+04  0.46999998093E+01 0. -1.
</event>
<event>
 5   0  0.1846850E-06  0.3121645E+04  0.7818609E-02  0.8209823E-01
        1   -1    0    0  501    0  0.00000000000E+00  0.00000000000E+00  0.23595409652E+04  0.23595409652E+04  0.50400001928E-02 0. -1.
       -1   -1    0    0    0  501  0.00000000000E+00  0.00000000000E+00 -0.10324749653E+04  0.10324749654E+04  0.50400001928E-02 0.  1.
    10030    2    1    2    0    0  0.00000000000E+00  0.00000000000E+00  0.13270659999E+04  0.33920159306E+04  0.31216450640E+04 0.  0.
        5    1    3    3  502    0  0.21499408297E+03 -0.45927702190E+03  0.22675231096E+04  0.23235406132E+04  0.46999998093E+01 0. -1.
       -5    1    3    3    0  502 -0.21499408297E+03  0.45927702190E+03 -0.94045710974E+03  0.10684753174E+04  0.46999998093E+01 0.  1.
</event>
<event>
 5   0  0.5347280E-06  0.3022298E+04  0.7818609E-02  0.8237392E-01
        2   -1    0    0  501    0  0.00000000000E+00  0.00000000000E+00  0.12959020107E+04  0.12959020108E+04  0.25500000920E-02 0. -1.
       -2   -1    0    0    0  501  0.00000000000E+00  0.00000000000E+00 -0.17621477395E+04  0.17621477395E+04  0.25500000920E-02 0.  1.
    10030    2    1    2    0    0  0.00000000000E+00  0.00000000000E+00 -0.46624572876E+03  0.30580497503E+04  0.30222976682E+04 0.  0.
        2    1    3    3  502    0 -0.14662195504E+03  0.14158002745E+04 -0.74665235559E+03  0.16073201782E+04  0.25500000920E-02 0.  1.
       -2    1    3    3    0  502  0.14662195504E+03 -0.14158002745E+04  0.28040662684E+03  0.14507295721E+04  0.25500000920E-02 0. -1.
</event>
<event>
 5   0  0.5121624E-06  0.2976935E+04  0.7818609E-02  0.8250348E-01
        2   -1    0    0  501    0  0.00000000000E+00  0.00000000000E+00  0.26792020979E+04  0.26792020979E+04  0.25500000920E-02 0. -1.
       -2   -1    0    0    0  501  0.00000000000E+00  0.00000000000E+00 -0.82693832124E+03  0.82693832125E+03  0.25500000920E-02 0.  1.
    10030    2    1    2    0    0  0.00000000000E+00  0.00000000000E+00  0.18522637767E+04  0.35061404192E+04  0.29769345879E+04 0.  0.
        4    1    3    3  502    0 -0.60797092980E+01  0.81526803063E+03 -0.54057293077E+03  0.97822268989E+03  0.12699999809E+01 0.  1.
       -4    1    3    3    0  502  0.60797092980E+01 -0.81526803063E+03  0.23928367075E+04  0.25279177293E+04  0.12699999809E+01 0. -1.
</event>
<event>
 5   0  0.1886248E-06  0.3220111E+04  0.7818609E-02  0.8183526E-01
       -1   -1    0    0    0  501  0.00000000000E+00  0.00000000000E+00  0.15158134203E+04  0.15158134203E+04  0.50400001928E-02 0. -1.
        1   -1    0    0  501    0  0.00000000000E+00  0.00000000000E+00 -0.17101566024E+04  0.17101566024E+04  0.50400001928E-02 0.  1.
    10030    2    1    2    0    0  0.00000000000E+00  0.00000000000E+00 -0.19434318210E+03  0.32259700227E+04  0.32201107613E+04 0.  0.
        4    1    3    3  502    0 -0.13690619045E+04  0.45326793205E+03 -0.81436134914E+03  0.16561909118E+04  0.12699999809E+01 0.  1.
       -4    1    3    3    0  502  0.13690619045E+04 -0.45326793205E+03  0.62001816704E+03  0.15697791109E+04  0.12699999809E+01 0. -1.
</event>
<event>
 5   0  0.5373060E-06  0.3184267E+04  0.7818609E-02  0.8192985E-01
       -2   -1    0    0    0  501  0.00000000000E+00  0.00000000000E+00  0.10954337341E+04  0.10954337341E+04  0.25500000920E-02 0.  1.
        2   -1    0    0  501    0  0.00000000000E+00  0.00000000000E+00 -0.23140502463E+04  0.23140502463E+04  0.25500000920E-02 0. -1.
    10030    2    1    2    0    0  0.00000000000E+00  0.00000000000E+00 -0.12186165123E+04  0.34094839804E+04  0.31842667615E+04 0.  0.
        5    1    3    3  502    0 -0.23990270836E+03  0.46692712381E+03  0.10000970465E+04  0.11295089379E+04  0.46999998093E+01 0.  1.
       -5    1    3    3    0  502  0.23990270836E+03 -0.46692712381E+03 -0.22187135588E+04  0.22799750425E+04  0.46999998093E+01 0. -1.
</event>
<event>
 5   0  0.5131083E-06  0.2956940E+04  0.7818609E-02  0.8256135E-01
       -2   -1    0    0    0  501  0.00000000000E+00  0.00000000000E+00  0.14341112297E+04  0.14341112297E+04  0.25500000920E-02 0.  1.
        2   -1    0    0  501    0  0.00000000000E+00  0.00000000000E+00 -0.15242008811E+04  0.15242008811E+04  0.25500000920E-02 0. -1.
    10030    2    1    2    0    0  0.00000000000E+00  0.00000000000E+00 -0.90089651392E+02  0.29583121108E+04  0.29569400399E+04 0.  0.
        3    1    3    3  502    0  0.14255457560E+04 -0.35472289326E+03 -0.21204908181E+03  0.14842418458E+04  0.10100000352E+00 0. -1.
       -3    1    3    3    0  502 -0.14255457560E+04  0.35472289326E+03  0.12195943042E+03  0.14740702650E+04  0.10100000352E+00 0.  1.
</event>
<event>
 5   0  0.5121624E-06  0.2394686E+04  0.7818609E-02  0.8441496E-01
        2   -1    0    0  501    0  0.00000000000E+00  0.00000000000E+00  0.15578563496E+04  0.15578563496E+04  0.25500000920E-02 0.  1.
       -2   -1    0    0    0  501  0.00000000000E+00  0.00000000000E+00 -0.92025847859E+03  0.92025847859E+03  0.25500000920E-02 0. -1.
    10030    2    1    2    0    0  0.00000000000E+00  0.00000000000E+00  0.63759787103E+03  0.24781148282E+04  0.23946862126E+04 0.  0.
        4    1    3    3  502    0  0.30409169016E+02 -0.99426667315E+03 -0.37085586324E+03  0.10616150993E+04  0.12699999809E+01 0. -1.
       -4    1    3    3    0  502 -0.30409169016E+02  0.99426667315E+03  0.10084537343E+04  0.14164997289E+04  0.12699999809E+01 0.  1.
</event>
<event>
 5   0  0.1969465E-06  0.2609750E+04  0.7818609E-02  0.8364897E-01
       -1   -1    0    0    0  501  0.00000000000E+00  0.00000000000E+00  0.10860033444E+04  0.10860033444E+04  0.50400001928E-02 0. -1.
        1   -1    0    0  501    0  0.00000000000E+00  0.00000000000E+00 -0.15678578227E+04  0.15678578227E+04  0.50400001928E-02 0.  1.
    10030    2    1    2    0    0  0.00000000000E+00  0.00000000000E+00 -0.48185447834E+03  0.26538611671E+04  0.26097500562E+04 0.  0.
        2    1    3    3  502    0 -0.43926398472E+03  0.21962897831E+03  0.98843550111E+03  0.11037184769E+04  0.25500000920E-02 0. -1.
       -2    1    3    3    0  502  0.43926398472E+03 -0.21962897831E+03 -0.14702899794E+04  0.15501426902E+04  0.25500000920E-02 0.  1.
</event>
<event>
 5   0  0.5131083E-06  0.3135480E+04  0.7818609E-02  0.8206068E-01
        2   -1    0    0  501    0  0.00000000000E+00  0.00000000000E+00  0.10532613184E+04  0.10532613184E+04  0.25500000920E-02 0. -1.
       -2   -1    0    0    0  501  0.00000000000E+00  0.00000000000E+00 -0.23335219577E+04  0.23335219577E+04  0.25500000920E-02 0.  1.
    10030    2    1    2    0    0  0.00000000000E+00  0.00000000000E+00 -0.12802606393E+04  0.33867832761E+04  0.31354798125E+04 0.  0.
        3    1    3    3  502    0  0.65198460082E+03  0.33664045845E+03  0.85633232751E+03  0.11277037658E+04  0.10100000352E+00 0. -1.
       -3    1    3    3    0  502 -0.65198460082E+03 -0.33664045845E+03 -0.21365929668E+04  0.22590795103E+04  0.10100000352E+00 0.  1.
</event>
<event>
 5   0  0.1846850E-06  0.3123490E+04  0.7818609E-02  0.8209321E-01
        1   -1    0    0  501    0  0.00000000000E+00  0.00000000000E+00  0.22293488062E+04  0.22293488062E+04  0.50400001928E-02 0.  1.
       -1   -1    0    0    0  501  0.00000000000E+00  0.00000000000E+00 -0.10940629159E+04  0.10940629159E+04  0.50400001928E-02 0. -1.
    10030    2    1    2    0    0  0.00000000000E+00  0.00000000000E+00  0.11352858903E+04  0.33234117220E+04  0.31234902627E+04 0.  0.
        5    1    3    3  502    0  0.37874016332E+03 -0.75667308099E+02 -0.10424393991E+04  0.11116976404E+04  0.46999998093E+01 0. -1.
       -5    1    3    3    0  502 -0.37874016332E+03  0.75667308099E+02  0.21777252894E+04  0.22117140816E+04  0.46999998093E+01 0.  1.
</event>
<event>
 5   0  0.5121624E-06  0.3197119E+04  0.7818609E-02  0.8189579E-01
        2   -1    0    0  501    0  0.00000000000E+00  0.00000000000E+00  0.17685549634E+04  0.17685549634E+04  0.25500000920E-02 0.  1.
       -2   -1    0    0    0  501  0.00000000000E+00  0.00000000000E+00 -0.14449037602E+04  0.14449037602E+04  0.25500000920E-02 0. -1.
    10030    2    1    2    0    0  0.00000000000E+00  0.00000000000E+00  0.32365120314E+03  0.32134587236E+04  0.31971185256E+04 0.  0.
        4    1    3    3  502    0 -0.12065607120E+04 -0.10025624224E+04  0.47075611844E+03  0.16378440398E+04  0.12699999809E+01 0. -1.
       -4    1    3    3    0  502  0.12065607120E+04  0.10025624224E+04 -0.14710491530E+03  0.15756146838E+04  0.12699999809E+01 0.  1.
</event>
<event>
 5   0  0.1977015E-06  0.2201323E+04  0.7818609E-02  0.8517878E-01
        1   -1    0    0  501    0  0.00000000000E+00  0.00000000000E+00  0.52998837100E+03  0.52998837102E+03  0.50400001928E-02 0. -1.
       -1   -1    0    0    0  501  0.00000000000E+00  0.00000000000E+00 -0.22858151551E+04  0.22858151551E+04  0.50400001928E-02 0.  1.
    10030    2    1    2    0    0  0.00000000000E+00  0.00000000000E+00 -0.17558267841E+04  0.28158035262E+04  0.22013227392E+04 0.  0.
        1    1    3    3  502    0  0.54112162796E+01 -0.81641551249E+02  0.52609287875E+03  0.53241745017E+03  0.50400001928E-02 0. -1.
       -1    1    3    3    0  502 -0.54112162796E+01  0.81641551249E+02 -0.22819196629E+04  0.22833860760E+04  0.50400001928E-02 0.  1.
</event>
<event>
 5   0  0.5373060E-06  0.2540580E+04  0.7818609E-02  0.8388670E-01
       -2   -1    0    0    0  501  0.00000000000E+00  0.00000000000E+00  0.60071177126E+03  0.60071177126E+03  0.25500000920E-02 0. -1.
        2   -1    0    0  501    0  0.00000000000E+00  0.00000000000E+00 -0.26862075677E+04  0.26862075677E+04  0.25500000920E-02 0.  1.
    10030    2    1    2    0    0  0.00000000000E+00  0.00000000000E+00 -0.20854957964E+04  0.32869193389E+04  0.25405798598E+04 0.  0.
        5    1    3    3  502    0 -0.39341506630E+01 -0.81507345532E+03 -0.23032612771E+04  0.24432344987E+04  0.46999998093E+01 0.  1.
       -5    1    3    3    0  502  0.39341506630E+01  0.81507345532E+03  0.21776548066E+03  0.84368484025E+03  0.46999998093E+01 0. -1.
</event>
<event>
 5   0  0.1846850E-06  0.3223088E+04  0.7818609E-02  0.8182746E-01
        1   -1    0    0  501    0  0.00000000000E+00  0.00000000000E+00  0.18473946961E+04  0.18473946961E+04  0.50400001928E-02 0.  1.
       -1   -1    0    0    0  501  0.00000000000E+00  0.00000000000E+00 -0.14058038125E+04  0.14058038125E+04  0.50400001928E-02 0. -1.
    10030    2    1    2    0    0  0.00000000000E+00  0.00000000000E+00  0.44159088352E+03  0.32531985086E+04  0.32230882749E+04 0.  0.
        5    1    3    3  502    0 -0.11442635696E+03 -0.90645614825E+03 -0.11191213390E+04  0.14447182429E+04  0.46999998093E+01 0. -1.
       -5    1    3    3    0  502  0.11442635696E+03  0.90645614825E+03  0.15607122226E+04  0.18084802657E+04  0.46999998093E+01 0.  1.
</event>
<event>
 5   0  0.1846850E-06  0.3107507E+04  0.7818609E-02  0.8213681E-01
        1   -1    0    0  501    0  0.00000000000E+00  0.00000000000E+00  0.22233279004E+04  0.22233279004E+04  0.50400001928E-02 0. -1.
       -1   -1    0    0    0  501  0.00000000000E+00  0.00000000000E+00 -0.10858271908E+04  0.10858271908E+04  0.50400001928E-02 0.  1.
    10030    2    1    2    0    0  0.00000000000E+00  0.00000000000E+00  0.11375007096E+04  0.33091550913E+04  0.31075069676E+04 0.  0.
        5    1    3    3  502    0 -0.88914095538E+03  0.11658411291E+04  0.11162850033E+04  0.18427890480E+04  0.46999998093E+01 0. -1.
       -5    1    3    3    0  502  0.88914095538E+03 -0.11658411291E+04  0.21215706354E+02  0.14663660433E+04  0.46999998093E+01 0.  1.
</event>
<event>
 5   0  0.5373060E-06  0.3191401E+04  0.7818609E-02  0.8191092E-01
       -2   -1    0    0    0  501  0.00000000000E+00  0.00000000000E+00  0.20314373839E+04  0.20314373839E+04  0.25500000920E-02 0. -1.
        2   -1    0    0  501    0  0.00000000000E+00  0.00000000000E+00 -0.12534279618E+04  0.12534279618E+04  0.25500000920E-02 0.  1.
    10030    2    1    2    0    0  0.00000000000E+00  0.00000000000E+00  0.77800942203E+03  0.32848653457E+04  0.31914012093E+04 0.  0.
        5    1    3    3  502    0 -0.72229783694E+03 -0.72418720079E+03 -0.87164071221E+03  0.13438530010E+04  0.46999998093E+01 0.  1.
       -5    1    3    3    0  502  0.72229783694E+03  0.72418720079E+03  0.16496501342E+04  0.19410123447E+04  0.46999998093E+01 0. -1.
</event>
<event>
 5   0  0.1886248E-06  0.3189329E+04  0.7818609E-02  0.8191641E-01
        1   -1    0    0  501    0  0.00000000000E+00  0.00000000000E+00  0.16606087386E+04  0.16606087386E+04  0.50400001928E-02 0.  1.
       -1   -1    0    0    0  501  0.00000000000E+00  0.00000000000E+00 -0.15313386215E+04  0.15313386215E+04  0.50400001928E-02 0. -1.
    10030    2    1    2    0    0  0.00000000000E+00  0.00000000000E+00  0.12927011713E+03  0.31919473601E+04  0.31893286420E+04 0.  0.
        4    1    3    3  502    0 -0.11147826898E+04  0.26247894146E+03 -0.10459233198E+04  0.15509973708E+04  0.12699999809E+01 0. -1.
       -4    1    3    3    0  502  0.11147826898E+04 -0.26247894146E+03  0.11751934370E+04  0.16409499893E+04  0.12699999809E+01 0.  1.
</event>
<event>
 5   0  0.1886248E-06  0.3098124E+04  0.7818609E-02  0.8216253E-01
       -1   -1    0    0    0  501  0.00000000000E+00  0.00000000000E+00  0.15706246588E+04  0.15706246588E+04  0.50400001928E-02 0. -1.
        1   -1    0    0  501    0  0.00000000000E+00  0.00000000000E+00 -0.15277950253E+04  0.15277950253E+04  0.50400001928E-02 0.  1.
    10030    2    1    2    0    0  0.00000000000E+00  0.00000000000E+00  0.42829633532E+02  0.30984196841E+04  0.30981236517E+04 0.  0.
        4    1    3    3  502    0  0.11944734925E+04 -0.98472440840E+03 -0.34642681346E+02  0.15484349560E+04  0.12699999809E+01 0. -1.
       -4    1    3    3    0  502 -0.11944734925E+04  0.98472440840E+03  0.77472314878E+02  0.15499847281E+04  0.12699999809E+01 0.  1.
</event>
<event>
 5   0  0.1846850E-06  0.3177798E+04  0.7818609E-02  0.8194705E-01
        1   -1    0    0  501    0  0.00000000000E+00  0.00000000000E+00  0.86590963626E+03  0.86590963628E+03  0.50400001928E-02 0.  1.
       -1   -1    0    0    0  501  0.00000000000E+00  0.00000000000E+00 -0.29155462200E+04  0.29155462200E+04  0.50400001928E-02 0. -1.
    10030    2    1    2    0    0  0.00000000000E+00  0.00000000000E+00 -0.20496365838E+04  0.37814558563E+04  0.31777977072E+04 0.  0.
        5    1    3    3  502    0 -0.44565842788E+03 -0.50632200547E+03  0.68707394462E+03  0.96284271973E+03  0.46999998093E+01 0.  1.
       -5    1    3    3    0  502  0.44565842788E+03  0.50632200547E+03 -0.27367105284E+04  0.28186131366E+04  0.46999998093E+01 0. -1.
</event>
<event>
 5   0  0.1886248E-06  0.2854971E+04  0.7818609E-02  0.8286402E-01
        1   -1    0    0  501    0  0.00000000000E+00  0.00000000000E+00  0.16209950637E+04  0.16209950637E+04  0.50400001928E-02 0. -1.
       -1   -1    0    0    0  501  0.00000000000E+00  0.00000000000E+00 -0.12570763383E+04  0.12570763383E+04  0.50400001928E-02 0.  1.
    10030    2    1    2    0    0  0.00000000000E+00  0.00000000000E+00  0.36391872542E+03  0.28780714020E+04  0.28549707803E+04 0.  0.
        4    1    3    3  502    0 -0.11014083250E+04 -0.32513798082E+03  0.10366983428E+04  0.15471134644E+04  0.12699999809E+01 0. -1.
       -4    1    3    3    0  502  0.11014083250E+04  0.32513798082E+03 -0.67277961735E+03  0.13309579375E+04  0.12699999809E+01 0.  1.
</event>
<event>
 5   0  0.1886248E-06  0.2372090E+04  0.7818609E-02  0.8450027E-01
       -1   -1    0    0    0  501  0.00000000000E+00  0.00000000000E+00  0.12748231000E+04  0.12748231000E+04  0.50400001928E-02 0. -1.
        1   -1    0    0  501    0  0.00000000000E+00  0.00000000000E+00 -0.11034491238E+04  0.11034491238E+04  0.50400001928E-02 0.  1.
    10030    2    1    2    0    0  0.00000000000E+00  0.00000000000E+00  0.17137397617E+03  0.23782722238E+04  0.23720897392E+04 0.  0.
        4    1    3    3  502    0  0.29248100266E+03  0.27939023477E+03  0.12035354136E+04  0.12696862388E+04  0.12699999809E+01 0. -1.
       -4    1    3    3    0  502 -0.29248100266E+03 -0.27939023477E+03 -0.10321614375E+04  0.11085859850E+04  0.12699999809E+01 0.  1.
</event>
<event>
 5   0  0.1886248E-06  0.3190350E+04  0.7818609E-02  0.8191370E-01
       -1   -1    0    0    0  501  0.00000000000E+00  0.00000000000E+00  0.16329052785E+04  0.16329052785E+04  0.50400001928E-02 0.  1.
        1   -1    0    0  501    0  0.00000000000E+00  0.00000000000E+00 -0.15583164910E+04  0.15583164910E+04  0.50400001928E-02 0. -1.
    10030    2    1    2    0    0  0.00000000000E+00  0.00000000000E+00  0.74588787517E+02  0.31912217695E+04  0.31903499643E+04 0.  0.
        4    1    3    3  502    0 -0.65555977228E+03 -0.11325782586E+04  0.94973305191E+03  0.16169374168E+04  0.12699999809E+01 0.  1.
       -4    1    3    3    0  502  0.65555977228E+03  0.11325782586E+04 -0.87514426439E+03  0.15742843528E+04  0.12699999809E+01 0. -1.
</event>
<event>
 5   0  0.1977015E-06  0.3122081E+04  0.7818609E-02  0.8209704E-01
       -1   -1    0    0    0  501  0.00000000000E+00  0.00000000000E+00  0.11024858180E+04  0.11024858180E+04  0.50400001928E-02 0. -1.
        1   -1    0    0  501    0  0.00000000000E+00  0.00000000000E+00 -0.22103205246E+04  0.22103205246E+04  0.50400001928E-02 0.  1.
    10030    2    1    2    0    0  0.00000000000E+00  0.00000000000E+00 -0.11078347066E+04  0.33128063426E+04  0.31220807367E+04 0.  0.
        1    1    3    3  502    0 -0.12361960462E+04  0.33086114893E+03 -0.15025081666E+04  0.19736211783E+04  0.50400001928E-02 0.  1.
       -1    1    3    3    0  502  0.12361960462E+04 -0.33086114893E+03  0.39467346003E+03  0.13391851644E+04  0.50400001928E-02 0. -1.
</event>
<event>
 5   0  0.5347280E-06  0.3230866E+04  0.7818609E-02  0.8180713E-01
       -2   -1    0    0    0  501  0.00000000000E+00  0.00000000000E+00  0.16712282390E+04  0.16712282390E+04  0.25500000920E-02 0. -1.
        2   -1    0    0  501    0  0.00000000000E+00  0.00000000000E+00 -0.15615002708E+04  0.15615002708E+04  0.25500000920E-02 0.  1.
    10030    2    1    2    0    0  0.00000000000E+00  0.00000000000E+00  0.10972796826E+03  0.32327285098E+04  0.32308657340E+04 0.  0.
        2    1    3    3  502    0 -0.15400803408E+04  0.39246234822E+03 -0.23469740307E+03  0.16065357207E+04  0.25500000920E-02 0.  1.
       -2    1    3    3    0  502  0.15400803408E+04 -0.39246234822E+03  0.34442537133E+03  0.16261927891E+04  0.25500000920E-02 0. -1.
</event>
<event>
 5   0  0.1977015E-06  0.3196145E+04  0.7818609E-02  0.8189836E-01
       -1   -1    0    0    0  501  0.00000000000E+00  0.00000000000E+00  0.17373263667E+04  0.17373263667E+04  0.50400001928E-02 0. -1.
        1   -1    0    0  501    0  0.00000000000E+00  0.00000000000E+00 -0.14699806805E+04  0.14699806805E+04  0.50400001928E-02 0.  1.
    10030    2    1    2    0    0  0.00000000000E+00  0.00000000000E+00  0.26734568621E+03  0.32073070473E+04  0.31961453001E+04 0.  0.
        1    1    3    3  502    0  0.51369579834E+03 -0.12035468652E+04 -0.78682429624E+03  0.15269253103E+04  0.50400001928E-02 0.  1.
       -1    1    3    3    0  502 -0.51369579834E+03  0.12035468652E+04  0.10541699824E+04  0.16803817370E+04  0.50400001928E-02 0. -1.
</event>
<event>
 5   0  0.1977015E-06  0.3218627E+04  0.7818609E-02  0.8183915E-01
       -1   -1    0    0    0  501  0.00000000000E+00  0.00000000000E+00  0.11376254693E+04  0.11376254693E+04  0.50400001928E-02 0.  1.
        1   -1    0    0  501    0  0.00000000000E+00  0.00000000000E+00 -0.22765750208E+04  0.22765750208E+04  0.50400001928E-02 0. -1.
    10030    2    1    2    0    0  0.00000000000E+00  0.00000000000E+00 -0.11389495515E+04  0.34142004901E+04  0.32186268665E+04 0.  0.
        1    1    3    3  502    0  0.91901243805E+03  0.11820625318E+02 -0.19707930225E+04  0.21745686299E+04  0.50400001928E-02 0. -1.
       -1    1    3    3    0  502 -0.91901243805E+03 -0.11820625318E+02  0.83184347102E+03  0.12396318602E+04  0.50400001928E-02 0.  1.
</event>
<event>
 5   0  0.5373060E-06  0.3168423E+04  0.7818609E-02  0.8197207E-01
        2   -1    0    0  501    0  0.00000000000E+00  0.00000000000E+00  0.19633180602E+04  0.19633180602E+04  0.25500000920E-02 0.  1.
       -2   -1    0    0    0  501  0.00000000000E+00  0.00000000000E+00 -0.12783088379E+04  0.12783088379E+04  0.25500000920E-02 0. -1.
    10030    2    1    2    0    0  0.00000000000E+00  0.00000000000E+00  0.68500922225E+03  0.32416268981E+04  0.31684234742E+04 0.  0.
        5    1    3    3  502    0  0.10399450217E+04  0.59318371639E+02 -0.87868072693E+03  0.13627568482E+04  0.46999998093E+01 0. -1.
       -5    1    3    3    0  502 -0.10399450217E+04 -0.59318371639E+02  0.15636899492E+04  0.18788700499E+04  0.46999998093E+01 0.  1.
</event>
<event>
 5   0  0.5373060E-06  0.3174985E+04  0.7818609E-02  0.8195455E-01
        2   -1    0    0  501    0  0.00000000000E+00  0.00000000000E+00  0.19294161624E+04  0.19294161624E+04  0.25500000920E-02 0.  1.
       -2   -1    0    0    0  501  0.00000000000E+00  0.00000000000E+00 -0.13061633078E+04  0.13061633078E+04  0.25500000920E-02 0. -1.
    10030    2    1    2    0    0  0.00000000000E+00  0.00000000000E+00  0.62325285461E+03  0.32355794701E+04  0.31749851002E+04 0.  0.
        5    1    3    3  502    0 -0.14618616912E+04  0.43428448785E+03  0.76102772927E+03  0.17043555718E+04  0.46999998093E+01 0.  1.
       -5    1    3    3    0  502  0.14618616912E+04 -0.43428448785E+03 -0.13777487466E+03  0.15312238983E+04  0.46999998093E+01 0. -1.
</event>
<event>
 5   0  0.1881144E-06  0.3094818E+04  0.7818609E-02  0.8217161E-01
        1   -1    0    0  501    0  0.00000000000E+00  0.00000000000E+00  0.17481942463E+04  0.17481942463E+04  0.50400001928E-02 0. -1.
       -1   -1    0    0    0  501  0.00000000000E+00  0.00000000000E+00 -0.13696848987E+04  0.13696848987E+04  0.50400001928E-02 0.  1.
    10030    2    1    2    0    0  0.00000000000E+00  0.00000000000E+00  0.37850934760E+03  0.31178791450E+04  0.30948184174E+04 0.  0.
        3    1    3    3  502    0  0.29385317095E+03  0.65882047787E+03 -0.11899169071E+04  0.13915086648E+04  0.10100000352E+00 0.  1.
       -3    1    3    3    0  502 -0.29385317095E+03 -0.65882047787E+03  0.15684262547E+04  0.17263704802E+04  0.10100000352E+00 0. -1.
</event>
<event>
 5   0  0.1886248E-06  0.3211570E+04  0.7818609E-02  0.8185768E-01
       -1   -1    0    0    0  501  0.00000000000E+00  0.00000000000E+00  0.15850771275E+04  0.15850771275E+04  0.50400001928E-02 0. -1.
        1   -1    0    0  501    0  0.00000000000E+00  0.00000000000E+00 -0.16267634288E+04  0.16267634288E+04  0.50400001928E-02 0.  1.
    10030    2    1    2    0    0  0.00000000000E+00  0.00000000000E+00 -0.41686301364E+02  0.32118405563E+04  0.32115700228E+04 0.  0.
        4    1    3    3  502    0 -0.76521189398E+03 -0.14116932380E+04 -0.31653735633E+02  0.16060605881E+04  0.12699999809E+01 0.  1.
       -4    1    3    3    0  502  0.76521189398E+03  0.14116932380E+04 -0.10032565731E+02  0.16057799682E+04  0.12699999809E+01 0. -1.
</event>
<event>
 5   0  0.1886248E-06  0.2947821E+04  0.7818609E-02  0.8258790E-01
        1   -1    0    0  501    0  0.00000000000E+00  0.00000000000E+00  0.15308652578E+04  0.15308652578E+04  0.50400001928E-02 0. -1.
       -1   -1    0    0    0  501  0.00000000000E+00  0.00000000000E+00 -0.14190743003E+04  0.14190743003E+04  0.50400001928E-02 0.  1.
    10030    2    1    2    0    0  0.00000000000E+00  0.00000000000E+00  0.11179095745E+03  0.29499395581E+04  0.29478205811E+04 0.  0.
        4    1    3    3  502    0  0.11360781665E+04 -0.76110555293E+03 -0.49445863535E+03  0.14541135506E+04  0.12699999809E+01 0.  1.
       -4    1    3    3    0  502 -0.11360781665E+04  0.76110555293E+03  0.60624959280E+03  0.14958260075E+04  0.12699999809E+01 0. -1.
</event>
<event>
 5   0  0.5121624E-06  0.3185908E+04  0.7818609E-02  0.8192549E-01
        2   -1    0    0  501    0  0.00000000000E+00  0.00000000000E+00  0.16171993641E+04  0.16171993641E+04  0.25500000920E-02 0. -1.
       -2   -1    0    0    0  501  0.00000000000E+00  0.00000000000E+00 -0.15690724583E+04  0.15690724583E+04  0.25500000920E-02 0.  1.
    10030    2    1    2    0    0  0.00000000000E+00  0.00000000000E+00  0.48126905789E+02  0.31862718225E+04  0.31859083363E+04 0.  0.
        4    1    3    3  502    0  0.91096022954E+03  0.12962090802E+04  0.18989808071E+03  0.15956407532E+04  0.12699999809E+01 0. -1.
       -4    1    3    3    0  502 -0.91096022954E+03 -0.12962090802E+04 -0.14177117492E+03  0.15906310692E+04  0.12699999809E+01 0.  1.
</event>
<event>
 5   0  0.1729500E-06  0.2956958E+04  0.7818609E-02  0.8256130E-01
       -3   -1    0    0    0  501  0.00000000000E+00  0.00000000000E+00  0.15717195641E+04  0.15717195674E+04  0.10100000352E+00 0.  1.
        3   -1    0    0  501    0  0.00000000000E+00  0.00000000000E+00 -0.13907700954E+04  0.13907700991E+04  0.10100000352E+00 0. -1.
    10030    2    1    2    0    0  0.00000000000E+00  0.00000000000E+00  0.18094946873E+03  0.29624896664E+04  0.29569582874E+04 0.  0.
        5    1    3    3  502    0 -0.12456146365E+03 -0.13745197440E+04 -0.44066639603E+03  0.14488026254E+04  0.46999998093E+01 0. -1.
       -5    1    3    3    0  502  0.12456146365E+03  0.13745197440E+04  0.62161586476E+03  0.15136870410E+04  0.46999998093E+01 0.  1.
</event>
<event>
 5   0  0.1881144E-06  0.3200340E+04  0.7818609E-02  0.8188727E-01
        1   -1    0    0  501    0  0.00000000000E+00  0.00000000000E+00  0.15014671891E+04  0.15014671891E+04  0.50400001928E-02 0.  1.
       -1   -1    0    0    0  501  0.00000000000E+00  0.00000000000E+00 -0.17053618132E+04  0.17053618132E+04  0.50400001928E-02 0. -1.
    10030    2    1    2    0    0  0.00000000000E+00  0.00000000000E+00 -0.20389462412E+03  0.32068290024E+04  0.32003404870E+04 0.  0.
        3    1    3    3  502    0  0.82436240683E+03  0.29268486139E+03 -0.14445545314E+04  0.16887793255E+04  0.10100000352E+00 0. -1.
       -3    1    3    3    0  502 -0.82436240683E+03 -0.29268486139E+03  0.12406599072E+04  0.15180496769E+04  0.10100000352E+00 0.  1.
</event>
<event>
 5   0  0.5347280E-06  0.2536255E+04  0.7818609E-02  0.8390182E-01
        2   -1    0    0  501    0  0.00000000000E+00  0.00000000000E+00  0.14767428000E+04  0.14767428000E+04  0.25500000920E-02 0. -1.
       -2   -1    0    0    0  501  0.00000000000E+00  0.00000000000E+00 -0.10889830697E+04  0.10889830697E+04  0.25500000920E-02 0.  1.
    10030    2    1    2    0    0  0.00000000000E+00  0.00000000000E+00  0.38775973036E+03  0.25657258697E+04  0.25362554347E+04 0.  0.
        2    1    3    3  502    0  0.73123446069E+03 -0.18921797926E+03  0.12243626628E+04  0.14386004345E+04  0.25500000920E-02 0. -1.
       -2    1    3    3    0  502 -0.73123446069E+03  0.18921797926E+03 -0.83660293241E+03  0.11271254352E+04  0.25500000920E-02 0.  1.
</event>
<event>
 5   0  0.5373060E-06  0.2250169E+04  0.7818609E-02  0.8497832E-01
        2   -1    0    0  501    0  0.00000000000E+00  0.00000000000E+00  0.15962588851E+04  0.15962588851E+04  0.25500000920E-02 0. -1.
       -2   -1    0    0    0  501  0.00000000000E+00  0.00000000000E+00 -0.79298837969E+03  0.79298837970E+03  0.25500000920E-02 0.  1.
    10030    2    1    2    0    0  0.00000000000E+00  0.00000000000E+00  0.80327050541E+03  0.23892472648E+04  0.22501686576E+04 0.  0.
        5    1    3    3  502    0  0.27915582210E+03 -0.10406248454E+04  0.57628090117E+02  0.10789676216E+04  0.46999998093E+01 0.  1.
       -5    1    3    3    0  502 -0.27915582210E+03  0.10406248454E+04  0.74564241529E+03  0.13102796432E+04  0.46999998093E+01 0. -1.
</event>
<event>
 5   0  0.5131083E-06  0.3092171E+04  0.7818609E-02  0.8217890E-01
       -2   -1    0    0    0  501  0.00000000000E+00  0.00000000000E+00  0.95017569775E+03  0.95017569775E+03  0.25500000920E-02 0.  1.
        2   -1    0    0  501    0  0.00000000000E+00  0.00000000000E+00 -0.25157243668E+04  0.25157243668E+04  0.25500000920E-02 0. -1.
    10030    2    1    2    0    0  0.00000000000E+00  0.00000000000E+00 -0.15655486691E+04  0.34659000646E+04  0.30921708592E+04 0.  0.
        3    1    3    3  502    0  0.29069983771E+03 -0.14487059707E+04 -0.27265878443E+03  0.15025306014E+04  0.10100000352E+00 0.  1.
       -3    1    3    3    0  502 -0.29069983771E+03  0.14487059707E+04 -0.12928898846E+04  0.19633694632E+04  0.10100000352E+00 0. -1.
</event>
<event>
 5   0  0.1969465E-06  0.3257543E+04  0.7818609E-02  0.8173783E-01
       -1   -1    0    0    0  501  0.00000000000E+00  0.00000000000E+00  0.18142280858E+04  0.18142280858E+04  0.50400001928E-02 0.  1.
        1   -1    0    0  501    0  0.00000000000E+00  0.00000000000E+00 -0.14622728519E+04  0.14622728519E+04  0.50400001928E-02 0. -1.
    10030    2    1    2    0    0  0.00000000000E+00  0.00000000000E+00  0.35195523390E+03  0.32765009377E+04  0.32575429250E+04 0.  0.
        2    1    3    3  502    0 -0.96373350567E+03  0.31076359026E+03  0.14591529764E+04  0.17760866216E+04  0.25500000920E-02 0.  1.
       -2    1    3    3    0  502  0.96373350567E+03 -0.31076359026E+03 -0.11071977425E+04  0.15004143161E+04  0.25500000920E-02 0. -1.
</event>
<event>
 5   0  0.5131083E-06  0.2486771E+04  0.7818609E-02  0.8407714E-01
       -2   -1    0    0    0  501  0.00000000000E+00  0.00000000000E+00  0.98707529383E+03  0.98707529384E+03  0.25500000920E-02 0. -1.
        2   -1    0    0  501    0  0.00000000000E+00  0.00000000000E+00 -0.15662504430E+04  0.15662504430E+04  0.25500000920E-02 0.  1.
    10030    2    1    2    0    0  0.00000000000E+00  0.00000000000E+00 -0.57917514919E+03  0.25533257369E+04  0.24867706901E+04 0.  0.
        3    1    3    3  502    0  0.11508132030E+04 -0.17204542796E+02 -0.77264695025E+03  0.13862360349E+04  0.10100000352E+00 0.  1.
       -3    1    3    3    0  502 -0.11508132030E+04  0.17204542796E+02  0.19347180107E+03  0.11670897020E+04  0.10100000352E+00 0. -1.
</event>
<event>
 5   0  0.1846850E-06  0.3203713E+04  0.7818609E-02  0.8187837E-01
        1   -1    0    0  501    0  0.00000000000E+00  0.00000000000E+00  0.21111473898E+04  0.21111473898E+04  0.50400001928E-02 0. -1.
       -1   -1    0    0    0  501  0.00000000000E+00  0.00000000000E+00 -0.12154266069E+04  0.12154266069E+04  0.50400001928E-02 0.  1.
    10030    2    1    2    0    0  0.00000000000E+00  0.00000000000E+00  0.89572078284E+03  0.33265739967E+04  0.32037132885E+04 0.  0.
        5    1    3    3  502    0  0.56563118695E+03  0.16023883984E+03  0.19950733996E+04  0.20798930466E+04  0.46999998093E+01 0. -1.
       -5    1    3    3    0  502 -0.56563118695E+03 -0.16023883984E+03 -0.10993526168E+04  0.12466809501E+04  0.46999998093E+01 0.  1.
</event>
<event>
 5   0  0.1881144E-06  0.3164266E+04  0.7818609E-02  0.8198319E-01
       -1   -1    0    0    0  501  0.00000000000E+00  0.00000000000E+00  0.13582307465E+04  0.13582307465E+04  0.50400001928E-02 0. -1.
        1   -1    0    0  501    0  0.00000000000E+00  0.00000000000E+00 -0.18429453312E+04  0.18429453312E+04  0.50400001928E-02 0.  1.
    10030    2    1    2    0    0  0.00000000000E+00  0.00000000000E+00 -0.48471458472E+03  0.32011760777E+04  0.31642661158E+04 0.  0.
        3    1    3    3  502    0 -0.34560411910E+03  0.15439244238E+04 -0.24277323633E+03  0.16006510201E+04  0.10100000352E+00 0. -1.
       -3    1    3    3    0  502  0.34560411910E+03 -0.15439244238E+04 -0.24194134839E+03  0.16005250576E+04  0.10100000352E+00 0.  1.
</event>
<event>
 5   0  0.1886248E-06  0.2713621E+04  0.7818609E-02  0.8330599E-01
       -1   -1    0    0    0  501  0.00000000000E+00  0.00000000000E+00  0.11195495877E+04  0.11195495877E+04  0.50400001928E-02 0.  1.
        1   -1    0    0  501    0  0.00000000000E+00  0.00000000000E+00 -0.16443530983E+04  0.16443530983E+04  0.50400001928E-02 0. -1.
    10030    2    1    2    0    0  0.00000000000E+00  0.00000000000E+00 -0.52480351055E+03  0.27639026860E+04  0.27136210740E+04 0.  0.
        4    1    3    3  502    0 -0.61016821439E+03  0.12053483112E+04 -0.13452289496E+03  0.13576699980E+04  0.12699999809E+01 0.  1.
       -4    1    3    3    0  502  0.61016821439E+03 -0.12053483112E+04 -0.39028061560E+03  0.14062326881E+04  0.12699999809E+01 0. -1.
</event>
<event>
 5   0  0.5121624E-06  0.3216938E+04  0.7818609E-02  0.8184358E-01
       -2   -1    0    0    0  501  0.00000000000E+00  0.00000000000E+00  0.14999055323E+04  0.14999055323E+04  0.25500000920E-02 0. -1.
        2   -1    0    0  501    0  0.00000000000E+00  0.00000000000E+00 -0.17248898842E+04  0.17248898842E+04  0.25500000920E-02 0.  1.
    10030    2    1    2    0    0  0.00000000000E+00  0.00000000000E+00 -0.22498435188E+03  0.32247954166E+04  0.32169375997E+04 0.  0.
        4    1    3    3  502    0 -0.74349846434E+03  0.67156077228E+03 -0.13738926514E+04  0.17004018548E+04  0.12699999809E+01 0.  1.
       -4    1    3    3    0  502  0.74349846434E+03 -0.67156077228E+03  0.11489082996E+04  0.15243935617E+04  0.12699999809E+01 0. -1.
</event>
<event>
 5   0  0.1886248E-06  0.2401946E+04  0.7818609E-02  0.8438775E-01
        1   -1    0    0  501    0  0.00000000000E+00  0.00000000000E+00  0.84760537989E+03  0.84760537990E+03  0.50400001928E-02 0. -1.
       -1   -1    0    0    0  501  0.00000000000E+00  0.00000000000E+00 -0.17016596575E+04  0.17016596575E+04  0.50400001928E-02 0.  1.
    10030    2    1    2    0    0  0.00000000000E+00  0.00000000000E+00 -0.85405427758E+03  0.25492650374E+04  0.24019457783E+04 0.  0.
        4    1    3    3  502    0  0.46665037821E+03 -0.22222485706E+03 -0.15775769578E+04  0.16600894955E+04  0.12699999809E+01 0.  1.
       -4    1    3    3    0  502 -0.46665037821E+03  0.22222485706E+03  0.72352268019E+03  0.88917554185E+03  0.12699999809E+01 0. -1.
</event>
<event>
 5   0  0.5373060E-06  0.3851150E+04  0.7818609E-02  0.8035266E-01
        2   -1    0    0  501    0  0.00000000000E+00  0.00000000000E+00  0.19629187160E+04  0.19629187160E+04  0.25500000920E-02 0.  1.
       -2   -1    0    0    0  501  0.00000000000E+00  0.00000000000E+00 -0.18889419586E+04  0.18889419586E+04  0.25500000920E-02 0. -1.
    10030    2    1    2    0    0  0.00000000000E+00  0.00000000000E+00  0.73976757418E+02  0.38518606747E+04  0.38511502303E+04 0.  0.
        5    1    3    3  502    0  0.83649643054E+03 -0.55455284415E+03  0.16806303008E+04  0.19574972371E+04  0.46999998093E+01 0.  1.
       -5    1    3    3    0  502 -0.83649643054E+03  0.55455284415E+03 -0.16066535434E+04  0.18943634376E+04  0.46999998093E+01 0. -1.
</event>
<event>
 5   0  0.1881144E-06  0.2912627E+04  0.7818609E-02  0.8269130E-01
        1   -1    0    0  501    0  0.00000000000E+00  0.00000000000E+00  0.86499978901E+03  0.86499978902E+03  0.50400001928E-02 0. -1.
       -1   -1    0    0    0  501  0.00000000000E+00  0.00000000000E+00 -0.24518499355E+04  0.24518499355E+04  0.50400001928E-02 0.  1.
    10030    2    1    2    0    0  0.00000000000E+00  0.00000000000E+00 -0.15868501465E+04  0.33168497245E+04  0.29126274578E+04 0.  0.
        3    1    3    3  502    0  0.10463136219E+04 -0.77135132048E+03 -0.15411246821E+04  0.20161399632E+04  0.10100000352E+00 0.  1.
       -3    1    3    3    0  502 -0.10463136219E+04  0.77135132048E+03 -0.45725464345E+02  0.13007097613E+04  0.10100000352E+00 0. -1.
</event>
<event>
 5   0  0.5347280E-06  0.3150266E+04  0.7818609E-02  0.8202077E-01
       -2   -1    0    0    0  501  0.00000000000E+00  0.00000000000E+00  0.11585333815E+04  0.11585333815E+04  0.25500000920E-02 0.  1.
        2   -1    0    0  501    0  0.00000000000E+00  0.00000000000E+00 -0.21415391175E+04  0.21415391175E+04  0.25500000920E-02 0. -1.
    10030    2    1    2    0    0  0.00000000000E+00  0.00000000000E+00 -0.98300573601E+03  0.33000724991E+04  0.31502663732E+04 0.  0.
        2    1    3    3  502    0  0.48110424572E+03 -0.14361593137E+04 -0.38468159619E+02  0.15150889970E+04  0.25500000920E-02 0.  1.
       -2    1    3    3    0  502 -0.48110424572E+03  0.14361593137E+04 -0.94453757639E+03  0.17849835021E+04  0.25500000920E-02 0. -1.
</event>
<event>
 5   0  0.5121624E-06  0.3276848E+04  0.7818609E-02  0.8168812E-01
        2   -1    0    0  501    0  0.00000000000E+00  0.00000000000E+00  0.20820310273E+04  0.20820310273E+04  0.25500000920E-02 0. -1.
       -2   -1    0    0    0  501  0.00000000000E+00  0.00000000000E+00 -0.12893337194E+04  0.12893337194E+04  0.25500000920E-02 0.  1.
    10030    2    1    2    0    0  0.00000000000E+00  0.00000000000E+00  0.79269730789E+03  0.33713647466E+04  0.32768477586E+04 0.  0.
        4    1    3    3  502    0 -0.15849637520E+04 -0.20250727181E+03  0.76917065015E+03  0.17733427171E+04  0.12699999809E+01 0. -1.
       -4    1    3    3    0  502  0.15849637520E+04  0.20250727181E+03  0.23526657745E+02  0.15980220295E+04  0.12699999809E+01 0.  1.
</event>
<event>
 5   0  0.5347280E-06  0.3158225E+04  0.7818609E-02  0.8199938E-01
       -2   -1    0    0    0  501  0.00000000000E+00  0.00000000000E+00  0.17088896937E+04  0.17088896937E+04  0.25500000920E-02 0.  1.
        2   -1    0    0  501    0  0.00000000000E+00  0.00000000000E+00 -0.14591906883E+04  0.14591906883E+04  0.25500000920E-02 0. -1.
    10030    2    1    2    0    0  0.00000000000E+00  0.00000000000E+00  0.24969900545E+03  0.31680803820E+04  0.31582247725E+04 0.  0.
        2    1    3    3  502    0  0.11854210502E+04  0.27716157942E+03  0.11337486645E+04  0.16635587281E+04  0.25500000920E-02 0.  1.
       -2    1    3    3    0  502 -0.11854210502E+04 -0.27716157942E+03 -0.88404965909E+03  0.15045216539E+04  0.25500000920E-02 0. -1.
</event>
<event>
 5   0  0.1886248E-06  0.3215118E+04  0.7818609E-02  0.8184836E-01
       -1   -1    0    0    0  501  0.00000000000E+00  0.00000000000E+00  0.15114488006E+04  0.15114488006E+04  0.50400001928E-02 0.  1.
        1   -1    0    0  501    0  0.00000000000E+00  0.00000000000E+00 -0.17097804557E+04  0.17097804557E+04  0.50400001928E-02 0. -1.
    10030    2    1    2    0    0  0.00000000000E+00  0.00000000000E+00 -0.19833165511E+03  0.32212292563E+04  0.32151178013E+04 0.  0.
        4    1    3    3  502    0  0.54915600411E+03 -0.64037528085E+03  0.12718618830E+04  0.15262002095E+04  0.12699999809E+01 0.  1.
       -4    1    3    3    0  502 -0.54915600411E+03  0.64037528085E+03 -0.14701935381E+04  0.16950290468E+04  0.12699999809E+01 0. -1.
</event>
<event>
 5   0  0.5373060E-06  0.3121225E+04  0.7818609E-02  0.8209937E-01
        2   -1    0    0  501    0  0.00000000000E+00  0.00000000000E+00  0.15704727841E+04  0.15704727841E+04  0.25500000920E-02 0. -1.
       -2   -1    0    0    0  501  0.00000000000E+00  0.00000000000E+00 -0.15508146083E+04  0.15508146083E+04  0.25500000920E-02 0.  1.
    10030    2    1    2    0    0  0.00000000000E+00  0.00000000000E+00  0.19658175829E+02  0.31212873924E+04  0.31212254872E+04 0.  0.
        5    1    3    3  502    0 -0.11835676294E+04 -0.54974657663E+03 -0.84601287626E+03  0.15552535191E+04  0.46999998093E+01 0.  1.
       -5    1    3    3    0  502  0.11835676294E+04  0.54974657663E+03  0.86567105209E+03  0.15660338733E+04  0.46999998093E+01 0. -1.
</event>
<event>
 5   0  0.1969465E-06  0.3218522E+04  0.7818609E-02  0.8183943E-01
       -1   -1    0    0    0  501  0.00000000000E+00  0.00000000000E+00  0.13505243719E+04  0.13505243719E+04  0.50400001928E-02 0.  1.
        1   -1    0    0  501    0  0.00000000000E+00  0.00000000000E+00 -0.19175665724E+04  0.19175665724E+04  0.50400001928E-02 0. -1.
    10030    2    1    2    0    0  0.00000000000E+00  0.00000000000E+00 -0.56704220050E+03  0.32680909443E+04  0.32185216424E+04 0.  0.
        2    1    3    3  502    0  0.74752621341E+03 -0.12506034265E+04 -0.97735751212E+03  0.17544321237E+04  0.25500000920E-02 0. -1.
       -2    1    3    3    0  502 -0.74752621341E+03  0.12506034265E+04  0.41031531161E+03  0.15136588206E+04  0.25500000920E-02 0.  1.
</event>
<event>
 5   0  0.1977015E-06  0.3171800E+04  0.7818609E-02  0.8196305E-01
       -1   -1    0    0    0  501  0.00000000000E+00  0.00000000000E+00  0.11344285672E+04  0.11344285672E+04  0.50400001928E-02 0. -1.
        1   -1    0    0  501    0  0.00000000000E+00  0.00000000000E+00 -0.22170449256E+04  0.22170449256E+04  0.50400001928E-02 0.  1.
    10030    2    1    2    0    0  0.00000000000E+00  0.00000000000E+00 -0.10826163584E+04  0.33514734928E+04  0.31718001819E+04 0.  0.
        1    1    3    3  502    0  0.11476909014E+04 -0.45536028658E+03  0.51032470808E+03  0.13360309516E+04  0.50400001928E-02 0. -1.
       -1    1    3    3    0  502 -0.11476909014E+04  0.45536028658E+03 -0.15929410665E+04  0.20154425413E+04  0.50400001928E-02 0.  1.
</event>
<event>
 5   0  0.1846850E-06  0.3077037E+04  0.7818609E-02  0.8222068E-01
       -1   -1    0    0    0  501  0.00000000000E+00  0.00000000000E+00  0.95449665332E+03  0.95449665333E+03  0.50400001928E-02 0. -1.
        1   -1    0    0  501    0  0.00000000000E+00  0.00000000000E+00 -0.24798816644E+04  0.24798816644E+04  0.50400001928E-02 0.  1.
    10030    2    1    2    0    0  0.00000000000E+00  0.00000000000E+00 -0.15253850111E+04  0.34343783177E+04  0.30770367234E+04 0.  0.
        5    1    3    3  502    0 -0.83958407000E+03  0.80580385518E+03 -0.18859422110E+04  0.22160824391E+04  0.46999998093E+01 0.  1.
       -5    1    3    3    0  502  0.83958407000E+03 -0.80580385518E+03  0.36055719987E+03  0.12182958787E+04  0.46999998093E+01 0. -1.
</event>
<event>
 5   0  0.1886248E-06  0.2763257E+04  0.7818609E-02  0.8314767E-01
       -1   -1    0    0    0  501  0.00000000000E+00  0.00000000000E+00  0.69482241824E+03  0.69482241826E+03  0.50400001928E-02 0.  1.
        1   -1    0    0  501    0  0.00000000000E+00  0.00000000000E+00 -0.27473177144E+04  0.27473177144E+04  0.50400001928E-02 0. -1.
    10030    2    1    2    0    0  0.00000000000E+00  0.00000000000E+00 -0.20524952961E+04  0.34421401327E+04  0.27632574531E+04 0.  0.
        4    1    3    3  502    0 -0.68622446919E+03 -0.11384278071E+04 -0.55688095834E+03  0.14411939179E+04  0.12699999809E+01 0.  1.
       -4    1    3    3    0  502  0.68622446919E+03  0.11384278071E+04 -0.14956143378E+04  0.20009462148E+04  0.12699999809E+01 0. -1.
</event>
<event>
 5   0  0.5108810E-06  0.3084126E+04  0.7818609E-02  0.8220108E-01
        2   -1    0    0  501    0  0.00000000000E+00  0.00000000000E+00  0.20222184787E+04  0.20222184787E+04  0.25500000920E-02 0. -1.
       -2   -1    0    0    0  501  0.00000000000E+00  0.00000000000E+00 -0.11759153842E+04  0.11759153842E+04  0.25500000920E-02 0.  1.
    10030    2    1    2    0    0  0.00000000000E+00  0.00000000000E+00  0.84630309450E+03  0.31981338628E+04  0.30841256908E+04 0.  0.
        1    1    3    3  502    0 -0.58138877093E+03 -0.52768828877E+03 -0.95312166902E+03  0.12348719565E+04  0.50400001928E-02 0.  1.
       -1    1    3    3    0  502  0.58138877093E+03  0.52768828877E+03  0.17994247635E+04  0.19632619063E+04  0.50400001928E-02 0. -1.
</event>
<event>
 5   0  0.1977015E-06  0.3216112E+04  0.7818609E-02  0.8184575E-01
       -1   -1    0    0    0  501  0.00000000000E+00  0.00000000000E+00  0.33548049903E+04  0.33548049904E+04  0.50400001928E-02 0.  1.
        1   -1    0    0  501    0  0.00000000000E+00  0.00000000000E+00 -0.77078798574E+03  0.77078798575E+03  0.50400001928E-02 0. -1.
    10030    2    1    2    0    0  0.00000000000E+00  0.00000000000E+00  0.25840170046E+04  0.41255929761E+04  0.32161115535E+04 0.  0.
        1    1    3    3  502    0 -0.75710212774E+03  0.66334048009E+03 -0.31666184176E+03  0.10552245952E+04  0.50400001928E-02 0. -1.
       -1    1    3    3    0  502  0.75710212774E+03 -0.66334048009E+03  0.29006788464E+04  0.30703683809E+04  0.50400001928E-02 0.  1.
</event>
<event>
 5   0  0.5131083E-06  0.3349281E+04  0.7818609E-02  0.8150468E-01
       -2   -1    0    0    0  501  0.00000000000E+00  0.00000000000E+00  0.31049225675E+04  0.31049225675E+04  0.25500000920E-02 0.  1.
        2   -1    0    0  501    0  0.00000000000E+00  0.00000000000E+00 -0.90321777570E+03  0.90321777570E+03  0.25500000920E-02 0. -1.
    10030    2    1    2    0    0  0.00000000000E+00  0.00000000000E+00  0.22017047918E+04  0.40081403432E+04  0.33492812692E+04 0.  0.
        3    1    3    3  502    0 -0.90941293794E+03  0.13005866797E+04  0.17406914727E+04  0.23555390925E+04  0.10100000352E+00 0. -1.
       -3    1    3    3    0  502  0.90941293794E+03 -0.13005866797E+04  0.46101331907E+03  0.16526012506E+04  0.10100000352E+00 0.  1.
</event>
<event>
 5   0  0.5108810E-06  0.3092092E+04  0.7818609E-02  0.8217912E-01
        2   -1    0    0  501    0  0.00000000000E+00  0.00000000000E+00  0.18828699534E+04  0.18828699534E+04  0.25500000920E-02 0. -1.
       -2   -1    0    0    0  501  0.00000000000E+00  0.00000000000E+00 -0.12694760028E+04  0.12694760028E+04  0.25500000920E-02 0.  1.
    10030    2    1    2    0    0  0.00000000000E+00  0.00000000000E+00  0.61339395067E+03  0.31523459562E+04  0.30920919923E+04 0.  0.
        1    1    3    3  502    0 -0.33866277232E+03 -0.55658338216E+03  0.17360812482E+04  0.18543073194E+04  0.50400001928E-02 0. -1.
       -1    1    3    3    0  502  0.33866277232E+03  0.55658338216E+03 -0.11226872975E+04  0.12980386368E+04  0.50400001928E-02 0.  1.
</event>
<event>
 5   0  0.5108810E-06  0.3101775E+04  0.7818609E-02  0.8215251E-01
        2   -1    0    0  501    0  0.00000000000E+00  0.00000000000E+00  0.18873596923E+04  0.18873596923E+04  0.25500000920E-02 0. -1.
       -2   -1    0    0    0  501  0.00000000000E+00  0.00000000000E+00 -0.12744008331E+04  0.12744008331E+04  0.25500000920E-02 0.  1.
    10030    2    1    2    0    0  0.00000000000E+00  0.00000000000E+00  0.61295885929E+03  0.31617605254E+04  0.31017754685E+04 0.  0.
        1    1    3    3  502    0  0.40291911363E+03 -0.54792630214E+03  0.17272367094E+04  0.18563172398E+04  0.50400001928E-02 0. -1.
       -1    1    3    3    0  502 -0.40291911363E+03  0.54792630214E+03 -0.11142778501E+04  0.13054432856E+04  0.50400001928E-02 0.  1.
</event>
<event>
 5   0  0.5373060E-06  0.2988366E+04  0.7818609E-02  0.8247061E-01
        2   -1    0    0  501    0  0.00000000000E+00  0.00000000000E+00  0.21780746117E+04  0.21780746117E+04  0.25500000920E-02 0.  1.
       -2   -1    0    0    0  501  0.00000000000E+00  0.00000000000E+00 -0.10250258724E+04  0.10250258724E+04  0.25500000920E-02 0. -1.
    10030    2    1    2    0    0  0.00000000000E+00  0.00000000000E+00  0.11530487392E+04  0.32031004841E+04  0.29883659944E+04 0.  0.
        5    1    3    3  502    0 -0.10302634686E+04  0.50260018238E+03 -0.45073226222E+03  0.12317594815E+04  0.46999998093E+01 0. -1.
       -5    1    3    3    0  502  0.10302634686E+04 -0.50260018238E+03  0.16037810015E+04  0.19713410026E+04  0.46999998093E+01 0.  1.
</event>
<event>
 5   0  0.1846850E-06  0.3203409E+04  0.7818609E-02  0.8187917E-01
       -1   -1    0    0    0  501  0.00000000000E+00  0.00000000000E+00  0.13678010249E+04  0.13678010249E+04  0.50400001928E-02 0. -1.
        1   -1    0    0  501    0  0.00000000000E+00  0.00000000000E+00 -0.18756071592E+04  0.18756071592E+04  0.50400001928E-02 0.  1.
    10030    2    1    2    0    0  0.00000000000E+00  0.00000000000E+00 -0.50780613427E+03  0.32434081841E+04  0.32034090558E+04 0.  0.
        5    1    3    3  502    0 -0.18007340403E+03  0.15375119203E+04 -0.67021351273E+03  0.16868839850E+04  0.46999998093E+01 0. -1.
       -5    1    3    3    0  502  0.18007340403E+03 -0.15375119203E+04  0.16240737847E+03  0.15565241992E+04  0.46999998093E+01 0.  1.
</event>
<event>
 5   0  0.5131083E-06  0.2907723E+04  0.7818609E-02  0.8270583E-01
       -2   -1    0    0    0  501  0.00000000000E+00  0.00000000000E+00  0.99913890644E+03  0.99913890645E+03  0.25500000920E-02 0. -1.
        2   -1    0    0  501    0  0.00000000000E+00  0.00000000000E+00 -0.21155351699E+04  0.21155351699E+04  0.25500000920E-02 0.  1.
    10030    2    1    2    0    0  0.00000000000E+00  0.00000000000E+00 -0.11163962635E+04  0.31146740764E+04  0.29077231617E+04 0.  0.
        3    1    3    3  502    0  0.11453705311E+04 -0.76575819598E+03 -0.60991339927E+02  0.13791226276E+04  0.10100000352E+00 0. -1.
       -3    1    3    3    0  502 -0.11453705311E+04  0.76575819598E+03 -0.10554049235E+04  0.17355514487E+04  0.10100000352E+00 0.  1.
</event>
<event>
 5   0  0.1969465E-06  0.3059419E+04  0.7818609E-02  0.8226964E-01
        1   -1    0    0  501    0  0.00000000000E+00  0.00000000000E+00  0.14070698533E+04  0.14070698533E+04  0.50400001928E-02 0.  1.
       -1   -1    0    0    0  501  0.00000000000E+00  0.00000000000E+00 -0.16630383932E+04  0.16630383932E+04  0.50400001928E-02 0. -1.
    10030    2    1    2    0    0  0.00000000000E+00  0.00000000000E+00 -0.25596853988E+03  0.30701082465E+04  0.30594190220E+04 0.  0.
        2    1    3    3  502    0 -0.62150391359E+03 -0.13974754625E+04 -0.15648075981E+03  0.15374300020E+04  0.25500000920E-02 0. -1.
       -2    1    3    3    0  502  0.62150391359E+03  0.13974754625E+04 -0.99487780068E+02  0.15326782445E+04  0.25500000920E-02 0.  1.
</event>
<event>
 5   0  0.1977015E-06  0.3170500E+04  0.7818609E-02  0.8196652E-01
       -1   -1    0    0    0  501  0.00000000000E+00  0.00000000000E+00  0.10438110398E+04  0.10438110398E+04  0.50400001928E-02 0.  1.
        1   -1    0    0  501    0  0.00000000000E+00  0.00000000000E+00 -0.24075413608E+04  0.24075413608E+04  0.50400001928E-02 0. -1.
    10030    2    1    2    0    0  0.00000000000E+00  0.00000000000E+00 -0.13637303210E+04  0.34513524005E+04  0.31705004344E+04 0.  0.
        1    1    3    3  502    0 -0.55064005402E+03 -0.11252865070E+04  0.37554281190E+03  0.13078633703E+04  0.50400001928E-02 0.  1.
       -1    1    3    3    0  502  0.55064005402E+03  0.11252865070E+04 -0.17392731329E+04  0.21434890302E+04  0.50400001928E-02 0. -1.
</event>
<event>
 5   0  0.1881144E-06  0.3211249E+04  0.7818609E-02  0.8185853E-01
        1   -1    0    0  501    0  0.00000000000E+00  0.00000000000E+00  0.16529272625E+04  0.16529272625E+04  0.50400001928E-02 0.  1.
       -1   -1    0    0    0  501  0.00000000000E+00  0.00000000000E+00 -0.15596753027E+04  0.15596753027E+04  0.50400001928E-02 0. -1.
    10030    2    1    2    0    0  0.00000000000E+00  0.00000000000E+00  0.93251959849E+02  0.32126025652E+04  0.32112488714E+04 0.  0.
        3    1    3    3  502    0 -0.62266967758E+03 -0.13128808536E+04  0.73003630580E+03  0.16261385799E+04  0.10100000352E+00 0.  1.
       -3    1    3    3    0  502  0.62266967758E+03  0.13128808536E+04 -0.63678434595E+03  0.15864639853E+04  0.10100000352E+00 0. -1.
</event>
<event>
 5   0  0.1881144E-06  0.2267256E+04  0.7818609E-02  0.8490945E-01
        1   -1    0    0  501    0  0.00000000000E+00  0.00000000000E+00  0.85241786699E+03  0.85241786701E+03  0.50400001928E-02 0.  1.
       -1   -1    0    0    0  501  0.00000000000E+00  0.00000000000E+00 -0.15076084441E+04  0.15076084441E+04  0.50400001928E-02 0. -1.
    10030    2    1    2    0    0  0.00000000000E+00  0.00000000000E+00 -0.65519057707E+03  0.23600263111E+04  0.22672559398E+04 0.  0.
        3    1    3    3  502    0  0.84058221740E+03  0.46241962429E+03  0.30102061398E+03  0.10054967893E+04  0.10100000352E+00 0.  1.
       -3    1    3    3    0  502 -0.84058221740E+03 -0.46241962429E+03 -0.95621119105E+03  0.13545295217E+04  0.10100000352E+00 0. -1.
</event>
<event>
 5   0  0.5347280E-06  0.3198917E+04  0.7818609E-02  0.8189103E-01
        2   -1    0    0  501    0  0.00000000000E+00  0.00000000000E+00  0.14445156742E+04  0.14445156742E+04  0.25500000920E-02 0. -1.
       -2   -1    0    0    0  501  0.00000000000E+00  0.00000000000E+00 -0.17710214334E+04  0.17710214334E+04  0.25500000920E-02 0.  1.
    10030    2    1    2    0    0  0.00000000000E+00  0.00000000000E+00 -0.32650575919E+03  0.32155371075E+04  0.31989174543E+04 0.  0.
        2    1    3    3  502    0  0.13067797163E+04 -0.88598266008E+03 -0.42076683174E+03  0.16339165302E+04  0.25500000920E-02 0.  1.
       -2    1    3    3    0  502 -0.13067797163E+04  0.88598266008E+03  0.94261072548E+02  0.15816205774E+04  0.25500000920E-02 0. -1.
</event>
<event>
 5   0  0.1846850E-06  0.3106964E+04  0.7818609E-02  0.8213829E-01
       -1   -1    0    0    0  501  0.00000000000E+00  0.00000000000E+00  0.12977059941E+04  0.12977059941E+04  0.50400001928E-02 0. -1.
        1   -1    0    0  501    0  0.00000000000E+00  0.00000000000E+00 -0.18596706326E+04  0.18596706326E+04  0.50400001928E-02 0.  1.
    10030    2    1    2    0    0  0.00000000000E+00  0.00000000000E+00 -0.56196463855E+03  0.31573766267E+04  0.31069636155E+04 0.  0.
        5    1    3    3  502    0 -0.60459883054E+03  0.82629158364E+03 -0.14682655621E+04  0.17900065301E+04  0.46999998093E+01 0.  1.
       -5    1    3    3    0  502  0.60459883054E+03 -0.82629158364E+03  0.90630092351E+03  0.13673700966E+04  0.46999998093E+01 0. -1.
</event>
<event>
 5   0  0.5373060E-06  0.3214474E+04  0.7818609E-02  0.8185005E-01
       -2   -1    0    0    0  501  0.00000000000E+00  0.00000000000E+00  0.18180863654E+04  0.18180863654E+04  0.25500000920E-02 0. -1.
        2   -1    0    0  501    0  0.00000000000E+00  0.00000000000E+00 -0.14208402339E+04  0.14208402339E+04  0.25500000920E-02 0.  1.
    10030    2    1    2    0    0  0.00000000000E+00  0.00000000000E+00  0.39724613158E+03  0.32389265993E+04  0.32144736780E+04 0.  0.
        5    1    3    3  502    0 -0.70639597500E+03  0.14392121547E+04  0.31289329706E+03  0.16334782537E+04  0.46999998093E+01 0.  1.
       -5    1    3    3    0  502  0.70639597500E+03 -0.14392121547E+04  0.84352834518E+02  0.16054483456E+04  0.46999998093E+01 0. -1.
</event>
<event>
 5   0  0.1969465E-06  0.3149613E+04  0.7818609E-02  0.8202253E-01
       -1   -1    0    0    0  501  0.00000000000E+00  0.00000000000E+00  0.15264670388E+04  0.15264670388E+04  0.50400001928E-02 0. -1.
        1   -1    0    0  501    0  0.00000000000E+00  0.00000000000E+00 -0.16246763545E+04  0.16246763545E+04  0.50400001928E-02 0.  1.
    10030    2    1    2    0    0  0.00000000000E+00  0.00000000000E+00 -0.98209315643E+02  0.31511433933E+04  0.31496126136E+04 0.  0.
        2    1    3    3  502    0  0.55020539198E+02 -0.15715960342E+04  0.35040614160E+02  0.15729492043E+04  0.25500000920E-02 0. -1.
       -2    1    3    3    0  502 -0.55020539198E+02  0.15715960342E+04 -0.13324992980E+03  0.15781941891E+04  0.25500000920E-02 0.  1.
</event>
<event>
 5   0  0.5373060E-06  0.3224268E+04  0.7818609E-02  0.8182437E-01
       -2   -1    0    0    0  501  0.00000000000E+00  0.00000000000E+00  0.13088698782E+04  0.13088698782E+04  0.25500000920E-02 0. -1.
        2   -1    0    0  501    0  0.00000000000E+00  0.00000000000E+00 -0.19856637990E+04  0.19856637990E+04  0.25500000920E-02 0.  1.
    10030    2    1    2    0    0  0.00000000000E+00  0.00000000000E+00 -0.67679392085E+03  0.32945336772E+04  0.32242676903E+04 0.  0.
        5    1    3    3  502    0  0.91304099383E+03 -0.88089201631E+03 -0.13547284703E+04  0.18560511628E+04  0.46999998093E+01 0.  1.
       -5    1    3    3    0  502 -0.91304099383E+03  0.88089201631E+03  0.67793454944E+03  0.14384825144E+04  0.46999998093E+01 0. -1.
</event>
<event>
 5   0  0.1977015E-06  0.3181589E+04  0.7818609E-02  0.8193696E-01
       -1   -1    0    0    0  501  0.00000000000E+00  0.00000000000E+00  0.12994076445E+04  0.12994076445E+04  0.50400001928E-02 0. -1.
        1   -1    0    0  501    0  0.00000000000E+00  0.00000000000E+00 -0.19475235371E+04  0.19475235371E+04  0.50400001928E-02 0.  1.
    10030    2    1    2    0    0  0.00000000000E+00  0.00000000000E+00 -0.64811589254E+03  0.32469311816E+04  0.31815888936E+04 0.  0.
        1    1    3    3  502    0  0.51039630955E+03 -0.11204252503E+04  0.70398864399E+03  0.14182584903E+04  0.50400001928E-02 0. -1.
       -1    1    3    3    0  502 -0.51039630955E+03  0.11204252503E+04 -0.13521045365E+04  0.18286726913E+04  0.50400001928E-02 0.  1.
</event>
<event>
 5   0  0.1969465E-06  0.3097282E+04  0.7818609E-02  0.8216484E-01
        1   -1    0    0  501    0  0.00000000000E+00  0.00000000000E+00  0.13085717675E+04  0.13085717676E+04  0.50400001928E-02 0. -1.
       -1   -1    0    0    0  501  0.00000000000E+00  0.00000000000E+00 -0.18327533512E+04  0.18327533512E+04  0.50400001928E-02 0.  1.
    10030    2    1    2    0    0  0.00000000000E+00  0.00000000000E+00 -0.52418158361E+03  0.31413251187E+04  0.30972822230E+04 0.  0.
        2    1    3    3  502    0  0.63939600933E+03  0.86179216387E+03  0.87037834899E+03  0.13816915216E+04  0.25500000920E-02 0. -1.
       -2    1    3    3    0  502 -0.63939600933E+03 -0.86179216387E+03 -0.13945599326E+04  0.17596335971E+04  0.25500000920E-02 0.  1.
</event>
<event>
 5   0  0.5108810E-06  0.3239584E+04  0.7818609E-02  0.8178441E-01
        2   -1    0    0  501    0  0.00000000000E+00  0.00000000000E+00  0.13082980083E+04  0.13082980083E+04  0.25500000920E-02 0.  1.
       -2   -1    0    0    0  501  0.00000000000E+00  0.00000000000E+00 -0.20054504779E+04  0.20054504779E+04  0.25500000920E-02 0. -1.
    10030    2    1    2    0    0  0.00000000000E+00  0.00000000000E+00 -0.69715246962E+03  0.33137484861E+04  0.32395844585E+04 0.  0.
        1    1    3    3  502    0 -0.36266652905E+03  0.15718111096E+04 -0.19820855227E+03  0.16252396149E+04  0.50400001928E-02 0.  1.
       -1    1    3    3    0  502  0.36266652905E+03 -0.15718111096E+04 -0.49894391735E+03  0.16885088712E+04  0.50400001928E-02 0. -1.
</event>
<event>
 5   0  0.5108810E-06  0.3083729E+04  0.7818609E-02  0.8220218E-01
       -2   -1    0    0    0  501  0.00000000000E+00  0.00000000000E+00  0.12526599539E+04  0.12526599539E+04  0.25500000920E-02 0. -1.
        2   -1    0    0  501    0  0.00000000000E+00  0.00000000000E+00 -0.18978380416E+04  0.18978380416E+04  0.25500000920E-02 0.  1.
    10030    2    1    2    0    0  0.00000000000E+00  0.00000000000E+00 -0.64517808765E+03  0.31504979955E+04  0.30837287259E+04 0.  0.
        1    1    3    3  502    0  0.15337217340E+04  0.11892607285E+03 -0.42925239107E+03  0.15970921649E+04  0.50400001928E-02 0. -1.
       -1    1    3    3    0  502 -0.15337217340E+04 -0.11892607285E+03 -0.21592569657E+03  0.15534058306E+04  0.50400001928E-02 0.  1.
</event>
<event>
 5   0  0.1729500E-06  0.3255355E+04  0.7818609E-02  0.8174349E-01
       -3   -1    0    0    0  501  0.00000000000E+00  0.00000000000E+00  0.20620421815E+04  0.20620421839E+04  0.10100000352E+00 0.  1.
        3   -1    0    0  501    0  0.00000000000E+00  0.00000000000E+00 -0.12848107348E+04  0.12848107387E+04  0.10100000352E+00 0. -1.
    10030    2    1    2    0    0  0.00000000000E+00  0.00000000000E+00  0.77723144668E+03  0.33468529227E+04  0.32553549368E+04 0.  0.
        5    1    3    3  502    0  0.92325193385E+03 -0.40420193256E+03 -0.92540728504E+03  0.13682741205E+04  0.46999998093E+01 0. -1.
       -5    1    3    3    0  502 -0.92325193385E+03  0.40420193256E+03  0.17026387317E+04  0.19785788022E+04  0.46999998093E+01 0.  1.
</event>
<event>
 5   0  0.1886248E-06  0.3201559E+04  0.7818609E-02  0.8188406E-01
        1   -1    0    0  501    0  0.00000000000E+00  0.00000000000E+00  0.12739864184E+04  0.12739864184E+04  0.50400001928E-02 0.  1.
       -1   -1    0    0    0  501  0.00000000000E+00  0.00000000000E+00 -0.20113987864E+04  0.20113987864E+04  0.50400001928E-02 0. -1.
    10030    2    1    2    0    0  0.00000000000E+00  0.00000000000E+00 -0.73741236800E+03  0.32853852048E+04  0.32015588302E+04 0.  0.
        4    1    3    3  502    0 -0.46636403770E+03 -0.68843107576E+03  0.10349757473E+04  0.13276329207E+04  0.12699999809E+01 0.  1.
       -4    1    3    3    0  502  0.46636403770E+03  0.68843107576E+03 -0.17723881153E+04  0.19577522841E+04  0.12699999809E+01 0. -1.
</event>
<event>
 5   0  0.5373060E-06  0.3188271E+04  0.7818609E-02  0.8191922E-01
        2   -1    0    0  501    0  0.00000000000E+00  0.00000000000E+00  0.19914819291E+04  0.19914819291E+04  0.25500000920E-02 0. -1.
       -2   -1    0    0    0  501  0.00000000000E+00  0.00000000000E+00 -0.12760688898E+04  0.12760688898E+04  0.25500000920E-02 0.  1.
    10030    2    1    2    0    0  0.00000000000E+00  0.00000000000E+00  0.71541303931E+03  0.32675508189E+04  0.31882710890E+04 0.  0.
        5    1    3    3  502    0 -0.14500499282E+04  0.35419803701E+03 -0.21580196968E+03  0.15082087468E+04  0.46999998093E+01 0.  1.
       -5    1    3    3    0  502  0.14500499282E+04 -0.35419803701E+03  0.93121500899E+03  0.17593420721E+04  0.46999998093E+01 0. -1.
</event>
<event>
 5   0  0.1846850E-06  0.3217741E+04  0.7818609E-02  0.8184148E-01
        1   -1    0    0  501    0  0.00000000000E+00  0.00000000000E+00  0.19567031647E+04  0.19567031647E+04  0.50400001928E-02 0. -1.
       -1   -1    0    0    0  501  0.00000000000E+00  0.00000000000E+00 -0.13228700815E+04  0.13228700815E+04  0.50400001928E-02 0.  1.
    10030    2    1    2    0    0  0.00000000000E+00  0.00000000000E+00  0.63383308318E+03  0.32795732463E+04  0.32177408690E+04 0.  0.
        5    1    3    3  502    0  0.65140778935E+03  0.13339964071E+04 -0.31513177392E+03  0.15176325798E+04  0.46999998093E+01 0.  1.
       -5    1    3    3    0  502 -0.65140778935E+03 -0.13339964071E+04  0.94896485710E+03  0.17619406665E+04  0.46999998093E+01 0. -1.
</event>
<event>
 5   0  0.1969465E-06  0.3195298E+04  0.7818609E-02  0.8190060E-01
       -1   -1    0    0    0  501  0.00000000000E+00  0.00000000000E+00  0.16575359338E+04  0.16575359338E+04  0.50400001928E-02 0. -1.
        1   -1    0    0  501    0  0.00000000000E+00  0.00000000000E+00 -0.15399255085E+04  0.15399255085E+04  0.50400001928E-02 0.  1.
    10030    2    1    2    0    0  0.00000000000E+00  0.00000000000E+00  0.11761042534E+03  0.31974614423E+04  0.31952977111E+04 0.  0.
        2    1    3    3  502    0 -0.95991889383E+03 -0.42564069681E+03  0.12637250576E+04  0.16430506099E+04  0.25500000920E-02 0. -1.
       -2    1    3    3    0  502  0.95991889383E+03  0.42564069681E+03 -0.11461146322E+04  0.15544108324E+04  0.25500000920E-02 0.  1.
</event>
<event>
 5   0  0.5373060E-06  0.3192683E+04  0.7818609E-02  0.8190752E-01
       -2   -1    0    0    0  501  0.00000000000E+00  0.00000000000E+00  0.12623243326E+04  0.12623243326E+04  0.25500000920E-02 0.  1.
        2   -1    0    0  501    0  0.00000000000E+00  0.00000000000E+00 -0.20187409410E+04  0.20187409410E+04  0.25500000920E-02 0. -1.
    10030    2    1    2    0    0  0.00000000000E+00  0.00000000000E+00 -0.75641660838E+03  0.32810652737E+04  0.31926827661E+04 0.  0.
        5    1    3    3  502    0 -0.60822876793E+03 -0.10384241938E+04  0.69964271772E+03  0.13920449213E+04  0.46999998093E+01 0.  1.
       -5    1    3    3    0  502  0.60822876793E+03  0.10384241938E+04 -0.14560593261E+04  0.18890203524E+04  0.46999998093E+01 0. -1.
</event>
<event>
 5   0  0.5108810E-06  0.3212870E+04  0.7818609E-02  0.8185426E-01
        2   -1    0    0  501    0  0.00000000000E+00  0.00000000000E+00  0.22253870287E+04  0.22253870287E+04  0.25500000920E-02 0.  1.
       -2   -1    0    0    0  501  0.00000000000E+00  0.00000000000E+00 -0.11596335131E+04  0.11596335131E+04  0.25500000920E-02 0. -1.
    10030    2    1    2    0    0  0.00000000000E+00  0.00000000000E+00  0.10657535156E+04  0.33850205418E+04  0.32128699806E+04 0.  0.
        1    1    3    3  502    0 -0.11683138201E+03 -0.15787299013E+04  0.24512030623E+03  0.16019118695E+04  0.50400001928E-02 0.  1.
       -1    1    3    3    0  502  0.11683138201E+03  0.15787299013E+04  0.82063320935E+03  0.17831086723E+04  0.50400001928E-02 0. -1.
</event>
<event>
 5   0  0.1969465E-06  0.3147071E+04  0.7818609E-02  0.8202937E-01
        1   -1    0    0  501    0  0.00000000000E+00  0.00000000000E+00  0.22862914569E+04  0.22862914569E+04  0.50400001928E-02 0.  1.
       -1   -1    0    0    0  501  0.00000000000E+00  0.00000000000E+00 -0.10829826219E+04  0.10829826219E+04  0.50400001928E-02 0. -1.
    10030    2    1    2    0    0  0.00000000000E+00  0.00000000000E+00  0.12033088350E+04  0.33692740788E+04  0.31470709661E+04 0.  0.
        2    1    3    3  502    0  0.15290427510E+04 -0.31552457938E+03  0.81168550106E+03  0.17596479327E+04  0.25500000920E-02 0.  1.
       -2    1    3    3    0  502 -0.15290427510E+04  0.31552457938E+03  0.39162333394E+03  0.16096261461E+04  0.25500000920E-02 0. -1.
</event>
<event>
 5   0  0.1846850E-06  0.2833699E+04  0.7818609E-02  0.8292882E-01
        1   -1    0    0  501    0  0.00000000000E+00  0.00000000000E+00  0.17041870861E+04  0.17041870861E+04  0.50400001928E-02 0. -1.
       -1   -1    0    0    0  501  0.00000000000E+00  0.00000000000E+00 -0.11779589965E+04  0.11779589965E+04  0.50400001928E-02 0.  1.
    10030    2    1    2    0    0  0.00000000000E+00  0.00000000000E+00  0.52622808956E+03  0.28821460826E+04  0.28336990030E+04 0.  0.
        5    1    3    3  502    0 -0.30660287891E+03 -0.13212868611E+04  0.67954794737E+03  0.15171063896E+04  0.46999998093E+01 0.  1.
       -5    1    3    3    0  502  0.30660287891E+03  0.13212868611E+04 -0.15331985781E+03  0.13650396930E+04  0.46999998093E+01 0. -1.
</event>
<event>
 5   0  0.1881144E-06  0.2919962E+04  0.7818609E-02  0.8266963E-01
       -1   -1    0    0    0  501  0.00000000000E+00  0.00000000000E+00  0.11561077531E+04  0.11561077531E+04  0.50400001928E-02 0.  1.
        1   -1    0    0  501    0  0.00000000000E+00  0.00000000000E+00 -0.18437251491E+04  0.18437251491E+04  0.50400001928E-02 0. -1.
    10030    2    1    2    0    0  0.00000000000E+00  0.00000000000E+00 -0.68761739598E+03  0.29998329022E+04  0.29199622870E+04 0.  0.
        3    1    3    3  502    0 -0.13980867864E+04 -0.19982086264E+02  0.87800732940E+02  0.14009835563E+04  0.10100000352E+00 0.  1.
       -3    1    3    3    0  502  0.13980867864E+04  0.19982086264E+02 -0.77541812892E+03  0.15988493459E+04  0.10100000352E+00 0. -1.
</event>
<event>
 5   0  0.1881144E-06  0.3129423E+04  0.7818609E-02  0.8207709E-01
        1   -1    0    0  501    0  0.00000000000E+00  0.00000000000E+00  0.26344582380E+04  0.26344582380E+04  0.50400001928E-02 0.  1.
       -1   -1    0    0    0  501  0.00000000000E+00  0.00000000000E+00 -0.92934581663E+03  0.92934581664E+03  0.50400001928E-02 0. -1.
    10030    2    1    2    0    0  0.00000000000E+00  0.00000000000E+00  0.17051124214E+04  0.35638040546E+04  0.31294234246E+04 0.  0.
        3    1    3    3  502    0  0.12457367530E+04 -0.92357186031E+02  0.19256546027E+04  0.22953290759E+04  0.10100000352E+00 0.  1.
       -3    1    3    3    0  502 -0.12457367530E+04  0.92357186031E+02 -0.22054218138E+03  0.12684749787E+04  0.10100000352E+00 0. -1.
</event>
<event>
 5   0  0.1846850E-06  0.3154283E+04  0.7818609E-02  0.8200996E-01
        1   -1    0    0  501    0  0.00000000000E+00  0.00000000000E+00  0.27891510192E+04  0.27891510192E+04  0.50400001928E-02 0.  1.
       -1   -1    0    0    0  501  0.00000000000E+00  0.00000000000E+00 -0.89180347903E+03  0.89180347905E+03  0.50400001928E-02 0. -1.
    10030    2    1    2    0    0  0.00000000000E+00  0.00000000000E+00  0.18973475402E+04  0.36809544983E+04  0.31542825381E+04 0.  0.
        5    1    3    3  502    0 -0.23421356502E+03  0.50916959246E+03 -0.77166503015E+03  0.95372882764E+03  0.46999998093E+01 0. -1.
       -5    1    3    3    0  502  0.23421356502E+03 -0.50916959246E+03  0.26690125704E+04  0.27272256707E+04  0.46999998093E+01 0.  1.
</event>
<event>
 5   0  0.1886248E-06  0.3187504E+04  0.7818609E-02  0.8192125E-01
       -1   -1    0    0    0  501  0.00000000000E+00  0.00000000000E+00  0.12154969566E+04  0.12154969566E+04  0.50400001928E-02 0. -1.
        1   -1    0    0  501    0  0.00000000000E+00  0.00000000000E+00 -0.20897176927E+04  0.20897176927E+04  0.50400001928E-02 0.  1.
    10030    2    1    2    0    0  0.00000000000E+00  0.00000000000E+00 -0.87422073607E+03  0.33052146493E+04  0.31875040365E+04 0.  0.
        4    1    3    3  502    0  0.12056069446E+04 -0.10303842425E+04 -0.27360379511E+03  0.16093602585E+04  0.12699999809E+01 0. -1.
       -4    1    3    3    0  502 -0.12056069446E+04  0.10303842425E+04 -0.60061694096E+03  0.16958543908E+04  0.12699999809E+01 0.  1.
</event>
<event>
 5   0  0.1846850E-06  0.3149849E+04  0.7818609E-02  0.8202189E-01
       -1   -1    0    0    0  501  0.00000000000E+00  0.00000000000E+00  0.13902033128E+04  0.13902033128E+04  0.50400001928E-02 0. -1.
        1   -1    0    0  501    0  0.00000000000E+00  0.00000000000E+00 -0.17841897193E+04  0.17841897194E+04  0.50400001928E-02 0.  1.
    10030    2    1    2    0    0  0.00000000000E+00  0.00000000000E+00 -0.39398640655E+03  0.31743930322E+04  0.31498485414E+04 0.  0.
        5    1    3    3  502    0 -0.48539772068E+03  0.10675435662E+04  0.86243768696E+03  0.14557063807E+04  0.46999998093E+01 0. -1.
       -5    1    3    3    0  502  0.48539772068E+03 -0.10675435662E+04 -0.12564240935E+04  0.17186866514E+04  0.46999998093E+01 0.  1.
</event>
<event>
 5   0  0.5121624E-06  0.3196107E+04  0.7818609E-02  0.8189846E-01
        2   -1    0    0  501    0  0.00000000000E+00  0.00000000000E+00  0.22975044336E+04  0.22975044336E+04  0.25500000920E-02 0. -1.
       -2   -1    0    0    0  501  0.00000000000E+00  0.00000000000E+00 -0.11115431333E+04  0.11115431333E+04  0.25500000920E-02 0.  1.
    10030    2    1    2    0    0  0.00000000000E+00  0.00000000000E+00  0.11859613003E+04  0.34090475669E+04  0.31961071802E+04 0.  0.
        4    1    3    3  502    0 -0.69113681004E+03 -0.41833975840E+02  0.21291995705E+04  0.22389534599E+04  0.12699999809E+01 0. -1.
       -4    1    3    3    0  502  0.69113681004E+03  0.41833975840E+02 -0.94323827024E+03  0.11700941069E+04  0.12699999809E+01 0.  1.
</event>
<event>
 5   0  0.1846850E-06  0.3035868E+04  0.7818609E-02  0.8233562E-01
        1   -1    0    0  501    0  0.00000000000E+00  0.00000000000E+00  0.16999928653E+04  0.16999928653E+04  0.50400001928E-02 0. -1.
       -1   -1    0    0    0  501  0.00000000000E+00  0.00000000000E+00 -0.13553723476E+04  0.13553723476E+04  0.50400001928E-02 0.  1.
    10030    2    1    2    0    0  0.00000000000E+00  0.00000000000E+00  0.34462051773E+03  0.30553652129E+04  0.30358677974E+04 0.  0.
        5    1    3    3  502    0 -0.90926157332E+03  0.46498479301E+03  0.13025246965E+04  0.16551616663E+04  0.46999998093E+01 0. -1.
       -5    1    3    3    0  502  0.90926157332E+03 -0.46498479301E+03 -0.95790417877E+03  0.14002035467E+04  0.46999998093E+01 0.  1.
</event>
<event>
 5   0  0.5131083E-06  0.3266276E+04  0.7818609E-02  0.8171530E-01
       -2   -1    0    0    0  501  0.00000000000E+00  0.00000000000E+00  0.17543281052E+04  0.17543281052E+04  0.25500000920E-02 0.  1.
        2   -1    0    0  501    0  0.00000000000E+00  0.00000000000E+00 -0.15203198872E+04  0.15203198872E+04  0.25500000920E-02 0. -1.
    10030    2    1    2    0    0  0.00000000000E+00  0.00000000000E+00  0.23400821799E+03  0.32746479924E+04  0.32662761102E+04 0.  0.
        3    1    3    3  502    0 -0.68540447453E+03  0.58543900821E+03 -0.12483314612E+04  0.15397563357E+04  0.10100000352E+00 0. -1.
       -3    1    3    3    0  502  0.68540447453E+03 -0.58543900821E+03  0.14823396792E+04  0.17348916568E+04  0.10100000352E+00 0.  1.
</event>
<event>
 5   0  0.5131083E-06  0.3217170E+04  0.7818609E-02  0.8184297E-01
       -2   -1    0    0    0  501  0.00000000000E+00  0.00000000000E+00  0.97488512324E+03  0.97488512324E+03  0.25500000920E-02 0.  1.
        2   -1    0    0  501    0  0.00000000000E+00  0.00000000000E+00 -0.26542056170E+04  0.26542056170E+04  0.25500000920E-02 0. -1.
    10030    2    1    2    0    0  0.00000000000E+00  0.00000000000E+00 -0.16793204938E+04  0.36290907403E+04  0.32171699178E+04 0.  0.
        3    1    3    3  502    0 -0.25425406806E+03 -0.15281981949E+04 -0.35119140942E+03  0.15885119673E+04  0.10100000352E+00 0. -1.
       -3    1    3    3    0  502  0.25425406806E+03  0.15281981949E+04 -0.13281290843E+04  0.20405787730E+04  0.10100000352E+00 0.  1.
</event>
<event>
 5   0  0.1729500E-06  0.3223009E+04  0.7818609E-02  0.8182767E-01
        4   -1    0    0  501    0  0.00000000000E+00  0.00000000000E+00  0.17198241272E+04  0.17198245961E+04  0.12699999809E+01 0.  1.
       -4   -1    0    0    0  501  0.00000000000E+00  0.00000000000E+00 -0.15100061164E+04  0.15100066504E+04  0.12699999809E+01 0. -1.
    10030    2    1    2    0    0  0.00000000000E+00  0.00000000000E+00  0.20981801084E+03  0.32298312466E+04  0.32230088867E+04 0.  0.
        4    1    3    3  502    0 -0.76545671478E+03  0.10347853387E+04  0.10766214276E+04  0.16780405211E+04  0.12699999809E+01 0.  1.
       -4    1    3    3    0  502  0.76545671478E+03 -0.10347853387E+04 -0.86680341677E+03  0.15517907254E+04  0.12699999809E+01 0. -1.
</event>
<event>
 5   0  0.5373060E-06  0.3197540E+04  0.7818609E-02  0.8189467E-01
        2   -1    0    0  501    0  0.00000000000E+00  0.00000000000E+00  0.17222864133E+04  0.17222864133E+04  0.25500000920E-02 0. -1.
       -2   -1    0    0    0  501  0.00000000000E+00  0.00000000000E+00 -0.14841121503E+04  0.14841121503E+04  0.25500000920E-02 0.  1.
    10030    2    1    2    0    0  0.00000000000E+00  0.00000000000E+00  0.23817426306E+03  0.32063985636E+04  0.31975404250E+04 0.  0.
        5    1    3    3  502    0  0.78908237644E+03 -0.93706103968E+03  0.11492156946E+04  0.16797181882E+04  0.46999998093E+01 0. -1.
       -5    1    3    3    0  502 -0.78908237644E+03  0.93706103968E+03 -0.91104143155E+03  0.15266803755E+04  0.46999998093E+01 0.  1.
</event>
<event>
 5   0  0.1846850E-06  0.3240816E+04  0.7818609E-02  0.8178120E-01
        1   -1    0    0  501    0  0.00000000000E+00  0.00000000000E+00  0.16224908080E+04  0.16224908080E+04  0.50400001928E-02 0. -1.
       -1   -1    0    0    0  501  0.00000000000E+00  0.00000000000E+00 -0.16183278319E+04  0.16183278319E+04  0.50400001928E-02 0.  1.
    10030    2    1    2    0    0  0.00000000000E+00  0.00000000000E+00  0.41629761169E+01  0.32408186399E+04  0.32408159661E+04 0.  0.
        5    1    3    3  502    0  0.12918963266E+04 -0.79387071679E+03 -0.56929723617E+03  0.16196753585E+04  0.46999998093E+01 0.  1.
       -5    1    3    3    0  502 -0.12918963266E+04  0.79387071679E+03  0.57346021228E+03  0.16211432814E+04  0.46999998093E+01 0. -1.
</event>
<event>
 5   0  0.1969465E-06  0.3251934E+04  0.7818609E-02  0.8175235E-01
        1   -1    0    0  501    0  0.00000000000E+00  0.00000000000E+00  0.14611607253E+04  0.14611607253E+04  0.50400001928E-02 0.  1.
       -1   -1    0    0    0  501  0.00000000000E+00  0.00000000000E+00 -0.18093617542E+04  0.18093617542E+04  0.50400001928E-02 0. -1.
    10030    2    1    2    0    0  0.00000000000E+00  0.00000000000E+00 -0.34820102894E+03  0.32705224795E+04  0.32519337835E+04 0.  0.
        2    1    3    3  502    0  0.12253747478E+04  0.30418807790E+03  0.85630207517E+03  0.15255578990E+04  0.25500000920E-02 0.  1.
       -2    1    3    3    0  502 -0.12253747478E+04 -0.30418807790E+03 -0.12045031041E+04  0.17449645805E+04  0.25500000920E-02 0. -1.
</event>
<event>
 5   0  0.5373060E-06  0.3192875E+04  0.7818609E-02  0.8190701E-01
        2   -1    0    0  501    0  0.00000000000E+00  0.00000000000E+00  0.23969214402E+04  0.23969214402E+04  0.25500000920E-02 0. -1.
       -2   -1    0    0    0  501  0.00000000000E+00  0.00000000000E+00 -0.10632860960E+04  0.10632860960E+04  0.25500000920E-02 0.  1.
    10030    2    1    2    0    0  0.00000000000E+00  0.00000000000E+00  0.13336353442E+04  0.34602075362E+04  0.31928753440E+04 0.  0.
        5    1    3    3  502    0 -0.12511683213E+04 -0.73677970840E+03  0.13859464699E+04  0.20072708373E+04  0.46999998093E+01 0. -1.
       -5    1    3    3    0  502  0.12511683213E+04  0.73677970840E+03 -0.52311125742E+02  0.14529366989E+04  0.46999998093E+01 0.  1.
</event>
<event>
 5   0  0.5108810E-06  0.3215704E+04  0.7818609E-02  0.8184682E-01
        2   -1    0    0  501    0  0.00000000000E+00  0.00000000000E+00  0.17375540659E+04  0.17375540659E+04  0.25500000920E-02 0.  1.
       -2   -1    0    0    0  501  0.00000000000E+00  0.00000000000E+00 -0.14878317833E+04  0.14878317833E+04  0.25500000920E-02 0. -1.
    10030    2    1    2    0    0  0.00000000000E+00  0.00000000000E+00  0.24972228264E+03  0.32253858492E+04  0.32157040688E+04 0.  0.
        1    1    3    3  502    0 -0.58717734512E+03  0.62331781004E+03  0.14897984547E+04  0.17183718348E+04  0.50400001928E-02 0.  1.
       -1    1    3    3    0  502  0.58717734512E+03 -0.62331781004E+03 -0.12400761721E+04  0.15070140144E+04  0.50400001928E-02 0. -1.
</event>
<event>
 5   0  0.1969465E-06  0.3197533E+04  0.7818609E-02  0.8189469E-01
        1   -1    0    0  501    0  0.00000000000E+00  0.00000000000E+00  0.21274679220E+04  0.21274679221E+04  0.50400001928E-02 0.  1.
       -1   -1    0    0    0  501  0.00000000000E+00  0.00000000000E+00 -0.12014536417E+04  0.12014536417E+04  0.50400001928E-02 0. -1.
    10030    2    1    2    0    0  0.00000000000E+00  0.00000000000E+00  0.92601428034E+03  0.33289215638E+04  0.31975328506E+04 0.  0.
        2    1    3    3  502    0 -0.86749761965E+03  0.43060183947E+02 -0.93440172220E+03  0.12757401295E+04  0.25500000920E-02 0. -1.
       -2    1    3    3    0  502  0.86749761965E+03 -0.43060183947E+02  0.18604160025E+04  0.20531814343E+04  0.25500000920E-02 0.  1.
</event>
<event>
 5   0  0.5108810E-06  0.3374256E+04  0.7818609E-02  0.8144254E-01
       -2   -1    0    0    0  501  0.00000000000E+00  0.00000000000E+00  0.11634264988E+04  0.11634264989E+04  0.25500000920E-02 0.  1.
        2   -1    0    0  501    0  0.00000000000E+00  0.00000000000E+00 -0.24465673596E+04  0.24465673596E+04  0.25500000920E-02 0. -1.
    10030    2    1    2    0    0  0.00000000000E+00  0.00000000000E+00 -0.12831408607E+04  0.36099938584E+04  0.33742562424E+04 0.  0.
        1    1    3    3  502    0  0.57707344625E+03 -0.15506270310E+04 -0.99469566786E+03  0.19305122179E+04  0.50400001928E-02 0. -1.
       -1    1    3    3    0  502 -0.57707344625E+03  0.15506270310E+04 -0.28844519286E+03  0.16794816406E+04  0.50400001928E-02 0.  1.
</event>
<event>
 5   0  0.1886248E-06  0.3198091E+04  0.7818609E-02  0.8189321E-01
       -1   -1    0    0    0  501  0.00000000000E+00  0.00000000000E+00  0.23804938158E+04  0.23804938158E+04  0.50400001928E-02 0.  1.
        1   -1    0    0  501    0  0.00000000000E+00  0.00000000000E+00 -0.10741245014E+04  0.10741245014E+04  0.50400001928E-02 0. -1.
    10030    2    1    2    0    0  0.00000000000E+00  0.00000000000E+00  0.13063693145E+04  0.34546183172E+04  0.31980911388E+04 0.  0.
        4    1    3    3  502    0  0.22963339981E+03  0.15483440577E+04  0.10062742490E+04  0.18608305394E+04  0.12699999809E+01 0.  1.
       -4    1    3    3    0  502 -0.22963339981E+03 -0.15483440577E+04  0.30009506545E+03  0.15937877778E+04  0.12699999809E+01 0. -1.
</event>
<event>
 5   0  0.5131083E-06  0.3254060E+04  0.7818609E-02  0.8174684E-01
        2   -1    0    0  501    0  0.00000000000E+00  0.00000000000E+00  0.16182359170E+04  0.16182359170E+04  0.25500000920E-02 0. -1.
       -2   -1    0    0    0  501  0.00000000000E+00  0.00000000000E+00 -0.16358718890E+04  0.16358718890E+04  0.25500000920E-02 0.  1.
    10030    2    1    2    0    0  0.00000000000E+00  0.00000000000E+00 -0.17635972071E+02  0.32541078060E+04  0.32540600157E+04 0.  0.
        3    1    3    3  502    0  0.60393470192E+03  0.82493746807E+03  0.12568892235E+04  0.16201942725E+04  0.10100000352E+00 0. -1.
       -3    1    3    3    0  502 -0.60393470192E+03 -0.82493746807E+03 -0.12745251956E+04  0.16339135335E+04  0.10100000352E+00 0.  1.
</event>
<event>
 5   0  0.1886248E-06  0.3218048E+04  0.7818609E-02  0.8184067E-01
       -1   -1    0    0    0  501  0.00000000000E+00  0.00000000000E+00  0.18780111709E+04  0.18780111709E+04  0.50400001928E-02 0.  1.
        1   -1    0    0  501    0  0.00000000000E+00  0.00000000000E+00 -0.13785637577E+04  0.13785637577E+04  0.50400001928E-02 0. -1.
    10030    2    1    2    0    0  0.00000000000E+00  0.00000000000E+00  0.49944741323E+03  0.32565749286E+04  0.32180479405E+04 0.  0.
        4    1    3    3  502    0 -0.14156047902E+03 -0.12592988037E+04 -0.75365252282E+03  0.14744038064E+04  0.12699999809E+01 0. -1.
       -4    1    3    3    0  502  0.14156047902E+03  0.12592988037E+04  0.12530999360E+04  0.17821711222E+04  0.12699999809E+01 0.  1.
</event>
<event>
 5   0  0.5131083E-06  0.3146876E+04  0.7818609E-02  0.8202990E-01
        2   -1    0    0  501    0  0.00000000000E+00  0.00000000000E+00  0.20166261183E+04  0.20166261183E+04  0.25500000920E-02 0.  1.
       -2   -1    0    0    0  501  0.00000000000E+00  0.00000000000E+00 -0.12276478042E+04  0.12276478042E+04  0.25500000920E-02 0. -1.
    10030    2    1    2    0    0  0.00000000000E+00  0.00000000000E+00  0.78897831413E+03  0.32442739225E+04  0.31468756735E+04 0.  0.
        3    1    3    3  502    0  0.89660829418E+03 -0.28243617454E+03  0.16952982162E+04  0.19384820551E+04  0.10100000352E+00 0.  1.
       -3    1    3    3    0  502 -0.89660829418E+03  0.28243617454E+03 -0.90631990210E+03  0.13057918674E+04  0.10100000352E+00 0. -1.
</event>
<event>
 5   0  0.5121624E-06  0.3233480E+04  0.7818609E-02  0.8180031E-01
        2   -1    0    0  501    0  0.00000000000E+00  0.00000000000E+00  0.12239661271E+04  0.12239661271E+04  0.25500000920E-02 0.  1.
       -2   -1    0    0    0  501  0.00000000000E+00  0.00000000000E+00 -0.21355559267E+04  0.21355559267E+04  0.25500000920E-02 0. -1.
    10030    2    1    2    0    0  0.00000000000E+00  0.00000000000E+00 -0.91158979955E+03  0.33595220538E+04  0.32334799315E+04 0.  0.
        4    1    3    3  502    0  0.12133623714E+04  0.91915842217E+03 -0.10217732297E+04  0.18333364653E+04  0.12699999809E+01 0.  1.
       -4    1    3    3    0  502 -0.12133623714E+04 -0.91915842217E+03  0.11018343016E+03  0.15261855885E+04  0.12699999809E+01 0. -1.
</event>
<event>
 5   0  0.5347280E-06  0.2988504E+04  0.7818609E-02  0.8247021E-01
        2   -1    0    0  501    0  0.00000000000E+00  0.00000000000E+00  0.12816947299E+04  0.12816947299E+04  0.25500000920E-02 0. -1.
       -2   -1    0    0    0  501  0.00000000000E+00  0.00000000000E+00 -0.17420593590E+04  0.17420593590E+04  0.25500000920E-02 0.  1.
    10030    2    1    2    0    0  0.00000000000E+00  0.00000000000E+00 -0.46036462903E+03  0.30237540889E+04  0.29885035049E+04 0.  0.
        2    1    3    3  502    0 -0.45077845406E+03  0.30541265426E+03 -0.16381094044E+04  0.17262330448E+04  0.25500000920E-02 0.  1.
       -2    1    3    3    0  502  0.45077845406E+03 -0.30541265426E+03  0.11777447754E+04  0.12975210441E+04  0.25500000920E-02 0. -1.
</event>
<event>
 5   0  0.5347280E-06  0.3217665E+04  0.7818609E-02  0.8184167E-01
        2   -1    0    0  501    0  0.00000000000E+00  0.00000000000E+00  0.18412153654E+04  0.18412153654E+04  0.25500000920E-02 0.  1.
       -2   -1    0    0    0  501  0.00000000000E+00  0.00000000000E+00 -0.14057793716E+04  0.14057793716E+04  0.25500000920E-02 0. -1.
    10030    2    1    2    0    0  0.00000000000E+00  0.00000000000E+00  0.43543599383E+03  0.32469947370E+04  0.32176653520E+04 0.  0.
        2    1    3    3  502    0 -0.12371104235E+04  0.27913326654E+03  0.12166833468E+04  0.17574629290E+04  0.25500000920E-02 0.  1.
       -2    1    3    3    0  502  0.12371104235E+04 -0.27913326654E+03 -0.78124735300E+03  0.14895318080E+04  0.25500000920E-02 0. -1.
</event>
<event>
 5   0  0.1886248E-06  0.3387704E+04  0.7818609E-02  0.8140931E-01
        1   -1    0    0  501    0  0.00000000000E+00  0.00000000000E+00  0.16907901622E+04  0.16907901623E+04  0.50400001928E-02 0. -1.
       -1   -1    0    0    0  501  0.00000000000E+00  0.00000000000E+00 -0.16969189535E+04  0.16969189535E+04  0.50400001928E-02 0.  1.
    10030    2    1    2    0    0  0.00000000000E+00  0.00000000000E+00 -0.61287912155E+01  0.33877091157E+04  0.33877035718E+04 0.  0.
        4    1    3    3  502    0  0.11507819059E+04  0.24824348933E+03 -0.12209368394E+04  0.16960578421E+04  0.12699999809E+01 0.  1.
       -4    1    3    3    0  502 -0.11507819059E+04 -0.24824348933E+03  0.12148080482E+04  0.16916512737E+04  0.12699999809E+01 0. -1.
</event>
<event>
 5   0  0.5347280E-06  0.3177544E+04  0.7818609E-02  0.8194773E-01
        2   -1    0    0  501    0  0.00000000000E+00  0.00000000000E+00  0.16947110620E+04  0.16947110620E+04  0.25500000920E-02 0. -1.
       -2   -1    0    0    0  501  0.00000000000E+00  0.00000000000E+00 -0.14894550836E+04  0.14894550836E+04  0.25500000920E-02 0.  1.
    10030    2    1    2    0    0  0.00000000000E+00  0.00000000000E+00  0.20525597837E+03  0.31841661456E+04  0.31775437095E+04 0.  0.
        2    1    3    3  502    0 -0.53266067639E+03 -0.50532149958E+03 -0.13092508773E+04  0.15010713087E+04  0.25500000920E-02 0.  1.
       -2    1    3    3    0  502  0.53266067639E+03  0.50532149958E+03  0.15145068556E+04  0.16830948369E+04  0.25500000920E-02 0. -1.
</event>
<event>
 5   0  0.5373060E-06  0.3199869E+04  0.7818609E-02  0.8188852E-01
       -2   -1    0    0    0  501  0.00000000000E+00  0.00000000000E+00  0.22340316420E+04  0.22340316420E+04  0.25500000920E-02 0. -1.
        2   -1    0    0  501    0  0.00000000000E+00  0.00000000000E+00 -0.11458163006E+04  0.11458163006E+04  0.25500000920E-02 0.  1.
    10030    2    1    2    0    0  0.00000000000E+00  0.00000000000E+00  0.10882153414E+04  0.33798479425E+04  0.31998686669E+04 0.  0.
        5    1    3    3  502    0 -0.57784299296E+03 -0.61969077347E+03 -0.88937343377E+03  0.12283836428E+04  0.46999998093E+01 0.  1.
       -5    1    3    3    0  502  0.57784299296E+03  0.61969077347E+03  0.19775887752E+04  0.21514642997E+04  0.46999998093E+01 0. -1.
</event>
<event>
 5   0  0.5373060E-06  0.2193279E+04  0.7818609E-02  0.8521231E-01
       -2   -1    0    0    0  501  0.00000000000E+00  0.00000000000E+00  0.47138301906E+03  0.47138301907E+03  0.25500000920E-02 0. -1.
        2   -1    0    0  501    0  0.00000000000E+00  0.00000000000E+00 -0.25512546568E+04  0.25512546568E+04  0.25500000920E-02 0.  1.
    10030    2    1    2    0    0  0.00000000000E+00  0.00000000000E+00 -0.20798716378E+04  0.30226376759E+04  0.21932789358E+04 0.  0.
        5    1    3    3  502    0  0.93717285534E+02  0.71741346178E+03  0.95778261249E+02  0.72983598848E+03  0.46999998093E+01 0. -1.
       -5    1    3    3    0  502 -0.93717285534E+02 -0.71741346178E+03 -0.21756498990E+04  0.22928016874E+04  0.46999998093E+01 0.  1.
</event>
<event>
 5   0  0.5131083E-06  0.3191132E+04  0.7818609E-02  0.8191163E-01
        2   -1    0    0  501    0  0.00000000000E+00  0.00000000000E+00  0.21198593263E+04  0.21198593263E+04  0.25500000920E-02 0.  1.
       -2   -1    0    0    0  501  0.00000000000E+00  0.00000000000E+00 -0.12009432567E+04  0.12009432567E+04  0.25500000920E-02 0. -1.
    10030    2    1    2    0    0  0.00000000000E+00  0.00000000000E+00  0.91891606956E+03  0.33208025830E+04  0.31911319390E+04 0.  0.
        3    1    3    3  502    0  0.69417312908E+03  0.18839031593E+03 -0.10226569464E+04  0.12502777629E+04  0.10100000352E+00 0. -1.
       -3    1    3    3    0  502 -0.69417312908E+03 -0.18839031593E+03  0.19415730159E+04  0.20705248201E+04  0.10100000352E+00 0.  1.
</event>
<event>
 5   0  0.1846850E-06  0.3132382E+04  0.7818609E-02  0.8206907E-01
       -1   -1    0    0    0  501  0.00000000000E+00  0.00000000000E+00  0.12710589471E+04  0.12710589471E+04  0.50400001928E-02 0.  1.
        1   -1    0    0  501    0  0.00000000000E+00  0.00000000000E+00 -0.19298503434E+04  0.19298503434E+04  0.50400001928E-02 0. -1.
    10030    2    1    2    0    0  0.00000000000E+00  0.00000000000E+00 -0.65879139622E+03  0.32009092905E+04  0.31323815512E+04 0.  0.
        5    1    3    3  502    0 -0.50204848262E+03  0.53785148812E+03 -0.17422474738E+04  0.18912390785E+04  0.46999998093E+01 0. -1.
       -5    1    3    3    0  502  0.50204848262E+03 -0.53785148812E+03  0.10834560776E+04  0.13096702120E+04  0.46999998093E+01 0.  1.
</event>
<event>
 5   0  0.1977015E-06  0.3201654E+04  0.7818609E-02  0.8188381E-01
       -1   -1    0    0    0  501  0.00000000000E+00  0.00000000000E+00  0.11410627641E+04  0.11410627641E+04  0.50400001928E-02 0.  1.
        1   -1    0    0  501    0  0.00000000000E+00  0.00000000000E+00 -0.22458418601E+04  0.22458418601E+04  0.50400001928E-02 0. -1.
    10030    2    1    2    0    0  0.00000000000E+00  0.00000000000E+00 -0.11047790960E+04  0.33869046243E+04  0.32016536482E+04 0.  0.
        1    1    3    3  502    0 -0.12079670107E+04  0.62309889295E+03 -0.14470235597E+04  0.19852742157E+04  0.50400001928E-02 0. -1.
       -1    1    3    3    0  502  0.12079670107E+04 -0.62309889295E+03  0.34224446368E+03  0.14016304085E+04  0.50400001928E-02 0.  1.
</event>
<event>
 5   0  0.5131083E-06  0.3159377E+04  0.7818609E-02  0.8199629E-01
        2   -1    0    0  501    0  0.00000000000E+00  0.00000000000E+00  0.18549158891E+04  0.18549158891E+04  0.25500000920E-02 0. -1.
       -2   -1    0    0    0  501  0.00000000000E+00  0.00000000000E+00 -0.13452983028E+04  0.13452983028E+04  0.25500000920E-02 0.  1.
    10030    2    1    2    0    0  0.00000000000E+00  0.00000000000E+00  0.50961758630E+03  0.32002141919E+04  0.31593766458E+04 0.  0.
        3    1    3    3  502    0 -0.70893247375E+03 -0.11585947382E+04  0.10717623048E+04  0.17302027245E+04  0.10100000352E+00 0. -1.
       -3    1    3    3    0  502  0.70893247375E+03  0.11585947382E+04 -0.56214471853E+03  0.14700114674E+04  0.10100000352E+00 0.  1.
</event>
<event>
 5   0  0.1969465E-06  0.3191493E+04  0.7818609E-02  0.8191067E-01
        1   -1    0    0  501    0  0.00000000000E+00  0.00000000000E+00  0.20349600885E+04  0.20349600885E+04  0.50400001928E-02 0. -1.
       -1   -1    0    0    0  501  0.00000000000E+00  0.00000000000E+00 -0.12513303211E+04  0.12513303211E+04  0.50400001928E-02 0.  1.
    10030    2    1    2    0    0  0.00000000000E+00  0.00000000000E+00  0.78362976738E+03  0.32862904096E+04  0.31914932311E+04 0.  0.
        2    1    3    3  502    0  0.40243369551E+02  0.13795550476E+04  0.12166164368E+04  0.18398226035E+04  0.25500000920E-02 0. -1.
       -2    1    3    3    0  502 -0.40243369551E+02 -0.13795550476E+04 -0.43298666944E+03  0.14464678061E+04  0.25500000920E-02 0.  1.
</event>
<event>
 5   0  0.5121624E-06  0.3233489E+04  0.7818609E-02  0.8180028E-01
       -2   -1    0    0    0  501  0.00000000000E+00  0.00000000000E+00  0.12908475098E+04  0.12908475098E+04  0.25500000920E-02 0. -1.
        2   -1    0    0  501    0  0.00000000000E+00  0.00000000000E+00 -0.20249203408E+04  0.20249203408E+04  0.25500000920E-02 0.  1.
    10030    2    1    2    0    0  0.00000000000E+00  0.00000000000E+00 -0.73407283094E+03  0.33157678506E+04  0.32334893719E+04 0.  0.
        4    1    3    3  502    0 -0.57705797662E+03  0.15045911686E+04 -0.50101816342E+03  0.16875459419E+04  0.12699999809E+01 0.  1.
       -4    1    3    3    0  502  0.57705797662E+03 -0.15045911686E+04 -0.23305466752E+03  0.16282219087E+04  0.12699999809E+01 0. -1.
</event>
<event>
 5   0  0.1886248E-06  0.3243368E+04  0.7818609E-02  0.8177457E-01
       -1   -1    0    0    0  501  0.00000000000E+00  0.00000000000E+00  0.11579022994E+04  0.11579022994E+04  0.50400001928E-02 0.  1.
        1   -1    0    0  501    0  0.00000000000E+00  0.00000000000E+00 -0.22712269014E+04  0.22712269014E+04  0.50400001928E-02 0. -1.
    10030    2    1    2    0    0  0.00000000000E+00  0.00000000000E+00 -0.11133246020E+04  0.34291292007E+04  0.32433679110E+04 0.  0.
        4    1    3    3  502    0 -0.14906407630E+04  0.55569511291E+03 -0.22391424937E+03  0.16065323361E+04  0.12699999809E+01 0.  1.
       -4    1    3    3    0  502  0.14906407630E+04 -0.55569511291E+03 -0.88941035264E+03  0.18225968647E+04  0.12699999809E+01 0. -1.
</event>
<event>
 5   0  0.5121624E-06  0.3234282E+04  0.7818609E-02  0.8179822E-01
       -2   -1    0    0    0  501  0.00000000000E+00  0.00000000000E+00  0.13150078208E+04  0.13150078208E+04  0.25500000920E-02 0. -1.
        2   -1    0    0  501    0  0.00000000000E+00  0.00000000000E+00 -0.19886913493E+04  0.19886913493E+04  0.25500000920E-02 0.  1.
    10030    2    1    2    0    0  0.00000000000E+00  0.00000000000E+00 -0.67368352853E+03  0.33036991701E+04  0.32342817919E+04 0.  0.
        4    1    3    3  502    0  0.34197793946E+03 -0.94107757404E+03 -0.16339659080E+04  0.19163564681E+04  0.12699999809E+01 0.  1.
       -4    1    3    3    0  502 -0.34197793946E+03  0.94107757404E+03  0.96028237947E+03  0.13873427020E+04  0.12699999809E+01 0. -1.
</event>
<event>
 5   0  0.5108810E-06  0.3201975E+04  0.7818609E-02  0.8188296E-01
       -2   -1    0    0    0  501  0.00000000000E+00  0.00000000000E+00  0.15721317178E+04  0.15721317178E+04  0.25500000920E-02 0. -1.
        2   -1    0    0  501    0  0.00000000000E+00  0.00000000000E+00 -0.16303724942E+04  0.16303724942E+04  0.25500000920E-02 0.  1.
    10030    2    1    2    0    0  0.00000000000E+00  0.00000000000E+00 -0.58240776418E+02  0.32025042120E+04  0.32019745845E+04 0.  0.
        1    1    3    3  502    0 -0.13195248637E+04  0.66920935038E+03 -0.64091862365E+03  0.16123782753E+04  0.50400001928E-02 0.  1.
       -1    1    3    3    0  502  0.13195248637E+04 -0.66920935038E+03  0.58267784723E+03  0.15901259366E+04  0.50400001928E-02 0. -1.
</event>
<event>
 5   0  0.5347280E-06  0.3177662E+04  0.7818609E-02  0.8194742E-01
       -2   -1    0    0    0  501  0.00000000000E+00  0.00000000000E+00  0.11727100004E+04  0.11727100004E+04  0.25500000920E-02 0. -1.
        2   -1    0    0  501    0  0.00000000000E+00  0.00000000000E+00 -0.21526068949E+04  0.21526068949E+04  0.25500000920E-02 0.  1.
    10030    2    1    2    0    0  0.00000000000E+00  0.00000000000E+00 -0.97989689443E+03  0.33253168953E+04  0.31776618024E+04 0.  0.
        2    1    3    3  502    0  0.60052938001E+03 -0.14251073332E+04 -0.87132369384E+03  0.17750412465E+04  0.25500000920E-02 0.  1.
       -2    1    3    3    0  502 -0.60052938001E+03  0.14251073332E+04 -0.10857320059E+03  0.15502756488E+04  0.25500000920E-02 0. -1.
</event>
<event>
 5   0  0.1881144E-06  0.3172233E+04  0.7818609E-02  0.8196189E-01
        1   -1    0    0  501    0  0.00000000000E+00  0.00000000000E+00  0.25054624685E+04  0.25054624685E+04  0.50400001928E-02 0.  1.
       -1   -1    0    0    0  501  0.00000000000E+00  0.00000000000E+00 -0.10041119811E+04  0.10041119811E+04  0.50400001928E-02 0. -1.
    10030    2    1    2    0    0  0.00000000000E+00  0.00000000000E+00  0.15013504873E+04  0.35095744496E+04  0.31722325784E+04 0.  0.
        3    1    3    3  502    0  0.43627750936E+03  0.96884036175E+03 -0.55216890203E+03  0.11974473760E+04  0.10100000352E+00 0. -1.
       -3    1    3    3    0  502 -0.43627750936E+03 -0.96884036175E+03  0.20535193894E+04  0.23121270736E+04  0.10100000352E+00 0.  1.
</event>
<event>
 5   0  0.1977015E-06  0.3217460E+04  0.7818609E-02  0.8184221E-01
       -1   -1    0    0    0  501  0.00000000000E+00  0.00000000000E+00  0.11316568676E+04  0.11316568676E+04  0.50400001928E-02 0. -1.
        1   -1    0    0  501    0  0.00000000000E+00  0.00000000000E+00 -0.22869236268E+04  0.22869236268E+04  0.50400001928E-02 0.  1.
    10030    2    1    2    0    0  0.00000000000E+00  0.00000000000E+00 -0.11552667593E+04  0.34185804944E+04  0.32174603823E+04 0.  0.
        1    1    3    3  502    0  0.15761609900E+03  0.13921153119E+04  0.26247798616E+03  0.14253850601E+04  0.50400001928E-02 0. -1.
       -1    1    3    3    0  502 -0.15761609900E+03 -0.13921153119E+04 -0.14177447454E+04  0.19931954343E+04  0.50400001928E-02 0.  1.
</event>
<event>
 5   0  0.1969465E-06  0.2238557E+04  0.7818609E-02  0.8502549E-01
       -1   -1    0    0    0  501  0.00000000000E+00  0.00000000000E+00  0.16275567435E+04  0.16275567435E+04  0.50400001928E-02 0.  1.
        1   -1    0    0  501    0  0.00000000000E+00  0.00000000000E+00 -0.76973318650E+03  0.76973318651E+03  0.50400001928E-02 0. -1.
    10030    2    1    2    0    0  0.00000000000E+00  0.00000000000E+00  0.85782355704E+03  0.23972899301E+04  0.22385570696E+04 0.  0.
        2    1    3    3  502    0  0.54846919008E+02  0.11395502513E+03  0.16198807910E+04  0.16248100533E+04  0.25500000920E-02 0.  1.
       -2    1    3    3    0  502 -0.54846919008E+02 -0.11395502513E+03 -0.76205723392E+03  0.77247987679E+03  0.25500000920E-02 0. -1.
</event>
<event>
 5   0  0.5347280E-06  0.2671831E+04  0.7818609E-02  0.8344203E-01
        2   -1    0    0  501    0  0.00000000000E+00  0.00000000000E+00  0.17299021913E+04  0.17299021913E+04  0.25500000920E-02 0. -1.
       -2   -1    0    0    0  501  0.00000000000E+00  0.00000000000E+00 -0.10316593920E+04  0.10316593920E+04  0.25500000920E-02 0.  1.
    10030    2    1    2    0    0  0.00000000000E+00  0.00000000000E+00  0.69824279927E+03  0.27615615833E+04  0.26718307154E+04 0.  0.
        2    1    3    3  502    0  0.10413617846E+04 -0.80159020462E+02 -0.51180509717E+03  0.11631011532E+04  0.25500000920E-02 0.  1.
       -2    1    3    3    0  502 -0.10413617846E+04  0.80159020462E+02  0.12100478964E+04  0.15984604301E+04  0.25500000920E-02 0. -1.
</event>
<event>
 5   0  0.5373060E-06  0.3055967E+04  0.7818609E-02  0.8227927E-01
        2   -1    0    0  501    0  0.00000000000E+00  0.00000000000E+00  0.21306774409E+04  0.21306774409E+04  0.25500000920E-02 0.  1.
       -2   -1    0    0    0  501  0.00000000000E+00  0.00000000000E+00 -0.10957703725E+04  0.10957703725E+04  0.25500000920E-02 0. -1.
    10030    2    1    2    0    0  0.00000000000E+00  0.00000000000E+00  0.10349070684E+04  0.32264478134E+04  0.30559667623E+04 0.  0.
        5    1    3    3  502    0 -0.25042143491E+03 -0.14790303268E+04  0.21060360094E+03  0.15147995146E+04  0.46999998093E+01 0.  1.
       -5    1    3    3    0  502  0.25042143491E+03  0.14790303268E+04  0.82430346742E+03  0.17116482989E+04  0.46999998093E+01 0. -1.
</event>
<event>
 5   0  0.1977015E-06  0.2382099E+04  0.7818609E-02  0.8446236E-01
        1   -1    0    0  501    0  0.00000000000E+00  0.00000000000E+00  0.17889793975E+04  0.17889793975E+04  0.50400001928E-02 0. -1.
       -1   -1    0    0    0  501  0.00000000000E+00  0.00000000000E+00 -0.79296518887E+03  0.79296518888E+03  0.50400001928E-02 0.  1.
    10030    2    1    2    0    0  0.00000000000E+00  0.00000000000E+00  0.99601420863E+03  0.25819445864E+04  0.23820985587E+04 0.  0.
        1    1    3    3  502    0 -0.81262254870E+03 -0.84963231271E+03  0.29130429615E+03  0.12112343565E+04  0.50400001928E-02 0.  1.
       -1    1    3    3    0  502  0.81262254870E+03  0.84963231271E+03  0.70470991248E+03  0.13707102299E+04  0.50400001928E-02 0. -1.
</event>
<event>
 5   0  0.5108810E-06  0.3170020E+04  0.7818609E-02  0.8196780E-01
        2   -1    0    0  501    0  0.00000000000E+00  0.00000000000E+00  0.10596766684E+04  0.10596766684E+04  0.25500000920E-02 0. -1.
       -2   -1    0    0    0  501  0.00000000000E+00  0.00000000000E+00 -0.23707766150E+04  0.23707766150E+04  0.25500000920E-02 0.  1.
    10030    2    1    2    0    0  0.00000000000E+00  0.00000000000E+00 -0.13110999467E+04  0.34304532834E+04  0.31700199777E+04 0.  0.
        1    1    3    3  502    0 -0.16774108107E+03 -0.17344582337E+03  0.10396853276E+04  0.10673172463E+04  0.50400001928E-02 0. -1.
       -1    1    3    3    0  502  0.16774108107E+03  0.17344582337E+03 -0.23507852742E+04  0.23631360370E+04  0.50400001928E-02 0.  1.
</event>
<event>
 5   0  0.1977015E-06  0.2973227E+04  0.7818609E-02  0.8251418E-01
        1   -1    0    0  501    0  0.00000000000E+00  0.00000000000E+00  0.17504509110E+04  0.17504509110E+04  0.50400001928E-02 0.  1.
       -1   -1    0    0    0  501  0.00000000000E+00  0.00000000000E+00 -0.12625429199E+04  0.12625429200E+04  0.50400001928E-02 0. -1.
    10030    2    1    2    0    0  0.00000000000E+00  0.00000000000E+00  0.48790799100E+03  0.30129938309E+04  0.29732268022E+04 0.  0.
        1    1    3    3  502    0  0.94605934281E+02 -0.14833108156E+04  0.21426805882E+03  0.15016897348E+04  0.50400001928E-02 0.  1.
       -1    1    3    3    0  502 -0.94605934281E+02  0.14833108156E+04  0.27363993219E+03  0.15113040961E+04  0.50400001928E-02 0. -1.
</event>
<event>
 5   0  0.5373060E-06  0.2087857E+04  0.7818609E-02  0.8566611E-01
        2   -1    0    0  501    0  0.00000000000E+00  0.00000000000E+00  0.17294677864E+04  0.17294677864E+04  0.25500000920E-02 0. -1.
       -2   -1    0    0    0  501  0.00000000000E+00  0.00000000000E+00 -0.63012833108E+03  0.63012833109E+03  0.25500000920E-02 0.  1.
    10030    2    1    2    0    0  0.00000000000E+00  0.00000000000E+00  0.10993394553E+04  0.23595961174E+04  0.20878569394E+04 0.  0.
        5    1    3    3  502    0 -0.18017277382E+03  0.93333241050E+03  0.62008144997E+02  0.95259577836E+03  0.46999998093E+01 0.  1.
       -5    1    3    3    0  502  0.18017277382E+03 -0.93333241050E+03  0.10373313103E+04  0.14070003391E+04  0.46999998093E+01 0. -1.
</event>
<event>
 5   0  0.5121624E-06  0.3183398E+04  0.7818609E-02  0.8193216E-01
       -2   -1    0    0    0  501  0.00000000000E+00  0.00000000000E+00  0.12891306873E+04  0.12891306873E+04  0.25500000920E-02 0. -1.
        2   -1    0    0  501    0  0.00000000000E+00  0.00000000000E+00 -0.19652822059E+04  0.19652822059E+04  0.25500000920E-02 0.  1.
    10030    2    1    2    0    0  0.00000000000E+00  0.00000000000E+00 -0.67615151862E+03  0.32544128932E+04  0.31833979335E+04 0.  0.
        4    1    3    3  502    0  0.24133666238E+03 -0.11235157989E+03 -0.19423624698E+04  0.19605202980E+04  0.12699999809E+01 0.  1.
       -4    1    3    3    0  502 -0.24133666238E+03  0.11235157989E+03  0.12662109511E+04  0.12938925952E+04  0.12699999809E+01 0. -1.
</event>
<event>
 5   0  0.5373060E-06  0.2607837E+04  0.7818609E-02  0.8365544E-01
        2   -1    0    0  501    0  0.00000000000E+00  0.00000000000E+00  0.22925938931E+04  0.22925938931E+04  0.25500000920E-02 0.  1.
       -2   -1    0    0    0  501  0.00000000000E+00  0.00000000000E+00 -0.74160685088E+03  0.74160685088E+03  0.25500000920E-02 0. -1.
    10030    2    1    2    0    0  0.00000000000E+00  0.00000000000E+00  0.15509870422E+04  0.30342007439E+04  0.26078369101E+04 0.  0.
        5    1    3    3  502    0 -0.80854818423E+03 -0.54495059351E+02 -0.41301437237E+03  0.90957288850E+03  0.46999998093E+01 0. -1.
       -5    1    3    3    0  502  0.80854818423E+03  0.54495059351E+02  0.19640014146E+04  0.21246278554E+04  0.46999998093E+01 0.  1.
</event>
<event>
 5   0  0.5373060E-06  0.3215084E+04  0.7818609E-02  0.8184845E-01
        2   -1    0    0  501    0  0.00000000000E+00  0.00000000000E+00  0.13691272461E+04  0.13691272461E+04  0.25500000920E-02 0. -1.
       -2   -1    0    0    0  501  0.00000000000E+00  0.00000000000E+00 -0.18874733935E+04  0.18874733935E+04  0.25500000920E-02 0.  1.
    10030    2    1    2    0    0  0.00000000000E+00  0.00000000000E+00 -0.51834614745E+03  0.32566006396E+04  0.32150839798E+04 0.  0.
        5    1    3    3  502    0 -0.36602715213E+03 -0.87397560890E+02  0.13238759117E+04  0.13763298040E+04  0.46999998093E+01 0. -1.
       -5    1    3    3    0  502  0.36602715213E+03  0.87397560890E+02 -0.18422220592E+04  0.18802708356E+04  0.46999998093E+01 0.  1.
</event>
<event>
 5   0  0.1729500E-06  0.3232885E+04  0.7818609E-02  0.8180186E-01
       -4   -1    0    0    0  501  0.00000000000E+00  0.00000000000E+00  0.19596081181E+04  0.19596085296E+04  0.12699999809E+01 0. -1.
        4   -1    0    0  501    0  0.00000000000E+00  0.00000000000E+00 -0.13333706605E+04  0.13333712653E+04  0.12699999809E+01 0.  1.
    10030    2    1    2    0    0  0.00000000000E+00  0.00000000000E+00  0.62623745759E+03  0.32929797950E+04  0.32328845598E+04 0.  0.
        2    1    3    3  502    0 -0.10818217289E+04  0.85365885363E+03  0.11736989992E+04  0.18101494503E+04  0.25500000920E-02 0. -1.
       -2    1    3    3    0  502  0.10818217289E+04 -0.85365885363E+03 -0.54746154161E+03  0.14828303447E+04  0.25500000920E-02 0.  1.
</event>
<event>
 5   0  0.5108810E-06  0.2256690E+04  0.7818609E-02  0.8495196E-01
        2   -1    0    0  501    0  0.00000000000E+00  0.00000000000E+00  0.15561436773E+04  0.15561436773E+04  0.25500000920E-02 0.  1.
       -2   -1    0    0    0  501  0.00000000000E+00  0.00000000000E+00 -0.81815197551E+03  0.81815197552E+03  0.25500000920E-02 0. -1.
    10030    2    1    2    0    0  0.00000000000E+00  0.00000000000E+00  0.73799170180E+03  0.23742956528E+04  0.22566896320E+04 0.  0.
        1    1    3    3  502    0  0.81013269315E+03 -0.51735779736E+03  0.99071263177E+03  0.13803932736E+04  0.50400001928E-02 0.  1.
       -1    1    3    3    0  502 -0.81013269315E+03  0.51735779736E+03 -0.25272092996E+03  0.99390237925E+03  0.50400001928E-02 0. -1.
</event>
<event>
 5   0  0.1969465E-06  0.3153646E+04  0.7818609E-02  0.8201167E-01
       -1   -1    0    0    0  501  0.00000000000E+00  0.00000000000E+00  0.14597957566E+04  0.14597957566E+04  0.50400001928E-02 0.  1.
        1   -1    0    0  501    0  0.00000000000E+00  0.00000000000E+00 -0.17032324072E+04  0.17032324072E+04  0.50400001928E-02 0. -1.
    10030    2    1    2    0    0  0.00000000000E+00  0.00000000000E+00 -0.24343665068E+03  0.31630281638E+04  0.31536464231E+04 0.  0.
        2    1    3    3  502    0  0.99023767102E+03  0.96153204568E+02  0.11052587593E+04  0.14870820451E+04  0.25500000920E-02 0.  1.
       -2    1    3    3    0  502 -0.99023767102E+03 -0.96153204568E+02 -0.13486954100E+04  0.16759461187E+04  0.25500000920E-02 0. -1.
</event>
<event>
 5   0  0.5121624E-06  0.3184696E+04  0.7818609E-02  0.8192871E-01
       -2   -1    0    0    0  501  0.00000000000E+00  0.00000000000E+00  0.99039630672E+03  0.99039630673E+03  0.25500000920E-02 0. -1.
        2   -1    0    0  501    0  0.00000000000E+00  0.00000000000E+00 -0.25601589493E+04  0.25601589493E+04  0.25500000920E-02 0.  1.
    10030    2    1    2    0    0  0.00000000000E+00  0.00000000000E+00 -0.15697626426E+04  0.35505552560E+04  0.31846958838E+04 0.  0.
        4    1    3    3  502    0 -0.81488805196E+03 -0.10412069126E+04  0.20442417572E+03  0.13378883468E+04  0.12699999809E+01 0. -1.
       -4    1    3    3    0  502  0.81488805196E+03  0.10412069126E+04 -0.17741868183E+04  0.22126669092E+04  0.12699999809E+01 0.  1.
</event>
<event>
 5   0  0.1881144E-06  0.3163480E+04  0.7818609E-02  0.8198529E-01
       -1   -1    0    0    0  501  0.00000000000E+00  0.00000000000E+00  0.17508993782E+04  0.17508993782E+04  0.50400001928E-02 0.  1.
        1   -1    0    0  501    0  0.00000000000E+00  0.00000000000E+00 -0.14289235690E+04  0.14289235690E+04  0.50400001928E-02 0. -1.
    10030    2    1    2    0    0  0.00000000000E+00  0.00000000000E+00  0.32197580921E+03  0.31798229473E+04  0.31634799753E+04 0.  0.
        3    1    3    3  502    0  0.99057774502E+02  0.84469887976E+03  0.15015090378E+04  0.17256471368E+04  0.10100000352E+00 0.  1.
       -3    1    3    3    0  502 -0.99057774502E+02 -0.84469887976E+03 -0.11795332286E+04  0.14541758104E+04  0.10100000352E+00 0. -1.
</event>
<event>
 5   0  0.5131083E-06  0.2667867E+04  0.7818609E-02  0.8345507E-01
       -2   -1    0    0    0  501  0.00000000000E+00  0.00000000000E+00  0.32517757201E+04  0.32517757201E+04  0.25500000920E-02 0. -1.
        2   -1    0    0  501    0  0.00000000000E+00  0.00000000000E+00 -0.54720225675E+03  0.54720225676E+03  0.25500000920E-02 0.  1.
    10030    2    1    2    0    0  0.00000000000E+00  0.00000000000E+00  0.27045734633E+04  0.37989779768E+04  0.26678673224E+04 0.  0.
        3    1    3    3  502    0  0.12390615990E+04  0.49009313777E+03  0.12631991878E+04  0.18360656655E+04  0.10100000352E+00 0. -1.
       -3    1    3    3    0  502 -0.12390615990E+04 -0.49009313777E+03  0.14413742755E+04  0.19629123113E+04  0.10100000352E+00 0.  1.
</event>
<event>
 5   0  0.1886248E-06  0.2549930E+04  0.7818609E-02  0.8385410E-01
        1   -1    0    0  501    0  0.00000000000E+00  0.00000000000E+00  0.16760818104E+04  0.16760818104E+04  0.50400001928E-02 0.  1.
       -1   -1    0    0    0  501  0.00000000000E+00  0.00000000000E+00 -0.96984294740E+03  0.96984294742E+03  0.50400001928E-02 0. -1.
    10030    2    1    2    0    0  0.00000000000E+00  0.00000000000E+00  0.70623886298E+03  0.26459247578E+04  0.25499302917E+04 0.  0.
        4    1    3    3  502    0  0.10425336782E+04  0.69857404524E+03  0.11958605814E+03  0.12606286547E+04  0.12699999809E+01 0. -1.
       -4    1    3    3    0  502 -0.10425336782E+04 -0.69857404524E+03  0.58665280484E+03  0.13852961031E+04  0.12699999809E+01 0.  1.
</event>
<event>
 5   0  0.5108810E-06  0.3226086E+04  0.7818609E-02  0.8181962E-01
        2   -1    0    0  501    0  0.00000000000E+00  0.00000000000E+00  0.25048541374E+04  0.25048541374E+04  0.25500000920E-02 0.  1.
       -2   -1    0    0    0  501  0.00000000000E+00  0.00000000000E+00 -0.10387463872E+04  0.10387463872E+04  0.25500000920E-02 0. -1.
    10030    2    1    2    0    0  0.00000000000E+00  0.00000000000E+00  0.14661077502E+04  0.35436005246E+04  0.32260862888E+04 0.  0.
        1    1    3    3  502    0 -0.11097362467E+04 -0.39653043203E+03  0.19428921770E+04  0.22723514104E+04  0.50400001928E-02 0.  1.
       -1    1    3    3    0  502  0.11097362467E+04  0.39653043203E+03 -0.47678442675E+03  0.12712491142E+04  0.50400001928E-02 0. -1.
</event>
<event>
 5   0  0.1846850E-06  0.3395039E+04  0.7818609E-02  0.8139125E-01
       -1   -1    0    0    0  501  0.00000000000E+00  0.00000000000E+00  0.34964792410E+04  0.34964792410E+04  0.50400001928E-02 0.  1.
        1   -1    0    0  501    0  0.00000000000E+00  0.00000000000E+00 -0.82413531169E+03  0.82413531171E+03  0.50400001928E-02 0. -1.
    10030    2    1    2    0    0  0.00000000000E+00  0.00000000000E+00  0.26723439293E+04  0.43206145527E+04  0.33950387386E+04 0.  0.
        5    1    3    3  502    0 -0.37545378299E+03 -0.13240414312E+04  0.71525749857E+02  0.13781107639E+04  0.46999998093E+01 0. -1.
       -5    1    3    3    0  502  0.37545378299E+03  0.13240414312E+04  0.26008181794E+04  0.29425037888E+04  0.46999998093E+01 0.  1.
</event>
<event>
 5   0  0.1886248E-06  0.2056245E+04  0.7818609E-02  0.8580767E-01
       -1   -1    0    0    0  501  0.00000000000E+00  0.00000000000E+00  0.14425103532E+04  0.14425103532E+04  0.50400001928E-02 0. -1.
        1   -1    0    0  501    0  0.00000000000E+00  0.00000000000E+00 -0.73277525630E+03  0.73277525631E+03  0.50400001928E-02 0.  1.
    10030    2    1    2    0    0  0.00000000000E+00  0.00000000000E+00  0.70973509689E+03  0.21752856095E+04  0.20562450183E+04 0.  0.
        4    1    3    3  502    0  0.94778101617E+02  0.43313729859E+03 -0.62643425261E+03  0.76747136345E+03  0.12699999809E+01 0.  1.
       -4    1    3    3    0  502 -0.94778101617E+02 -0.43313729859E+03  0.13361693495E+04  0.14078142461E+04  0.12699999809E+01 0. -1.
</event>
<event>
 5   0  0.5131083E-06  0.3169784E+04  0.7818609E-02  0.8196843E-01
        2   -1    0    0  501    0  0.00000000000E+00  0.00000000000E+00  0.17219149858E+04  0.17219149858E+04  0.25500000920E-02 0.  1.
       -2   -1    0    0    0  501  0.00000000000E+00  0.00000000000E+00 -0.14587730384E+04  0.14587730384E+04  0.25500000920E-02 0. -1.
    10030    2    1    2    0    0  0.00000000000E+00  0.00000000000E+00  0.26314194737E+03  0.31806880241E+04  0.31697843180E+04 0.  0.
        3    1    3    3  502    0 -0.64005753965E+03 -0.14494656642E+04  0.16717230460E+03  0.15932893508E+04  0.10100000352E+00 0. -1.
       -3    1    3    3    0  502  0.64005753965E+03  0.14494656642E+04  0.95969642767E+02  0.15873986734E+04  0.10100000352E+00 0.  1.
</event>
<event>
 5   0  0.1846850E-06  0.3182877E+04  0.7818609E-02  0.8193354E-01
       -1   -1    0    0    0  501  0.00000000000E+00  0.00000000000E+00  0.12243143144E+04  0.12243143144E+04  0.50400001928E-02 0.  1.
        1   -1    0    0  501    0  0.00000000000E+00  0.00000000000E+00 -0.20686494915E+04  0.20686494915E+04  0.50400001928E-02 0. -1.
    10030    2    1    2    0    0  0.00000000000E+00  0.00000000000E+00 -0.84433517712E+03  0.32929638059E+04  0.31828774302E+04 0.  0.
        5    1    3    3  502    0  0.15881969264E+04 -0.52794059389E+02 -0.51175592415E+03  0.16694528761E+04  0.46999998093E+01 0. -1.
       -5    1    3    3    0  502 -0.15881969264E+04  0.52794059389E+02 -0.33257925296E+03  0.16235109298E+04  0.46999998093E+01 0.  1.
</event>
<event>
 5   0  0.1881144E-06  0.3373579E+04  0.7818609E-02  0.8144421E-01
       -1   -1    0    0    0  501  0.00000000000E+00  0.00000000000E+00  0.11871403004E+04  0.11871403004E+04  0.50400001928E-02 0.  1.
        1   -1    0    0  501    0  0.00000000000E+00  0.00000000000E+00 -0.23967340890E+04  0.23967340890E+04  0.50400001928E-02 0. -1.
    10030    2    1    2    0    0  0.00000000000E+00  0.00000000000E+00 -0.12095937886E+04  0.35838743894E+04  0.33735794797E+04 0.  0.
        3    1    3    3  502    0  0.10578732578E+04 -0.12896033247E+04 -0.33796855750E+03  0.17018799372E+04  0.10100000352E+00 0. -1.
       -3    1    3    3    0  502 -0.10578732578E+04  0.12896033247E+04 -0.87162523109E+03  0.18819944522E+04  0.10100000352E+00 0.  1.
</event>
<event>
 5   0  0.1969465E-06  0.3157481E+04  0.7818609E-02  0.8200138E-01
        1   -1    0    0  501    0  0.00000000000E+00  0.00000000000E+00  0.15984110302E+04  0.15984110302E+04  0.50400001928E-02 0.  1.
       -1   -1    0    0    0  501  0.00000000000E+00  0.00000000000E+00 -0.15593115874E+04  0.15593115874E+04  0.50400001928E-02 0. -1.
    10030    2    1    2    0    0  0.00000000000E+00  0.00000000000E+00  0.39099442787E+02  0.31577226176E+04  0.31574805405E+04 0.  0.
        2    1    3    3  502    0 -0.37003317682E+03 -0.15272535287E+04  0.17119560428E+03  0.15807390132E+04  0.25500000920E-02 0.  1.
       -2    1    3    3    0  502  0.37003317682E+03  0.15272535287E+04 -0.13209616149E+03  0.15769836045E+04  0.25500000920E-02 0. -1.
</event>
<event>
 5   0  0.5347280E-06  0.3255048E+04  0.7818609E-02  0.8174429E-01
        2   -1    0    0  501    0  0.00000000000E+00  0.00000000000E+00  0.12488134407E+04  0.12488134407E+04  0.25500000920E-02 0.  1.
       -2   -1    0    0    0  501  0.00000000000E+00  0.00000000000E+00 -0.21210810998E+04  0.21210810998E+04  0.25500000920E-02 0. -1.
    10030    2    1    2    0    0  0.00000000000E+00  0.00000000000E+00 -0.87226765904E+03  0.33698945405E+04  0.32550481326E+04 0.  0.
        2    1    3    3  502    0  0.10952166637E+04  0.10430591714E+04  0.18621016467E+03  0.15238589833E+04  0.25500000920E-02 0.  1.
       -2    1    3    3    0  502 -0.10952166637E+04 -0.10430591714E+04 -0.10584778237E+04  0.18460355573E+04  0.25500000920E-02 0. -1.
</event>
<event>
 5   0  0.1969465E-06  0.3221521E+04  0.7818609E-02  0.8183157E-01
       -1   -1    0    0    0  501  0.00000000000E+00  0.00000000000E+00  0.27425549662E+04  0.27425549662E+04  0.50400001928E-02 0.  1.
        1   -1    0    0  501    0  0.00000000000E+00  0.00000000000E+00 -0.94603343746E+03  0.94603343747E+03  0.50400001928E-02 0. -1.
    10030    2    1    2    0    0  0.00000000000E+00  0.00000000000E+00  0.17965215288E+04  0.36885884037E+04  0.32215205740E+04 0.  0.
        2    1    3    3  502    0  0.12013115804E+04  0.94241175429E+03  0.31078341442E+03  0.15581642271E+04  0.25500000920E-02 0. -1.
       -2    1    3    3    0  502 -0.12013115804E+04 -0.94241175429E+03  0.14857381144E+04  0.21304241766E+04  0.25500000920E-02 0.  1.
</event>
<event>
 5   0  0.1969465E-06  0.3151395E+04  0.7818609E-02  0.8201773E-01
        1   -1    0    0  501    0  0.00000000000E+00  0.00000000000E+00  0.23164602328E+04  0.23164602328E+04  0.50400001928E-02 0. -1.
       -1   -1    0    0    0  501  0.00000000000E+00  0.00000000000E+00 -0.10718173362E+04  0.10718173363E+04  0.50400001928E-02 0.  1.
    10030    2    1    2    0    0  0.00000000000E+00  0.00000000000E+00  0.12446428966E+04  0.33882775691E+04  0.31513947619E+04 0.  0.
        2    1    3    3  502    0  0.40577853186E+03 -0.94451759500E+03  0.19062590974E+04  0.21657777935E+04  0.25500000920E-02 0. -1.
       -2    1    3    3    0  502 -0.40577853186E+03  0.94451759500E+03 -0.66161620084E+03  0.12224997756E+04  0.25500000920E-02 0.  1.
</event>
<event>
 5   0  0.1881144E-06  0.3143289E+04  0.7818609E-02  0.8203957E-01
       -1   -1    0    0    0  501  0.00000000000E+00  0.00000000000E+00  0.94550050236E+03  0.94550050238E+03  0.50400001928E-02 0.  1.
        1   -1    0    0  501    0  0.00000000000E+00  0.00000000000E+00 -0.26124436053E+04  0.26124436053E+04  0.50400001928E-02 0. -1.
    10030    2    1    2    0    0  0.00000000000E+00  0.00000000000E+00 -0.16669431029E+04  0.35579441077E+04  0.31432891952E+04 0.  0.
        3    1    3    3  502    0  0.52045104864E+03  0.22006273501E+02 -0.25118854598E+04  0.25653308059E+04  0.10100000352E+00 0. -1.
       -3    1    3    3    0  502 -0.52045104864E+03 -0.22006273501E+02  0.84494235693E+03  0.99261330176E+03  0.10100000352E+00 0.  1.
</event>
<event>
 5   0  0.5108810E-06  0.3289077E+04  0.7818609E-02  0.8165680E-01
        2   -1    0    0  501    0  0.00000000000E+00  0.00000000000E+00  0.26766304416E+04  0.26766304416E+04  0.25500000920E-02 0.  1.
       -2   -1    0    0    0  501  0.00000000000E+00  0.00000000000E+00 -0.10104147356E+04  0.10104147356E+04  0.25500000920E-02 0. -1.
    10030    2    1    2    0    0  0.00000000000E+00  0.00000000000E+00  0.16662157061E+04  0.36870451772E+04  0.32890769768E+04 0.  0.
        1    1    3    3  502    0 -0.95433319598E+03 -0.33865119949E+02  0.23339917703E+04  0.25217883097E+04  0.50400001928E-02 0.  1.
       -1    1    3    3    0  502  0.95433319598E+03  0.33865119949E+02 -0.66777606418E+03  0.11652568675E+04  0.50400001928E-02 0. -1.
</event>
<event>
 5   0  0.5121624E-06  0.2576826E+04  0.7818609E-02  0.8376116E-01
        2   -1    0    0  501    0  0.00000000000E+00  0.00000000000E+00  0.18397244404E+04  0.18397244404E+04  0.25500000920E-02 0. -1.
       -2   -1    0    0    0  501  0.00000000000E+00  0.00000000000E+00 -0.90231325517E+03  0.90231325518E+03  0.25500000920E-02 0.  1.
    10030    2    1    2    0    0  0.00000000000E+00  0.00000000000E+00  0.93741118525E+03  0.27420376956E+04  0.25768257593E+04 0.  0.
        4    1    3    3  502    0 -0.12427790772E+04  0.32214107677E+03  0.58396165991E+03  0.14104210511E+04  0.12699999809E+01 0.  1.
       -4    1    3    3    0  502  0.12427790772E+04 -0.32214107677E+03  0.35344952534E+03  0.13316166445E+04  0.12699999809E+01 0. -1.
</event>
<event>
 5   0  0.1977015E-06  0.3145636E+04  0.7818609E-02  0.8203324E-01
       -1   -1    0    0    0  501  0.00000000000E+00  0.00000000000E+00  0.10327818794E+04  0.10327818794E+04  0.50400001928E-02 0. -1.
        1   -1    0    0  501    0  0.00000000000E+00  0.00000000000E+00 -0.23952360767E+04  0.23952360767E+04  0.50400001928E-02 0.  1.
    10030    2    1    2    0    0  0.00000000000E+00  0.00000000000E+00 -0.13624541973E+04  0.34280179561E+04  0.31456359719E+04 0.  0.
        1    1    3    3  502    0 -0.15336057249E+04 -0.23028872726E+03 -0.96702315919E+03  0.18275976603E+04  0.50400001928E-02 0. -1.
       -1    1    3    3    0  502  0.15336057249E+04  0.23028872726E+03 -0.39543103807E+03  0.16004202958E+04  0.50400001928E-02 0.  1.
</event>
<event>
 5   0  0.5108810E-06  0.3152965E+04  0.7818609E-02  0.8201351E-01
       -2   -1    0    0    0  501  0.00000000000E+00  0.00000000000E+00  0.13587525194E+04  0.13587525194E+04  0.25500000920E-02 0.  1.
        2   -1    0    0  501    0  0.00000000000E+00  0.00000000000E+00 -0.18291023397E+04  0.18291023397E+04  0.25500000920E-02 0. -1.
    10030    2    1    2    0    0  0.00000000000E+00  0.00000000000E+00 -0.47034982032E+03  0.31878548591E+04  0.31529652154E+04 0.  0.
        1    1    3    3  502    0 -0.31074749647E+03 -0.11817243598E+04  0.77197080446E+03  0.14453288180E+04  0.50400001928E-02 0.  1.
       -1    1    3    3    0  502  0.31074749647E+03  0.11817243598E+04 -0.12423206248E+04  0.17425260411E+04  0.50400001928E-02 0. -1.
</event>
<event>
 5   0  0.5121624E-06  0.3210143E+04  0.7818609E-02  0.8186144E-01
       -2   -1    0    0    0  501  0.00000000000E+00  0.00000000000E+00  0.13130817714E+04  0.13130817714E+04  0.25500000920E-02 0. -1.
        2   -1    0    0  501    0  0.00000000000E+00  0.00000000000E+00 -0.19619905659E+04  0.19619905659E+04  0.25500000920E-02 0.  1.
    10030    2    1    2    0    0  0.00000000000E+00  0.00000000000E+00 -0.64890879449E+03  0.32750723374E+04  0.32101427058E+04 0.  0.
        4    1    3    3  502    0  0.43605318685E+03 -0.94324993638E+02  0.12485523737E+04  0.13258673497E+04  0.12699999809E+01 0. -1.
       -4    1    3    3    0  502 -0.43605318685E+03  0.94324993638E+02 -0.18974611682E+04  0.19492049877E+04  0.12699999809E+01 0.  1.
</event>
<event>
 5   0  0.5373060E-06  0.3254918E+04  0.7818609E-02  0.8174462E-01
        2   -1    0    0  501    0  0.00000000000E+00  0.00000000000E+00  0.12492724647E+04  0.12492724647E+04  0.25500000920E-02 0. -1.
       -2   -1    0    0    0  501  0.00000000000E+00  0.00000000000E+00 -0.21201322900E+04  0.21201322900E+04  0.25500000920E-02 0.  1.
    10030    2    1    2    0    0  0.00000000000E+00  0.00000000000E+00 -0.87085982531E+03  0.33694047547E+04  0.32549180582E+04 0.  0.
        5    1    3    3  502    0 -0.46913967962E+03 -0.86898754655E+03  0.90365783676E+03  0.13386003776E+04  0.46999998093E+01 0. -1.
       -5    1    3    3    0  502  0.46913967962E+03  0.86898754655E+03 -0.17745176621E+04  0.20308043771E+04  0.46999998093E+01 0.  1.
</event>
<event>
 5   0  0.5108810E-06  0.3084993E+04  0.7818609E-02  0.8219868E-01
       -2   -1    0    0    0  501  0.00000000000E+00  0.00000000000E+00  0.12455741856E+04  0.12455741856E+04  0.25500000920E-02 0.  1.
        2   -1    0    0  501    0  0.00000000000E+00  0.00000000000E+00 -0.19102000570E+04  0.19102000570E+04  0.25500000920E-02 0. -1.
    10030    2    1    2    0    0  0.00000000000E+00  0.00000000000E+00 -0.66462587138E+03  0.31557742426E+04  0.30849932774E+04 0.  0.
        1    1    3    3  502    0 -0.10117208407E+04  0.11014027156E+04 -0.71864027166E+03  0.16592500841E+04  0.50400001928E-02 0. -1.
       -1    1    3    3    0  502  0.10117208407E+04 -0.11014027156E+04  0.54014400281E+02  0.14965241585E+04  0.50400001928E-02 0.  1.
</event>
<event>
 5   0  0.5373060E-06  0.3199022E+04  0.7818609E-02  0.8189076E-01
       -2   -1    0    0    0  501  0.00000000000E+00  0.00000000000E+00  0.11347945251E+04  0.11347945251E+04  0.25500000920E-02 0.  1.
        2   -1    0    0  501    0  0.00000000000E+00  0.00000000000E+00 -0.22545358139E+04  0.22545358139E+04  0.25500000920E-02 0. -1.
    10030    2    1    2    0    0  0.00000000000E+00  0.00000000000E+00 -0.11197412887E+04  0.33893303390E+04  0.31990216619E+04 0.  0.
        5    1    3    3  502    0  0.46796659336E+03 -0.12487572606E+04  0.37586050120E+03  0.13855254003E+04  0.46999998093E+01 0.  1.
       -5    1    3    3    0  502 -0.46796659336E+03  0.12487572606E+04 -0.14956017899E+04  0.20038049387E+04  0.46999998093E+01 0. -1.
</event>
<event>
 5   0  0.5108810E-06  0.2331437E+04  0.7818609E-02  0.8465628E-01
        2   -1    0    0  501    0  0.00000000000E+00  0.00000000000E+00  0.98722296273E+03  0.98722296273E+03  0.25500000920E-02 0.  1.
       -2   -1    0    0    0  501  0.00000000000E+00  0.00000000000E+00 -0.13764874909E+04  0.13764874909E+04  0.25500000920E-02 0. -1.
    10030    2    1    2    0    0  0.00000000000E+00  0.00000000000E+00 -0.38926452816E+03  0.23637104536E+04  0.23314373755E+04 0.  0.
        1    1    3    3  502    0  0.47761625357E+03 -0.71047145571E+02  0.88106142487E+03  0.10047060351E+04  0.50400001928E-02 0.  1.
       -1    1    3    3    0  502 -0.47761625357E+03  0.71047145571E+02 -0.12703259530E+04  0.13590044185E+04  0.50400001928E-02 0. -1.
</event>
<event>
 5   0  0.1886248E-06  0.3191596E+04  0.7818609E-02  0.8191040E-01
       -1   -1    0    0    0  501  0.00000000000E+00  0.00000000000E+00  0.15708943860E+04  0.15708943860E+04  0.50400001928E-02 0. -1.
        1   -1    0    0  501    0  0.00000000000E+00  0.00000000000E+00 -0.16210965971E+04  0.16210965972E+04  0.50400001928E-02 0.  1.
    10030    2    1    2    0    0  0.00000000000E+00  0.00000000000E+00 -0.50202211191E+02  0.31919909831E+04  0.31915961797E+04 0.  0.
        4    1    3    3  502    0  0.86467854441E+03 -0.99118099932E+03 -0.92879528983E+03  0.16102083908E+04  0.12699999809E+01 0.  1.
       -4    1    3    3    0  502 -0.86467854441E+03  0.99118099932E+03  0.87859307864E+03  0.15817825923E+04  0.12699999809E+01 0. -1.
</event>
<event>
 5   0  0.1881144E-06  0.3207388E+04  0.7818609E-02  0.8186869E-01
       -1   -1    0    0    0  501  0.00000000000E+00  0.00000000000E+00  0.10884692385E+04  0.10884692385E+04  0.50400001928E-02 0.  1.
        1   -1    0    0  501    0  0.00000000000E+00  0.00000000000E+00 -0.23627993956E+04  0.23627993956E+04  0.50400001928E-02 0. -1.
    10030    2    1    2    0    0  0.00000000000E+00  0.00000000000E+00 -0.12743301571E+04  0.34512686342E+04  0.32073880083E+04 0.  0.
        3    1    3    3  502    0  0.45444159845E+03  0.14678426474E+04 -0.11311531465E+04  0.19080321420E+04  0.10100000352E+00 0. -1.
       -3    1    3    3    0  502 -0.45444159845E+03 -0.14678426474E+04 -0.14317701060E+03  0.15432364921E+04  0.10100000352E+00 0.  1.
</event>
<event>
 5   0  0.5108810E-06  0.3155435E+04  0.7818609E-02  0.8200687E-01
       -2   -1    0    0    0  501  0.00000000000E+00  0.00000000000E+00  0.10956490502E+04  0.10956490502E+04  0.25500000920E-02 0.  1.
        2   -1    0    0  501    0  0.00000000000E+00  0.00000000000E+00 -0.22718887693E+04  0.22718887693E+04  0.25500000920E-02 0. -1.
    10030    2    1    2    0    0  0.00000000000E+00  0.00000000000E+00 -0.11762397191E+04  0.33675378194E+04  0.31554351663E+04 0.  0.
        1    1    3    3  502    0 -0.47457977017E+03 -0.38529199554E+03  0.96412942818E+03  0.11415872434E+04  0.50400001928E-02 0.  1.
       -1    1    3    3    0  502  0.47457977017E+03  0.38529199554E+03 -0.21403691473E+04  0.22259505760E+04  0.50400001928E-02 0. -1.
</event>
<event>
 5   0  0.1969465E-06  0.3195985E+04  0.7818609E-02  0.8189878E-01
        1   -1    0    0  501    0  0.00000000000E+00  0.00000000000E+00  0.33512003469E+04  0.33512003469E+04  0.50400001928E-02 0.  1.
       -1   -1    0    0    0  501  0.00000000000E+00  0.00000000000E+00 -0.76198963475E+03  0.76198963476E+03  0.50400001928E-02 0. -1.
    10030    2    1    2    0    0  0.00000000000E+00  0.00000000000E+00  0.25892107121E+04  0.41131899816E+04  0.31959849363E+04 0.  0.
        2    1    3    3  502    0  0.92914394819E+03  0.45298197034E+03 -0.27376560606E+03  0.10693216303E+04  0.25500000920E-02 0. -1.
       -2    1    3    3    0  502 -0.92914394819E+03 -0.45298197034E+03  0.28629763182E+04  0.30438683514E+04  0.25500000920E-02 0.  1.
</event>
<event>
 5   0  0.5347280E-06  0.3385216E+04  0.7818609E-02  0.8141544E-01
        2   -1    0    0  501    0  0.00000000000E+00  0.00000000000E+00  0.13979965730E+04  0.13979965730E+04  0.25500000920E-02 0. -1.
       -2   -1    0    0    0  501  0.00000000000E+00  0.00000000000E+00 -0.20493052947E+04  0.20493052947E+04  0.25500000920E-02 0.  1.
    10030    2    1    2    0    0  0.00000000000E+00  0.00000000000E+00 -0.65130872171E+03  0.34473018677E+04  0.33852159630E+04 0.  0.
        2    1    3    3  502    0  0.12161349436E+04 -0.31992079096E+03  0.82807993759E+03  0.15056725728E+04  0.25500000920E-02 0. -1.
       -2    1    3    3    0  502 -0.12161349436E+04  0.31992079096E+03 -0.14793886593E+04  0.19416292949E+04  0.25500000920E-02 0.  1.
</event>
<event>
 5   0  0.1886248E-06  0.3192513E+04  0.7818609E-02  0.8190797E-01
       -1   -1    0    0    0  501  0.00000000000E+00  0.00000000000E+00  0.17393599533E+04  0.17393599533E+04  0.50400001928E-02 0.  1.
        1   -1    0    0  501    0  0.00000000000E+00  0.00000000000E+00 -0.14649264846E+04  0.14649264846E+04  0.50400001928E-02 0. -1.
    10030    2    1    2    0    0  0.00000000000E+00  0.00000000000E+00  0.27443346868E+03  0.32042864379E+04  0.31925127795E+04 0.  0.
        4    1    3    3  502    0 -0.15885899103E+04 -0.14894010911E+03  0.89800689405E+02  0.15980822369E+04  0.12699999809E+01 0.  1.
       -4    1    3    3    0  502  0.15885899103E+04  0.14894010911E+03  0.18463277928E+03  0.16062042010E+04  0.12699999809E+01 0. -1.
</event>
<event>
 5   0  0.5373060E-06  0.3184069E+04  0.7818609E-02  0.8193037E-01
       -2   -1    0    0    0  501  0.00000000000E+00  0.00000000000E+00  0.12400628676E+04  0.12400628676E+04  0.25500000920E-02 0.  1.
        2   -1    0    0  501    0  0.00000000000E+00  0.00000000000E+00 -0.20439079871E+04  0.20439079871E+04  0.25500000920E-02 0. -1.
    10030    2    1    2    0    0  0.00000000000E+00  0.00000000000E+00 -0.80384511942E+03  0.32839708547E+04  0.31840693457E+04 0.  0.
        5    1    3    3  502    0  0.12123116245E+04 -0.94475276200E+03  0.26185280002E+02  0.15371938769E+04  0.46999998093E+01 0.  1.
       -5    1    3    3    0  502 -0.12123116245E+04  0.94475276200E+03 -0.83003039943E+03  0.17467769778E+04  0.46999998093E+01 0. -1.
</event>
<event>
 5   0  0.1886248E-06  0.2404358E+04  0.7818609E-02  0.8437874E-01
       -1   -1    0    0    0  501  0.00000000000E+00  0.00000000000E+00  0.50804336930E+03  0.50804336932E+03  0.50400001928E-02 0.  1.
        1   -1    0    0  501    0  0.00000000000E+00  0.00000000000E+00 -0.28447071825E+04  0.28447071825E+04  0.50400001928E-02 0. -1.
    10030    2    1    2    0    0  0.00000000000E+00  0.00000000000E+00 -0.23366638132E+04  0.33527505519E+04  0.24043582277E+04 0.  0.
        4    1    3    3  502    0  0.44389306860E+03 -0.75439258966E+03 -0.19216241655E+02  0.87551134346E+03  0.12699999809E+01 0.  1.
       -4    1    3    3    0  502 -0.44389306860E+03  0.75439258966E+03 -0.23174475716E+04  0.24772392084E+04  0.12699999809E+01 0. -1.
</event>
<event>
 5   0  0.5108810E-06  0.3114106E+04  0.7818609E-02  0.8211877E-01
        2   -1    0    0  501    0  0.00000000000E+00  0.00000000000E+00  0.26273800189E+04  0.26273800189E+04  0.25500000920E-02 0. -1.
       -2   -1    0    0    0  501  0.00000000000E+00  0.00000000000E+00 -0.92274971442E+03  0.92274971443E+03  0.25500000920E-02 0.  1.
    10030    2    1    2    0    0  0.00000000000E+00  0.00000000000E+00  0.17046303044E+04  0.35501297333E+04  0.31141060753E+04 0.  0.
        1    1    3    3  502    0  0.52679127583E+03  0.31596516380E+03  0.24834027620E+04  0.25582478987E+04  0.50400001928E-02 0. -1.
       -1    1    3    3    0  502 -0.52679127583E+03 -0.31596516380E+03 -0.77877245756E+03  0.99188183455E+03  0.50400001928E-02 0.  1.
</event>
<event>
 5   0  0.1969465E-06  0.2091738E+04  0.7818609E-02  0.8564892E-01
       -1   -1    0    0    0  501  0.00000000000E+00  0.00000000000E+00  0.64625213270E+03  0.64625213272E+03  0.50400001928E-02 0. -1.
        1   -1    0    0  501    0  0.00000000000E+00  0.00000000000E+00 -0.16925925219E+04  0.16925925219E+04  0.50400001928E-02 0.  1.
    10030    2    1    2    0    0  0.00000000000E+00  0.00000000000E+00 -0.10463403892E+04  0.23388446546E+04  0.20917375812E+04 0.  0.
        2    1    3    3  502    0 -0.54205734500E+03 -0.49816790569E+03 -0.13537901860E+04  0.15410208614E+04  0.25500000920E-02 0.  1.
       -2    1    3    3    0  502  0.54205734500E+03  0.49816790569E+03  0.30744979678E+03  0.79782379325E+03  0.25500000920E-02 0. -1.
</event>
<event>
 5   0  0.1969465E-06  0.3209293E+04  0.7818609E-02  0.8186367E-01
       -1   -1    0    0    0  501  0.00000000000E+00  0.00000000000E+00  0.15828248523E+04  0.15828248523E+04  0.50400001928E-02 0.  1.
        1   -1    0    0  501    0  0.00000000000E+00  0.00000000000E+00 -0.16267688617E+04  0.16267688617E+04  0.50400001928E-02 0. -1.
    10030    2    1    2    0    0  0.00000000000E+00  0.00000000000E+00 -0.43944009462E+02  0.32095937140E+04  0.32092928712E+04 0.  0.
        2    1    3    3  502    0 -0.32809493525E+03  0.99871192340E+03  0.11905023120E+04  0.15881963189E+04  0.25500000920E-02 0.  1.
       -2    1    3    3    0  502  0.32809493525E+03 -0.99871192340E+03 -0.12344463214E+04  0.16213973951E+04  0.25500000920E-02 0. -1.
</event>
<event>
 5   0  0.1846850E-06  0.2861076E+04  0.7818609E-02  0.8284554E-01
       -1   -1    0    0    0  501  0.00000000000E+00  0.00000000000E+00  0.10781587547E+04  0.10781587547E+04  0.50400001928E-02 0. -1.
        1   -1    0    0  501    0  0.00000000000E+00  0.00000000000E+00 -0.18980862902E+04  0.18980862902E+04  0.50400001928E-02 0.  1.
    10030    2    1    2    0    0  0.00000000000E+00  0.00000000000E+00 -0.81992753550E+03  0.29762450449E+04  0.28610755677E+04 0.  0.
        5    1    3    3  502    0  0.55343963512E+03  0.80340134219E+03  0.67841583077E+03  0.11882841730E+04  0.46999998093E+01 0. -1.
       -5    1    3    3    0  502 -0.55343963512E+03 -0.80340134219E+03 -0.14983433663E+04  0.17879608719E+04  0.46999998093E+01 0.  1.
</event>
<event>
 5   0  0.1846850E-06  0.3425701E+04  0.7818609E-02  0.8131627E-01
       -1   -1    0    0    0  501  0.00000000000E+00  0.00000000000E+00  0.11792645934E+04  0.11792645934E+04  0.50400001928E-02 0.  1.
        1   -1    0    0  501    0  0.00000000000E+00  0.00000000000E+00 -0.24878696916E+04  0.24878696916E+04  0.50400001928E-02 0. -1.
    10030    2    1    2    0    0  0.00000000000E+00  0.00000000000E+00 -0.13086050982E+04  0.36671342849E+04  0.34257008860E+04 0.  0.
        5    1    3    3  502    0  0.10552662636E+03  0.64238083723E+03  0.10416674833E+04  0.12283656804E+04  0.46999998093E+01 0.  1.
       -5    1    3    3    0  502 -0.10552662636E+03 -0.64238083723E+03 -0.23502725815E+04  0.24387686045E+04  0.46999998093E+01 0. -1.
</event>
<event>
 5   0  0.1886248E-06  0.3222108E+04  0.7818609E-02  0.8183003E-01
        1   -1    0    0  501    0  0.00000000000E+00  0.00000000000E+00  0.10122553584E+04  0.10122553584E+04  0.50400001928E-02 0.  1.
       -1   -1    0    0    0  501  0.00000000000E+00  0.00000000000E+00 -0.25640706471E+04  0.25640706471E+04  0.50400001928E-02 0. -1.
    10030    2    1    2    0    0  0.00000000000E+00  0.00000000000E+00 -0.15518152887E+04  0.35763260055E+04  0.32221075412E+04 0.  0.
        4    1    3    3  502    0  0.42159416312E+03 -0.45537265990E+03 -0.24260872019E+04  0.25041978001E+04  0.12699999809E+01 0. -1.
       -4    1    3    3    0  502 -0.42159416312E+03  0.45537265990E+03  0.87427191320E+03  0.10721282054E+04  0.12699999809E+01 0.  1.
</event>
<event>
 5   0  0.5121624E-06  0.2852988E+04  0.7818609E-02  0.8287004E-01
        2   -1    0    0  501    0  0.00000000000E+00  0.00000000000E+00  0.12232915975E+04  0.12232915975E+04  0.25500000920E-02 0. -1.
       -2   -1    0    0    0  501  0.00000000000E+00  0.00000000000E+00 -0.16634500729E+04  0.16634500729E+04  0.25500000920E-02 0.  1.
    10030    2    1    2    0    0  0.00000000000E+00  0.00000000000E+00 -0.44015847535E+03  0.28867416704E+04  0.28529875549E+04 0.  0.
        4    1    3    3  502    0  0.70478076978E+03  0.15511629078E+03 -0.14651274475E+04  0.16332106561E+04  0.12699999809E+01 0.  1.
       -4    1    3    3    0  502 -0.70478076978E+03 -0.15511629078E+03  0.10249689721E+04  0.12535310143E+04  0.12699999809E+01 0. -1.
</event>
<event>
 5   0  0.5108810E-06  0.3242696E+04  0.7818609E-02  0.8177631E-01
       -2   -1    0    0    0  501  0.00000000000E+00  0.00000000000E+00  0.12607630069E+04  0.12607630069E+04  0.25500000920E-02 0.  1.
        2   -1    0    0  501    0  0.00000000000E+00  0.00000000000E+00 -0.20850620510E+04  0.20850620510E+04  0.25500000920E-02 0. -1.
    10030    2    1    2    0    0  0.00000000000E+00  0.00000000000E+00 -0.82429904410E+03  0.33458250579E+04  0.32426958544E+04 0.  0.
        1    1    3    3  502    0 -0.43417865953E+03 -0.14646187983E+03 -0.20168634181E+04  0.20682601959E+04  0.50400001928E-02 0. -1.
       -1    1    3    3    0  502  0.43417865953E+03  0.14646187983E+03  0.11925643740E+04  0.12775648620E+04  0.50400001928E-02 0.  1.
</event>
<event>
 5   0  0.5373060E-06  0.3224687E+04  0.7818609E-02  0.8182328E-01
       -2   -1    0    0    0  501  0.00000000000E+00  0.00000000000E+00  0.23257462641E+04  0.23257462641E+04  0.25500000920E-02 0. -1.
        2   -1    0    0  501    0  0.00000000000E+00  0.00000000000E+00 -0.11177708242E+04  0.11177708242E+04  0.25500000920E-02 0.  1.
    10030    2    1    2    0    0  0.00000000000E+00  0.00000000000E+00  0.12079754399E+04  0.34435170882E+04  0.32246868489E+04 0.  0.
        5    1    3    3  502    0  0.15919300875E+04  0.20596682777E+03  0.76581530830E+03  0.17785271755E+04  0.46999998093E+01 0. -1.
       -5    1    3    3    0  502 -0.15919300875E+04 -0.20596682777E+03  0.44216013164E+03  0.16649899127E+04  0.46999998093E+01 0.  1.
</event>
<event>
 5   0  0.5347280E-06  0.3165267E+04  0.7818609E-02  0.8198051E-01
       -2   -1    0    0    0  501  0.00000000000E+00  0.00000000000E+00  0.19649272108E+04  0.19649272108E+04  0.25500000920E-02 0.  1.
        2   -1    0    0  501    0  0.00000000000E+00  0.00000000000E+00 -0.12747184656E+04  0.12747184656E+04  0.25500000920E-02 0. -1.
    10030    2    1    2    0    0  0.00000000000E+00  0.00000000000E+00  0.69020874511E+03  0.32396456764E+04  0.31652671288E+04 0.  0.
        2    1    3    3  502    0  0.32222587243E+03 -0.13131275561E+04 -0.49677855166E+03  0.14404591007E+04  0.25500000920E-02 0. -1.
       -2    1    3    3    0  502 -0.32222587243E+03  0.13131275561E+04  0.11869872968E+04  0.17991865757E+04  0.25500000920E-02 0.  1.
</event>
<event>
 5   0  0.1969465E-06  0.3216980E+04  0.7818609E-02  0.8184347E-01
        1   -1    0    0  501    0  0.00000000000E+00  0.00000000000E+00  0.15416512164E+04  0.15416512164E+04  0.50400001928E-02 0. -1.
       -1   -1    0    0    0  501  0.00000000000E+00  0.00000000000E+00 -0.16782268364E+04  0.16782268364E+04  0.50400001928E-02 0.  1.
    10030    2    1    2    0    0  0.00000000000E+00  0.00000000000E+00 -0.13657562001E+03  0.32198780529E+04  0.32169802261E+04 0.  0.
        2    1    3    3  502    0  0.83700972403E+03  0.12871260094E+04 -0.54826310447E+03  0.16302978482E+04  0.25500000920E-02 0.  1.
       -2    1    3    3    0  502 -0.83700972403E+03 -0.12871260094E+04  0.41168748446E+03  0.15895802047E+04  0.25500000920E-02 0. -1.
</event>
<event>
 5   0  0.1977015E-06  0.3236430E+04  0.7818609E-02  0.8179262E-01
       -1   -1    0    0    0  501  0.00000000000E+00  0.00000000000E+00  0.17854540287E+04  0.17854540287E+04  0.50400001928E-02 0.  1.
        1   -1    0    0  501    0  0.00000000000E+00  0.00000000000E+00 -0.14666404419E+04  0.14666404419E+04  0.50400001928E-02 0. -1.
    10030    2    1    2    0    0  0.00000000000E+00  0.00000000000E+00  0.31881358678E+03  0.32520944705E+04  0.32364295670E+04 0.  0.
        1    1    3    3  502    0 -0.93838022021E+02 -0.86858096809E+03 -0.12093096981E+04  0.14918674266E+04  0.50400001928E-02 0. -1.
       -1    1    3    3    0  502  0.93838022021E+02  0.86858096809E+03  0.15281232849E+04  0.17602270440E+04  0.50400001928E-02 0.  1.
</event>
<event>
 5   0  0.5373060E-06  0.3148853E+04  0.7818609E-02  0.8202457E-01
        2   -1    0    0  501    0  0.00000000000E+00  0.00000000000E+00  0.20949314633E+04  0.20949314633E+04  0.25500000920E-02 0. -1.
       -2   -1    0    0    0  501  0.00000000000E+00  0.00000000000E+00 -0.11832456134E+04  0.11832456134E+04  0.25500000920E-02 0.  1.
    10030    2    1    2    0    0  0.00000000000E+00  0.00000000000E+00  0.91168584987E+03  0.32781770767E+04  0.31488527843E+04 0.  0.
        5    1    3    3  502    0 -0.80513239657E+03  0.90970023755E+03 -0.58678971027E+03  0.13491245133E+04  0.46999998093E+01 0.  1.
       -5    1    3    3    0  502  0.80513239657E+03 -0.90970023755E+03  0.14984755601E+04  0.19290525634E+04  0.46999998093E+01 0. -1.
</event>
<event>
 5   0  0.5108810E-06  0.3222547E+04  0.7818609E-02  0.8182888E-01
        2   -1    0    0  501    0  0.00000000000E+00  0.00000000000E+00  0.17777955973E+04  0.17777955973E+04  0.25500000920E-02 0.  1.
       -2   -1    0    0    0  501  0.00000000000E+00  0.00000000000E+00 -0.14603489289E+04  0.14603489289E+04  0.25500000920E-02 0. -1.
    10030    2    1    2    0    0  0.00000000000E+00  0.00000000000E+00  0.31744666841E+03  0.32381445261E+04  0.32225467545E+04 0.  0.
        1    1    3    3  502    0  0.12153650439E+04  0.69281943152E+03 -0.64457771155E+03  0.15403218433E+04  0.50400001928E-02 0. -1.
       -1    1    3    3    0  502 -0.12153650439E+04 -0.69281943152E+03  0.96202437996E+03  0.16978226828E+04  0.50400001928E-02 0.  1.
</event>
<event>
 5   0  0.1846850E-06  0.2725347E+04  0.7818609E-02  0.8326827E-01
        1   -1    0    0  501    0  0.00000000000E+00  0.00000000000E+00  0.11131970958E+04  0.11131970958E+04  0.50400001928E-02 0. -1.
       -1   -1    0    0    0  501  0.00000000000E+00  0.00000000000E+00 -0.16680601480E+04  0.16680601480E+04  0.50400001928E-02 0.  1.
    10030    2    1    2    0    0  0.00000000000E+00  0.00000000000E+00 -0.55486305218E+03  0.27812572438E+04  0.27253474731E+04 0.  0.
        5    1    3    3  502    0  0.17423755572E+03 -0.11954773131E+03  0.10963675130E+04  0.11165546111E+04  0.46999998093E+01 0. -1.
       -5    1    3    3    0  502 -0.17423755572E+03  0.11954773131E+03 -0.16512305652E+04  0.16647026327E+04  0.46999998093E+01 0.  1.
</event>
<event>
 5   0  0.1881144E-06  0.3227390E+04  0.7818609E-02  0.8181621E-01
       -1   -1    0    0    0  501  0.00000000000E+00  0.00000000000E+00  0.13592441226E+04  0.13592441226E+04  0.50400001928E-02 0. -1.
        1   -1    0    0  501    0  0.00000000000E+00  0.00000000000E+00 -0.19157790383E+04  0.19157790383E+04  0.50400001928E-02 0.  1.
    10030    2    1    2    0    0  0.00000000000E+00  0.00000000000E+00 -0.55653491573E+03  0.32750231609E+04  0.32273899039E+04 0.  0.
        3    1    3    3  502    0 -0.13462544152E+04  0.57422964065E+03  0.41137370064E+03  0.15203187042E+04  0.10100000352E+00 0. -1.
       -3    1    3    3    0  502  0.13462544152E+04 -0.57422964065E+03 -0.96790861636E+03  0.17547044567E+04  0.10100000352E+00 0.  1.
</event>
<event>
 5   0  0.5373060E-06  0.3172642E+04  0.7818609E-02  0.8196080E-01
       -2   -1    0    0    0  501  0.00000000000E+00  0.00000000000E+00  0.15407078104E+04  0.15407078104E+04  0.25500000920E-02 0. -1.
        2   -1    0    0  501    0  0.00000000000E+00  0.00000000000E+00 -0.16332845910E+04  0.16332845910E+04  0.25500000920E-02 0.  1.
    10030    2    1    2    0    0  0.00000000000E+00  0.00000000000E+00 -0.92576780544E+02  0.31739924014E+04  0.31726420069E+04 0.  0.
        5    1    3    3  502    0 -0.68808580847E+03 -0.12786725049E+04 -0.68525170131E+03  0.16056330337E+04  0.46999998093E+01 0.  1.
       -5    1    3    3    0  502  0.68808580847E+03  0.12786725049E+04  0.59267492077E+03  0.15683593677E+04  0.46999998093E+01 0. -1.
</event>
<event>
 5   0  0.1881144E-06  0.3215448E+04  0.7818609E-02  0.8184749E-01
        1   -1    0    0  501    0  0.00000000000E+00  0.00000000000E+00  0.19610100546E+04  0.19610100546E+04  0.50400001928E-02 0.  1.
       -1   -1    0    0    0  501  0.00000000000E+00  0.00000000000E+00 -0.13180842118E+04  0.13180842118E+04  0.50400001928E-02 0. -1.
    10030    2    1    2    0    0  0.00000000000E+00  0.00000000000E+00  0.64292584282E+03  0.32790942665E+04  0.32154479577E+04 0.  0.
        3    1    3    3  502    0  0.92495344105E+03 -0.43091265213E+03  0.15884524374E+04  0.18879633836E+04  0.10100000352E+00 0.  1.
       -3    1    3    3    0  502 -0.92495344105E+03  0.43091265213E+03 -0.94552659458E+03  0.13911308828E+04  0.10100000352E+00 0. -1.
</event>
<event>
 5   0  0.5131083E-06  0.3174211E+04  0.7818609E-02  0.8195661E-01
       -2   -1    0    0    0  501  0.00000000000E+00  0.00000000000E+00  0.11936189412E+04  0.11936189412E+04  0.25500000920E-02 0.  1.
        2   -1    0    0  501    0  0.00000000000E+00  0.00000000000E+00 -0.21103085926E+04  0.21103085926E+04  0.25500000920E-02 0. -1.
    10030    2    1    2    0    0  0.00000000000E+00  0.00000000000E+00 -0.91668965134E+03  0.33039275338E+04  0.31742112771E+04 0.  0.
        3    1    3    3  502    0 -0.11772987389E+04 -0.10541440959E+04 -0.61150495385E+03  0.16944587378E+04  0.10100000352E+00 0.  1.
       -3    1    3    3    0  502  0.11772987389E+04  0.10541440959E+04 -0.30518469749E+03  0.16094687960E+04  0.10100000352E+00 0. -1.
</event>
<event>
 5   0  0.1969465E-06  0.2254481E+04  0.7818609E-02  0.8496088E-01
       -1   -1    0    0    0  501  0.00000000000E+00  0.00000000000E+00  0.92943657153E+03  0.92943657154E+03  0.50400001928E-02 0.  1.
        1   -1    0    0  501    0  0.00000000000E+00  0.00000000000E+00 -0.13671412182E+04  0.13671412182E+04  0.50400001928E-02 0. -1.
    10030    2    1    2    0    0  0.00000000000E+00  0.00000000000E+00 -0.43770464664E+03  0.22965777897E+04  0.22544809129E+04 0.  0.
        2    1    3    3  502    0  0.10974353200E+04 -0.25692372992E+03 -0.23640668308E+03  0.11516345794E+04  0.25500000920E-02 0. -1.
       -2    1    3    3    0  502 -0.10974353200E+04  0.25692372992E+03 -0.20129796355E+03  0.11449432103E+04  0.25500000920E-02 0.  1.
</event>
<event>
 5   0  0.5108810E-06  0.3292946E+04  0.7818609E-02  0.8164693E-01
        2   -1    0    0  501    0  0.00000000000E+00  0.00000000000E+00  0.15967655518E+04  0.15967655518E+04  0.25500000920E-02 0. -1.
       -2   -1    0    0    0  501  0.00000000000E+00  0.00000000000E+00 -0.16977278332E+04  0.16977278332E+04  0.25500000920E-02 0.  1.
    10030    2    1    2    0    0  0.00000000000E+00  0.00000000000E+00 -0.10096228134E+03  0.32944933850E+04  0.32929459882E+04 0.  0.
        1    1    3    3  502    0  0.11056364884E+04 -0.17843570441E+03  0.11569836614E+04  0.16102430058E+04  0.50400001928E-02 0. -1.
       -1    1    3    3    0  502 -0.11056364884E+04  0.17843570441E+03 -0.12579459427E+04  0.16842503792E+04  0.50400001928E-02 0.  1.
</event>
<event>
 5   0  0.1969465E-06  0.3067644E+04  0.7818609E-02  0.8224674E-01
       -1   -1    0    0    0  501  0.00000000000E+00  0.00000000000E+00  0.89591782939E+03  0.89591782941E+03  0.50400001928E-02 0. -1.
        1   -1    0    0  501    0  0.00000000000E+00  0.00000000000E+00 -0.26259213849E+04  0.26259213849E+04  0.50400001928E-02 0.  1.
    10030    2    1    2    0    0  0.00000000000E+00  0.00000000000E+00 -0.17300035555E+04  0.35218392143E+04  0.30676439085E+04 0.  0.
        2    1    3    3  502    0  0.45189959961E+03  0.11707241059E+04  0.14750746761E+03  0.12635531779E+04  0.25500000920E-02 0.  1.
       -2    1    3    3    0  502 -0.45189959961E+03 -0.11707241059E+04 -0.18775110231E+04  0.22582860364E+04  0.25500000920E-02 0. -1.
</event>
<event>
 5   0  0.5121624E-06  0.3182889E+04  0.7818609E-02  0.8193351E-01
        2   -1    0    0  501    0  0.00000000000E+00  0.00000000000E+00  0.19258996405E+04  0.19258996405E+04  0.25500000920E-02 0.  1.
       -2   -1    0    0    0  501  0.00000000000E+00  0.00000000000E+00 -0.13150715765E+04  0.13150715765E+04  0.25500000920E-02 0. -1.
    10030    2    1    2    0    0  0.00000000000E+00  0.00000000000E+00  0.61082806397E+03  0.32409712170E+04  0.31828891759E+04 0.  0.
        4    1    3    3  502    0 -0.66039747143E+03  0.70121889732E+03 -0.98453465942E+03  0.13773680956E+04  0.12699999809E+01 0. -1.
       -4    1    3    3    0  502  0.66039747143E+03 -0.70121889732E+03  0.15953627234E+04  0.18636031215E+04  0.12699999809E+01 0.  1.
</event>
<event>
 5   0  0.1886248E-06  0.3125851E+04  0.7818609E-02  0.8208679E-01
        1   -1    0    0  501    0  0.00000000000E+00  0.00000000000E+00  0.13658524544E+04  0.13658524544E+04  0.50400001928E-02 0.  1.
       -1   -1    0    0    0  501  0.00000000000E+00  0.00000000000E+00 -0.17884339350E+04  0.17884339350E+04  0.50400001928E-02 0. -1.
    10030    2    1    2    0    0  0.00000000000E+00  0.00000000000E+00 -0.42258148063E+03  0.31542863894E+04  0.31258514870E+04 0.  0.
        4    1    3    3  502    0 -0.51164699901E+03  0.14108892202E+04  0.22896257229E+03  0.15181622165E+04  0.12699999809E+01 0.  1.
       -4    1    3    3    0  502  0.51164699901E+03 -0.14108892202E+04 -0.65154405292E+03  0.16361241729E+04  0.12699999809E+01 0. -1.
</event>
<event>
 5   0  0.1729500E-06  0.3145919E+04  0.7818609E-02  0.8203248E-01
       -4   -1    0    0    0  501  0.00000000000E+00  0.00000000000E+00  0.18849960208E+04  0.18849964486E+04  0.12699999809E+01 0. -1.
        4   -1    0    0  501    0  0.00000000000E+00  0.00000000000E+00 -0.13125756402E+04  0.13125762546E+04  0.12699999809E+01 0.  1.
    10030    2    1    2    0    0  0.00000000000E+00  0.00000000000E+00  0.57242038065E+03  0.31975727032E+04  0.31459189596E+04 0.  0.
        3    1    3    3  502    0  0.54886535444E+03  0.47277122194E+03  0.17053570992E+04  0.18528379993E+04  0.10100000352E+00 0. -1.
       -3    1    3    3    0  502 -0.54886535444E+03 -0.47277122194E+03 -0.11329367185E+04  0.13447347039E+04  0.10100000352E+00 0.  1.
</event>
<event>
 5   0  0.1846850E-06  0.3066061E+04  0.7818609E-02  0.8225114E-01
       -1   -1    0    0    0  501  0.00000000000E+00  0.00000000000E+00  0.24693141674E+04  0.24693141674E+04  0.50400001928E-02 0.  1.
        1   -1    0    0  501    0  0.00000000000E+00  0.00000000000E+00 -0.95175540835E+03  0.95175540836E+03  0.50400001928E-02 0. -1.
    10030    2    1    2    0    0  0.00000000000E+00  0.00000000000E+00  0.15175587591E+04  0.34210695758E+04  0.30660613913E+04 0.  0.
        5    1    3    3  502    0 -0.26902791592E+03  0.12097815617E+04 -0.24803690270E+03  0.12639192386E+04  0.46999998093E+01 0. -1.
       -5    1    3    3    0  502  0.26902791592E+03 -0.12097815617E+04  0.17655956618E+04  0.21571503372E+04  0.46999998093E+01 0.  1.
</event>
<event>
 5   0  0.1969465E-06  0.3259563E+04  0.7818609E-02  0.8173262E-01
        1   -1    0    0  501    0  0.00000000000E+00  0.00000000000E+00  0.14322244657E+04  0.14322244657E+04  0.50400001928E-02 0. -1.
       -1   -1    0    0    0  501  0.00000000000E+00  0.00000000000E+00 -0.18545887290E+04  0.18545887290E+04  0.50400001928E-02 0.  1.
    10030    2    1    2    0    0  0.00000000000E+00  0.00000000000E+00 -0.42236426334E+03  0.32868131947E+04  0.32595627630E+04 0.  0.
        2    1    3    3  502    0 -0.16021738376E+04 -0.17239331541E+03  0.34797588251E+02  0.16117975472E+04  0.25500000920E-02 0.  1.
       -2    1    3    3    0  502  0.16021738376E+04  0.17239331541E+03 -0.45716185159E+03  0.16750156475E+04  0.25500000920E-02 0. -1.
</event>
<event>
 5   0  0.1881144E-06  0.3235153E+04  0.7818609E-02  0.8179595E-01
        1   -1    0    0  501    0  0.00000000000E+00  0.00000000000E+00  0.18428717860E+04  0.18428717861E+04  0.50400001928E-02 0. -1.
       -1   -1    0    0    0  501  0.00000000000E+00  0.00000000000E+00 -0.14198239914E+04  0.14198239914E+04  0.50400001928E-02 0.  1.
    10030    2    1    2    0    0  0.00000000000E+00  0.00000000000E+00  0.42304779467E+03  0.32626957774E+04  0.32351529020E+04 0.  0.
        3    1    3    3  502    0 -0.10972832474E+04  0.54449739238E+03  0.12769485583E+04  0.17694930251E+04  0.10100000352E+00 0. -1.
       -3    1    3    3    0  502  0.10972832474E+04 -0.54449739238E+03 -0.85390076358E+03  0.14932027523E+04  0.10100000352E+00 0.  1.
</event>
<event>
 5   0  0.1846850E-06  0.3218554E+04  0.7818609E-02  0.8183934E-01
       -1   -1    0    0    0  501  0.00000000000E+00  0.00000000000E+00  0.13030118085E+04  0.13030118085E+04  0.50400001928E-02 0. -1.
        1   -1    0    0  501    0  0.00000000000E+00  0.00000000000E+00 -0.19875274609E+04  0.19875274609E+04  0.50400001928E-02 0.  1.
    10030    2    1    2    0    0  0.00000000000E+00  0.00000000000E+00 -0.68451565238E+03  0.32905392694E+04  0.32185535579E+04 0.  0.
        5    1    3    3  502    0 -0.38042466517E+03 -0.14271892859E+04  0.31090313029E+03  0.15093955844E+04  0.46999998093E+01 0.  1.
       -5    1    3    3    0  502  0.38042466517E+03  0.14271892859E+04 -0.99541878267E+03  0.17811436850E+04  0.46999998093E+01 0. -1.
</event>
<event>
 5   0  0.1846850E-06  0.3263617E+04  0.7818609E-02  0.8172215E-01
        1   -1    0    0  501    0  0.00000000000E+00  0.00000000000E+00  0.18809188262E+04  0.18809188262E+04  0.50400001928E-02 0. -1.
       -1   -1    0    0    0  501  0.00000000000E+00  0.00000000000E+00 -0.14156901576E+04  0.14156901576E+04  0.50400001928E-02 0.  1.
    10030    2    1    2    0    0  0.00000000000E+00  0.00000000000E+00  0.46522866865E+03  0.32966089838E+04  0.32636165641E+04 0.  0.
        5    1    3    3  502    0  0.33142116577E+03 -0.11956166584E+04  0.13032523746E+04  0.17993965724E+04  0.46999998093E+01 0. -1.
       -5    1    3    3    0  502 -0.33142116577E+03  0.11956166584E+04 -0.83802370591E+03  0.14972124114E+04  0.46999998093E+01 0.  1.
</event>
<event>
 5   0  0.1846850E-06  0.2952533E+04  0.7818609E-02  0.8257417E-01
        1   -1    0    0  501    0  0.00000000000E+00  0.00000000000E+00  0.95124678662E+03  0.95124678663E+03  0.50400001928E-02 0.  1.
       -1   -1    0    0    0  501  0.00000000000E+00  0.00000000000E+00 -0.22910600245E+04  0.22910600245E+04  0.50400001928E-02 0. -1.
    10030    2    1    2    0    0  0.00000000000E+00  0.00000000000E+00 -0.13398132379E+04  0.32423068111E+04  0.29525334791E+04 0.  0.
        5    1    3    3  502    0  0.69499795796E+02 -0.37096389355E+03 -0.22371765744E+04  0.22687938529E+04  0.46999998093E+01 0. -1.
       -5    1    3    3    0  502 -0.69499795796E+02  0.37096389355E+03  0.89736333657E+03  0.97351295818E+03  0.46999998093E+01 0.  1.
</event>
<event>
 5   0  0.5121624E-06  0.2150010E+04  0.7818609E-02  0.8539528E-01
        2   -1    0    0  501    0  0.00000000000E+00  0.00000000000E+00  0.20885175534E+04  0.20885175534E+04  0.25500000920E-02 0.  1.
       -2   -1    0    0    0  501  0.00000000000E+00  0.00000000000E+00 -0.55332813770E+03  0.55332813771E+03  0.25500000920E-02 0. -1.
    10030    2    1    2    0    0  0.00000000000E+00  0.00000000000E+00  0.15351894157E+04  0.26418456911E+04  0.21500097938E+04 0.  0.
        4    1    3    3  502    0  0.18359327897E+03 -0.80352938720E+03  0.16155885257E+04  0.18136961889E+04  0.12699999809E+01 0.  1.
       -4    1    3    3    0  502 -0.18359327897E+03  0.80352938720E+03 -0.80399110071E+02  0.82814950219E+03  0.12699999809E+01 0. -1.
</event>
<event>
 5   0  0.1886248E-06  0.2005359E+04  0.7818609E-02  0.8604119E-01
       -1   -1    0    0    0  501  0.00000000000E+00  0.00000000000E+00  0.10260748702E+04  0.10260748702E+04  0.50400001928E-02 0.  1.
        1   -1    0    0  501    0  0.00000000000E+00  0.00000000000E+00 -0.97981785971E+03  0.97981785972E+03  0.50400001928E-02 0. -1.
    10030    2    1    2    0    0  0.00000000000E+00  0.00000000000E+00  0.46257010460E+02  0.20058927299E+04  0.20053593027E+04 0.  0.
        4    1    3    3  502    0  0.45188920399E+02  0.32031113864E+03 -0.92618854213E+03  0.98105458184E+03  0.12699999809E+01 0. -1.
       -4    1    3    3    0  502 -0.45188920399E+02 -0.32031113864E+03  0.97244555259E+03  0.10248381481E+04  0.12699999809E+01 0.  1.
</event>
<event>
 5   0  0.5131083E-06  0.3218752E+04  0.7818609E-02  0.8183882E-01
        2   -1    0    0  501    0  0.00000000000E+00  0.00000000000E+00  0.23344954871E+04  0.23344954871E+04  0.25500000920E-02 0. -1.
       -2   -1    0    0    0  501  0.00000000000E+00  0.00000000000E+00 -0.11094862906E+04  0.11094862906E+04  0.25500000920E-02 0.  1.
    10030    2    1    2    0    0  0.00000000000E+00  0.00000000000E+00  0.12250091965E+04  0.34439817778E+04  0.32187517696E+04 0.  0.
        3    1    3    3  502    0  0.10874179963E+04  0.48320670381E+02 -0.65589026495E+03  0.12708284053E+04  0.10100000352E+00 0.  1.
       -3    1    3    3    0  502 -0.10874179963E+04 -0.48320670381E+02  0.18808994614E+04  0.21731533724E+04  0.10100000352E+00 0. -1.
</event>
<event>
 5   0  0.5108810E-06  0.3058050E+04  0.7818609E-02  0.8227346E-01
        2   -1    0    0  501    0  0.00000000000E+00  0.00000000000E+00  0.20522223151E+04  0.20522223151E+04  0.25500000920E-02 0.  1.
       -2   -1    0    0    0  501  0.00000000000E+00  0.00000000000E+00 -0.11392124827E+04  0.11392124827E+04  0.25500000920E-02 0. -1.
    10030    2    1    2    0    0  0.00000000000E+00  0.00000000000E+00  0.91300983238E+03  0.31914347978E+04  0.30580498875E+04 0.  0.
        1    1    3    3  502    0  0.92850142785E+01  0.89228844595E+03 -0.83928513507E+03  0.12250160898E+04  0.50400001928E-02 0. -1.
       -1    1    3    3    0  502 -0.92850142785E+01 -0.89228844595E+03  0.17522949675E+04  0.19664187080E+04  0.50400001928E-02 0.  1.
</event>
<event>
 5   0  0.1886248E-06  0.2406930E+04  0.7818609E-02  0.8436914E-01
       -1   -1    0    0    0  501  0.00000000000E+00  0.00000000000E+00  0.74385415774E+03  0.74385415776E+03  0.50400001928E-02 0. -1.
        1   -1    0    0  501    0  0.00000000000E+00  0.00000000000E+00 -0.19470590445E+04  0.19470590445E+04  0.50400001928E-02 0.  1.
    10030    2    1    2    0    0  0.00000000000E+00  0.00000000000E+00 -0.12032048867E+04  0.26909132022E+04  0.24069299663E+04 0.  0.
        4    1    3    3  502    0 -0.67836398162E+03  0.83481130252E+03  0.17357451036E+01  0.10756822152E+04  0.12699999809E+01 0. -1.
       -4    1    3    3    0  502  0.67836398162E+03 -0.83481130252E+03 -0.12049406318E+04  0.16152309871E+04  0.12699999809E+01 0.  1.
</event>
<event>
 5   0  0.5108810E-06  0.2201348E+04  0.7818609E-02  0.8517867E-01
       -2   -1    0    0    0  501  0.00000000000E+00  0.00000000000E+00  0.12007469606E+04  0.12007469607E+04  0.25500000920E-02 0. -1.
        2   -1    0    0  501    0  0.00000000000E+00  0.00000000000E+00 -0.10089416677E+04  0.10089416677E+04  0.25500000920E-02 0.  1.
    10030    2    1    2    0    0  0.00000000000E+00  0.00000000000E+00  0.19180529297E+03  0.22096886283E+04  0.22013483513E+04 0.  0.
        1    1    3    3  502    0  0.31691387837E+03 -0.10356710763E+04  0.29269300123E+03  0.11219261017E+04  0.50400001928E-02 0. -1.
       -1    1    3    3    0  502 -0.31691387837E+03  0.10356710763E+04 -0.10088770827E+03  0.10877625266E+04  0.50400001928E-02 0.  1.
</event>
<event>
 5   0  0.5108810E-06  0.3181773E+04  0.7818609E-02  0.8193647E-01
        2   -1    0    0  501    0  0.00000000000E+00  0.00000000000E+00  0.26770679251E+04  0.26770679251E+04  0.25500000920E-02 0. -1.
       -2   -1    0    0    0  501  0.00000000000E+00  0.00000000000E+00 -0.94540749563E+03  0.94540749564E+03  0.25500000920E-02 0.  1.
    10030    2    1    2    0    0  0.00000000000E+00  0.00000000000E+00  0.17316604295E+04  0.36224754207E+04  0.31817731426E+04 0.  0.
        1    1    3    3  502    0 -0.92208336847E+03 -0.45269149165E+02 -0.60924484566E+03  0.11061041164E+04  0.50400001928E-02 0.  1.
       -1    1    3    3    0  502  0.92208336847E+03  0.45269149165E+02  0.23409052751E+04  0.25163713044E+04  0.50400001928E-02 0. -1.
</event>
<event>
 5   0  0.1969465E-06  0.3154183E+04  0.7818609E-02  0.8201023E-01
       -1   -1    0    0    0  501  0.00000000000E+00  0.00000000000E+00  0.13123620434E+04  0.13123620434E+04  0.50400001928E-02 0.  1.
        1   -1    0    0  501    0  0.00000000000E+00  0.00000000000E+00 -0.18952215525E+04  0.18952215526E+04  0.50400001928E-02 0. -1.
    10030    2    1    2    0    0  0.00000000000E+00  0.00000000000E+00 -0.58285950915E+03  0.32075835960E+04  0.31541825118E+04 0.  0.
        2    1    3    3  502    0  0.12798753071E+04 -0.91866490652E+03 -0.36469685985E+03  0.16171053805E+04  0.25500000920E-02 0.  1.
       -2    1    3    3    0  502 -0.12798753071E+04  0.91866490652E+03 -0.21816264931E+03  0.15904782154E+04  0.25500000920E-02 0. -1.
</event>
<event>
 5   0  0.5108810E-06  0.3208541E+04  0.7818609E-02  0.8186565E-01
        2   -1    0    0  501    0  0.00000000000E+00  0.00000000000E+00  0.15056119037E+04  0.15056119037E+04  0.25500000920E-02 0.  1.
       -2   -1    0    0    0  501  0.00000000000E+00  0.00000000000E+00 -0.17093936799E+04  0.17093936799E+04  0.25500000920E-02 0. -1.
    10030    2    1    2    0    0  0.00000000000E+00  0.00000000000E+00 -0.20378177621E+03  0.32150055836E+04  0.32085407727E+04 0.  0.
        1    1    3    3  502    0  0.10314559373E+04 -0.34609058587E+03 -0.12832504606E+04  0.16823827712E+04  0.50400001928E-02 0. -1.
       -1    1    3    3    0  502 -0.10314559373E+04  0.34609058587E+03  0.10794686844E+04  0.15326228123E+04  0.50400001928E-02 0.  1.
</event>
<event>
 5   0  0.1886248E-06  0.3252185E+04  0.7818609E-02  0.8175170E-01
       -1   -1    0    0    0  501  0.00000000000E+00  0.00000000000E+00  0.19825369832E+04  0.19825369832E+04  0.50400001928E-02 0.  1.
        1   -1    0    0  501    0  0.00000000000E+00  0.00000000000E+00 -0.13337339188E+04  0.13337339188E+04  0.50400001928E-02 0. -1.
    10030    2    1    2    0    0  0.00000000000E+00  0.00000000000E+00  0.64880306441E+03  0.33162709020E+04  0.32521850007E+04 0.  0.
        4    1    3    3  502    0  0.50814757102E+03  0.14032075092E+04  0.98285809541E+03  0.17869574467E+04  0.12699999809E+01 0.  1.
       -4    1    3    3    0  502 -0.50814757102E+03 -0.14032075092E+04 -0.33405503099E+03  0.15293134553E+04  0.12699999809E+01 0. -1.
</event>
<event>
 5   0  0.1969465E-06  0.2396966E+04  0.7818609E-02  0.8440640E-01
        1   -1    0    0  501    0  0.00000000000E+00  0.00000000000E+00  0.11313254722E+04  0.11313254722E+04  0.50400001928E-02 0. -1.
       -1   -1    0    0    0  501  0.00000000000E+00  0.00000000000E+00 -0.12696272162E+04  0.12696272162E+04  0.50400001928E-02 0.  1.
    10030    2    1    2    0    0  0.00000000000E+00  0.00000000000E+00 -0.13830174404E+03  0.24009526884E+04  0.23969660906E+04 0.  0.
        2    1    3    3  502    0 -0.52243696352E+03  0.90039338662E+03  0.52573332493E+03  0.11662093125E+04  0.25500000920E-02 0. -1.
       -2    1    3    3    0  502  0.52243696352E+03 -0.90039338662E+03 -0.66403506897E+03  0.12347433759E+04  0.25500000920E-02 0.  1.
</event>
<event>
 5   0  0.1977015E-06  0.3081137E+04  0.7818609E-02  0.8220934E-01
        1   -1    0    0  501    0  0.00000000000E+00  0.00000000000E+00  0.25857907556E+04  0.25857907556E+04  0.50400001928E-02 0. -1.
       -1   -1    0    0    0  501  0.00000000000E+00  0.00000000000E+00 -0.91784377816E+03  0.91784377817E+03  0.50400001928E-02 0.  1.
    10030    2    1    2    0    0  0.00000000000E+00  0.00000000000E+00  0.16679469774E+04  0.35036345338E+04  0.30811374242E+04 0.  0.
        1    1    3    3  502    0 -0.12516835443E+04  0.28215761030E+03 -0.13560529131E+03  0.12902377329E+04  0.50400001928E-02 0. -1.
       -1    1    3    3    0  502  0.12516835443E+04 -0.28215761030E+03  0.18035522688E+04  0.22133968009E+04  0.50400001928E-02 0.  1.
</event>
<event>
 5   0  0.5108810E-06  0.3311008E+04  0.7818609E-02  0.8160100E-01
        2   -1    0    0  501    0  0.00000000000E+00  0.00000000000E+00  0.20225502090E+04  0.20225502090E+04  0.25500000920E-02 0.  1.
       -2   -1    0    0    0  501  0.00000000000E+00  0.00000000000E+00 -0.13550680445E+04  0.13550680445E+04  0.25500000920E-02 0. -1.
    10030    2    1    2    0    0  0.00000000000E+00  0.00000000000E+00  0.66748216456E+03  0.33776182535E+04  0.33110077962E+04 0.  0.
        1    1    3    3  502    0  0.13621615381E+04 -0.80644476586E+03  0.82810997351E+03  0.17865059038E+04  0.50400001928E-02 0. -1.
       -1    1    3    3    0  502 -0.13621615381E+04  0.80644476586E+03 -0.16062780895E+03  0.15911123497E+04  0.50400001928E-02 0.  1.
</event>
<event>
 5   0  0.1977015E-06  0.3280115E+04  0.7818609E-02  0.8167974E-01
        1   -1    0    0  501    0  0.00000000000E+00  0.00000000000E+00  0.22290961087E+04  0.22290961087E+04  0.50400001928E-02 0.  1.
       -1   -1    0    0    0  501  0.00000000000E+00  0.00000000000E+00 -0.12066721286E+04  0.12066721286E+04  0.50400001928E-02 0. -1.
    10030    2    1    2    0    0  0.00000000000E+00  0.00000000000E+00  0.10224239801E+04  0.34357682373E+04  0.32801147214E+04 0.  0.
        1    1    3    3  502    0  0.14041112226E+04  0.84445248107E+03  0.43597135592E+03  0.16954938341E+04  0.50400001928E-02 0.  1.
       -1    1    3    3    0  502 -0.14041112226E+04 -0.84445248107E+03  0.58645262422E+03  0.17402744033E+04  0.50400001928E-02 0. -1.
</event>
<event>
 5   0  0.1886248E-06  0.3095384E+04  0.7818609E-02  0.8217006E-01
       -1   -1    0    0    0  501  0.00000000000E+00  0.00000000000E+00  0.14600945276E+04  0.14600945276E+04  0.50400001928E-02 0.  1.
        1   -1    0    0  501    0  0.00000000000E+00  0.00000000000E+00 -0.16405448862E+04  0.16405448862E+04  0.50400001928E-02 0. -1.
    10030    2    1    2    0    0  0.00000000000E+00  0.00000000000E+00 -0.18045035861E+03  0.31006394137E+04  0.30953840541E+04 0.  0.
        4    1    3    3  502    0 -0.85401168678E+03 -0.35493113238E+03 -0.13333143687E+04  0.16226647493E+04  0.12699999809E+01 0. -1.
       -4    1    3    3    0  502  0.85401168678E+03  0.35493113238E+03  0.11528640101E+04  0.14779746644E+04  0.12699999809E+01 0.  1.
</event>
<event>
 5   0  0.5347280E-06  0.3230716E+04  0.7818609E-02  0.8180752E-01
       -2   -1    0    0    0  501  0.00000000000E+00  0.00000000000E+00  0.25575341686E+04  0.25575341686E+04  0.25500000920E-02 0. -1.
        2   -1    0    0  501    0  0.00000000000E+00  0.00000000000E+00 -0.10202721864E+04  0.10202721864E+04  0.25500000920E-02 0.  1.
    10030    2    1    2    0    0  0.00000000000E+00  0.00000000000E+00  0.15372619822E+04  0.35778063550E+04  0.32307156965E+04 0.  0.
        2    1    3    3  502    0  0.29588807720E+03  0.45993753890E+03 -0.91462905403E+03  0.10656634555E+04  0.25500000920E-02 0.  1.
       -2    1    3    3    0  502 -0.29588807720E+03 -0.45993753890E+03  0.24518910362E+04  0.25121428995E+04  0.25500000920E-02 0. -1.
</event>
<event>
 5   0  0.5347280E-06  0.2884744E+04  0.7818609E-02  0.8277431E-01
        2   -1    0    0  501    0  0.00000000000E+00  0.00000000000E+00  0.28007506580E+04  0.28007506580E+04  0.25500000920E-02 0.  1.
       -2   -1    0    0    0  501  0.00000000000E+00  0.00000000000E+00 -0.74281381730E+03  0.74281381730E+03  0.25500000920E-02 0. -1.
    10030    2    1    2    0    0  0.00000000000E+00  0.00000000000E+00  0.20579368407E+04  0.35435644753E+04  0.28847435155E+04 0.  0.
        2    1    3    3  502    0 -0.14300891241E+04  0.48179670268E+02  0.80595683726E+03  0.16422675199E+04  0.25500000920E-02 0.  1.
       -2    1    3    3    0  502  0.14300891241E+04 -0.48179670268E+02  0.12519800035E+04  0.19012969554E+04  0.25500000920E-02 0. -1.
</event>
<event>
 5   0  0.5373060E-06  0.3203208E+04  0.7818609E-02  0.8187970E-01
       -2   -1    0    0    0  501  0.00000000000E+00  0.00000000000E+00  0.16019644726E+04  0.16019644726E+04  0.25500000920E-02 0. -1.
        2   -1    0    0  501    0  0.00000000000E+00  0.00000000000E+00 -0.16012439848E+04  0.16012439848E+04  0.25500000920E-02 0.  1.
    10030    2    1    2    0    0  0.00000000000E+00  0.00000000000E+00  0.72048781205E+00  0.32032084574E+04  0.32032083764E+04 0.  0.
        5    1    3    3  502    0  0.49422074951E+03  0.18722114899E+03 -0.15115286718E+04  0.16012641642E+04  0.46999998093E+01 0.  1.
       -5    1    3    3    0  502 -0.49422074951E+03 -0.18722114899E+03  0.15122491596E+04  0.16019442932E+04  0.46999998093E+01 0. -1.
</event>
<event>
 5   0  0.5108810E-06  0.3247693E+04  0.7818609E-02  0.8176334E-01
        2   -1    0    0  501    0  0.00000000000E+00  0.00000000000E+00  0.16227136162E+04  0.16227136162E+04  0.25500000920E-02 0. -1.
       -2   -1    0    0    0  501  0.00000000000E+00  0.00000000000E+00 -0.16249805279E+04  0.16249805279E+04  0.25500000920E-02 0.  1.
    10030    2    1    2    0    0  0.00000000000E+00  0.00000000000E+00 -0.22669116809E+01  0.32476941442E+04  0.32476933530E+04 0.  0.
        1    1    3    3  502    0  0.27248832334E+03  0.13643817802E+04  0.83617821968E+03  0.16232626231E+04  0.50400001928E-02 0. -1.
       -1    1    3    3    0  502 -0.27248832334E+03 -0.13643817802E+04 -0.83844513136E+03  0.16244315211E+04  0.50400001928E-02 0.  1.
</event>
<event>
 5   0  0.1881144E-06  0.3275149E+04  0.7818609E-02  0.8169248E-01
        1   -1    0    0  501    0  0.00000000000E+00  0.00000000000E+00  0.22555297199E+04  0.22555297199E+04  0.50400001928E-02 0. -1.
       -1   -1    0    0    0  501  0.00000000000E+00  0.00000000000E+00 -0.11889222526E+04  0.11889222526E+04  0.50400001928E-02 0.  1.
    10030    2    1    2    0    0  0.00000000000E+00  0.00000000000E+00  0.10666074674E+04  0.34444519725E+04  0.32751485312E+04 0.  0.
        3    1    3    3  502    0  0.38885094392E+03 -0.11284872505E+04 -0.64579459343E+03  0.13571069222E+04  0.10100000352E+00 0.  1.
       -3    1    3    3    0  502 -0.38885094392E+03  0.11284872505E+04  0.17124020608E+04  0.20873450503E+04  0.10100000352E+00 0. -1.
</event>
<event>
 5   0  0.5121624E-06  0.3209815E+04  0.7818609E-02  0.8186230E-01
       -2   -1    0    0    0  501  0.00000000000E+00  0.00000000000E+00  0.22015383527E+04  0.22015383527E+04  0.25500000920E-02 0. -1.
        2   -1    0    0  501    0  0.00000000000E+00  0.00000000000E+00 -0.11699676248E+04  0.11699676248E+04  0.25500000920E-02 0.  1.
    10030    2    1    2    0    0  0.00000000000E+00  0.00000000000E+00  0.10315707279E+04  0.33715059775E+04  0.32098153202E+04 0.  0.
        4    1    3    3  502    0  0.76113308942E+03  0.49811431960E+03  0.19046185004E+04  0.21106905742E+04  0.12699999809E+01 0. -1.
       -4    1    3    3    0  502 -0.76113308942E+03 -0.49811431960E+03 -0.87304777250E+03  0.12608154033E+04  0.12699999809E+01 0.  1.
</event>
<event>
 5   0  0.5373060E-06  0.3443012E+04  0.7818609E-02  0.8127430E-01
        2   -1    0    0  501    0  0.00000000000E+00  0.00000000000E+00  0.26493034809E+04  0.26493034809E+04  0.25500000920E-02 0.  1.
       -2   -1    0    0    0  501  0.00000000000E+00  0.00000000000E+00 -0.11186274593E+04  0.11186274593E+04  0.25500000920E-02 0. -1.
    10030    2    1    2    0    0  0.00000000000E+00  0.00000000000E+00  0.15306760216E+04  0.37679309402E+04  0.34430124146E+04 0.  0.
        5    1    3    3  502    0  0.14074074865E+04  0.56445914513E+03  0.16572006023E+04  0.22462737780E+04  0.46999998093E+01 0.  1.
       -5    1    3    3    0  502 -0.14074074865E+04 -0.56445914513E+03 -0.12652458072E+03  0.15216571622E+04  0.46999998093E+01 0. -1.
</event>
<event>
 5   0  0.5108810E-06  0.3139524E+04  0.7818609E-02  0.8204974E-01
       -2   -1    0    0    0  501  0.00000000000E+00  0.00000000000E+00  0.98274447068E+03  0.98274447069E+03  0.25500000920E-02 0.  1.
        2   -1    0    0  501    0  0.00000000000E+00  0.00000000000E+00 -0.25074196180E+04  0.25074196180E+04  0.25500000920E-02 0. -1.
    10030    2    1    2    0    0  0.00000000000E+00  0.00000000000E+00 -0.15246751473E+04  0.34901640886E+04  0.31395240182E+04 0.  0.
        1    1    3    3  502    0 -0.57783897138E+03  0.13728509921E+03  0.85301781664E+03  0.10394154467E+04  0.50400001928E-02 0.  1.
       -1    1    3    3    0  502  0.57783897138E+03 -0.13728509921E+03 -0.23776929639E+04  0.24507486419E+04  0.50400001928E-02 0. -1.
</event>
<event>
 5   0  0.1977015E-06  0.3205029E+04  0.7818609E-02  0.8187490E-01
       -1   -1    0    0    0  501  0.00000000000E+00  0.00000000000E+00  0.15032158074E+04  0.15032158074E+04  0.50400001928E-02 0. -1.
        1   -1    0    0  501    0  0.00000000000E+00  0.00000000000E+00 -0.17083727124E+04  0.17083727124E+04  0.50400001928E-02 0.  1.
    10030    2    1    2    0    0  0.00000000000E+00  0.00000000000E+00 -0.20515690507E+03  0.32115885198E+04  0.32050290896E+04 0.  0.
        1    1    3    3  502    0 -0.13535868176E+04 -0.45720832824E+03  0.62472802632E+03  0.15593337793E+04  0.50400001928E-02 0. -1.
       -1    1    3    3    0  502  0.13535868176E+04  0.45720832824E+03 -0.82988493140E+03  0.16522547405E+04  0.50400001928E-02 0.  1.
</event>
<event>
 5   0  0.1729500E-06  0.3074962E+04  0.7818609E-02  0.8222643E-01
       -4   -1    0    0    0  501  0.00000000000E+00  0.00000000000E+00  0.16757108213E+04  0.16757113026E+04  0.12699999809E+01 0.  1.
        4   -1    0    0  501    0  0.00000000000E+00  0.00000000000E+00 -0.14106529764E+04  0.14106535481E+04  0.12699999809E+01 0. -1.
    10030    2    1    2    0    0  0.00000000000E+00  0.00000000000E+00  0.26505784491E+03  0.30863648506E+04  0.30749621673E+04 0.  0.
        5    1    3    3  502    0  0.13286508370E+03 -0.12966286504E+03  0.16644127522E+04  0.16747410213E+04  0.46999998093E+01 0.  1.
       -5    1    3    3    0  502 -0.13286508370E+03  0.12966286504E+03 -0.13993549072E+04  0.14116238293E+04  0.46999998093E+01 0. -1.
</event>
<event>
 5   0  0.1969465E-06  0.2453280E+04  0.7818609E-02  0.8419821E-01
       -1   -1    0    0    0  501  0.00000000000E+00  0.00000000000E+00  0.70511714057E+03  0.70511714059E+03  0.50400001928E-02 0.  1.
        1   -1    0    0  501    0  0.00000000000E+00  0.00000000000E+00 -0.21338944610E+04  0.21338944610E+04  0.50400001928E-02 0. -1.
    10030    2    1    2    0    0  0.00000000000E+00  0.00000000000E+00 -0.14287773205E+04  0.28390116016E+04  0.24532798949E+04 0.  0.
        2    1    3    3  502    0 -0.57819631297E+03 -0.34515135173E+03  0.47210057717E+03  0.82238639757E+03  0.25500000920E-02 0.  1.
       -2    1    3    3    0  502  0.57819631297E+03  0.34515135173E+03 -0.19008778976E+04  0.20166252041E+04  0.25500000920E-02 0. -1.
</event>
<event>
 5   0  0.5347280E-06  0.3031398E+04  0.7818609E-02  0.8234821E-01
        2   -1    0    0  501    0  0.00000000000E+00  0.00000000000E+00  0.23288940155E+04  0.23288940155E+04  0.25500000920E-02 0. -1.
       -2   -1    0    0    0  501  0.00000000000E+00  0.00000000000E+00 -0.98645263915E+03  0.98645263915E+03  0.25500000920E-02 0.  1.
    10030    2    1    2    0    0  0.00000000000E+00  0.00000000000E+00  0.13424413764E+04  0.33153466547E+04  0.30313981249E+04 0.  0.
        2    1    3    3  502    0  0.27161451957E+01 -0.77495854382E+03 -0.75339644546E+03  0.10808211351E+04  0.25500000920E-02 0.  1.
       -2    1    3    3    0  502 -0.27161451957E+01  0.77495854382E+03  0.20958378219E+04  0.22345255196E+04  0.25500000920E-02 0. -1.
</event>
<event>
 5   0  0.5121624E-06  0.3210293E+04  0.7818609E-02  0.8186104E-01
       -2   -1    0    0    0  501  0.00000000000E+00  0.00000000000E+00  0.12901527097E+04  0.12901527097E+04  0.25500000920E-02 0. -1.
        2   -1    0    0  501    0  0.00000000000E+00  0.00000000000E+00 -0.19970463707E+04  0.19970463707E+04  0.25500000920E-02 0.  1.
    10030    2    1    2    0    0  0.00000000000E+00  0.00000000000E+00 -0.70689366097E+03  0.32871990804E+04  0.32102926886E+04 0.  0.
        4    1    3    3  502    0 -0.14892926174E+04 -0.48635849188E+03  0.41413245211E+01  0.15667022201E+04  0.12699999809E+01 0. -1.
       -4    1    3    3    0  502  0.14892926174E+04  0.48635849188E+03 -0.71103498549E+03  0.17204968604E+04  0.12699999809E+01 0.  1.
</event>
<event>
 5   0  0.5373060E-06  0.3261764E+04  0.7818609E-02  0.8172693E-01
       -2   -1    0    0    0  501  0.00000000000E+00  0.00000000000E+00  0.11970214230E+04  0.11970214230E+04  0.25500000920E-02 0.  1.
        2   -1    0    0  501    0  0.00000000000E+00  0.00000000000E+00 -0.22219947486E+04  0.22219947486E+04  0.25500000920E-02 0. -1.
    10030    2    1    2    0    0  0.00000000000E+00  0.00000000000E+00 -0.10249733256E+04  0.34190161717E+04  0.32617635205E+04 0.  0.
        5    1    3    3  502    0 -0.99918039314E+03  0.12777315576E+04 -0.69035491509E+03  0.17628305052E+04  0.46999998093E+01 0.  1.
       -5    1    3    3    0  502  0.99918039314E+03 -0.12777315576E+04 -0.33461841048E+03  0.16561856665E+04  0.46999998093E+01 0. -1.
</event>
<event>
 5   0  0.1977015E-06  0.3168631E+04  0.7818609E-02  0.8197151E-01
        1   -1    0    0  501    0  0.00000000000E+00  0.00000000000E+00  0.15397246369E+04  0.15397246369E+04  0.50400001928E-02 0. -1.
       -1   -1    0    0    0  501  0.00000000000E+00  0.00000000000E+00 -0.16301977437E+04  0.16301977437E+04  0.50400001928E-02 0.  1.
    10030    2    1    2    0    0  0.00000000000E+00  0.00000000000E+00 -0.90473106847E+02  0.31699223807E+04  0.31686310161E+04 0.  0.
        1    1    3    3  502    0  0.15366259338E+04 -0.38570608789E+03 -0.37036728846E+02  0.15847271582E+04  0.50400001928E-02 0. -1.
       -1    1    3    3    0  502 -0.15366259338E+04  0.38570608789E+03 -0.53436378001E+02  0.15851952224E+04  0.50400001928E-02 0.  1.
</event>
<event>
 5   0  0.1886248E-06  0.3249053E+04  0.7818609E-02  0.8175981E-01
        1   -1    0    0  501    0  0.00000000000E+00  0.00000000000E+00  0.18027566313E+04  0.18027566314E+04  0.50400001928E-02 0. -1.
       -1   -1    0    0    0  501  0.00000000000E+00  0.00000000000E+00 -0.14639171974E+04  0.14639171974E+04  0.50400001928E-02 0.  1.
    10030    2    1    2    0    0  0.00000000000E+00  0.00000000000E+00  0.33883943400E+03  0.32666738287E+04  0.32490530530E+04 0.  0.
        4    1    3    3  502    0 -0.66711344084E+02  0.14577828445E+04  0.88708609024E+03  0.17077776698E+04  0.12699999809E+01 0. -1.
       -4    1    3    3    0  502  0.66711344084E+02 -0.14577828445E+04 -0.54824665624E+03  0.15588961589E+04  0.12699999809E+01 0.  1.
</event>
<event>
 5   0  0.5347280E-06  0.3153806E+04  0.7818609E-02  0.8201125E-01
        2   -1    0    0  501    0  0.00000000000E+00  0.00000000000E+00  0.20999491047E+04  0.20999491047E+04  0.25500000920E-02 0. -1.
       -2   -1    0    0    0  501  0.00000000000E+00  0.00000000000E+00 -0.11841345703E+04  0.11841345703E+04  0.25500000920E-02 0.  1.
    10030    2    1    2    0    0  0.00000000000E+00  0.00000000000E+00  0.91581453431E+03  0.32840836750E+04  0.31538055303E+04 0.  0.
        2    1    3    3  502    0  0.14537615810E+04 -0.23575127128E+03  0.10447663940E+04  0.18056960471E+04  0.25500000920E-02 0.  1.
       -2    1    3    3    0  502 -0.14537615810E+04  0.23575127128E+03 -0.12895185968E+03  0.14783876279E+04  0.25500000920E-02 0. -1.
</event>
<event>
 5   0  0.5108810E-06  0.3298170E+04  0.7818609E-02  0.8163361E-01
       -2   -1    0    0    0  501  0.00000000000E+00  0.00000000000E+00  0.91720011952E+03  0.91720011952E+03  0.25500000920E-02 0. -1.
        2   -1    0    0  501    0  0.00000000000E+00  0.00000000000E+00 -0.29649814486E+04  0.29649814486E+04  0.25500000920E-02 0.  1.
    10030    2    1    2    0    0  0.00000000000E+00  0.00000000000E+00 -0.20477813291E+04  0.38821815682E+04  0.32981700011E+04 0.  0.
        1    1    3    3  502    0 -0.43616950517E+02 -0.13094586577E+04  0.15488444216E+03  0.13193080023E+04  0.50400001928E-02 0. -1.
       -1    1    3    3    0  502  0.43616950517E+02  0.13094586577E+04 -0.22026657713E+04  0.25628735658E+04  0.50400001928E-02 0.  1.
</event>
<event>
 5   0  0.5108810E-06  0.3072212E+04  0.7818609E-02  0.8223406E-01
        2   -1    0    0  501    0  0.00000000000E+00  0.00000000000E+00  0.21191598047E+04  0.21191598047E+04  0.25500000920E-02 0. -1.
       -2   -1    0    0    0  501  0.00000000000E+00  0.00000000000E+00 -0.11134705939E+04  0.11134705939E+04  0.25500000920E-02 0.  1.
    10030    2    1    2    0    0  0.00000000000E+00  0.00000000000E+00  0.10056892108E+04  0.32326303987E+04  0.30722123145E+04 0.  0.
        1    1    3    3  502    0 -0.10005786853E+04  0.10432858598E+04  0.10496112565E+04  0.17864173310E+04  0.50400001928E-02 0. -1.
       -1    1    3    3    0  502  0.10005786853E+04 -0.10432858598E+04 -0.43922045669E+02  0.14462130676E+04  0.50400001928E-02 0.  1.
</event>
<event>
 5   0  0.1969465E-06  0.3324016E+04  0.7818609E-02  0.8156811E-01
       -1   -1    0    0    0  501  0.00000000000E+00  0.00000000000E+00  0.12987852221E+04  0.12987852222E+04  0.50400001928E-02 0. -1.
        1   -1    0    0  501    0  0.00000000000E+00  0.00000000000E+00 -0.21268114819E+04  0.21268114819E+04  0.50400001928E-02 0.  1.
    10030    2    1    2    0    0  0.00000000000E+00  0.00000000000E+00 -0.82802625975E+03  0.34255967041E+04  0.33240164398E+04 0.  0.
        2    1    3    3  502    0 -0.78667188564E+03  0.12139387135E+04  0.42939229518E+03  0.15089326025E+04  0.25500000920E-02 0. -1.
       -2    1    3    3    0  502  0.78667188564E+03 -0.12139387135E+04 -0.12574185549E+04  0.19166641015E+04  0.25500000920E-02 0.  1.
</event>
<event>
 5   0  0.5373060E-06  0.3242588E+04  0.7818609E-02  0.8177659E-01
        2   -1    0    0  501    0  0.00000000000E+00  0.00000000000E+00  0.26168137864E+04  0.26168137864E+04  0.25500000920E-02 0.  1.
       -2   -1    0    0    0  501  0.00000000000E+00  0.00000000000E+00 -0.10045020416E+04  0.10045020416E+04  0.25500000920E-02 0. -1.
    10030    2    1    2    0    0  0.00000000000E+00  0.00000000000E+00  0.16123117448E+04  0.36213158281E+04  0.32425883433E+04 0.  0.
        5    1    3    3  502    0 -0.15158121030E+04  0.47801411613E+03  0.44879996160E+03  0.16515530032E+04  0.46999998093E+01 0. -1.
       -5    1    3    3    0  502  0.15158121030E+04 -0.47801411613E+03  0.11635117832E+04  0.19697628249E+04  0.46999998093E+01 0.  1.
</event>
<event>
 5   0  0.1886248E-06  0.3229129E+04  0.7818609E-02  0.8181166E-01
       -1   -1    0    0    0  501  0.00000000000E+00  0.00000000000E+00  0.99847250452E+03  0.99847250454E+03  0.50400001928E-02 0. -1.
        1   -1    0    0  501    0  0.00000000000E+00  0.00000000000E+00 -0.26108064540E+04  0.26108064540E+04  0.50400001928E-02 0.  1.
    10030    2    1    2    0    0  0.00000000000E+00  0.00000000000E+00 -0.16123339494E+04  0.36092789585E+04  0.32291289593E+04 0.  0.
        4    1    3    3  502    0  0.14166631104E+04 -0.24057891172E+03 -0.16290467950E+04  0.21722356351E+04  0.12699999809E+01 0.  1.
       -4    1    3    3    0  502 -0.14166631104E+04  0.24057891172E+03  0.16712845594E+02  0.14370433234E+04  0.12699999809E+01 0. -1.
</event>
<event>
 5   0  0.1977015E-06  0.3106195E+04  0.7818609E-02  0.8214040E-01
        1   -1    0    0  501    0  0.00000000000E+00  0.00000000000E+00  0.16231374467E+04  0.16231374468E+04  0.50400001928E-02 0. -1.
       -1   -1    0    0    0  501  0.00000000000E+00  0.00000000000E+00 -0.14860800205E+04  0.14860800205E+04  0.50400001928E-02 0.  1.
    10030    2    1    2    0    0  0.00000000000E+00  0.00000000000E+00  0.13705742627E+03  0.31092174672E+04  0.31061951839E+04 0.  0.
        1    1    3    3  502    0 -0.87392713854E+03 -0.10603131688E+04  0.79318024972E+03  0.15865521006E+04  0.50400001928E-02 0. -1.
       -1    1    3    3    0  502  0.87392713854E+03  0.10603131688E+04 -0.65612282344E+03  0.15226653667E+04  0.50400001928E-02 0.  1.
</event>
<event>
 5   0  0.1977015E-06  0.3155412E+04  0.7818609E-02  0.8200693E-01
       -1   -1    0    0    0  501  0.00000000000E+00  0.00000000000E+00  0.11439871661E+04  0.11439871661E+04  0.50400001928E-02 0. -1.
        1   -1    0    0  501    0  0.00000000000E+00  0.00000000000E+00 -0.21758605112E+04  0.21758605112E+04  0.50400001928E-02 0.  1.
    10030    2    1    2    0    0  0.00000000000E+00  0.00000000000E+00 -0.10318733451E+04  0.33198476773E+04  0.31554121760E+04 0.  0.
        1    1    3    3  502    0  0.11557783250E+04  0.10186167251E+04 -0.15798198138E+03  0.15486645459E+04  0.50400001928E-02 0.  1.
       -1    1    3    3    0  502 -0.11557783250E+04 -0.10186167251E+04 -0.87389136369E+03  0.17711831314E+04  0.50400001928E-02 0. -1.
</event>
<event>
 5   0  0.1969465E-06  0.2751158E+04  0.7818609E-02  0.8318594E-01
       -1   -1    0    0    0  501  0.00000000000E+00  0.00000000000E+00  0.13712410875E+04  0.13712410875E+04  0.50400001928E-02 0.  1.
        1   -1    0    0  501    0  0.00000000000E+00  0.00000000000E+00 -0.13799305414E+04  0.13799305414E+04  0.50400001928E-02 0. -1.
    10030    2    1    2    0    0  0.00000000000E+00  0.00000000000E+00 -0.86894539660E+01  0.27511716289E+04  0.27511579062E+04 0.  0.
        2    1    3    3  502    0  0.87308293361E+03  0.62882207529E+03 -0.86139418445E+03  0.13782927673E+04  0.25500000920E-02 0. -1.
       -2    1    3    3    0  502 -0.87308293361E+03 -0.62882207529E+03  0.85270473048E+03  0.13728788616E+04  0.25500000920E-02 0.  1.
</event>
<event>
 5   0  0.1881144E-06  0.3248391E+04  0.7818609E-02  0.8176153E-01
       -1   -1    0    0    0  501  0.00000000000E+00  0.00000000000E+00  0.15538446257E+04  0.15538446257E+04  0.50400001928E-02 0.  1.
        1   -1    0    0  501    0  0.00000000000E+00  0.00000000000E+00 -0.16977315562E+04  0.16977315562E+04  0.50400001928E-02 0. -1.
    10030    2    1    2    0    0  0.00000000000E+00  0.00000000000E+00 -0.14388693050E+03  0.32515761820E+04  0.32483910199E+04 0.  0.
        3    1    3    3  502    0 -0.25407378695E+03 -0.44501914616E+03 -0.16146930094E+04  0.16940569809E+04  0.10100000352E+00 0. -1.
       -3    1    3    3    0  502  0.25407378695E+03  0.44501914616E+03  0.14708060789E+04  0.15575192011E+04  0.10100000352E+00 0.  1.
</event>
<event>
 5   0  0.5108810E-06  0.3167325E+04  0.7818609E-02  0.8197500E-01
        2   -1    0    0  501    0  0.00000000000E+00  0.00000000000E+00  0.11156844769E+04  0.11156844769E+04  0.25500000920E-02 0. -1.
       -2   -1    0    0    0  501  0.00000000000E+00  0.00000000000E+00 -0.22479360300E+04  0.22479360300E+04  0.25500000920E-02 0.  1.
    10030    2    1    2    0    0  0.00000000000E+00  0.00000000000E+00 -0.11322515531E+04  0.33636205070E+04  0.31673252652E+04 0.  0.
        1    1    3    3  502    0  0.42022516524E+03  0.89980675935E+03  0.74391677549E+03  0.12408277731E+04  0.50400001928E-02 0. -1.
       -1    1    3    3    0  502 -0.42022516524E+03 -0.89980675935E+03 -0.18761683286E+04  0.21227927338E+04  0.50400001928E-02 0.  1.
</event>
<event>
 5   0  0.1881144E-06  0.3202353E+04  0.7818609E-02  0.8188196E-01
        1   -1    0    0  501    0  0.00000000000E+00  0.00000000000E+00  0.18273062433E+04  0.18273062433E+04  0.50400001928E-02 0.  1.
       -1   -1    0    0    0  501  0.00000000000E+00  0.00000000000E+00 -0.14030307614E+04  0.14030307614E+04  0.50400001928E-02 0. -1.
    10030    2    1    2    0    0  0.00000000000E+00  0.00000000000E+00  0.42427548190E+03  0.32303370047E+04  0.32023534283E+04 0.  0.
        3    1    3    3  502    0  0.15563798628E+03 -0.15019150872E+04 -0.32524132987E+03  0.15445886329E+04  0.10100000352E+00 0. -1.
       -3    1    3    3    0  502 -0.15563798628E+03  0.15019150872E+04  0.74951681176E+03  0.16857483719E+04  0.10100000352E+00 0.  1.
</event>
<event>
 5   0  0.5121624E-06  0.3247686E+04  0.7818609E-02  0.8176336E-01
        2   -1    0    0  501    0  0.00000000000E+00  0.00000000000E+00  0.12596239119E+04  0.12596239119E+04  0.25500000920E-02 0.  1.
       -2   -1    0    0    0  501  0.00000000000E+00  0.00000000000E+00 -0.20933761424E+04  0.20933761424E+04  0.25500000920E-02 0. -1.
    10030    2    1    2    0    0  0.00000000000E+00  0.00000000000E+00 -0.83375223049E+03  0.33530000543E+04  0.32476863430E+04 0.  0.
        4    1    3    3  502    0  0.16147822057E+04 -0.17851902096E+02 -0.59276722081E+03  0.17202368596E+04  0.12699999809E+01 0. -1.
       -4    1    3    3    0  502 -0.16147822057E+04  0.17851902096E+02 -0.24098500968E+03  0.16327631947E+04  0.12699999809E+01 0.  1.
</event>
<event>
 5   0  0.5131083E-06  0.3206562E+04  0.7818609E-02  0.8187086E-01
       -2   -1    0    0    0  501  0.00000000000E+00  0.00000000000E+00  0.13591410331E+04  0.13591410331E+04  0.25500000920E-02 0.  1.
        2   -1    0    0  501    0  0.00000000000E+00  0.00000000000E+00 -0.18912749670E+04  0.18912749670E+04  0.25500000920E-02 0. -1.
    10030    2    1    2    0    0  0.00000000000E+00  0.00000000000E+00 -0.53213393390E+03  0.32504160001E+04  0.32065616555E+04 0.  0.
        3    1    3    3  502    0 -0.91617345925E+03 -0.11526287338E+03 -0.15946600285E+04  0.18427153752E+04  0.10100000352E+00 0. -1.
       -3    1    3    3    0  502  0.91617345925E+03  0.11526287338E+03  0.10625260946E+04  0.14077006249E+04  0.10100000352E+00 0.  1.
</event>
<event>
 5   0  0.5347280E-06  0.3174386E+04  0.7818609E-02  0.8195615E-01
       -2   -1    0    0    0  501  0.00000000000E+00  0.00000000000E+00  0.99959979684E+03  0.99959979684E+03  0.25500000920E-02 0. -1.
        2   -1    0    0  501    0  0.00000000000E+00  0.00000000000E+00 -0.25201897946E+04  0.25201897946E+04  0.25500000920E-02 0.  1.
    10030    2    1    2    0    0  0.00000000000E+00  0.00000000000E+00 -0.15205899978E+04  0.35197895915E+04  0.31743857401E+04 0.  0.
        2    1    3    3  502    0  0.10901131997E+03 -0.14509226387E+03  0.98805770512E+03  0.10045861146E+04  0.25500000920E-02 0. -1.
       -2    1    3    3    0  502 -0.10901131997E+03  0.14509226387E+03 -0.25086477029E+04  0.25152034769E+04  0.25500000920E-02 0.  1.
</event>
<event>
 5   0  0.1846850E-06  0.3264659E+04  0.7818609E-02  0.8171947E-01
        1   -1    0    0  501    0  0.00000000000E+00  0.00000000000E+00  0.22942714710E+04  0.22942714710E+04  0.50400001928E-02 0.  1.
       -1   -1    0    0    0  501  0.00000000000E+00  0.00000000000E+00 -0.11613705232E+04  0.11613705232E+04  0.50400001928E-02 0. -1.
    10030    2    1    2    0    0  0.00000000000E+00  0.00000000000E+00  0.11329009477E+04  0.34556419942E+04  0.32646587930E+04 0.  0.
        5    1    3    3  502    0  0.14058922273E+03  0.77084424320E+03 -0.94928004938E+03  0.12309024653E+04  0.46999998093E+01 0. -1.
       -5    1    3    3    0  502 -0.14058922273E+03 -0.77084424320E+03  0.20821809971E+04  0.22247395289E+04  0.46999998093E+01 0.  1.
</event>
<event>
 5   0  0.1977015E-06  0.3198225E+04  0.7818609E-02  0.8189286E-01
       -1   -1    0    0    0  501  0.00000000000E+00  0.00000000000E+00  0.17616062379E+04  0.17616062379E+04  0.50400001928E-02 0. -1.
        1   -1    0    0  501    0  0.00000000000E+00  0.00000000000E+00 -0.14516075592E+04  0.14516075592E+04  0.50400001928E-02 0.  1.
    10030    2    1    2    0    0  0.00000000000E+00  0.00000000000E+00  0.30999867873E+03  0.32132137971E+04  0.31982250898E+04 0.  0.
        1    1    3    3  502    0  0.12150313312E+04 -0.10206606352E+04  0.35369287587E+03  0.16257760973E+04  0.50400001928E-02 0. -1.
       -1    1    3    3    0  502 -0.12150313312E+04  0.10206606352E+04 -0.43694197135E+02  0.15874376998E+04  0.50400001928E-02 0.  1.
</event>
<event>
 5   0  0.5121624E-06  0.2386581E+04  0.7818609E-02  0.8444545E-01
       -2   -1    0    0    0  501  0.00000000000E+00  0.00000000000E+00  0.92380367237E+03  0.92380367238E+03  0.25500000920E-02 0. -1.
        2   -1    0    0  501    0  0.00000000000E+00  0.00000000000E+00 -0.15413900677E+04  0.15413900677E+04  0.25500000920E-02 0.  1.
    10030    2    1    2    0    0  0.00000000000E+00  0.00000000000E+00 -0.61758639529E+03  0.24651937400E+04  0.23865806545E+04 0.  0.
        4    1    3    3  502    0 -0.11421683847E+04  0.24797394921E+03 -0.60241877739E+02  0.11703291824E+04  0.12699999809E+01 0. -1.
       -4    1    3    3    0  502  0.11421683847E+04 -0.24797394921E+03 -0.55734451755E+03  0.12948645576E+04  0.12699999809E+01 0.  1.
</event>
<event>
 5   0  0.5121624E-06  0.3434208E+04  0.7818609E-02  0.8129561E-01
        2   -1    0    0  501    0  0.00000000000E+00  0.00000000000E+00  0.22972979205E+04  0.22972979205E+04  0.25500000920E-02 0. -1.
       -2   -1    0    0    0  501  0.00000000000E+00  0.00000000000E+00 -0.12834407678E+04  0.12834407678E+04  0.25500000920E-02 0.  1.
    10030    2    1    2    0    0  0.00000000000E+00  0.00000000000E+00  0.10138571527E+04  0.35807386884E+04  0.34342078021E+04 0.  0.
        4    1    3    3  502    0 -0.96904104859E+03 -0.60221682337E+03  0.18449355677E+04  0.21692151848E+04  0.12699999809E+01 0. -1.
       -4    1    3    3    0  502  0.96904104859E+03  0.60221682337E+03 -0.83107841503E+03  0.14115235035E+04  0.12699999809E+01 0.  1.
</event>
<event>
 5   0  0.5373060E-06  0.2043814E+04  0.7818609E-02  0.8586406E-01
        2   -1    0    0  501    0  0.00000000000E+00  0.00000000000E+00  0.16188734991E+04  0.16188734991E+04  0.25500000920E-02 0. -1.
       -2   -1    0    0    0  501  0.00000000000E+00  0.00000000000E+00 -0.64507439462E+03  0.64507439462E+03  0.25500000920E-02 0.  1.
    10030    2    1    2    0    0  0.00000000000E+00  0.00000000000E+00  0.97379910448E+03  0.22639478937E+04  0.20438139273E+04 0.  0.
        5    1    3    3  502    0 -0.69332874512E+03  0.80326542777E+02  0.13136936397E+04  0.14876055160E+04  0.46999998093E+01 0. -1.
       -5    1    3    3    0  502  0.69332874512E+03 -0.80326542777E+02 -0.33989453526E+03  0.77634237767E+03  0.46999998093E+01 0.  1.
</event>
<event>
 5   0  0.5131083E-06  0.2526449E+04  0.7818609E-02  0.8393623E-01
       -2   -1    0    0    0  501  0.00000000000E+00  0.00000000000E+00  0.11713867574E+04  0.11713867574E+04  0.25500000920E-02 0.  1.
        2   -1    0    0  501    0  0.00000000000E+00  0.00000000000E+00 -0.13622622044E+04  0.13622622044E+04  0.25500000920E-02 0. -1.
    10030    2    1    2    0    0  0.00000000000E+00  0.00000000000E+00 -0.19087544700E+03  0.25336489618E+04  0.25264488171E+04 0.  0.
        3    1    3    3  502    0 -0.76898626197E+03 -0.60407634793E+03 -0.89739654199E+03  0.13272409988E+04  0.10100000352E+00 0. -1.
       -3    1    3    3    0  502  0.76898626197E+03  0.60407634793E+03  0.70652109499E+03  0.12064079630E+04  0.10100000352E+00 0.  1.
</event>
<event>
 5   0  0.5121624E-06  0.3676105E+04  0.7818609E-02  0.8073278E-01
        2   -1    0    0  501    0  0.00000000000E+00  0.00000000000E+00  0.25385306216E+04  0.25385306216E+04  0.25500000920E-02 0.  1.
       -2   -1    0    0    0  501  0.00000000000E+00  0.00000000000E+00 -0.13308630252E+04  0.13308630252E+04  0.25500000920E-02 0. -1.
    10030    2    1    2    0    0  0.00000000000E+00  0.00000000000E+00  0.12076675965E+04  0.38693936468E+04  0.36761047551E+04 0.  0.
        4    1    3    3  502    0 -0.15644030050E+03  0.16708091220E+04 -0.18550157755E+03  0.16883391656E+04  0.12699999809E+01 0. -1.
       -4    1    3    3    0  502  0.15644030050E+03 -0.16708091220E+04  0.13931691740E+04  0.21810544812E+04  0.12699999809E+01 0.  1.
</event>
<event>
 5   0  0.1846850E-06  0.2404293E+04  0.7818609E-02  0.8437898E-01
       -1   -1    0    0    0  501  0.00000000000E+00  0.00000000000E+00  0.91398744467E+03  0.91398744469E+03  0.50400001928E-02 0. -1.
        1   -1    0    0  501    0  0.00000000000E+00  0.00000000000E+00 -0.15811549106E+04  0.15811549106E+04  0.50400001928E-02 0.  1.
    10030    2    1    2    0    0  0.00000000000E+00  0.00000000000E+00 -0.66716746596E+03  0.24951423553E+04  0.24042926082E+04 0.  0.
        5    1    3    3  502    0  0.16626912681E+03  0.56289851980E+03  0.75516927281E+03  0.95645328518E+03  0.46999998093E+01 0. -1.
       -5    1    3    3    0  502 -0.16626912681E+03 -0.56289851980E+03 -0.14223367388E+04  0.15386890701E+04  0.46999998093E+01 0.  1.
</event>
<event>
 5   0  0.1969465E-06  0.3223681E+04  0.7818609E-02  0.8182591E-01
       -1   -1    0    0    0  501  0.00000000000E+00  0.00000000000E+00  0.30194101369E+04  0.30194101369E+04  0.50400001928E-02 0. -1.
        1   -1    0    0  501    0  0.00000000000E+00  0.00000000000E+00 -0.86044298169E+03  0.86044298170E+03  0.50400001928E-02 0.  1.
    10030    2    1    2    0    0  0.00000000000E+00  0.00000000000E+00  0.21589671552E+04  0.38798531186E+04  0.32236812877E+04 0.  0.
        2    1    3    3  502    0 -0.21426489606E+03 -0.51427952639E+03  0.28998414607E+04  0.29528754417E+04  0.25500000920E-02 0. -1.
       -2    1    3    3    0  502  0.21426489606E+03  0.51427952639E+03 -0.74087430549E+03  0.92697767691E+03  0.25500000920E-02 0.  1.
</event>
<event>
 5   0  0.5121624E-06  0.3190133E+04  0.7818609E-02  0.8191428E-01
        2   -1    0    0  501    0  0.00000000000E+00  0.00000000000E+00  0.22745024429E+04  0.22745024429E+04  0.25500000920E-02 0.  1.
       -2   -1    0    0    0  501  0.00000000000E+00  0.00000000000E+00 -0.11185903854E+04  0.11185903854E+04  0.25500000920E-02 0. -1.
    10030    2    1    2    0    0  0.00000000000E+00  0.00000000000E+00  0.11559120574E+04  0.33930928283E+04  0.31901326394E+04 0.  0.
        4    1    3    3  502    0  0.21865651889E+02  0.50321963750E+03  0.21876921647E+04  0.22449291148E+04  0.12699999809E+01 0.  1.
       -4    1    3    3    0  502 -0.21865651889E+02 -0.50321963750E+03 -0.10317801073E+04  0.11481637135E+04  0.12699999809E+01 0. -1.
</event>
<event>
 5   0  0.5131083E-06  0.3206816E+04  0.7818609E-02  0.8187020E-01
        2   -1    0    0  501    0  0.00000000000E+00  0.00000000000E+00  0.14113282226E+04  0.14113282226E+04  0.25500000920E-02 0.  1.
       -2   -1    0    0    0  501  0.00000000000E+00  0.00000000000E+00 -0.18216290243E+04  0.18216290243E+04  0.25500000920E-02 0. -1.
    10030    2    1    2    0    0  0.00000000000E+00  0.00000000000E+00 -0.41030080167E+03  0.32329572469E+04  0.32068155252E+04 0.  0.
        3    1    3    3  502    0 -0.83245893046E+03  0.12838538746E+04 -0.68827275100E+03  0.16777926071E+04  0.10100000352E+00 0. -1.
       -3    1    3    3    0  502  0.83245893046E+03 -0.12838538746E+04  0.27797194933E+03  0.15551646399E+04  0.10100000352E+00 0.  1.
</event>
<event>
 5   0  0.1729500E-06  0.3237595E+04  0.7818609E-02  0.8178958E-01
       -3   -1    0    0    0  501  0.00000000000E+00  0.00000000000E+00  0.12687701034E+04  0.12687701075E+04  0.10100000352E+00 0.  1.
        3   -1    0    0  501    0  0.00000000000E+00  0.00000000000E+00 -0.20653904218E+04  0.20653904243E+04  0.10100000352E+00 0. -1.
    10030    2    1    2    0    0  0.00000000000E+00  0.00000000000E+00 -0.79662031836E+03  0.33341605317E+04  0.32375951754E+04 0.  0.
        3    1    3    3  502    0 -0.99487377440E+03 -0.12720495025E+04 -0.28261223391E+03  0.16394369304E+04  0.10100000352E+00 0.  1.
       -3    1    3    3    0  502  0.99487377440E+03  0.12720495025E+04 -0.51400808446E+03  0.16947236013E+04  0.10100000352E+00 0. -1.
</event>
<event>
 5   0  0.5347280E-06  0.2718521E+04  0.7818609E-02  0.8329021E-01
        2   -1    0    0  501    0  0.00000000000E+00  0.00000000000E+00  0.13358398724E+04  0.13358398724E+04  0.25500000920E-02 0.  1.
       -2   -1    0    0    0  501  0.00000000000E+00  0.00000000000E+00 -0.13830916162E+04  0.13830916162E+04  0.25500000920E-02 0. -1.
    10030    2    1    2    0    0  0.00000000000E+00  0.00000000000E+00 -0.47251743769E+02  0.27189314886E+04  0.27185208685E+04 0.  0.
        2    1    3    3  502    0  0.25284635805E+02 -0.13432508113E+04  0.18286807830E+03  0.13558771290E+04  0.25500000920E-02 0.  1.
       -2    1    3    3    0  502 -0.25284635805E+02  0.13432508113E+04 -0.23011982206E+03  0.13630543596E+04  0.25500000920E-02 0. -1.
</event>
<event>
 5   0  0.5121624E-06  0.3207608E+04  0.7818609E-02  0.8186811E-01
        2   -1    0    0  501    0  0.00000000000E+00  0.00000000000E+00  0.16468562927E+04  0.16468562927E+04  0.25500000920E-02 0.  1.
       -2   -1    0    0    0  501  0.00000000000E+00  0.00000000000E+00 -0.15618774815E+04  0.15618774815E+04  0.25500000920E-02 0. -1.
    10030    2    1    2    0    0  0.00000000000E+00  0.00000000000E+00  0.84978811201E+02  0.32087337743E+04  0.32076083046E+04 0.  0.
        4    1    3    3  502    0 -0.15903024357E+04 -0.19656890774E+03  0.10948284812E+03  0.16061411145E+04  0.12699999809E+01 0. -1.
       -4    1    3    3    0  502  0.15903024357E+04  0.19656890774E+03 -0.24504036917E+02  0.16025926598E+04  0.12699999809E+01 0.  1.
</event>
<event>
 5   0  0.1977015E-06  0.2997439E+04  0.7818609E-02  0.8244463E-01
       -1   -1    0    0    0  501  0.00000000000E+00  0.00000000000E+00  0.92878463534E+03  0.92878463535E+03  0.50400001928E-02 0.  1.
        1   -1    0    0  501    0  0.00000000000E+00  0.00000000000E+00 -0.24183856874E+04  0.24183856874E+04  0.50400001928E-02 0. -1.
    10030    2    1    2    0    0  0.00000000000E+00  0.00000000000E+00 -0.14896010521E+04  0.33471703228E+04  0.29974385524E+04 0.  0.
        1    1    3    3  502    0 -0.40168990742E+03  0.48116710717E+03 -0.22649923169E+04  0.23501205846E+04  0.50400001928E-02 0. -1.
       -1    1    3    3    0  502  0.40168990742E+03 -0.48116710717E+03  0.77539126481E+03  0.99704973813E+03  0.50400001928E-02 0.  1.
</event>
<event>
 5   0  0.5347280E-06  0.3157666E+04  0.7818609E-02  0.8200088E-01
       -2   -1    0    0    0  501  0.00000000000E+00  0.00000000000E+00  0.11711159565E+04  0.11711159565E+04  0.25500000920E-02 0.  1.
        2   -1    0    0  501    0  0.00000000000E+00  0.00000000000E+00 -0.21284947810E+04  0.21284947810E+04  0.25500000920E-02 0. -1.
    10030    2    1    2    0    0  0.00000000000E+00  0.00000000000E+00 -0.95737882454E+03  0.32996107375E+04  0.31576663544E+04 0.  0.
        2    1    3    3  502    0 -0.14697419856E+04 -0.49219598055E+03 -0.16465418485E+03  0.15586883550E+04  0.25500000920E-02 0. -1.
       -2    1    3    3    0  502  0.14697419856E+04  0.49219598055E+03 -0.79272463970E+03  0.17409223825E+04  0.25500000920E-02 0.  1.
</event>
<event>
 5   0  0.1846850E-06  0.3142140E+04  0.7818609E-02  0.8204267E-01
       -1   -1    0    0    0  501  0.00000000000E+00  0.00000000000E+00  0.15677422794E+04  0.15677422795E+04  0.50400001928E-02 0.  1.
        1   -1    0    0  501    0  0.00000000000E+00  0.00000000000E+00 -0.15744046523E+04  0.15744046524E+04  0.50400001928E-02 0. -1.
    10030    2    1    2    0    0  0.00000000000E+00  0.00000000000E+00 -0.66623729053E+01  0.31421469318E+04  0.31421398686E+04 0.  0.
        5    1    3    3  502    0  0.13882250845E+04  0.29181476362E+03 -0.67854667544E+03  0.15725051422E+04  0.46999998093E+01 0. -1.
       -5    1    3    3    0  502 -0.13882250845E+04 -0.29181476362E+03  0.67188430254E+03  0.15696417896E+04  0.46999998093E+01 0.  1.
</event>
<event>
 5   0  0.1881144E-06  0.3190376E+04  0.7818609E-02  0.8191363E-01
       -1   -1    0    0    0  501  0.00000000000E+00  0.00000000000E+00  0.14016177669E+04  0.14016177669E+04  0.50400001928E-02 0. -1.
        1   -1    0    0  501    0  0.00000000000E+00  0.00000000000E+00 -0.18154911730E+04  0.18154911730E+04  0.50400001928E-02 0.  1.
    10030    2    1    2    0    0  0.00000000000E+00  0.00000000000E+00 -0.41387340605E+03  0.32171089399E+04  0.31903759551E+04 0.  0.
        3    1    3    3  502    0  0.44803528531E+03 -0.13019194206E+03  0.13312760724E+04  0.14106670585E+04  0.10100000352E+00 0. -1.
       -3    1    3    3    0  502 -0.44803528531E+03  0.13019194206E+03 -0.17451494785E+04  0.18064418814E+04  0.10100000352E+00 0.  1.
</event>
<event>
 5   0  0.5373060E-06  0.3242612E+04  0.7818609E-02  0.8177653E-01
        2   -1    0    0  501    0  0.00000000000E+00  0.00000000000E+00  0.25911583445E+04  0.25911583445E+04  0.25500000920E-02 0.  1.
       -2   -1    0    0    0  501  0.00000000000E+00  0.00000000000E+00 -0.10144623292E+04  0.10144623292E+04  0.25500000920E-02 0. -1.
    10030    2    1    2    0    0  0.00000000000E+00  0.00000000000E+00  0.15766960154E+04  0.36056206737E+04  0.32426116199E+04 0.  0.
        5    1    3    3  502    0  0.10417674489E+04  0.83293458731E+03  0.18132440758E+04  0.22509854759E+04  0.46999998093E+01 0.  1.
       -5    1    3    3    0  502 -0.10417674489E+04 -0.83293458731E+03 -0.23654806038E+03  0.13546351978E+04  0.46999998093E+01 0. -1.
</event>
<event>
 5   0  0.1846850E-06  0.3043224E+04  0.7818609E-02  0.8231495E-01
       -1   -1    0    0    0  501  0.00000000000E+00  0.00000000000E+00  0.18515371781E+04  0.18515371781E+04  0.50400001928E-02 0. -1.
        1   -1    0    0  501    0  0.00000000000E+00  0.00000000000E+00 -0.12504761880E+04  0.12504761880E+04  0.50400001928E-02 0.  1.
    10030    2    1    2    0    0  0.00000000000E+00  0.00000000000E+00  0.60106099012E+03  0.31020133661E+04  0.30432240486E+04 0.  0.
        5    1    3    3  502    0 -0.94446960723E+02 -0.13601343550E+04  0.98915163793E+03  0.16844372190E+04  0.46999998093E+01 0. -1.
       -5    1    3    3    0  502  0.94446960723E+02  0.13601343550E+04 -0.38809064782E+03  0.14175761471E+04  0.46999998093E+01 0.  1.
</event>
<event>
 5   0  0.5131083E-06  0.3129831E+04  0.7818609E-02  0.8207599E-01
        2   -1    0    0  501    0  0.00000000000E+00  0.00000000000E+00  0.18240278509E+04  0.18240278509E+04  0.25500000920E-02 0. -1.
       -2   -1    0    0    0  501  0.00000000000E+00  0.00000000000E+00 -0.13426110101E+04  0.13426110101E+04  0.25500000920E-02 0.  1.
    10030    2    1    2    0    0  0.00000000000E+00  0.00000000000E+00  0.48141684073E+03  0.31666388610E+04  0.31298305867E+04 0.  0.
        3    1    3    3  502    0  0.32728674688E+03 -0.12987493338E+04 -0.57818866398E+03  0.14588243856E+04  0.10100000352E+00 0.  1.
       -3    1    3    3    0  502 -0.32728674688E+03  0.12987493338E+04  0.10596055047E+04  0.17078144754E+04  0.10100000352E+00 0. -1.
</event>
<event>
 5   0  0.1977015E-06  0.3209280E+04  0.7818609E-02  0.8186371E-01
        1   -1    0    0  501    0  0.00000000000E+00  0.00000000000E+00  0.20643972878E+04  0.20643972878E+04  0.50400001928E-02 0.  1.
       -1   -1    0    0    0  501  0.00000000000E+00  0.00000000000E+00 -0.12472740210E+04  0.12472740210E+04  0.50400001928E-02 0. -1.
    10030    2    1    2    0    0  0.00000000000E+00  0.00000000000E+00  0.81712326687E+03  0.33116713088E+04  0.32092797361E+04 0.  0.
        1    1    3    3  502    0  0.73556987310E+03 -0.97439202565E+03 -0.66599088722E+03  0.13907000826E+04  0.50400001928E-02 0. -1.
       -1    1    3    3    0  502 -0.73556987310E+03  0.97439202565E+03  0.14831141541E+04  0.19209712262E+04  0.50400001928E-02 0.  1.
</event>
<event>
 5   0  0.1846850E-06  0.3238037E+04  0.7818609E-02  0.8178843E-01
       -1   -1    0    0    0  501  0.00000000000E+00  0.00000000000E+00  0.18199202407E+04  0.18199202407E+04  0.50400001928E-02 0. -1.
        1   -1    0    0  501    0  0.00000000000E+00  0.00000000000E+00 -0.14402941524E+04  0.14402941524E+04  0.50400001928E-02 0.  1.
    10030    2    1    2    0    0  0.00000000000E+00  0.00000000000E+00  0.37962608832E+03  0.32602143930E+04  0.32380367388E+04 0.  0.
        5    1    3    3  502    0 -0.14968277059E+04 -0.15371447762E+02 -0.43123326595E+03  0.15577912832E+04  0.46999998093E+01 0.  1.
       -5    1    3    3    0  502  0.14968277059E+04  0.15371447762E+02  0.81085935427E+03  0.17024231098E+04  0.46999998093E+01 0. -1.
</event>
<event>
 5   0  0.5131083E-06  0.3056756E+04  0.7818609E-02  0.8227707E-01
       -2   -1    0    0    0  501  0.00000000000E+00  0.00000000000E+00  0.10918913527E+04  0.10918913527E+04  0.25500000920E-02 0.  1.
        2   -1    0    0  501    0  0.00000000000E+00  0.00000000000E+00 -0.21393508381E+04  0.21393508381E+04  0.25500000920E-02 0. -1.
    10030    2    1    2    0    0  0.00000000000E+00  0.00000000000E+00 -0.10474594854E+04  0.32312421908E+04  0.30567555875E+04 0.  0.
        3    1    3    3  502    0 -0.59897842729E+03 -0.13437927623E+04 -0.96134716127E+03  0.17574818687E+04  0.10100000352E+00 0. -1.
       -3    1    3    3    0  502  0.59897842729E+03  0.13437927623E+04 -0.86112324159E+02  0.14737603220E+04  0.10100000352E+00 0.  1.
</event>
<event>
 5   0  0.5373060E-06  0.3043882E+04  0.7818609E-02  0.8231310E-01
       -2   -1    0    0    0  501  0.00000000000E+00  0.00000000000E+00  0.20704679400E+04  0.20704679400E+04  0.25500000920E-02 0. -1.
        2   -1    0    0  501    0  0.00000000000E+00  0.00000000000E+00 -0.11187346776E+04  0.11187346776E+04  0.25500000920E-02 0.  1.
    10030    2    1    2    0    0  0.00000000000E+00  0.00000000000E+00  0.95173326241E+03  0.31892026176E+04  0.30438819185E+04 0.  0.
        5    1    3    3  502    0 -0.11685611644E+04  0.25506985758E+03 -0.51017281878E+03  0.13003438862E+04  0.46999998093E+01 0.  1.
       -5    1    3    3    0  502  0.11685611644E+04 -0.25506985758E+03  0.14619060812E+04  0.18888587315E+04  0.46999998093E+01 0. -1.
</event>
<event>
 5   0  0.5373060E-06  0.3191667E+04  0.7818609E-02  0.8191021E-01
        2   -1    0    0  501    0  0.00000000000E+00  0.00000000000E+00  0.16744713080E+04  0.16744713080E+04  0.25500000920E-02 0. -1.
       -2   -1    0    0    0  501  0.00000000000E+00  0.00000000000E+00 -0.15208892050E+04  0.15208892050E+04  0.25500000920E-02 0.  1.
    10030    2    1    2    0    0  0.00000000000E+00  0.00000000000E+00  0.15358210298E+03  0.31953605130E+04  0.31916674867E+04 0.  0.
        5    1    3    3  502    0 -0.11580739712E+04 -0.14995114705E+03 -0.10121450897E+04  0.15453415292E+04  0.46999998093E+01 0.  1.
       -5    1    3    3    0  502  0.11580739712E+04  0.14995114705E+03  0.11657271927E+04  0.16500189838E+04  0.46999998093E+01 0. -1.
</event>
<event>
 5   0  0.1886248E-06  0.3293376E+04  0.7818609E-02  0.8164583E-01
        1   -1    0    0  501    0  0.00000000000E+00  0.00000000000E+00  0.12275416880E+04  0.12275416880E+04  0.50400001928E-02 0.  1.
       -1   -1    0    0    0  501  0.00000000000E+00  0.00000000000E+00 -0.22089529764E+04  0.22089529764E+04  0.50400001928E-02 0. -1.
    10030    2    1    2    0    0  0.00000000000E+00  0.00000000000E+00 -0.98141128843E+03  0.34364946644E+04  0.32933763012E+04 0.  0.
        4    1    3    3  502    0  0.15579029776E+04 -0.25360681403E+03 -0.10563938181E+01  0.15784108567E+04  0.12699999809E+01 0. -1.
       -4    1    3    3    0  502 -0.15579029776E+04  0.25360681403E+03 -0.98035489461E+03  0.18580838076E+04  0.12699999809E+01 0.  1.
</event>
<event>
 5   0  0.1729500E-06  0.3060098E+04  0.7818609E-02  0.8226775E-01
        3   -1    0    0  501    0  0.00000000000E+00  0.00000000000E+00  0.10335699914E+04  0.10335699964E+04  0.10100000352E+00 0. -1.
       -3   -1    0    0    0  501  0.00000000000E+00  0.00000000000E+00 -0.22650137782E+04  0.22650137804E+04  0.10100000352E+00 0.  1.
    10030    2    1    2    0    0  0.00000000000E+00  0.00000000000E+00 -0.12314437868E+04  0.32985837768E+04  0.30600982227E+04 0.  0.
        4    1    3    3  502    0  0.46134366031E+03  0.31287870831E+03 -0.21516615121E+04  0.22226965457E+04  0.12699999809E+01 0.  1.
       -4    1    3    3    0  502 -0.46134366031E+03 -0.31287870831E+03  0.92021772532E+03  0.10758872310E+04  0.12699999809E+01 0. -1.
</event>
<event>
 5   0  0.1886248E-06  0.3134634E+04  0.7818609E-02  0.8206297E-01
        1   -1    0    0  501    0  0.00000000000E+00  0.00000000000E+00  0.20547448192E+04  0.20547448192E+04  0.50400001928E-02 0. -1.
       -1   -1    0    0    0  501  0.00000000000E+00  0.00000000000E+00 -0.11955171278E+04  0.11955171278E+04  0.50400001928E-02 0.  1.
    10030    2    1    2    0    0  0.00000000000E+00  0.00000000000E+00  0.85922769140E+03  0.32502619470E+04  0.31346340294E+04 0.  0.
        4    1    3    3  502    0  0.88458083576E+03  0.11730285127E+04 -0.13641818846E+03  0.14754967576E+04  0.12699999809E+01 0.  1.
       -4    1    3    3    0  502 -0.88458083576E+03 -0.11730285127E+04  0.99564587986E+03  0.17747651894E+04  0.12699999809E+01 0. -1.
</event>
<event>
 5   0  0.1881144E-06  0.3216510E+04  0.7818609E-02  0.8184470E-01
       -1   -1    0    0    0  501  0.00000000000E+00  0.00000000000E+00  0.14253709916E+04  0.14253709916E+04  0.50400001928E-02 0.  1.
        1   -1    0    0  501    0  0.00000000000E+00  0.00000000000E+00 -0.18146045036E+04  0.18146045036E+04  0.50400001928E-02 0. -1.
    10030    2    1    2    0    0  0.00000000000E+00  0.00000000000E+00 -0.38923351201E+03  0.32399754952E+04  0.32165102958E+04 0.  0.
        3    1    3    3  502    0  0.47193758109E+03  0.70348003637E+03  0.11824244932E+04  0.14545572984E+04  0.10100000352E+00 0.  1.
       -3    1    3    3    0  502 -0.47193758109E+03 -0.70348003637E+03 -0.15716580052E+04  0.17854181968E+04  0.10100000352E+00 0. -1.
</event>
<event>
 5   0  0.1886248E-06  0.3211231E+04  0.7818609E-02  0.8185857E-01
        1   -1    0    0  501    0  0.00000000000E+00  0.00000000000E+00  0.14524081749E+04  0.14524081749E+04  0.50400001928E-02 0. -1.
       -1   -1    0    0    0  501  0.00000000000E+00  0.00000000000E+00 -0.17749837373E+04  0.17749837373E+04  0.50400001928E-02 0.  1.
    10030    2    1    2    0    0  0.00000000000E+00  0.00000000000E+00 -0.32257556243E+03  0.32273919122E+04  0.32112308483E+04 0.  0.
        4    1    3    3  502    0  0.45350525134E+03 -0.76638187242E+03  0.11814716316E+04  0.14794880927E+04  0.12699999809E+01 0. -1.
       -4    1    3    3    0  502 -0.45350525134E+03  0.76638187242E+03 -0.15040471940E+04  0.17479038195E+04  0.12699999809E+01 0.  1.
</event>
<event>
 5   0  0.5131083E-06  0.3177522E+04  0.7818609E-02  0.8194779E-01
        2   -1    0    0  501    0  0.00000000000E+00  0.00000000000E+00  0.16033609630E+04  0.16033609630E+04  0.25500000920E-02 0.  1.
       -2   -1    0    0    0  501  0.00000000000E+00  0.00000000000E+00 -0.15742941775E+04  0.15742941775E+04  0.25500000920E-02 0. -1.
    10030    2    1    2    0    0  0.00000000000E+00  0.00000000000E+00  0.29066785478E+02  0.31776551405E+04  0.31775221972E+04 0.  0.
        3    1    3    3  502    0 -0.68787661136E+03  0.49561191776E+02 -0.14167956027E+04  0.15757348553E+04  0.10100000352E+00 0. -1.
       -3    1    3    3    0  502  0.68787661136E+03 -0.49561191776E+02  0.14458623882E+04  0.16019202852E+04  0.10100000352E+00 0.  1.
</event>
<event>
 5   0  0.5373060E-06  0.3244829E+04  0.7818609E-02  0.8177077E-01
        2   -1    0    0  501    0  0.00000000000E+00  0.00000000000E+00  0.18699970367E+04  0.18699970367E+04  0.25500000920E-02 0. -1.
       -2   -1    0    0    0  501  0.00000000000E+00  0.00000000000E+00 -0.14076114448E+04  0.14076114448E+04  0.25500000920E-02 0.  1.
    10030    2    1    2    0    0  0.00000000000E+00  0.00000000000E+00  0.46238559185E+03  0.32776084815E+04  0.32448292593E+04 0.  0.
        5    1    3    3  502    0 -0.59557398327E+03 -0.88050940516E+03  0.14692177177E+04  0.18134574641E+04  0.46999998093E+01 0. -1.
       -5    1    3    3    0  502  0.59557398327E+03  0.88050940516E+03 -0.10068321258E+04  0.14641510174E+04  0.46999998093E+01 0.  1.
</event>
<event>
 5   0  0.5373060E-06  0.3156438E+04  0.7818609E-02  0.8200417E-01
        2   -1    0    0  501    0  0.00000000000E+00  0.00000000000E+00  0.18025282005E+04  0.18025282005E+04  0.25500000920E-02 0.  1.
       -2   -1    0    0    0  501  0.00000000000E+00  0.00000000000E+00 -0.13818234328E+04  0.13818234328E+04  0.25500000920E-02 0. -1.
    10030    2    1    2    0    0  0.00000000000E+00  0.00000000000E+00  0.42070476772E+03  0.31843516333E+04  0.31564383128E+04 0.  0.
        5    1    3    3  502    0 -0.76515923372E+02  0.14451581090E+04 -0.42483202722E+03  0.15082576000E+04  0.46999998093E+01 0.  1.
       -5    1    3    3    0  502  0.76515923372E+02 -0.14451581090E+04  0.84553679494E+03  0.16760940332E+04  0.46999998093E+01 0. -1.
</event>
<event>
 5   0  0.1977015E-06  0.3304890E+04  0.7818609E-02  0.8161652E-01
       -1   -1    0    0    0  501  0.00000000000E+00  0.00000000000E+00  0.16497779123E+04  0.16497779123E+04  0.50400001928E-02 0. -1.
        1   -1    0    0  501    0  0.00000000000E+00  0.00000000000E+00 -0.16551167550E+04  0.16551167550E+04  0.50400001928E-02 0.  1.
    10030    2    1    2    0    0  0.00000000000E+00  0.00000000000E+00 -0.53388427230E+01  0.33048946674E+04  0.33048903551E+04 0.  0.
        1    1    3    3  502    0 -0.50744636562E+02 -0.78385680545E+03  0.14511442086E+04  0.16500987922E+04  0.50400001928E-02 0. -1.
       -1    1    3    3    0  502  0.50744636562E+02  0.78385680545E+03 -0.14564830514E+04  0.16547958752E+04  0.50400001928E-02 0.  1.
</event>
<event>
 5   0  0.5108810E-06  0.3227322E+04  0.7818609E-02  0.8181638E-01
        2   -1    0    0  501    0  0.00000000000E+00  0.00000000000E+00  0.23319540005E+04  0.23319540005E+04  0.25500000920E-02 0. -1.
       -2   -1    0    0    0  501  0.00000000000E+00  0.00000000000E+00 -0.11166182977E+04  0.11166182977E+04  0.25500000920E-02 0.  1.
    10030    2    1    2    0    0  0.00000000000E+00  0.00000000000E+00  0.12153357028E+04  0.34485722981E+04  0.32273224235E+04 0.  0.
        1    1    3    3  502    0  0.32040217810E+03 -0.40177028815E+03  0.22421821444E+04  0.23003168671E+04  0.50400001928E-02 0. -1.
       -1    1    3    3    0  502 -0.32040217810E+03  0.40177028815E+03 -0.10268464417E+04  0.11482554310E+04  0.50400001928E-02 0.  1.
</event>
<event>
 5   0  0.5108810E-06  0.3110356E+04  0.7818609E-02  0.8212902E-01
        2   -1    0    0  501    0  0.00000000000E+00  0.00000000000E+00  0.14511378523E+04  0.14511378523E+04  0.25500000920E-02 0.  1.
       -2   -1    0    0    0  501  0.00000000000E+00  0.00000000000E+00 -0.16666772660E+04  0.16666772660E+04  0.25500000920E-02 0. -1.
    10030    2    1    2    0    0  0.00000000000E+00  0.00000000000E+00 -0.21553941368E+03  0.31178151183E+04  0.31103559077E+04 0.  0.
        1    1    3    3  502    0  0.73776353463E+03  0.10804491771E+03 -0.14758172976E+04  0.16534828192E+04  0.50400001928E-02 0. -1.
       -1    1    3    3    0  502 -0.73776353463E+03 -0.10804491771E+03  0.12602778840E+04  0.14643322991E+04  0.50400001928E-02 0.  1.
</event>
<event>
 5   0  0.1881144E-06  0.3202082E+04  0.7818609E-02  0.8188268E-01
       -1   -1    0    0    0  501  0.00000000000E+00  0.00000000000E+00  0.14863001937E+04  0.14863001937E+04  0.50400001928E-02 0. -1.
        1   -1    0    0  501    0  0.00000000000E+00  0.00000000000E+00 -0.17246398361E+04  0.17246398361E+04  0.50400001928E-02 0.  1.
    10030    2    1    2    0    0  0.00000000000E+00  0.00000000000E+00 -0.23833964242E+03  0.32109400299E+04  0.32020821492E+04 0.  0.
        3    1    3    3  502    0  0.65933840899E+03  0.14527650167E+04 -0.25400061873E+03  0.16154781508E+04  0.10100000352E+00 0. -1.
       -3    1    3    3    0  502 -0.65933840899E+03 -0.14527650167E+04  0.15660976313E+02  0.15954618791E+04  0.10100000352E+00 0.  1.
</event>
<event>
 5   0  0.5121624E-06  0.3214987E+04  0.7818609E-02  0.8184870E-01
        2   -1    0    0  501    0  0.00000000000E+00  0.00000000000E+00  0.27173271219E+04  0.27173271219E+04  0.25500000920E-02 0.  1.
       -2   -1    0    0    0  501  0.00000000000E+00  0.00000000000E+00 -0.95094776581E+03  0.95094776581E+03  0.25500000920E-02 0. -1.
    10030    2    1    2    0    0  0.00000000000E+00  0.00000000000E+00  0.17663793561E+04  0.36682748877E+04  0.32149874996E+04 0.  0.
        4    1    3    3  502    0 -0.26370927623E+03  0.54560771091E+03  0.25820053176E+04  0.26521657998E+04  0.12699999809E+01 0.  1.
       -4    1    3    3    0  502  0.26370927623E+03 -0.54560771091E+03 -0.81562596151E+03  0.10161090879E+04  0.12699999809E+01 0. -1.
</event>
<event>
 5   0  0.1969465E-06  0.3071174E+04  0.7818609E-02  0.8223694E-01
       -1   -1    0    0    0  501  0.00000000000E+00  0.00000000000E+00  0.10700159848E+04  0.10700159848E+04  0.50400001928E-02 0.  1.
        1   -1    0    0  501    0  0.00000000000E+00  0.00000000000E+00 -0.22037304632E+04  0.22037304632E+04  0.50400001928E-02 0. -1.
    10030    2    1    2    0    0  0.00000000000E+00  0.00000000000E+00 -0.11337144783E+04  0.32737464480E+04  0.30711736010E+04 0.  0.
        2    1    3    3  502    0  0.90966019468E+03 -0.10444351977E+04  0.13997937889E+03  0.13920922306E+04  0.25500000920E-02 0.  1.
       -2    1    3    3    0  502 -0.90966019468E+03  0.10444351977E+04 -0.12736938572E+04  0.18816542174E+04  0.25500000920E-02 0. -1.
</event>
<event>
 5   0  0.5347280E-06  0.3307825E+04  0.7818609E-02  0.8160907E-01
       -2   -1    0    0    0  501  0.00000000000E+00  0.00000000000E+00  0.13413845518E+04  0.13413845518E+04  0.25500000920E-02 0.  1.
        2   -1    0    0  501    0  0.00000000000E+00  0.00000000000E+00 -0.20392558632E+04  0.20392558632E+04  0.25500000920E-02 0. -1.
    10030    2    1    2    0    0  0.00000000000E+00  0.00000000000E+00 -0.69787131144E+03  0.33806404150E+04  0.33078248515E+04 0.  0.
        2    1    3    3  502    0 -0.60040500702E+03  0.36731479043E+03  0.11806803517E+04  0.13745589913E+04  0.25500000920E-02 0.  1.
       -2    1    3    3    0  502  0.60040500702E+03 -0.36731479043E+03 -0.18785516631E+04  0.20060814237E+04  0.25500000920E-02 0. -1.
</event>
<event>
 5   0  0.1977015E-06  0.2047586E+04  0.7818609E-02  0.8584690E-01
       -1   -1    0    0    0  501  0.00000000000E+00  0.00000000000E+00  0.53352256840E+03  0.53352256843E+03  0.50400001928E-02 0. -1.
        1   -1    0    0  501    0  0.00000000000E+00  0.00000000000E+00 -0.19645890169E+04  0.19645890169E+04  0.50400001928E-02 0.  1.
    10030    2    1    2    0    0  0.00000000000E+00  0.00000000000E+00 -0.14310664485E+04  0.24981115853E+04  0.20475864604E+04 0.  0.
        1    1    3    3  502    0  0.94651133658E+03  0.14811724289E+02 -0.11912648845E+04  0.15215830975E+04  0.50400001928E-02 0.  1.
       -1    1    3    3    0  502 -0.94651133658E+03 -0.14811724289E+02 -0.23980156397E+03  0.97652848784E+03  0.50400001928E-02 0. -1.
</event>
<event>
 5   0  0.5347280E-06  0.2786377E+04  0.7818609E-02  0.8307510E-01
        2   -1    0    0  501    0  0.00000000000E+00  0.00000000000E+00  0.19184903194E+04  0.19184903194E+04  0.25500000920E-02 0.  1.
       -2   -1    0    0    0  501  0.00000000000E+00  0.00000000000E+00 -0.10117197799E+04  0.10117197799E+04  0.25500000920E-02 0. -1.
    10030    2    1    2    0    0  0.00000000000E+00  0.00000000000E+00  0.90677053951E+03  0.29302100992E+04  0.27863772922E+04 0.  0.
        2    1    3    3  502    0  0.11990090866E+04 -0.60958886025E+03  0.71670044308E+02  0.13469810554E+04  0.25500000920E-02 0. -1.
       -2    1    3    3    0  502 -0.11990090866E+04  0.60958886025E+03  0.83510049521E+03  0.15832290439E+04  0.25500000920E-02 0.  1.
</event>
<event>
 5   0  0.5373060E-06  0.3281890E+04  0.7818609E-02  0.8167519E-01
        2   -1    0    0  501    0  0.00000000000E+00  0.00000000000E+00  0.21760264682E+04  0.21760264682E+04  0.25500000920E-02 0.  1.
       -2   -1    0    0    0  501  0.00000000000E+00  0.00000000000E+00 -0.12374394581E+04  0.12374394581E+04  0.25500000920E-02 0. -1.
    10030    2    1    2    0    0  0.00000000000E+00  0.00000000000E+00  0.93858701013E+03  0.34134659264E+04  0.32818903173E+04 0.  0.
        5    1    3    3  502    0  0.67368255724E+03  0.63923620087E+03  0.18763829725E+04  0.20936347002E+04  0.46999998093E+01 0.  1.
       -5    1    3    3    0  502 -0.67368255724E+03 -0.63923620087E+03 -0.93779596238E+03  0.13198312261E+04  0.46999998093E+01 0. -1.
</event>
<event>
 5   0  0.5373060E-06  0.3204691E+04  0.7818609E-02  0.8187579E-01
        2   -1    0    0  501    0  0.00000000000E+00  0.00000000000E+00  0.15028258450E+04  0.15028258450E+04  0.25500000920E-02 0.  1.
       -2   -1    0    0    0  501  0.00000000000E+00  0.00000000000E+00 -0.17084559773E+04  0.17084559773E+04  0.25500000920E-02 0. -1.
    10030    2    1    2    0    0  0.00000000000E+00  0.00000000000E+00 -0.20563013234E+03  0.32112818223E+04  0.32046914346E+04 0.  0.
        5    1    3    3  502    0  0.13538280889E+04 -0.50433603124E+03 -0.79726578703E+03  0.16501091334E+04  0.46999998093E+01 0. -1.
       -5    1    3    3    0  502 -0.13538280889E+04  0.50433603124E+03  0.59163565469E+03  0.15611726889E+04  0.46999998093E+01 0.  1.
</event>
<event>
 5   0  0.5373060E-06  0.2310872E+04  0.7818609E-02  0.8473647E-01
       -2   -1    0    0    0  501  0.00000000000E+00  0.00000000000E+00  0.76448207663E+03  0.76448207663E+03  0.25500000920E-02 0. -1.
        2   -1    0    0  501    0  0.00000000000E+00  0.00000000000E+00 -0.17463223766E+04  0.17463223766E+04  0.25500000920E-02 0.  1.
    10030    2    1    2    0    0  0.00000000000E+00  0.00000000000E+00 -0.98184029994E+03  0.25108044532E+04  0.23108718328E+04 0.  0.
        5    1    3    3  502    0  0.32895870397E+03 -0.86924741104E+03  0.25491364421E+03  0.96374682698E+03  0.46999998093E+01 0. -1.
       -5    1    3    3    0  502 -0.32895870397E+03  0.86924741104E+03 -0.12367539441E+04  0.15470576262E+04  0.46999998093E+01 0.  1.
</event>
<event>
 5   0  0.1881144E-06  0.3210373E+04  0.7818609E-02  0.8186083E-01
       -1   -1    0    0    0  501  0.00000000000E+00  0.00000000000E+00  0.14390080530E+04  0.14390080530E+04  0.50400001928E-02 0. -1.
        1   -1    0    0  501    0  0.00000000000E+00  0.00000000000E+00 -0.17905557926E+04  0.17905557926E+04  0.50400001928E-02 0.  1.
    10030    2    1    2    0    0  0.00000000000E+00  0.00000000000E+00 -0.35154773965E+03  0.32295638456E+04  0.32103733147E+04 0.  0.
        3    1    3    3  502    0  0.18552975671E+03 -0.92324253126E+03  0.11319298190E+04  0.14724344425E+04  0.10100000352E+00 0. -1.
       -3    1    3    3    0  502 -0.18552975671E+03  0.92324253126E+03 -0.14834775586E+04  0.17571294031E+04  0.10100000352E+00 0.  1.
</event>
<event>
 5   0  0.1881144E-06  0.3209098E+04  0.7818609E-02  0.8186419E-01
       -1   -1    0    0    0  501  0.00000000000E+00  0.00000000000E+00  0.16800720330E+04  0.16800720330E+04  0.50400001928E-02 0.  1.
        1   -1    0    0  501    0  0.00000000000E+00  0.00000000000E+00 -0.15324205954E+04  0.15324205954E+04  0.50400001928E-02 0. -1.
    10030    2    1    2    0    0  0.00000000000E+00  0.00000000000E+00  0.14765143760E+03  0.32124926285E+04  0.32090976833E+04 0.  0.
        3    1    3    3  502    0 -0.84440572290E+03 -0.21387645536E+03 -0.12751208283E+04  0.15442465153E+04  0.10100000352E+00 0. -1.
       -3    1    3    3    0  502  0.84440572290E+03  0.21387645536E+03  0.14227722659E+04  0.16682461131E+04  0.10100000352E+00 0.  1.
</event>
<event>
 5   0  0.1881144E-06  0.3187672E+04  0.7818609E-02  0.8192081E-01
       -1   -1    0    0    0  501  0.00000000000E+00  0.00000000000E+00  0.94341276286E+03  0.94341276288E+03  0.50400001928E-02 0.  1.
        1   -1    0    0  501    0  0.00000000000E+00  0.00000000000E+00 -0.26926842754E+04  0.26926842755E+04  0.50400001928E-02 0. -1.
    10030    2    1    2    0    0  0.00000000000E+00  0.00000000000E+00 -0.17492715126E+04  0.36360970383E+04  0.31876716969E+04 0.  0.
        3    1    3    3  502    0 -0.86966907863E+03  0.84214466257E+03 -0.20571920418E+04  0.23869585346E+04  0.10100000352E+00 0. -1.
       -3    1    3    3    0  502  0.86966907863E+03 -0.84214466257E+03  0.30792052917E+03  0.12491385037E+04  0.10100000352E+00 0.  1.
</event>
<event>
 5   0  0.5108810E-06  0.3178975E+04  0.7818609E-02  0.8194392E-01
        2   -1    0    0  501    0  0.00000000000E+00  0.00000000000E+00  0.23643795401E+04  0.23643795401E+04  0.25500000920E-02 0.  1.
       -2   -1    0    0    0  501  0.00000000000E+00  0.00000000000E+00 -0.10685555775E+04  0.10685555775E+04  0.25500000920E-02 0. -1.
    10030    2    1    2    0    0  0.00000000000E+00  0.00000000000E+00  0.12958239626E+04  0.34329351176E+04  0.31789752719E+04 0.  0.
        1    1    3    3  502    0 -0.26487410916E+03  0.42105572669E+03 -0.98233334632E+03  0.11011017310E+04  0.50400001928E-02 0. -1.
       -1    1    3    3    0  502  0.26487410916E+03 -0.42105572669E+03  0.22781573089E+04  0.23318333866E+04  0.50400001928E-02 0.  1.
</event>
<event>
 5   0  0.1846850E-06  0.3074414E+04  0.7818609E-02  0.8222795E-01
        1   -1    0    0  501    0  0.00000000000E+00  0.00000000000E+00  0.19404094230E+04  0.19404094230E+04  0.50400001928E-02 0.  1.
       -1   -1    0    0    0  501  0.00000000000E+00  0.00000000000E+00 -0.12177873350E+04  0.12177873350E+04  0.50400001928E-02 0. -1.
    10030    2    1    2    0    0  0.00000000000E+00  0.00000000000E+00  0.72262208799E+03  0.31581967581E+04  0.30744144289E+04 0.  0.
        5    1    3    3  502    0  0.22681340018E+03 -0.92058589297E+02 -0.11976305879E+04  0.12223993690E+04  0.46999998093E+01 0. -1.
       -5    1    3    3    0  502 -0.22681340018E+03  0.92058589297E+02  0.19202526759E+04  0.19357973891E+04  0.46999998093E+01 0.  1.
</event>
<event>
 5   0  0.5108810E-06  0.3229885E+04  0.7818609E-02  0.8180969E-01
       -2   -1    0    0    0  501  0.00000000000E+00  0.00000000000E+00  0.98481637106E+03  0.98481637107E+03  0.25500000920E-02 0. -1.
        2   -1    0    0  501    0  0.00000000000E+00  0.00000000000E+00 -0.26482500674E+04  0.26482500674E+04  0.25500000920E-02 0.  1.
    10030    2    1    2    0    0  0.00000000000E+00  0.00000000000E+00 -0.16634336963E+04  0.36330664384E+04  0.32298854599E+04 0.  0.
        1    1    3    3  502    0 -0.20177391715E+03 -0.34664164869E+03 -0.25913332894E+04  0.26221901843E+04  0.50400001928E-02 0.  1.
       -1    1    3    3    0  502  0.20177391715E+03  0.34664164869E+03  0.92789959307E+03  0.10108762541E+04  0.50400001928E-02 0. -1.
</event>
<event>
 5   0  0.5131083E-06  0.3258037E+04  0.7818609E-02  0.8173656E-01
       -2   -1    0    0    0  501  0.00000000000E+00  0.00000000000E+00  0.13814410040E+04  0.13814410040E+04  0.25500000920E-02 0. -1.
        2   -1    0    0  501    0  0.00000000000E+00  0.00000000000E+00 -0.19209659224E+04  0.19209659224E+04  0.25500000920E-02 0.  1.
    10030    2    1    2    0    0  0.00000000000E+00  0.00000000000E+00 -0.53952491837E+03  0.33024069265E+04  0.32580368890E+04 0.  0.
        3    1    3    3  502    0 -0.10674467157E+04 -0.35580450240E+03 -0.14637956456E+04  0.18462765332E+04  0.10100000352E+00 0.  1.
       -3    1    3    3    0  502  0.10674467157E+04  0.35580450240E+03  0.92427072720E+03  0.14561303933E+04  0.10100000352E+00 0. -1.
</event>
<event>
 5   0  0.5347280E-06  0.3293022E+04  0.7818609E-02  0.8164673E-01
        2   -1    0    0  501    0  0.00000000000E+00  0.00000000000E+00  0.17873414589E+04  0.17873414589E+04  0.25500000920E-02 0. -1.
       -2   -1    0    0    0  501  0.00000000000E+00  0.00000000000E+00 -0.15167770765E+04  0.15167770765E+04  0.25500000920E-02 0.  1.
    10030    2    1    2    0    0  0.00000000000E+00  0.00000000000E+00  0.27056438242E+03  0.33041185354E+04  0.32930220484E+04 0.  0.
        2    1    3    3  502    0 -0.66824519692E+03  0.10489784218E+04  0.12178484330E+04  0.17407073787E+04  0.25500000920E-02 0. -1.
       -2    1    3    3    0  502  0.66824519692E+03 -0.10489784218E+04 -0.94728405059E+03  0.15634111567E+04  0.25500000920E-02 0.  1.
</event>
<event>
 5   0  0.1969465E-06  0.3134045E+04  0.7818609E-02  0.8206456E-01
       -1   -1    0    0    0  501  0.00000000000E+00  0.00000000000E+00  0.13440754037E+04  0.13440754037E+04  0.50400001928E-02 0.  1.
        1   -1    0    0  501    0  0.00000000000E+00  0.00000000000E+00 -0.18269508416E+04  0.18269508416E+04  0.50400001928E-02 0. -1.
    10030    2    1    2    0    0  0.00000000000E+00  0.00000000000E+00 -0.48287543792E+03  0.31710262453E+04  0.31340451113E+04 0.  0.
        2    1    3    3  502    0  0.19909722235E+03 -0.21799710673E+03 -0.17985569447E+04  0.18226270945E+04  0.25500000920E-02 0. -1.
       -2    1    3    3    0  502 -0.19909722235E+03  0.21799710673E+03  0.13156815067E+04  0.13483991507E+04  0.25500000920E-02 0.  1.
</event>
<event>
 5   0  0.5373060E-06  0.3232150E+04  0.7818609E-02  0.8180378E-01
        2   -1    0    0  501    0  0.00000000000E+00  0.00000000000E+00  0.19456235268E+04  0.19456235268E+04  0.25500000920E-02 0. -1.
       -2   -1    0    0    0  501  0.00000000000E+00  0.00000000000E+00 -0.13423448945E+04  0.13423448945E+04  0.25500000920E-02 0.  1.
    10030    2    1    2    0    0  0.00000000000E+00  0.00000000000E+00  0.60327863228E+03  0.32879684214E+04  0.32321496302E+04 0.  0.
        5    1    3    3  502    0  0.63041675059E+03 -0.14490646203E+04 -0.42526044157E+02  0.15808365215E+04  0.46999998093E+01 0. -1.
       -5    1    3    3    0  502 -0.63041675059E+03  0.14490646203E+04  0.64580467644E+03  0.17071318998E+04  0.46999998093E+01 0.  1.
</event>
<event>
 5   0  0.1729500E-06  0.3194646E+04  0.7818609E-02  0.8190233E-01
        3   -1    0    0  501    0  0.00000000000E+00  0.00000000000E+00  0.24862551448E+04  0.24862551468E+04  0.10100000352E+00 0.  1.
       -3   -1    0    0    0  501  0.00000000000E+00  0.00000000000E+00 -0.10262181226E+04  0.10262181276E+04  0.10100000352E+00 0. -1.
    10030    2    1    2    0    0  0.00000000000E+00  0.00000000000E+00  0.14600370222E+04  0.35124732744E+04  0.31946455824E+04 0.  0.
        5    1    3    3  502    0  0.80371664595E+03  0.81566428192E+02  0.22450807299E+04  0.23860056796E+04  0.46999998093E+01 0.  1.
       -5    1    3    3    0  502 -0.80371664595E+03 -0.81566428192E+02 -0.78504370771E+03  0.11264675948E+04  0.46999998093E+01 0. -1.
</event>
<event>
 5   0  0.5373060E-06  0.3245402E+04  0.7818609E-02  0.8176928E-01
       -2   -1    0    0    0  501  0.00000000000E+00  0.00000000000E+00  0.12370892945E+04  0.12370892945E+04  0.25500000920E-02 0. -1.
        2   -1    0    0  501    0  0.00000000000E+00  0.00000000000E+00 -0.21285119285E+04  0.21285119285E+04  0.25500000920E-02 0.  1.
    10030    2    1    2    0    0  0.00000000000E+00  0.00000000000E+00 -0.89142263405E+03  0.33656012230E+04  0.32454024835E+04 0.  0.
        5    1    3    3  502    0 -0.15591305445E+04  0.41579430544E+03 -0.62341797592E+03  0.17298684985E+04  0.46999998093E+01 0.  1.
       -5    1    3    3    0  502  0.15591305445E+04 -0.41579430544E+03 -0.26800465813E+03  0.16357327245E+04  0.46999998093E+01 0. -1.
</event>
<event>
 5   0  0.5108810E-06  0.3365611E+04  0.7818609E-02  0.8146398E-01
       -2   -1    0    0    0  501  0.00000000000E+00  0.00000000000E+00  0.14529287094E+04  0.14529287094E+04  0.25500000920E-02 0. -1.
        2   -1    0    0  501    0  0.00000000000E+00  0.00000000000E+00 -0.19490527480E+04  0.19490527480E+04  0.25500000920E-02 0.  1.
    10030    2    1    2    0    0  0.00000000000E+00  0.00000000000E+00 -0.49612403867E+03  0.34019814574E+04  0.33656112038E+04 0.  0.
        1    1    3    3  502    0  0.55370111222E+03 -0.11993206845E+04 -0.13018633186E+04  0.18546706247E+04  0.50400001928E-02 0.  1.
       -1    1    3    3    0  502 -0.55370111222E+03  0.11993206845E+04  0.80573927990E+03  0.15473108327E+04  0.50400001928E-02 0. -1.
</event>
<event>
 5   0  0.5121624E-06  0.3108249E+04  0.7818609E-02  0.8213478E-01
       -2   -1    0    0    0  501  0.00000000000E+00  0.00000000000E+00  0.86952477210E+03  0.86952477211E+03  0.25500000920E-02 0.  1.
        2   -1    0    0  501    0  0.00000000000E+00  0.00000000000E+00 -0.27777278206E+04  0.27777278206E+04  0.25500000920E-02 0. -1.
    10030    2    1    2    0    0  0.00000000000E+00  0.00000000000E+00 -0.19082030484E+04  0.36472525927E+04  0.31082491214E+04 0.  0.
        4    1    3    3  502    0  0.11144190648E+04 -0.44527589098E+03 -0.21128117449E+04  0.24298509323E+04  0.12699999809E+01 0. -1.
       -4    1    3    3    0  502 -0.11144190648E+04  0.44527589098E+03  0.20460869641E+03  0.12174016604E+04  0.12699999809E+01 0.  1.
</event>
<event>
 5   0  0.1969465E-06  0.3222684E+04  0.7818609E-02  0.8182852E-01
       -1   -1    0    0    0  501  0.00000000000E+00  0.00000000000E+00  0.30960534529E+04  0.30960534529E+04  0.50400001928E-02 0. -1.
        1   -1    0    0  501    0  0.00000000000E+00  0.00000000000E+00 -0.83862342756E+03  0.83862342757E+03  0.50400001928E-02 0.  1.
    10030    2    1    2    0    0  0.00000000000E+00  0.00000000000E+00  0.22574300253E+04  0.39346768805E+04  0.32226839489E+04 0.  0.
        2    1    3    3  502    0 -0.49241170934E+03 -0.12052804851E+04  0.22877982561E+04  0.26323356929E+04  0.25500000920E-02 0. -1.
       -2    1    3    3    0  502  0.49241170934E+03  0.12052804851E+04 -0.30368230794E+02  0.13023411876E+04  0.25500000920E-02 0.  1.
</event>
<event>
 5   0  0.1969465E-06  0.3187745E+04  0.7818609E-02  0.8192061E-01
        1   -1    0    0  501    0  0.00000000000E+00  0.00000000000E+00  0.20749364513E+04  0.20749364513E+04  0.50400001928E-02 0.  1.
       -1   -1    0    0    0  501  0.00000000000E+00  0.00000000000E+00 -0.12243408369E+04  0.12243408369E+04  0.50400001928E-02 0. -1.
    10030    2    1    2    0    0  0.00000000000E+00  0.00000000000E+00  0.85059561446E+03  0.32992772882E+04  0.31877449279E+04 0.  0.
        2    1    3    3  502    0 -0.90886081245E+03  0.11622203761E+04  0.10494265953E+04  0.18105469775E+04  0.25500000920E-02 0.  1.
       -2    1    3    3    0  502  0.90886081245E+03 -0.11622203761E+04 -0.19883098079E+03  0.14887303107E+04  0.25500000920E-02 0. -1.
</event>
<event>
 5   0  0.5373060E-06  0.2237803E+04  0.7818609E-02  0.8502856E-01
        2   -1    0    0  501    0  0.00000000000E+00  0.00000000000E+00  0.18188536231E+04  0.18188536231E+04  0.25500000920E-02 0. -1.
       -2   -1    0    0    0  501  0.00000000000E+00  0.00000000000E+00 -0.68831312182E+03  0.68831312182E+03  0.25500000920E-02 0.  1.
    10030    2    1    2    0    0  0.00000000000E+00  0.00000000000E+00  0.11305405013E+04  0.25071667449E+04  0.22378032223E+04 0.  0.
        5    1    3    3  502    0 -0.30878984765E+03 -0.30055258225E+03  0.17221492401E+04  0.17752473405E+04  0.46999998093E+01 0. -1.
       -5    1    3    3    0  502  0.30878984765E+03  0.30055258225E+03 -0.59160873883E+03  0.73191940442E+03  0.46999998093E+01 0.  1.
</event>
<event>
 5   0  0.5131083E-06  0.3160576E+04  0.7818609E-02  0.8199307E-01
       -2   -1    0    0    0  501  0.00000000000E+00  0.00000000000E+00  0.15288195747E+04  0.15288195747E+04  0.25500000920E-02 0. -1.
        2   -1    0    0  501    0  0.00000000000E+00  0.00000000000E+00 -0.16334886517E+04  0.16334886517E+04  0.25500000920E-02 0.  1.
    10030    2    1    2    0    0  0.00000000000E+00  0.00000000000E+00 -0.10466907704E+03  0.31623082265E+04  0.31605755336E+04 0.  0.
        3    1    3    3  502    0 -0.78836998450E+03 -0.31628836751E+01 -0.14226736999E+04  0.16265108985E+04  0.10100000352E+00 0.  1.
       -3    1    3    3    0  502  0.78836998450E+03  0.31628836751E+01  0.13180046229E+04  0.15357973279E+04  0.10100000352E+00 0. -1.
</event>
<event>
 5   0  0.1969465E-06  0.3225663E+04  0.7818609E-02  0.8182072E-01
       -1   -1    0    0    0  501  0.00000000000E+00  0.00000000000E+00  0.16766139976E+04  0.16766139976E+04  0.50400001928E-02 0. -1.
        1   -1    0    0  501    0  0.00000000000E+00  0.00000000000E+00 -0.15514752889E+04  0.15514752889E+04  0.50400001928E-02 0.  1.
    10030    2    1    2    0    0  0.00000000000E+00  0.00000000000E+00  0.12513870872E+03  0.32280892865E+04  0.32256628381E+04 0.  0.
        2    1    3    3  502    0  0.13891886963E+04  0.28642453574E+03  0.83083227414E+03  0.16438267903E+04  0.25500000920E-02 0. -1.
       -2    1    3    3    0  502 -0.13891886963E+04 -0.28642453574E+03 -0.70569356542E+03  0.15842624962E+04  0.25500000920E-02 0.  1.
</event>
<event>
 5   0  0.5121624E-06  0.3244073E+04  0.7818609E-02  0.8177274E-01
        2   -1    0    0  501    0  0.00000000000E+00  0.00000000000E+00  0.14537467895E+04  0.14537467895E+04  0.25500000920E-02 0. -1.
       -2   -1    0    0    0  501  0.00000000000E+00  0.00000000000E+00 -0.18098079771E+04  0.18098079771E+04  0.25500000920E-02 0.  1.
    10030    2    1    2    0    0  0.00000000000E+00  0.00000000000E+00 -0.35606118758E+03  0.32635547666E+04  0.32440730795E+04 0.  0.
        4    1    3    3  502    0 -0.13806695219E+03  0.14895549234E+04 -0.80882446259E+03  0.17005984174E+04  0.12699999809E+01 0.  1.
       -4    1    3    3    0  502  0.13806695219E+03 -0.14895549234E+04  0.45276327501E+03  0.15629563491E+04  0.12699999809E+01 0. -1.
</event>
<event>
 5   0  0.1886248E-06  0.3246933E+04  0.7818609E-02  0.8176531E-01
        1   -1    0    0  501    0  0.00000000000E+00  0.00000000000E+00  0.23020280417E+04  0.23020280417E+04  0.50400001928E-02 0. -1.
       -1   -1    0    0    0  501  0.00000000000E+00  0.00000000000E+00 -0.11449225046E+04  0.11449225046E+04  0.50400001928E-02 0.  1.
    10030    2    1    2    0    0  0.00000000000E+00  0.00000000000E+00  0.11571055371E+04  0.34469505463E+04  0.32469331444E+04 0.  0.
        4    1    3    3  502    0  0.86236930534E+03 -0.10687796503E+04 -0.34062002184E+03  0.14149185036E+04  0.12699999809E+01 0.  1.
       -4    1    3    3    0  502 -0.86236930534E+03  0.10687796503E+04  0.14977255589E+04  0.20320320427E+04  0.12699999809E+01 0. -1.
</event>
<event>
 5   0  0.1881144E-06  0.3182206E+04  0.7818609E-02  0.8193532E-01
       -1   -1    0    0    0  501  0.00000000000E+00  0.00000000000E+00  0.14523632633E+04  0.14523632633E+04  0.50400001928E-02 0.  1.
        1   -1    0    0  501    0  0.00000000000E+00  0.00000000000E+00 -0.17430959673E+04  0.17430959673E+04  0.50400001928E-02 0. -1.
    10030    2    1    2    0    0  0.00000000000E+00  0.00000000000E+00 -0.29073270395E+03  0.31954592306E+04  0.31822058685E+04 0.  0.
        3    1    3    3  502    0  0.61334577426E+03  0.68169603356E+03 -0.14510532845E+04  0.17165250262E+04  0.10100000352E+00 0. -1.
       -3    1    3    3    0  502 -0.61334577426E+03 -0.68169603356E+03  0.11603205806E+04  0.14789342044E+04  0.10100000352E+00 0.  1.
</event>
<event>
 5   0  0.5108810E-06  0.3190176E+04  0.7818609E-02  0.8191416E-01
        2   -1    0    0  501    0  0.00000000000E+00  0.00000000000E+00  0.22784423366E+04  0.22784423366E+04  0.25500000920E-02 0. -1.
       -2   -1    0    0    0  501  0.00000000000E+00  0.00000000000E+00 -0.11166867913E+04  0.11166867913E+04  0.25500000920E-02 0.  1.
    10030    2    1    2    0    0  0.00000000000E+00  0.00000000000E+00  0.11617555452E+04  0.33951291279E+04  0.31901764604E+04 0.  0.
        1    1    3    3  502    0 -0.84132583927E+03 -0.11867622213E+04  0.12771841434E+04  0.19358287822E+04  0.50400001928E-02 0. -1.
       -1    1    3    3    0  502  0.84132583927E+03  0.11867622213E+04 -0.11542859817E+03  0.14593003457E+04  0.50400001928E-02 0.  1.
</event>
<event>
 5   0  0.1969465E-06  0.2100789E+04  0.7818609E-02  0.8560896E-01
        1   -1    0    0  501    0  0.00000000000E+00  0.00000000000E+00  0.97639255566E+03  0.97639255567E+03  0.50400001928E-02 0. -1.
       -1   -1    0    0    0  501  0.00000000000E+00  0.00000000000E+00 -0.11300054681E+04  0.11300054681E+04  0.50400001928E-02 0.  1.
    10030    2    1    2    0    0  0.00000000000E+00  0.00000000000E+00 -0.15361291247E+03  0.21063980238E+04  0.21007893059E+04 0.  0.
        2    1    3    3  502    0 -0.34089944159E+03  0.10480794930E+03  0.91382512563E+03  0.98095539947E+03  0.25500000920E-02 0. -1.
       -2    1    3    3    0  502  0.34089944159E+03 -0.10480794930E+03 -0.10674380381E+04  0.11254426243E+04  0.25500000920E-02 0.  1.
</event>
<event>
 5   0  0.5108810E-06  0.3161457E+04  0.7818609E-02  0.8199071E-01
        2   -1    0    0  501    0  0.00000000000E+00  0.00000000000E+00  0.20793305406E+04  0.20793305406E+04  0.25500000920E-02 0.  1.
       -2   -1    0    0    0  501  0.00000000000E+00  0.00000000000E+00 -0.12016857119E+04  0.12016857119E+04  0.25500000920E-02 0. -1.
    10030    2    1    2    0    0  0.00000000000E+00  0.00000000000E+00  0.87764482869E+03  0.32810162525E+04  0.31614565004E+04 0.  0.
        1    1    3    3  502    0 -0.62421051100E+03 -0.13304890159E+04 -0.16531066628E+03  0.14789075022E+04  0.50400001928E-02 0. -1.
       -1    1    3    3    0  502  0.62421051100E+03  0.13304890159E+04  0.10429554950E+04  0.18021087503E+04  0.50400001928E-02 0.  1.
</event>
<event>
 5   0  0.5131083E-06  0.3198491E+04  0.7818609E-02  0.8189216E-01
       -2   -1    0    0    0  501  0.00000000000E+00  0.00000000000E+00  0.12839490208E+04  0.12839490209E+04  0.25500000920E-02 0. -1.
        2   -1    0    0  501    0  0.00000000000E+00  0.00000000000E+00 -0.19919684880E+04  0.19919684880E+04  0.25500000920E-02 0.  1.
    10030    2    1    2    0    0  0.00000000000E+00  0.00000000000E+00 -0.70801946717E+03  0.32759175089E+04  0.31984908878E+04 0.  0.
        3    1    3    3  502    0  0.12183071235E+03  0.15108791386E+04  0.16822296579E+03  0.15250893319E+04  0.10100000352E+00 0. -1.
       -3    1    3    3    0  502 -0.12183071235E+03 -0.15108791386E+04 -0.87624243297E+03  0.17508281770E+04  0.10100000352E+00 0.  1.
</event>
<event>
 5   0  0.1977015E-06  0.3176411E+04  0.7818609E-02  0.8195075E-01
        1   -1    0    0  501    0  0.00000000000E+00  0.00000000000E+00  0.84807951351E+03  0.84807951353E+03  0.50400001928E-02 0.  1.
       -1   -1    0    0    0  501  0.00000000000E+00  0.00000000000E+00 -0.29742450125E+04  0.29742450126E+04  0.50400001928E-02 0. -1.
    10030    2    1    2    0    0  0.00000000000E+00  0.00000000000E+00 -0.21261654990E+04  0.38223245261E+04  0.31764107186E+04 0.  0.
        1    1    3    3  502    0 -0.11277858422E+04 -0.10200018603E+04 -0.51151964219E+03  0.16043556480E+04  0.50400001928E-02 0.  1.
       -1    1    3    3    0  502  0.11277858422E+04  0.10200018603E+04 -0.16146458568E+04  0.22179688781E+04  0.50400001928E-02 0. -1.
</event>
<event>
 5   0  0.1977015E-06  0.2492714E+04  0.7818609E-02  0.8405586E-01
       -1   -1    0    0    0  501  0.00000000000E+00  0.00000000000E+00  0.12122374970E+04  0.12122374970E+04  0.50400001928E-02 0.  1.
        1   -1    0    0  501    0  0.00000000000E+00  0.00000000000E+00 -0.12814365295E+04  0.12814365295E+04  0.50400001928E-02 0. -1.
    10030    2    1    2    0    0  0.00000000000E+00  0.00000000000E+00 -0.69199032451E+02  0.24936740265E+04  0.24927137109E+04 0.  0.
        1    1    3    3  502    0 -0.23521735689E+03 -0.34748532809E+01  0.11898271296E+04  0.12128593809E+04  0.50400001928E-02 0.  1.
       -1    1    3    3    0  502  0.23521735689E+03  0.34748532809E+01 -0.12590261620E+04  0.12808146456E+04  0.50400001928E-02 0. -1.
</event>
<event>
 5   0  0.5108810E-06  0.2431608E+04  0.7818609E-02  0.8427764E-01
       -2   -1    0    0    0  501  0.00000000000E+00  0.00000000000E+00  0.89646527112E+03  0.89646527112E+03  0.25500000920E-02 0. -1.
        2   -1    0    0  501    0  0.00000000000E+00  0.00000000000E+00 -0.16488980549E+04  0.16488980549E+04  0.25500000920E-02 0.  1.
    10030    2    1    2    0    0  0.00000000000E+00  0.00000000000E+00 -0.75243278380E+03  0.25453633260E+04  0.24316083911E+04 0.  0.
        1    1    3    3  502    0 -0.10862560569E+04 -0.54503429181E+03 -0.34048383431E+03  0.12621187907E+04  0.50400001928E-02 0. -1.
       -1    1    3    3    0  502  0.10862560569E+04  0.54503429181E+03 -0.41194894949E+03  0.12832445353E+04  0.50400001928E-02 0.  1.
</event>
<event>
 5   0  0.1969465E-06  0.3359251E+04  0.7818609E-02  0.8147980E-01
       -1   -1    0    0    0  501  0.00000000000E+00  0.00000000000E+00  0.16692285508E+04  0.16692285508E+04  0.50400001928E-02 0.  1.
        1   -1    0    0  501    0  0.00000000000E+00  0.00000000000E+00 -0.16900875510E+04  0.16900875510E+04  0.50400001928E-02 0. -1.
    10030    2    1    2    0    0  0.00000000000E+00  0.00000000000E+00 -0.20859000134E+02  0.33593161018E+04  0.33592513413E+04 0.  0.
        2    1    3    3  502    0  0.35793317487E+03 -0.13688195258E+04 -0.91563165066E+03  0.16852787223E+04  0.25500000920E-02 0. -1.
       -2    1    3    3    0  502 -0.35793317487E+03  0.13688195258E+04  0.89477265052E+03  0.16740373796E+04  0.25500000920E-02 0.  1.
</event>
<event>
 5   0  0.1977015E-06  0.3207055E+04  0.7818609E-02  0.8186956E-01
       -1   -1    0    0    0  501  0.00000000000E+00  0.00000000000E+00  0.12275425664E+04  0.12275425664E+04  0.50400001928E-02 0. -1.
        1   -1    0    0  501    0  0.00000000000E+00  0.00000000000E+00 -0.20946733433E+04  0.20946733433E+04  0.50400001928E-02 0.  1.
    10030    2    1    2    0    0  0.00000000000E+00  0.00000000000E+00 -0.86713077689E+03  0.33222159097E+04  0.32070551548E+04 0.  0.
        1    1    3    3  502    0 -0.29958529972E+03  0.13755394254E+04  0.36175379599E+03  0.14535218855E+04  0.50400001928E-02 0. -1.
       -1    1    3    3    0  502  0.29958529972E+03 -0.13755394254E+04 -0.12288845729E+04  0.18686940242E+04  0.50400001928E-02 0.  1.
</event>
<event>
 5   0  0.5131083E-06  0.3225546E+04  0.7818609E-02  0.8182103E-01
       -2   -1    0    0    0  501  0.00000000000E+00  0.00000000000E+00  0.13133660983E+04  0.13133660983E+04  0.25500000920E-02 0.  1.
        2   -1    0    0  501    0  0.00000000000E+00  0.00000000000E+00 -0.19804356919E+04  0.19804356919E+04  0.25500000920E-02 0. -1.
    10030    2    1    2    0    0  0.00000000000E+00  0.00000000000E+00 -0.66706959359E+03  0.32938017902E+04  0.32255462158E+04 0.  0.
        3    1    3    3  502    0 -0.12926850806E+04 -0.15916584471E+03 -0.13048025087E+04  0.18436046432E+04  0.10100000352E+00 0. -1.
       -3    1    3    3    0  502  0.12926850806E+04  0.15916584471E+03  0.63773291509E+03  0.14501971469E+04  0.10100000352E+00 0.  1.
</event>
<event>
 5   0  0.1886248E-06  0.3273817E+04  0.7818609E-02  0.8169590E-01
        1   -1    0    0  501    0  0.00000000000E+00  0.00000000000E+00  0.16710581515E+04  0.16710581515E+04  0.50400001928E-02 0.  1.
       -1   -1    0    0    0  501  0.00000000000E+00  0.00000000000E+00 -0.16034570457E+04  0.16034570457E+04  0.50400001928E-02 0. -1.
    10030    2    1    2    0    0  0.00000000000E+00  0.00000000000E+00  0.67601105844E+02  0.32745151972E+04  0.32738173235E+04 0.  0.
        4    1    3    3  502    0 -0.42392931883E+03 -0.12957226237E+04  0.94000426451E+03  0.16559658254E+04  0.12699999809E+01 0.  1.
       -4    1    3    3    0  502  0.42392931883E+03  0.12957226237E+04 -0.87240315866E+03  0.16185493718E+04  0.12699999809E+01 0. -1.
</event>
<event>
 5   0  0.1977015E-06  0.3279553E+04  0.7818609E-02  0.8168118E-01
       -1   -1    0    0    0  501  0.00000000000E+00  0.00000000000E+00  0.20810665827E+04  0.20810665828E+04  0.50400001928E-02 0.  1.
        1   -1    0    0  501    0  0.00000000000E+00  0.00000000000E+00 -0.12920622658E+04  0.12920622658E+04  0.50400001928E-02 0. -1.
    10030    2    1    2    0    0  0.00000000000E+00  0.00000000000E+00  0.78900431697E+03  0.33731288485E+04  0.32795533868E+04 0.  0.
        1    1    3    3  502    0  0.99682433552E+03 -0.14706087974E+03 -0.93608006491E+03  0.13753296137E+04  0.50400001928E-02 0. -1.
       -1    1    3    3    0  502 -0.99682433552E+03  0.14706087974E+03  0.17250843819E+04  0.19977992349E+04  0.50400001928E-02 0.  1.
</event>
<event>
 5   0  0.1977015E-06  0.3128833E+04  0.7818609E-02  0.8207869E-01
        1   -1    0    0  501    0  0.00000000000E+00  0.00000000000E+00  0.18722192039E+04  0.18722192039E+04  0.50400001928E-02 0. -1.
       -1   -1    0    0    0  501  0.00000000000E+00  0.00000000000E+00 -0.13072185155E+04  0.13072185155E+04  0.50400001928E-02 0.  1.
    10030    2    1    2    0    0  0.00000000000E+00  0.00000000000E+00  0.56500068836E+03  0.31794377194E+04  0.31288333982E+04 0.  0.
        1    1    3    3  502    0 -0.14768407562E+04 -0.51590435416E+03  0.29627264845E+03  0.15921662614E+04  0.50400001928E-02 0.  1.
       -1    1    3    3    0  502  0.14768407562E+04  0.51590435416E+03  0.26872803991E+03  0.15872714580E+04  0.50400001928E-02 0. -1.
</event>
<event>
 5   0  0.5347280E-06  0.3072987E+04  0.7818609E-02  0.8223191E-01
       -2   -1    0    0    0  501  0.00000000000E+00  0.00000000000E+00  0.16058919962E+04  0.16058919962E+04  0.25500000920E-02 0. -1.
        2   -1    0    0  501    0  0.00000000000E+00  0.00000000000E+00 -0.14700943865E+04  0.14700943865E+04  0.25500000920E-02 0.  1.
    10030    2    1    2    0    0  0.00000000000E+00  0.00000000000E+00  0.13579760970E+03  0.30759863827E+04  0.30729873471E+04 0.  0.
        2    1    3    3  502    0 -0.23116024332E+03  0.15118827604E+04 -0.79174060767E+02  0.15315002681E+04  0.25500000920E-02 0. -1.
       -2    1    3    3    0  502  0.23116024332E+03 -0.15118827604E+04  0.21497167047E+03  0.15444861146E+04  0.25500000920E-02 0.  1.
</event>
<event>
 5   0  0.5121624E-06  0.3183199E+04  0.7818609E-02  0.8193269E-01
       -2   -1    0    0    0  501  0.00000000000E+00  0.00000000000E+00  0.10610760661E+04  0.10610760661E+04  0.25500000920E-02 0.  1.
        2   -1    0    0  501    0  0.00000000000E+00  0.00000000000E+00 -0.23873766891E+04  0.23873766891E+04  0.25500000920E-02 0. -1.
    10030    2    1    2    0    0  0.00000000000E+00  0.00000000000E+00 -0.13263006230E+04  0.34484527552E+04  0.31831985584E+04 0.  0.
        4    1    3    3  502    0  0.70359752962E+02  0.15708143775E+04 -0.39607422651E+03  0.16215069254E+04  0.12699999809E+01 0. -1.
       -4    1    3    3    0  502 -0.70359752962E+02 -0.15708143775E+04 -0.93022639652E+03  0.18269458298E+04  0.12699999809E+01 0.  1.
</event>
<event>
 5   0  0.5131083E-06  0.3204519E+04  0.7818609E-02  0.8187625E-01
       -2   -1    0    0    0  501  0.00000000000E+00  0.00000000000E+00  0.20291981806E+04  0.20291981806E+04  0.25500000920E-02 0. -1.
        2   -1    0    0  501    0  0.00000000000E+00  0.00000000000E+00 -0.12651478641E+04  0.12651478641E+04  0.25500000920E-02 0.  1.
    10030    2    1    2    0    0  0.00000000000E+00  0.00000000000E+00  0.76405031652E+03  0.32943460447E+04  0.32045191490E+04 0.  0.
        3    1    3    3  502    0 -0.38866994423E+03  0.15539759579E+04  0.41951844016E+03  0.16558687554E+04  0.10100000352E+00 0.  1.
       -3    1    3    3    0  502  0.38866994423E+03 -0.15539759579E+04  0.34453187636E+03  0.16384772893E+04  0.10100000352E+00 0. -1.
</event>
<event>
 5   0  0.1881144E-06  0.3196026E+04  0.7818609E-02  0.8189868E-01
       -1   -1    0    0    0  501  0.00000000000E+00  0.00000000000E+00  0.11428076243E+04  0.11428076244E+04  0.50400001928E-02 0.  1.
        1   -1    0    0  501    0  0.00000000000E+00  0.00000000000E+00 -0.22345362771E+04  0.22345362771E+04  0.50400001928E-02 0. -1.
    10030    2    1    2    0    0  0.00000000000E+00  0.00000000000E+00 -0.10917286528E+04  0.33773439015E+04  0.31960257160E+04 0.  0.
        3    1    3    3  502    0 -0.41077389397E+03  0.84271475407E+03 -0.19134008746E+04  0.21307290456E+04  0.10100000352E+00 0. -1.
       -3    1    3    3    0  502  0.41077389397E+03 -0.84271475407E+03  0.82167222179E+03  0.12466148559E+04  0.10100000352E+00 0.  1.
</event>
<event>
 5   0  0.5131083E-06  0.3188465E+04  0.7818609E-02  0.8191870E-01
       -2   -1    0    0    0  501  0.00000000000E+00  0.00000000000E+00  0.96655633844E+03  0.96655633845E+03  0.25500000920E-02 0. -1.
        2   -1    0    0  501    0  0.00000000000E+00  0.00000000000E+00 -0.26295186421E+04  0.26295186421E+04  0.25500000920E-02 0.  1.
    10030    2    1    2    0    0  0.00000000000E+00  0.00000000000E+00 -0.16629623037E+04  0.35960749805E+04  0.31884654055E+04 0.  0.
        3    1    3    3  502    0  0.46634494536E+03  0.15212544605E+04 -0.71934675510E+03  0.17461822660E+04  0.10100000352E+00 0. -1.
       -3    1    3    3    0  502 -0.46634494536E+03 -0.15212544605E+04 -0.94361554856E+03  0.18498927146E+04  0.10100000352E+00 0.  1.
</event>
<event>
 5   0  0.5347280E-06  0.3199395E+04  0.7818609E-02  0.8188977E-01
        2   -1    0    0  501    0  0.00000000000E+00  0.00000000000E+00  0.14573303480E+04  0.14573303480E+04  0.25500000920E-02 0.  1.
       -2   -1    0    0    0  501  0.00000000000E+00  0.00000000000E+00 -0.17559726213E+04  0.17559726213E+04  0.25500000920E-02 0. -1.
    10030    2    1    2    0    0  0.00000000000E+00  0.00000000000E+00 -0.29864227322E+03  0.32133029693E+04  0.31993950624E+04 0.  0.
        2    1    3    3  502    0  0.15751493282E+04  0.26975727188E+03 -0.22152104116E+03  0.16133616965E+04  0.25500000920E-02 0.  1.
       -2    1    3    3    0  502 -0.15751493282E+04 -0.26975727188E+03 -0.77121232057E+02  0.15999412728E+04  0.25500000920E-02 0. -1.
</event>
<event>
 5   0  0.1881144E-06  0.3236112E+04  0.7818609E-02  0.8179345E-01
        1   -1    0    0  501    0  0.00000000000E+00  0.00000000000E+00  0.23147221936E+04  0.23147221937E+04  0.50400001928E-02 0. -1.
       -1   -1    0    0    0  501  0.00000000000E+00  0.00000000000E+00 -0.11310668402E+04  0.11310668402E+04  0.50400001928E-02 0.  1.
    10030    2    1    2    0    0  0.00000000000E+00  0.00000000000E+00  0.11836553535E+04  0.34457890338E+04  0.32361121844E+04 0.  0.
        3    1    3    3  502    0  0.14441254048E+04  0.16550344344E+03 -0.16501155290E+03  0.14629143507E+04  0.10100000352E+00 0.  1.
       -3    1    3    3    0  502 -0.14441254048E+04 -0.16550344344E+03  0.13486669064E+04  0.19828746832E+04  0.10100000352E+00 0. -1.
</event>
<event>
 5   0  0.5373060E-06  0.3181005E+04  0.7818609E-02  0.8193852E-01
       -2   -1    0    0    0  501  0.00000000000E+00  0.00000000000E+00  0.16130616299E+04  0.16130616299E+04  0.25500000920E-02 0.  1.
        2   -1    0    0  501    0  0.00000000000E+00  0.00000000000E+00 -0.15682587066E+04  0.15682587066E+04  0.25500000920E-02 0. -1.
    10030    2    1    2    0    0  0.00000000000E+00  0.00000000000E+00  0.44802923318E+02  0.31813203366E+04  0.31810048384E+04 0.  0.
        5    1    3    3  502    0  0.88099275080E+03 -0.91654205175E+03  0.97825684087E+03  0.16041215965E+04  0.46999998093E+01 0.  1.
       -5    1    3    3    0  502 -0.88099275080E+03  0.91654205175E+03 -0.93345391755E+03  0.15771987401E+04  0.46999998093E+01 0. -1.
</event>
<event>
 5   0  0.1729500E-06  0.2026694E+04  0.7818609E-02  0.8594241E-01
       -3   -1    0    0    0  501  0.00000000000E+00  0.00000000000E+00  0.10035051740E+04  0.10035051791E+04  0.10100000352E+00 0.  1.
        3   -1    0    0  501    0  0.00000000000E+00  0.00000000000E+00 -0.10232853227E+04  0.10232853277E+04  0.10100000352E+00 0. -1.
    10030    2    1    2    0    0  0.00000000000E+00  0.00000000000E+00 -0.19780148684E+02  0.20267905068E+04  0.20266939838E+04 0.  0.
        4    1    3    3  502    0  0.57706994523E+03  0.46249684221E+03 -0.70271269249E+03  0.10201567487E+04  0.12699999809E+01 0. -1.
       -4    1    3    3    0  502 -0.57706994523E+03 -0.46249684221E+03  0.68293254380E+03  0.10066337581E+04  0.12699999809E+01 0.  1.
</event>
<event>
 5   0  0.5373060E-06  0.3151439E+04  0.7818609E-02  0.8201761E-01
        2   -1    0    0  501    0  0.00000000000E+00  0.00000000000E+00  0.15199090639E+04  0.15199090639E+04  0.25500000920E-02 0. -1.
       -2   -1    0    0    0  501  0.00000000000E+00  0.00000000000E+00 -0.16335788484E+04  0.16335788484E+04  0.25500000920E-02 0.  1.
    10030    2    1    2    0    0  0.00000000000E+00  0.00000000000E+00 -0.11366978449E+03  0.31534879123E+04  0.31514385911E+04 0.  0.
        5    1    3    3  502    0  0.65024004214E+03 -0.14346289135E+04 -0.10041750873E+03  0.15783149235E+04  0.46999998093E+01 0. -1.
       -5    1    3    3    0  502 -0.65024004214E+03  0.14346289135E+04 -0.13252275753E+02  0.15751729888E+04  0.46999998093E+01 0.  1.
</event>
<event>
 5   0  0.5108810E-06  0.2081165E+04  0.7818609E-02  0.8569586E-01
        2   -1    0    0  501    0  0.00000000000E+00  0.00000000000E+00  0.11266422134E+04  0.11266422134E+04  0.25500000920E-02 0.  1.
       -2   -1    0    0    0  501  0.00000000000E+00  0.00000000000E+00 -0.96109655216E+03  0.96109655216E+03  0.25500000920E-02 0. -1.
    10030    2    1    2    0    0  0.00000000000E+00  0.00000000000E+00  0.16554566128E+03  0.20877387656E+04  0.20811650073E+04 0.  0.
        1    1    3    3  502    0  0.75197133711E+03 -0.55976826847E+03  0.53587479360E+03  0.10797977592E+04  0.50400001928E-02 0.  1.
       -1    1    3    3    0  502 -0.75197133711E+03  0.55976826847E+03 -0.37032913232E+03  0.10079410065E+04  0.50400001928E-02 0. -1.
</event>
<event>
 5   0  0.5121624E-06  0.3202692E+04  0.7818609E-02  0.8188107E-01
        2   -1    0    0  501    0  0.00000000000E+00  0.00000000000E+00  0.14963836264E+04  0.14963836264E+04  0.25500000920E-02 0. -1.
       -2   -1    0    0    0  501  0.00000000000E+00  0.00000000000E+00 -0.17136704558E+04  0.17136704558E+04  0.25500000920E-02 0.  1.
    10030    2    1    2    0    0  0.00000000000E+00  0.00000000000E+00 -0.21728682934E+03  0.32100540822E+04  0.32026916249E+04 0.  0.
        4    1    3    3  502    0 -0.19584633015E+01  0.12744921024E+04 -0.10803941515E+04  0.16708043243E+04  0.12699999809E+01 0.  1.
       -4    1    3    3    0  502  0.19584633015E+01 -0.12744921024E+04  0.86310732221E+03  0.15392497579E+04  0.12699999809E+01 0. -1.
</event>
<event>
 5   0  0.1881144E-06  0.3089281E+04  0.7818609E-02  0.8218686E-01
        1   -1    0    0  501    0  0.00000000000E+00  0.00000000000E+00  0.82036453713E+03  0.82036453714E+03  0.50400001928E-02 0.  1.
       -1   -1    0    0    0  501  0.00000000000E+00  0.00000000000E+00 -0.29083595520E+04  0.29083595520E+04  0.50400001928E-02 0. -1.
    10030    2    1    2    0    0  0.00000000000E+00  0.00000000000E+00 -0.20879950148E+04  0.37287240891E+04  0.30892814942E+04 0.  0.
        3    1    3    3  502    0 -0.44411571849E+03  0.25695314551E+03 -0.28024963929E+04  0.28490787516E+04  0.10100000352E+00 0. -1.
       -3    1    3    3    0  502  0.44411571849E+03 -0.25695314551E+03  0.71450137805E+03  0.87964533753E+03  0.10100000352E+00 0.  1.
</event>
<event>
 5   0  0.1886248E-06  0.2263365E+04  0.7818609E-02  0.8492507E-01
       -1   -1    0    0    0  501  0.00000000000E+00  0.00000000000E+00  0.76055308445E+03  0.76055308446E+03  0.50400001928E-02 0.  1.
        1   -1    0    0  501    0  0.00000000000E+00  0.00000000000E+00 -0.16839133596E+04  0.16839133597E+04  0.50400001928E-02 0. -1.
    10030    2    1    2    0    0  0.00000000000E+00  0.00000000000E+00 -0.92336027520E+03  0.24444664441E+04  0.22633651934E+04 0.  0.
        4    1    3    3  502    0 -0.15412211293E+03 -0.91857224898E+03 -0.11558993275E+04  0.14844640347E+04  0.12699999809E+01 0. -1.
       -4    1    3    3    0  502  0.15412211293E+03  0.91857224898E+03  0.23253905227E+03  0.96000240938E+03  0.12699999809E+01 0.  1.
</event>
<event>
 5   0  0.5108810E-06  0.3318490E+04  0.7818609E-02  0.8158206E-01
       -2   -1    0    0    0  501  0.00000000000E+00  0.00000000000E+00  0.17458252621E+04  0.17458252621E+04  0.25500000920E-02 0.  1.
        2   -1    0    0  501    0  0.00000000000E+00  0.00000000000E+00 -0.15769586311E+04  0.15769586311E+04  0.25500000920E-02 0. -1.
    10030    2    1    2    0    0  0.00000000000E+00  0.00000000000E+00  0.16886663098E+03  0.33227838932E+04  0.33184901479E+04 0.  0.
        1    1    3    3  502    0  0.55949070550E+03 -0.11584952376E+04 -0.96475505612E+03  0.16080713241E+04  0.50400001928E-02 0. -1.
       -1    1    3    3    0  502 -0.55949070550E+03  0.11584952376E+04  0.11336216871E+04  0.17147125691E+04  0.50400001928E-02 0.  1.
</event>
<event>
 5   0  0.1977015E-06  0.3436474E+04  0.7818609E-02  0.8129012E-01
       -1   -1    0    0    0  501  0.00000000000E+00  0.00000000000E+00  0.19532376746E+04  0.19532376746E+04  0.50400001928E-02 0.  1.
        1   -1    0    0  501    0  0.00000000000E+00  0.00000000000E+00 -0.15115102161E+04  0.15115102161E+04  0.50400001928E-02 0. -1.
    10030    2    1    2    0    0  0.00000000000E+00  0.00000000000E+00  0.44172745848E+03  0.34647478908E+04  0.34364741813E+04 0.  0.
        1    1    3    3  502    0  0.10093638695E+04 -0.13514409785E+04 -0.10913725992E+03  0.16903014764E+04  0.50400001928E-02 0. -1.
       -1    1    3    3    0  502 -0.10093638695E+04  0.13514409785E+04  0.55086471839E+03  0.17744464144E+04  0.50400001928E-02 0.  1.
</event>
<event>
 5   0  0.5121624E-06  0.3186191E+04  0.7818609E-02  0.8192474E-01
       -2   -1    0    0    0  501  0.00000000000E+00  0.00000000000E+00  0.11313792042E+04  0.11313792043E+04  0.25500000920E-02 0. -1.
        2   -1    0    0  501    0  0.00000000000E+00  0.00000000000E+00 -0.22432377662E+04  0.22432377662E+04  0.25500000920E-02 0.  1.
    10030    2    1    2    0    0  0.00000000000E+00  0.00000000000E+00 -0.11118585619E+04  0.33746169704E+04  0.31861905523E+04 0.  0.
        4    1    3    3  502    0  0.14226212531E+04 -0.33597691665E+03  0.11494881043E+03  0.14662696069E+04  0.12699999809E+01 0. -1.
       -4    1    3    3    0  502 -0.14226212531E+04  0.33597691665E+03 -0.12268073724E+04  0.19083473636E+04  0.12699999809E+01 0.  1.
</event>
<event>
 5   0  0.5131083E-06  0.3217013E+04  0.7818609E-02  0.8184338E-01
        2   -1    0    0  501    0  0.00000000000E+00  0.00000000000E+00  0.17864841884E+04  0.17864841884E+04  0.25500000920E-02 0. -1.
       -2   -1    0    0    0  501  0.00000000000E+00  0.00000000000E+00 -0.14482597483E+04  0.14482597483E+04  0.25500000920E-02 0.  1.
    10030    2    1    2    0    0  0.00000000000E+00  0.00000000000E+00  0.33822444014E+03  0.32347439367E+04  0.32170129879E+04 0.  0.
        3    1    3    3  502    0 -0.11389647717E+04 -0.62439837841E+03  0.11231191790E+04  0.17171228222E+04  0.10100000352E+00 0. -1.
       -3    1    3    3    0  502  0.11389647717E+04  0.62439837841E+03 -0.78489473883E+03  0.15176211145E+04  0.10100000352E+00 0.  1.
</event>
<event>
 5   0  0.5373060E-06  0.3222751E+04  0.7818609E-02  0.8182834E-01
       -2   -1    0    0    0  501  0.00000000000E+00  0.00000000000E+00  0.13048426370E+04  0.13048426370E+04  0.25500000920E-02 0.  1.
        2   -1    0    0  501    0  0.00000000000E+00  0.00000000000E+00 -0.19899186726E+04  0.19899186726E+04  0.25500000920E-02 0. -1.
    10030    2    1    2    0    0  0.00000000000E+00  0.00000000000E+00 -0.68507603558E+03  0.32947613095E+04  0.32227508300E+04 0.  0.
        5    1    3    3  502    0 -0.70725194170E+03 -0.10839308331E+04 -0.13238807059E+04  0.18514301428E+04  0.46999998093E+01 0. -1.
       -5    1    3    3    0  502  0.70725194170E+03  0.10839308331E+04  0.63880467037E+03  0.14433311668E+04  0.46999998093E+01 0.  1.
</event>
<event>
 5   0  0.1886248E-06  0.3149055E+04  0.7818609E-02  0.8202403E-01
       -1   -1    0    0    0  501  0.00000000000E+00  0.00000000000E+00  0.92961272412E+03  0.92961272413E+03  0.50400001928E-02 0.  1.
        1   -1    0    0  501    0  0.00000000000E+00  0.00000000000E+00 -0.26668486292E+04  0.26668486292E+04  0.50400001928E-02 0. -1.
    10030    2    1    2    0    0  0.00000000000E+00  0.00000000000E+00 -0.17372359051E+04  0.35964613533E+04  0.31490547274E+04 0.  0.
        4    1    3    3  502    0  0.97317664339E+03  0.11716351996E+04 -0.41274057952E+03  0.15780235167E+04  0.12699999809E+01 0.  1.
       -4    1    3    3    0  502 -0.97317664339E+03 -0.11716351996E+04 -0.13244953256E+04  0.20184378367E+04  0.12699999809E+01 0. -1.
</event>
<event>
 5   0  0.1886248E-06  0.2987102E+04  0.7818609E-02  0.8247423E-01
       -1   -1    0    0    0  501  0.00000000000E+00  0.00000000000E+00  0.34077142093E+04  0.34077142093E+04  0.50400001928E-02 0.  1.
        1   -1    0    0  501    0  0.00000000000E+00  0.00000000000E+00 -0.65460160603E+03  0.65460160605E+03  0.50400001928E-02 0. -1.
    10030    2    1    2    0    0  0.00000000000E+00  0.00000000000E+00  0.27531126033E+04  0.40623158154E+04  0.29871024049E+04 0.  0.
        4    1    3    3  502    0 -0.10195947998E+03 -0.81496312567E+03  0.30730291819E+04  0.31808914784E+04  0.12699999809E+01 0.  1.
       -4    1    3    3    0  502  0.10195947998E+03  0.81496312567E+03 -0.31991657855E+03  0.88142433702E+03  0.12699999809E+01 0. -1.
</event>
<event>
 5   0  0.1977015E-06  0.2986542E+04  0.7818609E-02  0.8247584E-01
       -1   -1    0    0    0  501  0.00000000000E+00  0.00000000000E+00  0.12512241360E+04  0.12512241360E+04  0.50400001928E-02 0.  1.
        1   -1    0    0  501    0  0.00000000000E+00  0.00000000000E+00 -0.17821410599E+04  0.17821410599E+04  0.50400001928E-02 0. -1.
    10030    2    1    2    0    0  0.00000000000E+00  0.00000000000E+00 -0.53091692391E+03  0.30333651959E+04  0.29865417511E+04 0.  0.
        1    1    3    3  502    0 -0.53225631434E+03  0.86887041096E+03  0.84327198177E+03  0.13226262550E+04  0.50400001928E-02 0.  1.
       -1    1    3    3    0  502  0.53225631434E+03 -0.86887041096E+03 -0.13741889057E+04  0.17107389408E+04  0.50400001928E-02 0. -1.
</event>
<event>
 5   0  0.5373060E-06  0.3043448E+04  0.7818609E-02  0.8231432E-01
        2   -1    0    0  501    0  0.00000000000E+00  0.00000000000E+00  0.25893227631E+04  0.25893227631E+04  0.25500000920E-02 0. -1.
       -2   -1    0    0    0  501  0.00000000000E+00  0.00000000000E+00 -0.89430471770E+03  0.89430471771E+03  0.25500000920E-02 0.  1.
    10030    2    1    2    0    0  0.00000000000E+00  0.00000000000E+00  0.16950180454E+04  0.34836274809E+04  0.30434477572E+04 0.  0.
        5    1    3    3  502    0  0.11807767895E+04 -0.95933707724E+03  0.81024218267E+03  0.17236809272E+04  0.46999998093E+01 0.  1.
       -5    1    3    3    0  502 -0.11807767895E+04  0.95933707724E+03  0.88477586277E+03  0.17599465536E+04  0.46999998093E+01 0. -1.
</event>
<event>
 5   0  0.5121624E-06  0.3217447E+04  0.7818609E-02  0.8184225E-01
       -2   -1    0    0    0  501  0.00000000000E+00  0.00000000000E+00  0.10284173207E+04  0.10284173207E+04  0.25500000920E-02 0.  1.
        2   -1    0    0  501    0  0.00000000000E+00  0.00000000000E+00 -0.25164796941E+04  0.25164796941E+04  0.25500000920E-02 0. -1.
    10030    2    1    2    0    0  0.00000000000E+00  0.00000000000E+00 -0.14880623734E+04  0.35448970147E+04  0.32174470031E+04 0.  0.
        4    1    3    3  502    0  0.15126539347E+04 -0.50170826190E+03 -0.98581101408E+03  0.18739418546E+04  0.12699999809E+01 0.  1.
       -4    1    3    3    0  502 -0.15126539347E+04  0.50170826190E+03 -0.50225135929E+03  0.16709551601E+04  0.12699999809E+01 0. -1.
</event>
<event>
 5   0  0.5108810E-06  0.3322359E+04  0.7818609E-02  0.8157229E-01
       -2   -1    0    0    0  501  0.00000000000E+00  0.00000000000E+00  0.12469524642E+04  0.12469524642E+04  0.25500000920E-02 0.  1.
        2   -1    0    0  501    0  0.00000000000E+00  0.00000000000E+00 -0.22130098112E+04  0.22130098112E+04  0.25500000920E-02 0. -1.
    10030    2    1    2    0    0  0.00000000000E+00  0.00000000000E+00 -0.96605734701E+03  0.34599622754E+04  0.33223594251E+04 0.  0.
        1    1    3    3  502    0 -0.11418910386E+04  0.10247594680E+04  0.18011038580E+03  0.15448258356E+04  0.50400001928E-02 0. -1.
       -1    1    3    3    0  502  0.11418910386E+04 -0.10247594680E+04 -0.11461677328E+04  0.19151364398E+04  0.50400001928E-02 0.  1.
</event>
<event>
 5   0  0.5108810E-06  0.3171000E+04  0.7818609E-02  0.8196518E-01
        2   -1    0    0  501    0  0.00000000000E+00  0.00000000000E+00  0.24527885310E+04  0.24527885310E+04  0.25500000920E-02 0.  1.
       -2   -1    0    0    0  501  0.00000000000E+00  0.00000000000E+00 -0.10248782152E+04  0.10248782152E+04  0.25500000920E-02 0. -1.
    10030    2    1    2    0    0  0.00000000000E+00  0.00000000000E+00  0.14279103158E+04  0.34776667462E+04  0.31709995471E+04 0.  0.
        1    1    3    3  502    0  0.12620639027E+04  0.24550378801E+03  0.17314349426E+04  0.21566048235E+04  0.50400001928E-02 0.  1.
       -1    1    3    3    0  502 -0.12620639027E+04 -0.24550378801E+03 -0.30352462683E+03  0.13210619227E+04  0.50400001928E-02 0. -1.
</event>
<event>
 5   0  0.1969465E-06  0.3028660E+04  0.7818609E-02  0.8235594E-01
        1   -1    0    0  501    0  0.00000000000E+00  0.00000000000E+00  0.17223879440E+04  0.17223879440E+04  0.50400001928E-02 0.  1.
       -1   -1    0    0    0  501  0.00000000000E+00  0.00000000000E+00 -0.13314046540E+04  0.13314046540E+04  0.50400001928E-02 0. -1.
    10030    2    1    2    0    0  0.00000000000E+00  0.00000000000E+00  0.39098329000E+03  0.30537925980E+04  0.30286599839E+04 0.  0.
        2    1    3    3  502    0 -0.70982631191E+03 -0.12559373857E+03 -0.11473133820E+04  0.13549742347E+04  0.25500000920E-02 0. -1.
       -2    1    3    3    0  502  0.70982631191E+03  0.12559373857E+03  0.15382966720E+04  0.16988183632E+04  0.25500000920E-02 0.  1.
</event>
<event>
 5   0  0.1846850E-06  0.3222273E+04  0.7818609E-02  0.8182960E-01
       -1   -1    0    0    0  501  0.00000000000E+00  0.00000000000E+00  0.10988633267E+04  0.10988633267E+04  0.50400001928E-02 0. -1.
        1   -1    0    0  501    0  0.00000000000E+00  0.00000000000E+00 -0.23622239494E+04  0.23622239494E+04  0.50400001928E-02 0.  1.
    10030    2    1    2    0    0  0.00000000000E+00  0.00000000000E+00 -0.12633606227E+04  0.34610872761E+04  0.32222732767E+04 0.  0.
        5    1    3    3  502    0  0.15885382342E+04  0.18444333134E+03 -0.84179545717E+03  0.18072395374E+04  0.46999998093E+01 0. -1.
       -5    1    3    3    0  502 -0.15885382342E+04 -0.18444333134E+03 -0.42156516550E+03  0.16538477387E+04  0.46999998093E+01 0.  1.
</event>
<event>
 5   0  0.5373060E-06  0.3160249E+04  0.7818609E-02  0.8199395E-01
        2   -1    0    0  501    0  0.00000000000E+00  0.00000000000E+00  0.27109860962E+04  0.27109860962E+04  0.25500000920E-02 0.  1.
       -2   -1    0    0    0  501  0.00000000000E+00  0.00000000000E+00 -0.92099109538E+03  0.92099109538E+03  0.25500000920E-02 0. -1.
    10030    2    1    2    0    0  0.00000000000E+00  0.00000000000E+00  0.17899950008E+04  0.36319771916E+04  0.31602493916E+04 0.  0.
        5    1    3    3  502    0  0.18244606200E+03 -0.65048501468E+02  0.26972824558E+04  0.27042323512E+04  0.46999998093E+01 0.  1.
       -5    1    3    3    0  502 -0.18244606200E+03  0.65048501468E+02 -0.90728745491E+03  0.92774484042E+03  0.46999998093E+01 0. -1.
</event>
<event>
 5   0  0.1886248E-06  0.3149261E+04  0.7818609E-02  0.8202347E-01
        1   -1    0    0  501    0  0.00000000000E+00  0.00000000000E+00  0.10295509207E+04  0.10295509207E+04  0.50400001928E-02 0. -1.
       -1   -1    0    0    0  501  0.00000000000E+00  0.00000000000E+00 -0.24082934379E+04  0.24082934379E+04  0.50400001928E-02 0.  1.
    10030    2    1    2    0    0  0.00000000000E+00  0.00000000000E+00 -0.13787425172E+04  0.34378443587E+04  0.31492606919E+04 0.  0.
        4    1    3    3  502    0  0.31811359286E+03  0.10821852517E+04  0.51000665710E+03  0.12379133976E+04  0.12699999809E+01 0. -1.
       -4    1    3    3    0  502 -0.31811359286E+03 -0.10821852517E+04 -0.18887491743E+04  0.21999309610E+04  0.12699999809E+01 0.  1.
</event>
<event>
 5   0  0.5347280E-06  0.3309309E+04  0.7818609E-02  0.8160531E-01
        2   -1    0    0  501    0  0.00000000000E+00  0.00000000000E+00  0.18988555640E+04  0.18988555640E+04  0.25500000920E-02 0. -1.
       -2   -1    0    0    0  501  0.00000000000E+00  0.00000000000E+00 -0.14418590703E+04  0.14418590704E+04  0.25500000920E-02 0.  1.
    10030    2    1    2    0    0  0.00000000000E+00  0.00000000000E+00  0.45699649369E+03  0.33407146344E+04  0.33093093650E+04 0.  0.
        2    1    3    3  502    0 -0.49095889984E+03  0.28910055044E+02  0.18233664382E+04  0.18885289514E+04  0.25500000920E-02 0. -1.
       -2    1    3    3    0  502  0.49095889984E+03 -0.28910055044E+02 -0.13663699445E+04  0.14521856830E+04  0.25500000920E-02 0.  1.
</event>
<event>
 5   0  0.1977015E-06  0.3257568E+04  0.7818609E-02  0.8173777E-01
       -1   -1    0    0    0  501  0.00000000000E+00  0.00000000000E+00  0.16329319863E+04  0.16329319863E+04  0.50400001928E-02 0.  1.
        1   -1    0    0  501    0  0.00000000000E+00  0.00000000000E+00 -0.16246462519E+04  0.16246462519E+04  0.50400001928E-02 0. -1.
    10030    2    1    2    0    0  0.00000000000E+00  0.00000000000E+00  0.82857344529E+01  0.32575782382E+04  0.32575677007E+04 0.  0.
        1    1    3    3  502    0  0.66890096649E+03 -0.46151054083E+03 -0.14074269113E+04  0.16251987549E+04  0.50400001928E-02 0. -1.
       -1    1    3    3    0  502 -0.66890096649E+03  0.46151054083E+03  0.14157126457E+04  0.16323794833E+04  0.50400001928E-02 0.  1.
</event>
<event>
 5   0  0.5131083E-06  0.3182281E+04  0.7818609E-02  0.8193512E-01
       -2   -1    0    0    0  501  0.00000000000E+00  0.00000000000E+00  0.10555876178E+04  0.10555876178E+04  0.25500000920E-02 0. -1.
        2   -1    0    0  501    0  0.00000000000E+00  0.00000000000E+00 -0.23984069398E+04  0.23984069398E+04  0.25500000920E-02 0.  1.
    10030    2    1    2    0    0  0.00000000000E+00  0.00000000000E+00 -0.13428193220E+04  0.34539945576E+04  0.31822813629E+04 0.  0.
        3    1    3    3  502    0  0.80664796616E+03  0.60504770388E+03 -0.20073417210E+04  0.22463713986E+04  0.10100000352E+00 0.  1.
       -3    1    3    3    0  502 -0.80664796616E+03 -0.60504770388E+03  0.66452239900E+03  0.12076231590E+04  0.10100000352E+00 0. -1.
</event>
<event>
 5   0  0.5373060E-06  0.3126973E+04  0.7818609E-02  0.8208374E-01
        2   -1    0    0  501    0  0.00000000000E+00  0.00000000000E+00  0.12465871793E+04  0.12465871793E+04  0.25500000920E-02 0.  1.
       -2   -1    0    0    0  501  0.00000000000E+00  0.00000000000E+00 -0.19609454588E+04  0.19609454588E+04  0.25500000920E-02 0. -1.
    10030    2    1    2    0    0  0.00000000000E+00  0.00000000000E+00 -0.71435827941E+03  0.32075326381E+04  0.31269726371E+04 0.  0.
        5    1    3    3  502    0 -0.55841079309E+03  0.57140954010E+03 -0.17357281667E+04  0.19107867058E+04  0.46999998093E+01 0. -1.
       -5    1    3    3    0  502  0.55841079309E+03 -0.57140954010E+03  0.10213698873E+04  0.12967459323E+04  0.46999998093E+01 0.  1.
</event>
<event>
 5   0  0.1977015E-06  0.2031628E+04  0.7818609E-02  0.8591975E-01
       -1   -1    0    0    0  501  0.00000000000E+00  0.00000000000E+00  0.17614379437E+04  0.17614379437E+04  0.50400001928E-02 0.  1.
        1   -1    0    0  501    0  0.00000000000E+00  0.00000000000E+00 -0.58581565230E+03  0.58581565232E+03  0.50400001928E-02 0. -1.
    10030    2    1    2    0    0  0.00000000000E+00  0.00000000000E+00  0.11756222914E+04  0.23472535960E+04  0.20316278380E+04 0.  0.
        1    1    3    3  502    0 -0.66771504217E+03 -0.10999180518E+03 -0.28747029772E+03  0.73524196483E+03  0.50400001928E-02 0. -1.
       -1    1    3    3    0  502  0.66771504217E+03  0.10999180518E+03  0.14630925891E+04  0.16120116312E+04  0.50400001928E-02 0.  1.
</event>
<event>
 5   0  0.1886248E-06  0.3381355E+04  0.7818609E-02  0.8142498E-01
       -1   -1    0    0    0  501  0.00000000000E+00  0.00000000000E+00  0.19078726374E+04  0.19078726374E+04  0.50400001928E-02 0.  1.
        1   -1    0    0  501    0  0.00000000000E+00  0.00000000000E+00 -0.14982078437E+04  0.14982078437E+04  0.50400001928E-02 0. -1.
    10030    2    1    2    0    0  0.00000000000E+00  0.00000000000E+00  0.40966479374E+03  0.34060804811E+04  0.33813546103E+04 0.  0.
        4    1    3    3  502    0  0.36704252176E+03 -0.12940080657E+04  0.12366326140E+04  0.18271395463E+04  0.12699999809E+01 0.  1.
       -4    1    3    3    0  502 -0.36704252176E+03  0.12940080657E+04 -0.82696782024E+03  0.15789409348E+04  0.12699999809E+01 0. -1.
</event>
<event>
 5   0  0.1729500E-06  0.3234088E+04  0.7818609E-02  0.8179872E-01
       -3   -1    0    0    0  501  0.00000000000E+00  0.00000000000E+00  0.12871071896E+04  0.12871071935E+04  0.10100000352E+00 0. -1.
        3   -1    0    0  501    0  0.00000000000E+00  0.00000000000E+00 -0.20315566344E+04  0.20315566369E+04  0.10100000352E+00 0.  1.
    10030    2    1    2    0    0  0.00000000000E+00  0.00000000000E+00 -0.74444944487E+03  0.33186638305E+04  0.32340879153E+04 0.  0.
        4    1    3    3  502    0 -0.60193586673E+03  0.13251346122E+04 -0.10952945838E+04  0.18215324226E+04  0.12699999809E+01 0. -1.
       -4    1    3    3    0  502  0.60193586673E+03 -0.13251346122E+04  0.35084513896E+03  0.14971314079E+04  0.12699999809E+01 0.  1.
</event>
<event>
 5   0  0.1846850E-06  0.2133469E+04  0.7818609E-02  0.8546642E-01
       -1   -1    0    0    0  501  0.00000000000E+00  0.00000000000E+00  0.13853111949E+04  0.13853111949E+04  0.50400001928E-02 0. -1.
        1   -1    0    0  501    0  0.00000000000E+00  0.00000000000E+00 -0.82141982911E+03  0.82141982913E+03  0.50400001928E-02 0.  1.
    10030    2    1    2    0    0  0.00000000000E+00  0.00000000000E+00  0.56389136576E+03  0.22067310240E+04  0.21334686171E+04 0.  0.
        5    1    3    3  502    0  0.77053257127E+03  0.56867052871E+03 -0.20407658451E+03  0.97917105551E+03  0.46999998093E+01 0.  1.
       -5    1    3    3    0  502 -0.77053257127E+03 -0.56867052871E+03  0.76796795027E+03  0.12275599685E+04  0.46999998093E+01 0. -1.
</event>
<event>
 5   0  0.5373060E-06  0.3248296E+04  0.7818609E-02  0.8176178E-01
       -2   -1    0    0    0  501  0.00000000000E+00  0.00000000000E+00  0.13426946781E+04  0.13426946781E+04  0.25500000920E-02 0.  1.
        2   -1    0    0  501    0  0.00000000000E+00  0.00000000000E+00 -0.19645989394E+04  0.19645989394E+04  0.25500000920E-02 0. -1.
    10030    2    1    2    0    0  0.00000000000E+00  0.00000000000E+00 -0.62190426133E+03  0.33072936176E+04  0.32482958859E+04 0.  0.
        5    1    3    3  502    0  0.49894624822E+03 -0.25181039381E+03  0.12416970769E+04  0.13616862905E+04  0.46999998093E+01 0.  1.
       -5    1    3    3    0  502 -0.49894624822E+03  0.25181039381E+03 -0.18636013382E+04  0.19456073270E+04  0.46999998093E+01 0. -1.
</event>
<event>
 5   0  0.5373060E-06  0.3174237E+04  0.7818609E-02  0.8195654E-01
       -2   -1    0    0    0  501  0.00000000000E+00  0.00000000000E+00  0.14989512878E+04  0.14989512878E+04  0.25500000920E-02 0. -1.
        2   -1    0    0  501    0  0.00000000000E+00  0.00000000000E+00 -0.16804719563E+04  0.16804719563E+04  0.25500000920E-02 0.  1.
    10030    2    1    2    0    0  0.00000000000E+00  0.00000000000E+00 -0.18152066847E+03  0.31794232441E+04  0.31742372962E+04 0.  0.
        5    1    3    3  502    0 -0.74875425923E+03  0.43134513126E+03  0.12426666381E+04  0.15135831746E+04  0.46999998093E+01 0. -1.
       -5    1    3    3    0  502  0.74875425923E+03 -0.43134513126E+03 -0.14241873066E+04  0.16658400695E+04  0.46999998093E+01 0.  1.
</event>
<event>
 5   0  0.5131083E-06  0.3168393E+04  0.7818609E-02  0.8197215E-01
       -2   -1    0    0    0  501  0.00000000000E+00  0.00000000000E+00  0.26467834420E+04  0.26467834420E+04  0.25500000920E-02 0. -1.
        2   -1    0    0  501    0  0.00000000000E+00  0.00000000000E+00 -0.94819954915E+03  0.94819954915E+03  0.25500000920E-02 0.  1.
    10030    2    1    2    0    0  0.00000000000E+00  0.00000000000E+00  0.16985838929E+04  0.35949829912E+04  0.31683931994E+04 0.  0.
        3    1    3    3  502    0  0.38328241827E+03  0.91776445386E+03  0.22483907586E+04  0.24585479492E+04  0.10100000352E+00 0. -1.
       -3    1    3    3    0  502 -0.38328241827E+03 -0.91776445386E+03 -0.54980686570E+03  0.11364350420E+04  0.10100000352E+00 0.  1.
</event>
<event>
 5   0  0.5373060E-06  0.3217140E+04  0.7818609E-02  0.8184305E-01
       -2   -1    0    0    0  501  0.00000000000E+00  0.00000000000E+00  0.11379515202E+04  0.11379515202E+04  0.25500000920E-02 0. -1.
        2   -1    0    0  501    0  0.00000000000E+00  0.00000000000E+00 -0.22738201850E+04  0.22738201850E+04  0.25500000920E-02 0.  1.
    10030    2    1    2    0    0  0.00000000000E+00  0.00000000000E+00 -0.11358686648E+04  0.34117717052E+04  0.32171398081E+04 0.  0.
        5    1    3    3  502    0  0.64852695284E+03  0.12366587550E+04  0.27884757112E+03  0.14239698532E+04  0.46999998093E+01 0. -1.
       -5    1    3    3    0  502 -0.64852695284E+03 -0.12366587550E+04 -0.14147162359E+04  0.19878018521E+04  0.46999998093E+01 0.  1.
</event>
<event>
 5   0  0.1969465E-06  0.3170313E+04  0.7818609E-02  0.8196702E-01
        1   -1    0    0  501    0  0.00000000000E+00  0.00000000000E+00  0.23159174587E+04  0.23159174587E+04  0.50400001928E-02 0.  1.
       -1   -1    0    0    0  501  0.00000000000E+00  0.00000000000E+00 -0.10849788917E+04  0.10849788917E+04  0.50400001928E-02 0. -1.
    10030    2    1    2    0    0  0.00000000000E+00  0.00000000000E+00  0.12309385670E+04  0.34008963505E+04  0.31703132702E+04 0.  0.
        2    1    3    3  502    0 -0.11620318342E+04 -0.10473654815E+04  0.88986464402E+03  0.17997642958E+04  0.25500000920E-02 0.  1.
       -2    1    3    3    0  502  0.11620318342E+04  0.10473654815E+04  0.34107392297E+03  0.16011320547E+04  0.25500000920E-02 0. -1.
</event>
<event>
 5   0  0.5131083E-06  0.3155262E+04  0.7818609E-02  0.8200733E-01
       -2   -1    0    0    0  501  0.00000000000E+00  0.00000000000E+00  0.14390231499E+04  0.14390231499E+04  0.25500000920E-02 0. -1.
        2   -1    0    0  501    0  0.00000000000E+00  0.00000000000E+00 -0.17295897567E+04  0.17295897567E+04  0.25500000920E-02 0.  1.
    10030    2    1    2    0    0  0.00000000000E+00  0.00000000000E+00 -0.29056660681E+03  0.31686129067E+04  0.31552620809E+04 0.  0.
        3    1    3    3  502    0 -0.86337016670E+03  0.10169351558E+04  0.70051229956E+03  0.15067457144E+04  0.10100000352E+00 0. -1.
       -3    1    3    3    0  502  0.86337016670E+03 -0.10169351558E+04 -0.99107890637E+03  0.16618671923E+04  0.10100000352E+00 0.  1.
</event>
<event>
 5   0  0.5121624E-06  0.3184507E+04  0.7818609E-02  0.8192921E-01
        2   -1    0    0  501    0  0.00000000000E+00  0.00000000000E+00  0.20575348992E+04  0.20575348992E+04  0.25500000920E-02 0.  1.
       -2   -1    0    0    0  501  0.00000000000E+00  0.00000000000E+00 -0.12321890243E+04  0.12321890243E+04  0.25500000920E-02 0. -1.
    10030    2    1    2    0    0  0.00000000000E+00  0.00000000000E+00  0.82534587499E+03  0.32897239235E+04  0.31845074469E+04 0.  0.
        4    1    3    3  502    0 -0.28336771339E+02 -0.13326231014E+04 -0.48707060494E+03  0.14191288490E+04  0.12699999809E+01 0. -1.
       -4    1    3    3    0  502  0.28336771339E+02  0.13326231014E+04  0.13124164799E+04  0.18705950745E+04  0.12699999809E+01 0.  1.
</event>
<event>
 5   0  0.5131083E-06  0.3000107E+04  0.7818609E-02  0.8243700E-01
        2   -1    0    0  501    0  0.00000000000E+00  0.00000000000E+00  0.15384191826E+04  0.15384191826E+04  0.25500000920E-02 0. -1.
       -2   -1    0    0    0  501  0.00000000000E+00  0.00000000000E+00 -0.14626441369E+04  0.14626441369E+04  0.25500000920E-02 0.  1.
    10030    2    1    2    0    0  0.00000000000E+00  0.00000000000E+00  0.75775045710E+02  0.30010633195E+04  0.30001065298E+04 0.  0.
        3    1    3    3  502    0 -0.11240068337E+03 -0.14524797417E+04  0.39553262679E+03  0.15095619837E+04  0.10100000352E+00 0.  1.
       -3    1    3    3    0  502  0.11240068337E+03  0.14524797417E+04 -0.31975758108E+03  0.14915013358E+04  0.10100000352E+00 0. -1.
</event>
<event>
 5   0  0.1969465E-06  0.2145817E+04  0.7818609E-02  0.8541325E-01
       -1   -1    0    0    0  501  0.00000000000E+00  0.00000000000E+00  0.10252163306E+04  0.10252163306E+04  0.50400001928E-02 0.  1.
        1   -1    0    0  501    0  0.00000000000E+00  0.00000000000E+00 -0.11228196223E+04  0.11228196223E+04  0.50400001928E-02 0. -1.
    10030    2    1    2    0    0  0.00000000000E+00  0.00000000000E+00 -0.97603291772E+02  0.21480359529E+04  0.21458173390E+04 0.  0.
        2    1    3    3  502    0  0.44676286096E+03  0.83886058880E+03 -0.54716060377E+03  0.10966626043E+04  0.25500000920E-02 0. -1.
       -2    1    3    3    0  502 -0.44676286096E+03 -0.83886058880E+03  0.44955731200E+03  0.10513733486E+04  0.25500000920E-02 0.  1.
</event>
<event>
 5   0  0.5347280E-06  0.3182325E+04  0.7818609E-02  0.8193501E-01
       -2   -1    0    0    0  501  0.00000000000E+00  0.00000000000E+00  0.17534376323E+04  0.17534376323E+04  0.25500000920E-02 0. -1.
        2   -1    0    0  501    0  0.00000000000E+00  0.00000000000E+00 -0.14439050681E+04  0.14439050681E+04  0.25500000920E-02 0.  1.
    10030    2    1    2    0    0  0.00000000000E+00  0.00000000000E+00  0.30953256417E+03  0.31973427004E+04  0.31823246119E+04 0.  0.
        2    1    3    3  502    0 -0.28937977871E+03  0.43275116024E+02  0.17261754365E+04  0.17507983977E+04  0.25500000920E-02 0. -1.
       -2    1    3    3    0  502  0.28937977871E+03 -0.43275116024E+02 -0.14166428723E+04  0.14465443027E+04  0.25500000920E-02 0.  1.
</event>
<event>
 5   0  0.1886248E-06  0.3198258E+04  0.7818609E-02  0.8189277E-01
       -1   -1    0    0    0  501  0.00000000000E+00  0.00000000000E+00  0.30873633394E+04  0.30873633394E+04  0.50400001928E-02 0. -1.
        1   -1    0    0  501    0  0.00000000000E+00  0.00000000000E+00 -0.82828382661E+03  0.82828382662E+03  0.50400001928E-02 0.  1.
    10030    2    1    2    0    0  0.00000000000E+00  0.00000000000E+00  0.22590795128E+04  0.39156471661E+04  0.31982577263E+04 0.  0.
        4    1    3    3  502    0 -0.79647540294E+03  0.76957601151E+03 -0.28271295555E+03  0.11430435395E+04  0.12699999809E+01 0.  1.
       -4    1    3    3    0  502  0.79647540294E+03 -0.76957601151E+03  0.25417924684E+04  0.27726036266E+04  0.12699999809E+01 0. -1.
</event>
<event>
 5   0  0.1886248E-06  0.3219065E+04  0.7818609E-02  0.8183800E-01
        1   -1    0    0  501    0  0.00000000000E+00  0.00000000000E+00  0.98699164223E+03  0.98699164224E+03  0.50400001928E-02 0. -1.
       -1   -1    0    0    0  501  0.00000000000E+00  0.00000000000E+00 -0.26247377757E+04  0.26247377757E+04  0.50400001928E-02 0.  1.
    10030    2    1    2    0    0  0.00000000000E+00  0.00000000000E+00 -0.16377461334E+04  0.36117294179E+04  0.32190646142E+04 0.  0.
        4    1    3    3  502    0  0.11408774867E+04  0.30004238698E+03 -0.20474119403E+04  0.23629481881E+04  0.12699999809E+01 0.  1.
       -4    1    3    3    0  502 -0.11408774867E+04 -0.30004238698E+03  0.40966580691E+03  0.12487812298E+04  0.12699999809E+01 0. -1.
</event>
<event>
 5   0  0.5121624E-06  0.3061842E+04  0.7818609E-02  0.8226289E-01
        2   -1    0    0  501    0  0.00000000000E+00  0.00000000000E+00  0.17157945826E+04  0.17157945826E+04  0.25500000920E-02 0. -1.
       -2   -1    0    0    0  501  0.00000000000E+00  0.00000000000E+00 -0.13659667988E+04  0.13659667988E+04  0.25500000920E-02 0.  1.
    10030    2    1    2    0    0  0.00000000000E+00  0.00000000000E+00  0.34982778382E+03  0.30817613814E+04  0.30618415591E+04 0.  0.
        4    1    3    3  502    0 -0.69871963666E+03  0.13562715666E+04  0.30236760769E+03  0.15553486671E+04  0.12699999809E+01 0.  1.
       -4    1    3    3    0  502  0.69871963666E+03 -0.13562715666E+04  0.47460176136E+02  0.15264127143E+04  0.12699999809E+01 0. -1.
</event>
<event>
 5   0  0.1881144E-06  0.3277453E+04  0.7818609E-02  0.8168656E-01
        1   -1    0    0  501    0  0.00000000000E+00  0.00000000000E+00  0.27142408371E+04  0.27142408372E+04  0.50400001928E-02 0. -1.
       -1   -1    0    0    0  501  0.00000000000E+00  0.00000000000E+00 -0.98938322114E+03  0.98938322115E+03  0.50400001928E-02 0.  1.
    10030    2    1    2    0    0  0.00000000000E+00  0.00000000000E+00  0.17248576160E+04  0.37036240583E+04  0.32774528783E+04 0.  0.
        3    1    3    3  502    0  0.36473010240E+03 -0.49718246110E+03 -0.85328679191E+03  0.10527662640E+04  0.10100000352E+00 0.  1.
       -3    1    3    3    0  502 -0.36473010240E+03  0.49718246110E+03  0.25781444079E+04  0.26508577943E+04  0.10100000352E+00 0. -1.
</event>
<event>
 5   0  0.1969465E-06  0.3003819E+04  0.7818609E-02  0.8242641E-01
       -1   -1    0    0    0  501  0.00000000000E+00  0.00000000000E+00  0.12995117529E+04  0.12995117529E+04  0.50400001928E-02 0. -1.
        1   -1    0    0  501    0  0.00000000000E+00  0.00000000000E+00 -0.17358309925E+04  0.17358309925E+04  0.50400001928E-02 0.  1.
    10030    2    1    2    0    0  0.00000000000E+00  0.00000000000E+00 -0.43631923956E+03  0.30353427454E+04  0.30038194192E+04 0.  0.
        2    1    3    3  502    0 -0.11293245847E+04  0.73381976517E+03  0.45354734902E+03  0.14211159922E+04  0.25500000920E-02 0. -1.
       -2    1    3    3    0  502  0.11293245847E+04 -0.73381976517E+03 -0.88986658858E+03  0.16142267532E+04  0.25500000920E-02 0.  1.
</event>
<event>
 5   0  0.5108810E-06  0.3201652E+04  0.7818609E-02  0.8188381E-01
        2   -1    0    0  501    0  0.00000000000E+00  0.00000000000E+00  0.15871212292E+04  0.15871212292E+04  0.25500000920E-02 0. -1.
       -2   -1    0    0    0  501  0.00000000000E+00  0.00000000000E+00 -0.16146486614E+04  0.16146486614E+04  0.25500000920E-02 0.  1.
    10030    2    1    2    0    0  0.00000000000E+00  0.00000000000E+00 -0.27527432232E+02  0.32017698906E+04  0.32016515539E+04 0.  0.
        1    1    3    3  502    0 -0.48680643890E+03 -0.11618866340E+04 -0.10015664469E+04  0.16093776458E+04  0.50400001928E-02 0.  1.
       -1    1    3    3    0  502  0.48680643890E+03  0.11618866340E+04  0.97403901467E+03  0.15923922448E+04  0.50400001928E-02 0. -1.
</event>
<event>
 5   0  0.5131083E-06  0.3144324E+04  0.7818609E-02  0.8203678E-01
       -2   -1    0    0    0  501  0.00000000000E+00  0.00000000000E+00  0.18725994767E+04  0.18725994767E+04  0.25500000920E-02 0. -1.
        2   -1    0    0  501    0  0.00000000000E+00  0.00000000000E+00 -0.13199261253E+04  0.13199261253E+04  0.25500000920E-02 0.  1.
    10030    2    1    2    0    0  0.00000000000E+00  0.00000000000E+00  0.55267335139E+03  0.31925256021E+04  0.31443237566E+04 0.  0.
        3    1    3    3  502    0  0.12217172566E+04 -0.67924985559E+03 -0.45422083514E+03  0.14697925019E+04  0.10100000352E+00 0.  1.
       -3    1    3    3    0  502 -0.12217172566E+04  0.67924985559E+03  0.10068941865E+04  0.17227331002E+04  0.10100000352E+00 0. -1.
</event>
<event>
 5   0  0.5121624E-06  0.3201657E+04  0.7818609E-02  0.8188380E-01
       -2   -1    0    0    0  501  0.00000000000E+00  0.00000000000E+00  0.13834518197E+04  0.13834518197E+04  0.25500000920E-02 0.  1.
        2   -1    0    0  501    0  0.00000000000E+00  0.00000000000E+00 -0.18523609332E+04  0.18523609332E+04  0.25500000920E-02 0. -1.
    10030    2    1    2    0    0  0.00000000000E+00  0.00000000000E+00 -0.46890911348E+03  0.32358127529E+04  0.32016571358E+04 0.  0.
        4    1    3    3  502    0 -0.25307564673E+03 -0.45609735225E+03  0.12951569515E+04  0.13962468334E+04  0.12699999809E+01 0.  1.
       -4    1    3    3    0  502  0.25307564673E+03  0.45609735225E+03 -0.17640660650E+04  0.18395659195E+04  0.12699999809E+01 0. -1.
</event>
<event>
 5   0  0.1977015E-06  0.3398169E+04  0.7818609E-02  0.8138356E-01
       -1   -1    0    0    0  501  0.00000000000E+00  0.00000000000E+00  0.12785128099E+04  0.12785128099E+04  0.50400001928E-02 0. -1.
        1   -1    0    0  501    0  0.00000000000E+00  0.00000000000E+00 -0.22580046365E+04  0.22580046365E+04  0.50400001928E-02 0.  1.
    10030    2    1    2    0    0  0.00000000000E+00  0.00000000000E+00 -0.97949182662E+03  0.35365174464E+04  0.33981688319E+04 0.  0.
        1    1    3    3  502    0  0.66933063647E+03  0.35655261740E+03 -0.20720928706E+04  0.22065135700E+04  0.50400001928E-02 0.  1.
       -1    1    3    3    0  502 -0.66933063647E+03 -0.35655261740E+03  0.10926010440E+04  0.13300038764E+04  0.50400001928E-02 0. -1.
</event>
<event>
 5   0  0.5121624E-06  0.3835641E+04  0.7818609E-02  0.8038549E-01
        2   -1    0    0  501    0  0.00000000000E+00  0.00000000000E+00  0.26771459749E+04  0.26771459749E+04  0.25500000920E-02 0. -1.
       -2   -1    0    0    0  501  0.00000000000E+00  0.00000000000E+00 -0.13738647156E+04  0.13738647156E+04  0.25500000920E-02 0.  1.
    10030    2    1    2    0    0  0.00000000000E+00  0.00000000000E+00  0.13032812594E+04  0.40510106905E+04  0.38356414813E+04 0.  0.
        4    1    3    3  502    0 -0.18336968101E+03  0.68299707136E+03 -0.12311291879E+04  0.14197852407E+04  0.12699999809E+01 0.  1.
       -4    1    3    3    0  502  0.18336968101E+03 -0.68299707136E+03  0.25344104473E+04  0.26312254498E+04  0.12699999809E+01 0. -1.
</event>
<event>
 5   0  0.1881144E-06  0.3190086E+04  0.7818609E-02  0.8191440E-01
        1   -1    0    0  501    0  0.00000000000E+00  0.00000000000E+00  0.11919039781E+04  0.11919039781E+04  0.50400001928E-02 0.  1.
       -1   -1    0    0    0  501  0.00000000000E+00  0.00000000000E+00 -0.21345363504E+04  0.21345363504E+04  0.50400001928E-02 0. -1.
    10030    2    1    2    0    0  0.00000000000E+00  0.00000000000E+00 -0.94263237223E+03  0.33264403285E+04  0.31900861227E+04 0.  0.
        3    1    3    3  502    0  0.82146527363E+03 -0.20255301540E+02  0.95421200014E+03  0.12592601099E+04  0.10100000352E+00 0.  1.
       -3    1    3    3    0  502 -0.82146527363E+03  0.20255301540E+02 -0.18968443724E+04  0.20671802186E+04  0.10100000352E+00 0. -1.
</event>
<event>
 5   0  0.5131083E-06  0.3248046E+04  0.7818609E-02  0.8176242E-01
        2   -1    0    0  501    0  0.00000000000E+00  0.00000000000E+00  0.18174948402E+04  0.18174948402E+04  0.25500000920E-02 0. -1.
       -2   -1    0    0    0  501  0.00000000000E+00  0.00000000000E+00 -0.14511463699E+04  0.14511463699E+04  0.25500000920E-02 0.  1.
    10030    2    1    2    0    0  0.00000000000E+00  0.00000000000E+00  0.36634847024E+03  0.32686412101E+04  0.32480462064E+04 0.  0.
        3    1    3    3  502    0 -0.70604411908E+03  0.11146948358E+04 -0.76961743649E+03  0.15275319584E+04  0.10100000352E+00 0.  1.
       -3    1    3    3    0  502  0.70604411908E+03 -0.11146948358E+04  0.11359659067E+04  0.17411092518E+04  0.10100000352E+00 0. -1.
</event>
<event>
 5   0  0.5131083E-06  0.3172543E+04  0.7818609E-02  0.8196106E-01
       -2   -1    0    0    0  501  0.00000000000E+00  0.00000000000E+00  0.28507689291E+04  0.28507689291E+04  0.25500000920E-02 0.  1.
        2   -1    0    0  501    0  0.00000000000E+00  0.00000000000E+00 -0.88265922940E+03  0.88265922940E+03  0.25500000920E-02 0. -1.
    10030    2    1    2    0    0  0.00000000000E+00  0.00000000000E+00  0.19681096997E+04  0.37334281585E+04  0.31725431478E+04 0.  0.
        3    1    3    3  502    0  0.29882873776E+03 -0.15577798696E+04  0.96433664331E+03  0.18563194521E+04  0.10100000352E+00 0. -1.
       -3    1    3    3    0  502 -0.29882873776E+03  0.15577798696E+04  0.10037730564E+04  0.18771087063E+04  0.10100000352E+00 0.  1.
</event>
<event>
 5   0  0.1977015E-06  0.2924082E+04  0.7818609E-02  0.8265748E-01
        1   -1    0    0  501    0  0.00000000000E+00  0.00000000000E+00  0.28229140671E+04  0.28229140671E+04  0.50400001928E-02 0. -1.
       -1   -1    0    0    0  501  0.00000000000E+00  0.00000000000E+00 -0.75721868154E+03  0.75721868156E+03  0.50400001928E-02 0.  1.
    10030    2    1    2    0    0  0.00000000000E+00  0.00000000000E+00  0.20656953855E+04  0.35801327486E+04  0.29240815775E+04 0.  0.
        1    1    3    3  502    0 -0.94355497721E+03  0.43688513388E+03  0.22912617616E+04  0.25161568066E+04  0.50400001928E-02 0. -1.
       -1    1    3    3    0  502  0.94355497721E+03 -0.43688513388E+03 -0.22556637605E+03  0.10639759420E+04  0.50400001928E-02 0.  1.
</event>
<event>
 5   0  0.1977015E-06  0.3223319E+04  0.7818609E-02  0.8182686E-01
       -1   -1    0    0    0  501  0.00000000000E+00  0.00000000000E+00  0.13619414876E+04  0.13619414876E+04  0.50400001928E-02 0.  1.
        1   -1    0    0  501    0  0.00000000000E+00  0.00000000000E+00 -0.19071646869E+04  0.19071646869E+04  0.50400001928E-02 0. -1.
    10030    2    1    2    0    0  0.00000000000E+00  0.00000000000E+00 -0.54522319938E+03  0.32691061745E+04  0.32233192276E+04 0.  0.
        1    1    3    3  502    0  0.14868679345E+04  0.31680237611E+03  0.27006546941E+03  0.15440451282E+04  0.50400001928E-02 0.  1.
       -1    1    3    3    0  502 -0.14868679345E+04 -0.31680237611E+03 -0.81528866879E+03  0.17250610463E+04  0.50400001928E-02 0. -1.
</event>
<event>
 5   0  0.5108810E-06  0.3011255E+04  0.7818609E-02  0.8240524E-01
        2   -1    0    0  501    0  0.00000000000E+00  0.00000000000E+00  0.17580355234E+04  0.17580355234E+04  0.25500000920E-02 0.  1.
       -2   -1    0    0    0  501  0.00000000000E+00  0.00000000000E+00 -0.12894588617E+04  0.12894588617E+04  0.25500000920E-02 0. -1.
    10030    2    1    2    0    0  0.00000000000E+00  0.00000000000E+00  0.46857666170E+03  0.30474943851E+04  0.30112552099E+04 0.  0.
        1    1    3    3  502    0  0.10033999440E+04 -0.72587748521E+03 -0.63229041499E+03  0.13905037720E+04  0.50400001928E-02 0. -1.
       -1    1    3    3    0  502 -0.10033999440E+04  0.72587748521E+03  0.11008670767E+04  0.16569906130E+04  0.50400001928E-02 0.  1.
</event>
<event>
 5   0  0.1886248E-06  0.3092920E+04  0.7818609E-02  0.8217684E-01
        1   -1    0    0  501    0  0.00000000000E+00  0.00000000000E+00  0.21727959651E+04  0.21727959651E+04  0.50400001928E-02 0.  1.
       -1   -1    0    0    0  501  0.00000000000E+00  0.00000000000E+00 -0.11006736607E+04  0.11006736607E+04  0.50400001928E-02 0. -1.
    10030    2    1    2    0    0  0.00000000000E+00  0.00000000000E+00  0.10721223044E+04  0.32734696257E+04  0.30929204896E+04 0.  0.
        4    1    3    3  502    0  0.84344059672E+03  0.42271912368E+03 -0.76080633123E+03  0.12119865446E+04  0.12699999809E+01 0. -1.
       -4    1    3    3    0  502 -0.84344059672E+03 -0.42271912368E+03  0.18329286356E+04  0.20614830812E+04  0.12699999809E+01 0.  1.
</event>
<event>
 5   0  0.5373060E-06  0.3343121E+04  0.7818609E-02  0.8152009E-01
       -2   -1    0    0    0  501  0.00000000000E+00  0.00000000000E+00  0.16713922240E+04  0.16713922240E+04  0.25500000920E-02 0.  1.
        2   -1    0    0  501    0  0.00000000000E+00  0.00000000000E+00 -0.16717286162E+04  0.16717286162E+04  0.25500000920E-02 0. -1.
    10030    2    1    2    0    0  0.00000000000E+00  0.00000000000E+00 -0.33639222230E+00  0.33431208402E+04  0.33431208233E+04 0.  0.
        5    1    3    3  502    0 -0.11353790735E+04 -0.20484651145E+03 -0.12097319194E+04  0.16716821291E+04  0.46999998093E+01 0. -1.
       -5    1    3    3    0  502  0.11353790735E+04  0.20484651145E+03  0.12093955272E+04  0.16714387111E+04  0.46999998093E+01 0.  1.
</event>
<event>
 5   0  0.1969465E-06  0.3154062E+04  0.7818609E-02  0.8201056E-01
        1   -1    0    0  501    0  0.00000000000E+00  0.00000000000E+00  0.20906093290E+04  0.20906093290E+04  0.50400001928E-02 0.  1.
       -1   -1    0    0    0  501  0.00000000000E+00  0.00000000000E+00 -0.11896181789E+04  0.11896181789E+04  0.50400001928E-02 0. -1.
    10030    2    1    2    0    0  0.00000000000E+00  0.00000000000E+00  0.90099115008E+03  0.32802275079E+04  0.31540620557E+04 0.  0.
        2    1    3    3  502    0  0.16586386501E+03  0.15448589072E+04  0.16964332977E+03  0.15629711208E+04  0.25500000920E-02 0. -1.
       -2    1    3    3    0  502 -0.16586386501E+03 -0.15448589072E+04  0.73134782031E+03  0.17172563872E+04  0.25500000920E-02 0.  1.
</event>
<event>
 5   0  0.1846850E-06  0.3135067E+04  0.7818609E-02  0.8206179E-01
        1   -1    0    0  501    0  0.00000000000E+00  0.00000000000E+00  0.19764691760E+04  0.19764691760E+04  0.50400001928E-02 0.  1.
       -1   -1    0    0    0  501  0.00000000000E+00  0.00000000000E+00 -0.12432074206E+04  0.12432074207E+04  0.50400001928E-02 0. -1.
    10030    2    1    2    0    0  0.00000000000E+00  0.00000000000E+00  0.73326175532E+03  0.32196765966E+04  0.31350669188E+04 0.  0.
        5    1    3    3  502    0 -0.46329021961E+03 -0.10298383393E+04  0.14831395209E+04  0.18641163486E+04  0.46999998093E+01 0.  1.
       -5    1    3    3    0  502  0.46329021961E+03  0.10298383393E+04 -0.74987776557E+03  0.13555602480E+04  0.46999998093E+01 0. -1.
</event>
<event>
 5   0  0.1977015E-06  0.3253148E+04  0.7818609E-02  0.8174920E-01
       -1   -1    0    0    0  501  0.00000000000E+00  0.00000000000E+00  0.97334003537E+03  0.97334003538E+03  0.50400001928E-02 0. -1.
        1   -1    0    0  501    0  0.00000000000E+00  0.00000000000E+00 -0.27182100808E+04  0.27182100808E+04  0.50400001928E-02 0.  1.
    10030    2    1    2    0    0  0.00000000000E+00  0.00000000000E+00 -0.17448700455E+04  0.36915501162E+04  0.32531478271E+04 0.  0.
        1    1    3    3  502    0  0.15261611090E+04 -0.43782851453E+03 -0.12734433835E+04  0.20353180562E+04  0.50400001928E-02 0. -1.
       -1    1    3    3    0  502 -0.15261611090E+04  0.43782851453E+03 -0.47142666192E+03  0.16562320600E+04  0.50400001928E-02 0.  1.
</event>
<event>
 5   0  0.5373060E-06  0.3198933E+04  0.7818609E-02  0.8189099E-01
       -2   -1    0    0    0  501  0.00000000000E+00  0.00000000000E+00  0.13325015346E+04  0.13325015346E+04  0.25500000920E-02 0.  1.
        2   -1    0    0  501    0  0.00000000000E+00  0.00000000000E+00 -0.19199177487E+04  0.19199177488E+04  0.25500000920E-02 0. -1.
    10030    2    1    2    0    0  0.00000000000E+00  0.00000000000E+00 -0.58741621412E+03  0.32524192834E+04  0.31989331638E+04 0.  0.
        5    1    3    3  502    0  0.85746468295E+03 -0.40070705862E+03 -0.16046302175E+04  0.18629739811E+04  0.46999998093E+01 0. -1.
       -5    1    3    3    0  502 -0.85746468295E+03  0.40070705862E+03  0.10172140034E+04  0.13894453023E+04  0.46999998093E+01 0.  1.
</event>
<event>
 5   0  0.1969465E-06  0.3183808E+04  0.7818609E-02  0.8193106E-01
       -1   -1    0    0    0  501  0.00000000000E+00  0.00000000000E+00  0.13882196657E+04  0.13882196657E+04  0.50400001928E-02 0.  1.
        1   -1    0    0  501    0  0.00000000000E+00  0.00000000000E+00 -0.18254739448E+04  0.18254739448E+04  0.50400001928E-02 0. -1.
    10030    2    1    2    0    0  0.00000000000E+00  0.00000000000E+00 -0.43725427910E+03  0.32136936104E+04  0.31838083041E+04 0.  0.
        2    1    3    3  502    0  0.49272645497E+03  0.13663570936E+04 -0.87623906826E+03  0.16963213055E+04  0.25500000920E-02 0. -1.
       -2    1    3    3    0  502 -0.49272645497E+03 -0.13663570936E+04  0.43898478916E+03  0.15173723049E+04  0.25500000920E-02 0.  1.
</event>
<event>
 5   0  0.1881144E-06  0.3184969E+04  0.7818609E-02  0.8192798E-01
       -1   -1    0    0    0  501  0.00000000000E+00  0.00000000000E+00  0.10377203101E+04  0.10377203101E+04  0.50400001928E-02 0. -1.
        1   -1    0    0  501    0  0.00000000000E+00  0.00000000000E+00 -0.24438256541E+04  0.24438256541E+04  0.50400001928E-02 0.  1.
    10030    2    1    2    0    0  0.00000000000E+00  0.00000000000E+00 -0.14061053440E+04  0.34815459642E+04  0.31849693974E+04 0.  0.
        3    1    3    3  502    0  0.74220703666E+03 -0.13942691355E+04 -0.92479608229E+03  0.18303293451E+04  0.10100000352E+00 0.  1.
       -3    1    3    3    0  502 -0.74220703666E+03  0.13942691355E+04 -0.48130926173E+03  0.16512166191E+04  0.10100000352E+00 0. -1.
</event>
<event>
 5   0  0.5131083E-06  0.2756232E+04  0.7818609E-02  0.8316987E-01
       -2   -1    0    0    0  501  0.00000000000E+00  0.00000000000E+00  0.10987756209E+04  0.10987756209E+04  0.25500000920E-02 0.  1.
        2   -1    0    0  501    0  0.00000000000E+00  0.00000000000E+00 -0.17284729957E+04  0.17284729957E+04  0.25500000920E-02 0. -1.
    10030    2    1    2    0    0  0.00000000000E+00  0.00000000000E+00 -0.62969737478E+03  0.28272486166E+04  0.27562322029E+04 0.  0.
        3    1    3    3  502    0  0.37041329922E+03 -0.67656612463E+03  0.85661723665E+03  0.11527102123E+04  0.10100000352E+00 0.  1.
       -3    1    3    3    0  502 -0.37041329922E+03  0.67656612463E+03 -0.14863146114E+04  0.16745384043E+04  0.10100000352E+00 0. -1.
</event>
<event>
 5   0  0.5373060E-06  0.3165469E+04  0.7818609E-02  0.8197997E-01
        2   -1    0    0  501    0  0.00000000000E+00  0.00000000000E+00  0.18942241788E+04  0.18942241788E+04  0.25500000920E-02 0.  1.
       -2   -1    0    0    0  501  0.00000000000E+00  0.00000000000E+00 -0.13224670275E+04  0.13224670275E+04  0.25500000920E-02 0. -1.
    10030    2    1    2    0    0  0.00000000000E+00  0.00000000000E+00  0.57175715131E+03  0.32166912063E+04  0.31654693296E+04 0.  0.
        5    1    3    3  502    0 -0.79396139606E+03  0.13354934834E+04  0.59260615226E+03  0.16628655040E+04  0.46999998093E+01 0.  1.
       -5    1    3    3    0  502  0.79396139606E+03 -0.13354934834E+04 -0.20849000944E+02  0.15538257024E+04  0.46999998093E+01 0. -1.
</event>
<event>
 5   0  0.5108810E-06  0.3215409E+04  0.7818609E-02  0.8184760E-01
       -2   -1    0    0    0  501  0.00000000000E+00  0.00000000000E+00  0.10255597465E+04  0.10255597465E+04  0.25500000920E-02 0.  1.
        2   -1    0    0  501    0  0.00000000000E+00  0.00000000000E+00 -0.25202950127E+04  0.25202950127E+04  0.25500000920E-02 0. -1.
    10030    2    1    2    0    0  0.00000000000E+00  0.00000000000E+00 -0.14947352662E+04  0.35458547592E+04  0.32154085989E+04 0.  0.
        1    1    3    3  502    0  0.72021389380E+03 -0.12631894168E+04 -0.15036758828E+04  0.20917448975E+04  0.50400001928E-02 0. -1.
       -1    1    3    3    0  502 -0.72021389380E+03  0.12631894168E+04  0.89406166695E+01  0.14541098618E+04  0.50400001928E-02 0.  1.
</event>
<event>
 5   0  0.1886248E-06  0.3187632E+04  0.7818609E-02  0.8192091E-01
        1   -1    0    0  501    0  0.00000000000E+00  0.00000000000E+00  0.15222822389E+04  0.15222822389E+04  0.50400001928E-02 0.  1.
       -1   -1    0    0    0  501  0.00000000000E+00  0.00000000000E+00 -0.16687110925E+04  0.16687110925E+04  0.50400001928E-02 0. -1.
    10030    2    1    2    0    0  0.00000000000E+00  0.00000000000E+00 -0.14642885364E+03  0.31909933314E+04  0.31876318846E+04 0.  0.
        4    1    3    3  502    0  0.13705908267E+04  0.82636679254E+02  0.73689763838E+03  0.15583221032E+04  0.12699999809E+01 0.  1.
       -4    1    3    3    0  502 -0.13705908267E+04 -0.82636679254E+02 -0.88332649202E+03  0.16326712282E+04  0.12699999809E+01 0. -1.
</event>
<event>
 5   0  0.1846850E-06  0.3279018E+04  0.7818609E-02  0.8168255E-01
        1   -1    0    0  501    0  0.00000000000E+00  0.00000000000E+00  0.16304281997E+04  0.16304281997E+04  0.50400001928E-02 0.  1.
       -1   -1    0    0    0  501  0.00000000000E+00  0.00000000000E+00 -0.16486403216E+04  0.16486403216E+04  0.50400001928E-02 0. -1.
    10030    2    1    2    0    0  0.00000000000E+00  0.00000000000E+00 -0.18212121854E+02  0.32790685213E+04  0.32790179454E+04 0.  0.
        5    1    3    3  502    0  0.44232343164E+03  0.30075745745E+00 -0.15878379435E+04  0.16483026219E+04  0.46999998093E+01 0. -1.
       -5    1    3    3    0  502 -0.44232343164E+03 -0.30075745745E+00  0.15696258217E+04  0.16307658994E+04  0.46999998093E+01 0.  1.
</event>
<event>
 5   0  0.1881144E-06  0.3302878E+04  0.7818609E-02  0.8162164E-01
        1   -1    0    0  501    0  0.00000000000E+00  0.00000000000E+00  0.13691375459E+04  0.13691375459E+04  0.50400001928E-02 0. -1.
       -1   -1    0    0    0  501  0.00000000000E+00  0.00000000000E+00 -0.19919477831E+04  0.19919477831E+04  0.50400001928E-02 0.  1.
    10030    2    1    2    0    0  0.00000000000E+00  0.00000000000E+00 -0.62281023727E+03  0.33610853290E+04  0.33028778357E+04 0.  0.
        3    1    3    3  502    0 -0.10109087640E+04 -0.10095534940E+04  0.53151361690E+03  0.15243495405E+04  0.10100000352E+00 0. -1.
       -3    1    3    3    0  502  0.10109087640E+04  0.10095534940E+04 -0.11543238542E+04  0.18367357885E+04  0.10100000352E+00 0.  1.
</event>
<event>
 5   0  0.5347280E-06  0.3185689E+04  0.7818609E-02  0.8192607E-01
        2   -1    0    0  501    0  0.00000000000E+00  0.00000000000E+00  0.23098119981E+04  0.23098119981E+04  0.25500000920E-02 0.  1.
       -2   -1    0    0    0  501  0.00000000000E+00  0.00000000000E+00 -0.10984244706E+04  0.10984244706E+04  0.25500000920E-02 0. -1.
    10030    2    1    2    0    0  0.00000000000E+00  0.00000000000E+00  0.12113875275E+04  0.34082364688E+04  0.31856892638E+04 0.  0.
        2    1    3    3  502    0 -0.37093843294E+03  0.10776921461E+04  0.17961430338E+04  0.21272389336E+04  0.25500000920E-02 0.  1.
       -2    1    3    3    0  502  0.37093843294E+03 -0.10776921461E+04 -0.58475550636E+03  0.12809975351E+04  0.25500000920E-02 0. -1.
</event>
<event>
 5   0  0.1881144E-06  0.2234126E+04  0.7818609E-02  0.8504357E-01
       -1   -1    0    0    0  501  0.00000000000E+00  0.00000000000E+00  0.76746111145E+03  0.76746111147E+03  0.50400001928E-02 0. -1.
        1   -1    0    0  501    0  0.00000000000E+00  0.00000000000E+00 -0.16259193435E+04  0.16259193435E+04  0.50400001928E-02 0.  1.
    10030    2    1    2    0    0  0.00000000000E+00  0.00000000000E+00 -0.85845823200E+03  0.23933804549E+04  0.22341261079E+04 0.  0.
        3    1    3    3  502    0 -0.40861313668E+03 -0.61057571519E+03  0.47221714191E+03  0.87335928389E+03  0.10100000352E+00 0. -1.
       -3    1    3    3    0  502  0.40861313668E+03  0.61057571519E+03 -0.13306753739E+04  0.15200211710E+04  0.10100000352E+00 0.  1.
</event>
<event>
 5   0  0.1729500E-06  0.3206284E+04  0.7818609E-02  0.8187160E-01
       -4   -1    0    0    0  501  0.00000000000E+00  0.00000000000E+00  0.14020367991E+04  0.14020373743E+04  0.12699999809E+01 0.  1.
        4   -1    0    0  501    0  0.00000000000E+00  0.00000000000E+00 -0.18330919845E+04  0.18330924244E+04  0.12699999809E+01 0. -1.
    10030    2    1    2    0    0  0.00000000000E+00  0.00000000000E+00 -0.43105518534E+03  0.32351297987E+04  0.32062838680E+04 0.  0.
        1    1    3    3  502    0  0.15028577251E+04 -0.25696215782E+02  0.34700269545E+03  0.15426122351E+04  0.50400001928E-02 0. -1.
       -1    1    3    3    0  502 -0.15028577251E+04  0.25696215782E+02 -0.77805788079E+03  0.16925175636E+04  0.50400001928E-02 0.  1.
</event>
<event>
 5   0  0.1886248E-06  0.3134500E+04  0.7818609E-02  0.8206333E-01
       -1   -1    0    0    0  501  0.00000000000E+00  0.00000000000E+00  0.13420104970E+04  0.13420104970E+04  0.50400001928E-02 0.  1.
        1   -1    0    0  501    0  0.00000000000E+00  0.00000000000E+00 -0.18302936630E+04  0.18302936630E+04  0.50400001928E-02 0. -1.
    10030    2    1    2    0    0  0.00000000000E+00  0.00000000000E+00 -0.48828316601E+03  0.31723041600E+04  0.31345004759E+04 0.  0.
        4    1    3    3  502    0  0.75370058734E+03  0.87501025406E+03 -0.13164311236E+04  0.17511995992E+04  0.12699999809E+01 0. -1.
       -4    1    3    3    0  502 -0.75370058734E+03 -0.87501025406E+03  0.82814795763E+03  0.14211045608E+04  0.12699999809E+01 0.  1.
</event>
<event>
 5   0  0.5108810E-06  0.3235729E+04  0.7818609E-02  0.8179445E-01
        2   -1    0    0  501    0  0.00000000000E+00  0.00000000000E+00  0.13811949926E+04  0.13811949926E+04  0.25500000920E-02 0. -1.
       -2   -1    0    0    0  501  0.00000000000E+00  0.00000000000E+00 -0.18950872539E+04  0.18950872539E+04  0.25500000920E-02 0.  1.
    10030    2    1    2    0    0  0.00000000000E+00  0.00000000000E+00 -0.51389226121E+03  0.32762822465E+04  0.32357286819E+04 0.  0.
        1    1    3    3  502    0  0.53516708295E+03  0.59285757631E+03 -0.16815629079E+04  0.18615954785E+04  0.50400001928E-02 0.  1.
       -1    1    3    3    0  502 -0.53516708295E+03 -0.59285757631E+03  0.11676706466E+04  0.14146867680E+04  0.50400001928E-02 0. -1.
</event>
<event>
 5   0  0.5131083E-06  0.2536464E+04  0.7818609E-02  0.8390109E-01
        2   -1    0    0  501    0  0.00000000000E+00  0.00000000000E+00  0.21971311353E+04  0.21971311353E+04  0.25500000920E-02 0.  1.
       -2   -1    0    0    0  501  0.00000000000E+00  0.00000000000E+00 -0.73205110710E+03  0.73205110710E+03  0.25500000920E-02 0. -1.
    10030    2    1    2    0    0  0.00000000000E+00  0.00000000000E+00  0.14650800282E+04  0.29291822424E+04  0.25364639008E+04 0.  0.
        3    1    3    3  502    0 -0.91680140767E+03 -0.72818370443E+03  0.12954951298E+04  0.17461626414E+04  0.10100000352E+00 0.  1.
       -3    1    3    3    0  502  0.91680140767E+03  0.72818370443E+03  0.16958489840E+03  0.11830196011E+04  0.10100000352E+00 0. -1.
</event>
<event>
 5   0  0.1969465E-06  0.3132078E+04  0.7818609E-02  0.8206989E-01
        1   -1    0    0  501    0  0.00000000000E+00  0.00000000000E+00  0.19750455354E+04  0.19750455354E+04  0.50400001928E-02 0.  1.
       -1   -1    0    0    0  501  0.00000000000E+00  0.00000000000E+00 -0.12417324156E+04  0.12417324156E+04  0.50400001928E-02 0. -1.
    10030    2    1    2    0    0  0.00000000000E+00  0.00000000000E+00  0.73331311978E+03  0.32167779510E+04  0.31320779451E+04 0.  0.
        2    1    3    3  502    0 -0.13757128189E+04 -0.24045649460E+03  0.10943893532E+04  0.17742866573E+04  0.25500000920E-02 0.  1.
       -2    1    3    3    0  502  0.13757128189E+04  0.24045649460E+03 -0.36107623346E+03  0.14424912937E+04  0.25500000920E-02 0. -1.
</event>
<event>
 5   0  0.1846850E-06  0.3168611E+04  0.7818609E-02  0.8197157E-01
        1   -1    0    0  501    0  0.00000000000E+00  0.00000000000E+00  0.14379309659E+04  0.14379309659E+04  0.50400001928E-02 0.  1.
       -1   -1    0    0    0  501  0.00000000000E+00  0.00000000000E+00 -0.17455799183E+04  0.17455799183E+04  0.50400001928E-02 0. -1.
    10030    2    1    2    0    0  0.00000000000E+00  0.00000000000E+00 -0.30764895244E+03  0.31835108842E+04  0.31686106848E+04 0.  0.
        5    1    3    3  502    0  0.68737394988E+03  0.48799009157E+03  0.11938946450E+04  0.14615142113E+04  0.46999998093E+01 0.  1.
       -5    1    3    3    0  502 -0.68737394988E+03 -0.48799009157E+03 -0.15015435974E+04  0.17219966729E+04  0.46999998093E+01 0. -1.
</event>
<event>
 5   0  0.5373060E-06  0.3240700E+04  0.7818609E-02  0.8178150E-01
        2   -1    0    0  501    0  0.00000000000E+00  0.00000000000E+00  0.29537313170E+04  0.29537313170E+04  0.25500000920E-02 0.  1.
       -2   -1    0    0    0  501  0.00000000000E+00  0.00000000000E+00 -0.88888734013E+03  0.88888734013E+03  0.25500000920E-02 0. -1.
    10030    2    1    2    0    0  0.00000000000E+00  0.00000000000E+00  0.20648439768E+04  0.38426186571E+04  0.32407001551E+04 0.  0.
        5    1    3    3  502    0  0.11682572499E+03  0.16062788749E+04  0.82120025770E+03  0.18078086257E+04  0.46999998093E+01 0.  1.
       -5    1    3    3    0  502 -0.11682572499E+03 -0.16062788749E+04  0.12436437191E+04  0.20348100314E+04  0.46999998093E+01 0. -1.
</event>
<event>
 5   0  0.5108810E-06  0.2070385E+04  0.7818609E-02  0.8574402E-01
        2   -1    0    0  501    0  0.00000000000E+00  0.00000000000E+00  0.11913993628E+04  0.11913993628E+04  0.25500000920E-02 0. -1.
       -2   -1    0    0    0  501  0.00000000000E+00  0.00000000000E+00 -0.89946635661E+03  0.89946635661E+03  0.25500000920E-02 0.  1.
    10030    2    1    2    0    0  0.00000000000E+00  0.00000000000E+00  0.29193300618E+03  0.20908657194E+04  0.20703851276E+04 0.  0.
        1    1    3    3  502    0 -0.79660356245E+03  0.53596659346E+03 -0.24488423116E+03  0.99086109607E+03  0.50400001928E-02 0.  1.
       -1    1    3    3    0  502  0.79660356245E+03 -0.53596659346E+03  0.53681723734E+03  0.11000046233E+04  0.50400001928E-02 0. -1.
</event>
<event>
 5   0  0.1729500E-06  0.3179726E+04  0.7818609E-02  0.8194192E-01
       -3   -1    0    0    0  501  0.00000000000E+00  0.00000000000E+00  0.21468605193E+04  0.21468605217E+04  0.10100000352E+00 0.  1.
        3   -1    0    0  501    0  0.00000000000E+00  0.00000000000E+00 -0.11773773993E+04  0.11773774036E+04  0.10100000352E+00 0. -1.
    10030    2    1    2    0    0  0.00000000000E+00  0.00000000000E+00  0.96948312005E+03  0.33242379253E+04  0.31797264448E+04 0.  0.
        4    1    3    3  502    0  0.40925238387E+03  0.14202462844E+04 -0.12760570570E+03  0.14835335692E+04  0.12699999809E+01 0. -1.
       -4    1    3    3    0  502 -0.40925238387E+03 -0.14202462844E+04  0.10970888257E+04  0.18407043561E+04  0.12699999809E+01 0.  1.
</event>
<event>
 5   0  0.1886248E-06  0.1987180E+04  0.7818609E-02  0.8612638E-01
       -1   -1    0    0    0  501  0.00000000000E+00  0.00000000000E+00  0.17439838786E+04  0.17439838786E+04  0.50400001928E-02 0. -1.
        1   -1    0    0  501    0  0.00000000000E+00  0.00000000000E+00 -0.56607226144E+03  0.56607226147E+03  0.50400001928E-02 0.  1.
    10030    2    1    2    0    0  0.00000000000E+00  0.00000000000E+00  0.11779116171E+04  0.23100561400E+04  0.19871798088E+04 0.  0.
        4    1    3    3  502    0  0.67290779984E+03  0.25826333743E+03 -0.20605997645E+03  0.74964470607E+03  0.12699999809E+01 0.  1.
       -4    1    3    3    0  502 -0.67290779984E+03 -0.25826333743E+03  0.13839715936E+04  0.15604114340E+04  0.12699999809E+01 0. -1.
</event>
<event>
 5   0  0.5121624E-06  0.3190100E+04  0.7818609E-02  0.8191437E-01
        2   -1    0    0  501    0  0.00000000000E+00  0.00000000000E+00  0.23910151448E+04  0.23910151448E+04  0.25500000920E-02 0.  1.
       -2   -1    0    0    0  501  0.00000000000E+00  0.00000000000E+00 -0.10640606974E+04  0.10640606974E+04  0.25500000920E-02 0. -1.
    10030    2    1    2    0    0  0.00000000000E+00  0.00000000000E+00  0.13269544474E+04  0.34550758421E+04  0.31901004638E+04 0.  0.
        4    1    3    3  502    0 -0.42533841498E+03 -0.39278908235E+03  0.22731954581E+04  0.23457653835E+04  0.12699999809E+01 0.  1.
       -4    1    3    3    0  502  0.42533841498E+03  0.39278908235E+03 -0.94624101071E+03  0.11093104587E+04  0.12699999809E+01 0. -1.
</event>
<event>
 5   0  0.5108810E-06  0.2798277E+04  0.7818609E-02  0.8303803E-01
        2   -1    0    0  501    0  0.00000000000E+00  0.00000000000E+00  0.25331347798E+04  0.25331347798E+04  0.25500000920E-02 0. -1.
       -2   -1    0    0    0  501  0.00000000000E+00  0.00000000000E+00 -0.77279304429E+03  0.77279304429E+03  0.25500000920E-02 0.  1.
    10030    2    1    2    0    0  0.00000000000E+00  0.00000000000E+00  0.17603417355E+04  0.33059278241E+04  0.27982772830E+04 0.  0.
        1    1    3    3  502    0  0.67560827419E+03 -0.81308932743E+03 -0.20263235370E+03  0.10763924309E+04  0.50400001928E-02 0. -1.
       -1    1    3    3    0  502 -0.67560827419E+03  0.81308932743E+03  0.19629740892E+04  0.22295353932E+04  0.50400001928E-02 0.  1.
</event>
<event>
 5   0  0.5373060E-06  0.3306328E+04  0.7818609E-02  0.8161287E-01
       -2   -1    0    0    0  501  0.00000000000E+00  0.00000000000E+00  0.20961993393E+04  0.20961993393E+04  0.25500000920E-02 0. -1.
        2   -1    0    0  501    0  0.00000000000E+00  0.00000000000E+00 -0.13037646345E+04  0.13037646345E+04  0.25500000920E-02 0.  1.
    10030    2    1    2    0    0  0.00000000000E+00  0.00000000000E+00  0.79243470482E+03  0.33999639738E+04  0.33063276096E+04 0.  0.
        5    1    3    3  502    0 -0.14445683869E+04 -0.42044464964E+03 -0.30829613171E+03  0.15357799721E+04  0.46999998093E+01 0.  1.
       -5    1    3    3    0  502  0.14445683869E+04  0.42044464964E+03  0.11007308365E+04  0.18641840017E+04  0.46999998093E+01 0. -1.
</event>
<event>
 5   0  0.5373060E-06  0.3124637E+04  0.7818609E-02  0.8209009E-01
       -2   -1    0    0    0  501  0.00000000000E+00  0.00000000000E+00  0.93110426260E+03  0.93110426261E+03  0.25500000920E-02 0.  1.
        2   -1    0    0  501    0  0.00000000000E+00  0.00000000000E+00 -0.26214456193E+04  0.26214456193E+04  0.25500000920E-02 0. -1.
    10030    2    1    2    0    0  0.00000000000E+00  0.00000000000E+00 -0.16903413567E+04  0.35525498820E+04  0.31246370608E+04 0.  0.
        5    1    3    3  502    0 -0.15460559722E+04  0.20094930594E+03 -0.95970038843E+03  0.18307694061E+04  0.46999998093E+01 0. -1.
       -5    1    3    3    0  502  0.15460559722E+04 -0.20094930594E+03 -0.73064096831E+03  0.17217804759E+04  0.46999998093E+01 0.  1.
</event>
<event>
 5   0  0.5373060E-06  0.3185742E+04  0.7818609E-02  0.8192593E-01
       -2   -1    0    0    0  501  0.00000000000E+00  0.00000000000E+00  0.11561781952E+04  0.11561781952E+04  0.25500000920E-02 0.  1.
        2   -1    0    0  501    0  0.00000000000E+00  0.00000000000E+00 -0.21945045287E+04  0.21945045287E+04  0.25500000920E-02 0. -1.
    10030    2    1    2    0    0  0.00000000000E+00  0.00000000000E+00 -0.10383263336E+04  0.33506827239E+04  0.31857421649E+04 0.  0.
        5    1    3    3  502    0 -0.10526952836E+04 -0.62260238374E+03  0.55417017266E+03  0.13427314544E+04  0.46999998093E+01 0.  1.
       -5    1    3    3    0  502  0.10526952836E+04  0.62260238374E+03 -0.15924965062E+04  0.20079512695E+04  0.46999998093E+01 0. -1.
</event>
<event>
 5   0  0.1846850E-06  0.3090115E+04  0.7818609E-02  0.8218456E-01
        1   -1    0    0  501    0  0.00000000000E+00  0.00000000000E+00  0.14093480454E+04  0.14093480454E+04  0.50400001928E-02 0.  1.
       -1   -1    0    0    0  501  0.00000000000E+00  0.00000000000E+00 -0.16938344445E+04  0.16938344445E+04  0.50400001928E-02 0. -1.
    10030    2    1    2    0    0  0.00000000000E+00  0.00000000000E+00 -0.28448639909E+03  0.31031824899E+04  0.30901147316E+04 0.  0.
        5    1    3    3  502    0  0.14082582574E+04 -0.62343326203E+03 -0.17946508298E+02  0.15401962599E+04  0.46999998093E+01 0.  1.
       -5    1    3    3    0  502 -0.14082582574E+04  0.62343326203E+03 -0.26653989079E+03  0.15629862300E+04  0.46999998093E+01 0. -1.
</event>
<event>
 5   0  0.5108810E-06  0.3049262E+04  0.7818609E-02  0.8229802E-01
        2   -1    0    0  501    0  0.00000000000E+00  0.00000000000E+00  0.71490564299E+03  0.71490564300E+03  0.25500000920E-02 0. -1.
       -2   -1    0    0    0  501  0.00000000000E+00  0.00000000000E+00 -0.32514784068E+04  0.32514784068E+04  0.25500000920E-02 0.  1.
    10030    2    1    2    0    0  0.00000000000E+00  0.00000000000E+00 -0.25365727639E+04  0.39663840498E+04  0.30492623771E+04 0.  0.
        1    1    3    3  502    0  0.56528104384E+03  0.36751867756E+03  0.51043416271E+03  0.84566877167E+03  0.50400001928E-02 0. -1.
       -1    1    3    3    0  502 -0.56528104384E+03 -0.36751867756E+03 -0.30470069266E+04  0.31207152782E+04  0.50400001928E-02 0.  1.
</event>
<event>
 5   0  0.1969465E-06  0.3218458E+04  0.7818609E-02  0.8183959E-01
       -1   -1    0    0    0  501  0.00000000000E+00  0.00000000000E+00  0.16774419165E+04  0.16774419165E+04  0.50400001928E-02 0.  1.
        1   -1    0    0  501    0  0.00000000000E+00  0.00000000000E+00 -0.15437899427E+04  0.15437899427E+04  0.50400001928E-02 0. -1.
    10030    2    1    2    0    0  0.00000000000E+00  0.00000000000E+00  0.13365197388E+03  0.32212318592E+04  0.32184579911E+04 0.  0.
        2    1    3    3  502    0  0.33286898005E+03 -0.90183512160E+03  0.13584845073E+04  0.16642080702E+04  0.25500000920E-02 0.  1.
       -2    1    3    3    0  502 -0.33286898005E+03  0.90183512160E+03 -0.12248325334E+04  0.15570237890E+04  0.25500000920E-02 0. -1.
</event>
<event>
 5   0  0.1969465E-06  0.3191403E+04  0.7818609E-02  0.8191091E-01
        1   -1    0    0  501    0  0.00000000000E+00  0.00000000000E+00  0.16480895637E+04  0.16480895637E+04  0.50400001928E-02 0.  1.
       -1   -1    0    0    0  501  0.00000000000E+00  0.00000000000E+00 -0.15449786642E+04  0.15449786642E+04  0.50400001928E-02 0. -1.
    10030    2    1    2    0    0  0.00000000000E+00  0.00000000000E+00  0.10311089945E+03  0.31930682279E+04  0.31914029596E+04 0.  0.
        2    1    3    3  502    0  0.12754604797E+04  0.54939959338E+03  0.83785601709E+03  0.16219254156E+04  0.25500000920E-02 0.  1.
       -2    1    3    3    0  502 -0.12754604797E+04 -0.54939959338E+03 -0.73474511763E+03  0.15711428122E+04  0.25500000920E-02 0. -1.
</event>
<event>
 5   0  0.1881144E-06  0.3251616E+04  0.7818609E-02  0.8175317E-01
       -1   -1    0    0    0  501  0.00000000000E+00  0.00000000000E+00  0.14268238122E+04  0.14268238122E+04  0.50400001928E-02 0.  1.
        1   -1    0    0  501    0  0.00000000000E+00  0.00000000000E+00 -0.18525422552E+04  0.18525422552E+04  0.50400001928E-02 0. -1.
    10030    2    1    2    0    0  0.00000000000E+00  0.00000000000E+00 -0.42571844301E+03  0.32793660675E+04  0.32516158463E+04 0.  0.
        3    1    3    3  502    0  0.66000418655E+03  0.39801128904E+03 -0.16565903652E+04  0.18271043103E+04  0.10100000352E+00 0. -1.
       -3    1    3    3    0  502 -0.66000418655E+03 -0.39801128904E+03  0.12308719222E+04  0.14522617572E+04  0.10100000352E+00 0.  1.
</event>
<event>
 5   0  0.5108810E-06  0.3198377E+04  0.7818609E-02  0.8189246E-01
        2   -1    0    0  501    0  0.00000000000E+00  0.00000000000E+00  0.14672458760E+04  0.14672458760E+04  0.25500000920E-02 0.  1.
       -2   -1    0    0    0  501  0.00000000000E+00  0.00000000000E+00 -0.17429957351E+04  0.17429957351E+04  0.25500000920E-02 0. -1.
    10030    2    1    2    0    0  0.00000000000E+00  0.00000000000E+00 -0.27574985909E+03  0.32102416111E+04  0.31983766534E+04 0.  0.
        1    1    3    3  502    0 -0.15671548397E+04  0.30139187784E+03 -0.24117391282E+03  0.16139938698E+04  0.50400001928E-02 0. -1.
       -1    1    3    3    0  502  0.15671548397E+04 -0.30139187784E+03 -0.34575946266E+02  0.15962477413E+04  0.50400001928E-02 0.  1.
</event>
<event>
 5   0  0.1886248E-06  0.3144987E+04  0.7818609E-02  0.8203499E-01
        1   -1    0    0  501    0  0.00000000000E+00  0.00000000000E+00  0.28057688929E+04  0.28057688929E+04  0.50400001928E-02 0. -1.
       -1   -1    0    0    0  501  0.00000000000E+00  0.00000000000E+00 -0.88130428673E+03  0.88130428675E+03  0.50400001928E-02 0.  1.
    10030    2    1    2    0    0  0.00000000000E+00  0.00000000000E+00  0.19244646062E+04  0.36870731796E+04  0.31449872196E+04 0.  0.
        4    1    3    3  502    0 -0.20457141388E+03 -0.11316064652E+04 -0.29518150923E+03  0.11872305554E+04  0.12699999809E+01 0.  1.
       -4    1    3    3    0  502  0.20457141388E+03  0.11316064652E+04  0.22196461154E+04  0.24998426242E+04  0.12699999809E+01 0. -1.
</event>
<event>
 5   0  0.1886248E-06  0.3203544E+04  0.7818609E-02  0.8187882E-01
        1   -1    0    0  501    0  0.00000000000E+00  0.00000000000E+00  0.27388310135E+04  0.27388310135E+04  0.50400001928E-02 0.  1.
       -1   -1    0    0    0  501  0.00000000000E+00  0.00000000000E+00 -0.93677708762E+03  0.93677708764E+03  0.50400001928E-02 0. -1.
    10030    2    1    2    0    0  0.00000000000E+00  0.00000000000E+00  0.18020539259E+04  0.36756081011E+04  0.32035443748E+04 0.  0.
        4    1    3    3  502    0  0.10761946351E+04 -0.96745740502E+03  0.16888724589E+04  0.22240639645E+04  0.12699999809E+01 0.  1.
       -4    1    3    3    0  502 -0.10761946351E+04  0.96745740502E+03  0.11318146703E+03  0.14515441366E+04  0.12699999809E+01 0. -1.
</event>
<event>
 5   0  0.1846850E-06  0.3073114E+04  0.7818609E-02  0.8223155E-01
       -1   -1    0    0    0  501  0.00000000000E+00  0.00000000000E+00  0.25374795891E+04  0.25374795891E+04  0.50400001928E-02 0.  1.
        1   -1    0    0  501    0  0.00000000000E+00  0.00000000000E+00 -0.93045389277E+03  0.93045389278E+03  0.50400001928E-02 0. -1.
    10030    2    1    2    0    0  0.00000000000E+00  0.00000000000E+00  0.16070256963E+04  0.34679334819E+04  0.30731142260E+04 0.  0.
        5    1    3    3  502    0  0.45796537345E+03 -0.12843335105E+04  0.41724285773E+01  0.13635557740E+04  0.46999998093E+01 0. -1.
       -5    1    3    3    0  502 -0.45796537345E+03  0.12843335105E+04  0.16028532677E+04  0.21043777079E+04  0.46999998093E+01 0.  1.
</event>
<event>
 5   0  0.5347280E-06  0.3193482E+04  0.7818609E-02  0.8190541E-01
       -2   -1    0    0    0  501  0.00000000000E+00  0.00000000000E+00  0.10366709720E+04  0.10366709720E+04  0.25500000920E-02 0.  1.
        2   -1    0    0  501    0  0.00000000000E+00  0.00000000000E+00 -0.24593935316E+04  0.24593935316E+04  0.25500000920E-02 0. -1.
    10030    2    1    2    0    0  0.00000000000E+00  0.00000000000E+00 -0.14227225596E+04  0.34960645035E+04  0.31934820386E+04 0.  0.
        2    1    3    3  502    0 -0.44022860159E+03  0.14741901976E+04 -0.24362759434E+03  0.15576881475E+04  0.25500000920E-02 0.  1.
       -2    1    3    3    0  502  0.44022860159E+03 -0.14741901976E+04 -0.11790949653E+04  0.19383763560E+04  0.25500000920E-02 0. -1.
</event>
<event>
 5   0  0.5121624E-06  0.3181277E+04  0.7818609E-02  0.8193780E-01
       -2   -1    0    0    0  501  0.00000000000E+00  0.00000000000E+00  0.15341352195E+04  0.15341352195E+04  0.25500000920E-02 0. -1.
        2   -1    0    0  501    0  0.00000000000E+00  0.00000000000E+00 -0.16492224442E+04  0.16492224442E+04  0.25500000920E-02 0.  1.
    10030    2    1    2    0    0  0.00000000000E+00  0.00000000000E+00 -0.11508722470E+03  0.31833576636E+04  0.31812766219E+04 0.  0.
        4    1    3    3  502    0 -0.14741224639E+04 -0.28463088033E+03  0.46823025339E+03  0.15726706457E+04  0.12699999809E+01 0. -1.
       -4    1    3    3    0  502  0.14741224639E+04  0.28463088033E+03 -0.58331747809E+03  0.16106870180E+04  0.12699999809E+01 0.  1.
</event>
<event>
 5   0  0.5373060E-06  0.2994018E+04  0.7818609E-02  0.8245441E-01
       -2   -1    0    0    0  501  0.00000000000E+00  0.00000000000E+00  0.16414304374E+04  0.16414304374E+04  0.25500000920E-02 0. -1.
        2   -1    0    0  501    0  0.00000000000E+00  0.00000000000E+00 -0.13652940486E+04  0.13652940486E+04  0.25500000920E-02 0.  1.
    10030    2    1    2    0    0  0.00000000000E+00  0.00000000000E+00  0.27613638874E+03  0.30067244860E+04  0.29940175065E+04 0.  0.
        5    1    3    3  502    0  0.66644238066E+03 -0.13146264435E+04 -0.12500732067E+03  0.14792014916E+04  0.46999998093E+01 0.  1.
       -5    1    3    3    0  502 -0.66644238066E+03  0.13146264435E+04  0.40114370941E+03  0.15275229943E+04  0.46999998093E+01 0. -1.
</event>
<event>
 5   0  0.5131083E-06  0.3219551E+04  0.7818609E-02  0.8183673E-01
       -2   -1    0    0    0  501  0.00000000000E+00  0.00000000000E+00  0.14877889869E+04  0.14877889869E+04  0.25500000920E-02 0.  1.
        2   -1    0    0  501    0  0.00000000000E+00  0.00000000000E+00 -0.17417643212E+04  0.17417643212E+04  0.25500000920E-02 0. -1.
    10030    2    1    2    0    0  0.00000000000E+00  0.00000000000E+00 -0.25397533435E+03  0.32295533081E+04  0.32195513817E+04 0.  0.
        3    1    3    3  502    0  0.42323381903E+03  0.93910151764E+03  0.11139242461E+04  0.15171900877E+04  0.10100000352E+00 0.  1.
       -3    1    3    3    0  502 -0.42323381903E+03 -0.93910151764E+03 -0.13678995805E+04  0.17123632204E+04  0.10100000352E+00 0. -1.
</event>
<event>
 5   0  0.5373060E-06  0.2945472E+04  0.7818609E-02  0.8259475E-01
        2   -1    0    0  501    0  0.00000000000E+00  0.00000000000E+00  0.22142232106E+04  0.22142232106E+04  0.25500000920E-02 0.  1.
       -2   -1    0    0    0  501  0.00000000000E+00  0.00000000000E+00 -0.97955431588E+03  0.97955431588E+03  0.25500000920E-02 0. -1.
    10030    2    1    2    0    0  0.00000000000E+00  0.00000000000E+00  0.12346688947E+04  0.31937775265E+04  0.29454723915E+04 0.  0.
        5    1    3    3  502    0 -0.14629760123E+04  0.15127583017E+03  0.53513743166E+03  0.15651125679E+04  0.46999998093E+01 0. -1.
       -5    1    3    3    0  502  0.14629760123E+04 -0.15127583017E+03  0.69953146307E+03  0.16286649586E+04  0.46999998093E+01 0.  1.
</event>
<event>
 5   0  0.5347280E-06  0.3235132E+04  0.7818609E-02  0.8179600E-01
       -2   -1    0    0    0  501  0.00000000000E+00  0.00000000000E+00  0.11381871009E+04  0.11381871009E+04  0.25500000920E-02 0.  1.
        2   -1    0    0  501    0  0.00000000000E+00  0.00000000000E+00 -0.22988482561E+04  0.22988482561E+04  0.25500000920E-02 0. -1.
    10030    2    1    2    0    0  0.00000000000E+00  0.00000000000E+00 -0.11606611551E+04  0.34370353570E+04  0.32351317946E+04 0.  0.
        2    1    3    3  502    0 -0.10403585728E+04 -0.38957781590E+03 -0.18294653338E+04  0.21403411509E+04  0.25500000920E-02 0. -1.
       -2    1    3    3    0  502  0.10403585728E+04  0.38957781590E+03  0.66880417869E+03  0.12966942061E+04  0.25500000920E-02 0.  1.
</event>
<event>
 5   0  0.1977015E-06  0.3204028E+04  0.7818609E-02  0.8187754E-01
        1   -1    0    0  501    0  0.00000000000E+00  0.00000000000E+00  0.25429282586E+04  0.25429282586E+04  0.50400001928E-02 0.  1.
       -1   -1    0    0    0  501  0.00000000000E+00  0.00000000000E+00 -0.10092495643E+04  0.10092495643E+04  0.50400001928E-02 0. -1.
    10030    2    1    2    0    0  0.00000000000E+00  0.00000000000E+00  0.15336786943E+04  0.35521778230E+04  0.32040282378E+04 0.  0.
        1    1    3    3  502    0 -0.87109720403E+03 -0.13306853267E+04  0.97985057885E+03  0.18680580650E+04  0.50400001928E-02 0.  1.
       -1    1    3    3    0  502  0.87109720403E+03  0.13306853267E+04  0.55382811547E+03  0.16841197579E+04  0.50400001928E-02 0. -1.
</event>
<event>
 5   0  0.1886248E-06  0.3204314E+04  0.7818609E-02  0.8187679E-01
       -1   -1    0    0    0  501  0.00000000000E+00  0.00000000000E+00  0.98281775898E+03  0.98281775899E+03  0.50400001928E-02 0.  1.
        1   -1    0    0  501    0  0.00000000000E+00  0.00000000000E+00 -0.26117834865E+04  0.26117834865E+04  0.50400001928E-02 0. -1.
    10030    2    1    2    0    0  0.00000000000E+00  0.00000000000E+00 -0.16289657275E+04  0.35946012455E+04  0.32043140877E+04 0.  0.
        4    1    3    3  502    0  0.15388796479E+03 -0.82548420527E+03 -0.23451548810E+04  0.24909553805E+04  0.12699999809E+01 0. -1.
       -4    1    3    3    0  502 -0.15388796479E+03  0.82548420527E+03  0.71618915348E+03  0.11036458650E+04  0.12699999809E+01 0.  1.
</event>
<event>
 5   0  0.5121624E-06  0.3136966E+04  0.7818609E-02  0.8205665E-01
       -2   -1    0    0    0  501  0.00000000000E+00  0.00000000000E+00  0.24052954104E+04  0.24052954104E+04  0.25500000920E-02 0.  1.
        2   -1    0    0  501    0  0.00000000000E+00  0.00000000000E+00 -0.10228012331E+04  0.10228012331E+04  0.25500000920E-02 0. -1.
    10030    2    1    2    0    0  0.00000000000E+00  0.00000000000E+00  0.13824941773E+04  0.34280966436E+04  0.31369661215E+04 0.  0.
        4    1    3    3  502    0  0.14607278315E+04  0.16285254264E+03  0.12896928069E+04  0.19553914946E+04  0.12699999809E+01 0. -1.
       -4    1    3    3    0  502 -0.14607278315E+04 -0.16285254264E+03  0.92801370438E+02  0.14727051489E+04  0.12699999809E+01 0.  1.
</event>
<event>
 5   0  0.5121624E-06  0.3216967E+04  0.7818609E-02  0.8184351E-01
        2   -1    0    0  501    0  0.00000000000E+00  0.00000000000E+00  0.17231665609E+04  0.17231665609E+04  0.25500000920E-02 0.  1.
       -2   -1    0    0    0  501  0.00000000000E+00  0.00000000000E+00 -0.15014330918E+04  0.15014330918E+04  0.25500000920E-02 0. -1.
    10030    2    1    2    0    0  0.00000000000E+00  0.00000000000E+00  0.22173346909E+03  0.32245996527E+04  0.32169670793E+04 0.  0.
        4    1    3    3  502    0 -0.13389196663E+04  0.28614438336E+03  0.95704567593E+03  0.16704857137E+04  0.12699999809E+01 0.  1.
       -4    1    3    3    0  502  0.13389196663E+04 -0.28614438336E+03 -0.73531220684E+03  0.15541139390E+04  0.12699999809E+01 0. -1.
</event>
<event>
 5   0  0.1969465E-06  0.2788884E+04  0.7818609E-02  0.8306728E-01
        1   -1    0    0  501    0  0.00000000000E+00  0.00000000000E+00  0.14352970578E+04  0.14352970579E+04  0.50400001928E-02 0.  1.
       -1   -1    0    0    0  501  0.00000000000E+00  0.00000000000E+00 -0.13547496890E+04  0.13547496890E+04  0.50400001928E-02 0. -1.
    10030    2    1    2    0    0  0.00000000000E+00  0.00000000000E+00  0.80547368855E+02  0.27900467469E+04  0.27888838217E+04 0.  0.
        2    1    3    3  502    0 -0.80542607525E+03  0.31097452808E+03  0.11357425826E+04  0.14266490577E+04  0.25500000920E-02 0.  1.
       -2    1    3    3    0  502  0.80542607525E+03 -0.31097452808E+03 -0.10551952137E+04  0.13633976892E+04  0.25500000920E-02 0. -1.
</event>
<event>
 5   0  0.1969465E-06  0.3237059E+04  0.7818609E-02  0.8179098E-01
       -1   -1    0    0    0  501  0.00000000000E+00  0.00000000000E+00  0.30735155986E+04  0.30735155986E+04  0.50400001928E-02 0.  1.
        1   -1    0    0  501    0  0.00000000000E+00  0.00000000000E+00 -0.85232613761E+03  0.85232613763E+03  0.50400001928E-02 0. -1.
    10030    2    1    2    0    0  0.00000000000E+00  0.00000000000E+00  0.22211894610E+04  0.39258417362E+04  0.32370589609E+04 0.  0.
        2    1    3    3  502    0 -0.15019100245E+04 -0.26039010850E+03  0.17705311216E+04  0.23363041717E+04  0.25500000920E-02 0.  1.
       -2    1    3    3    0  502  0.15019100245E+04  0.26039010850E+03  0.45065833943E+03  0.15895375645E+04  0.25500000920E-02 0. -1.
</event>
<event>
 5   0  0.5347280E-06  0.3112752E+04  0.7818609E-02  0.8212247E-01
        2   -1    0    0  501    0  0.00000000000E+00  0.00000000000E+00  0.15643359803E+04  0.15643359803E+04  0.25500000920E-02 0. -1.
       -2   -1    0    0    0  501  0.00000000000E+00  0.00000000000E+00 -0.15484569012E+04  0.15484569012E+04  0.25500000920E-02 0.  1.
    10030    2    1    2    0    0  0.00000000000E+00  0.00000000000E+00  0.15879079101E+02  0.31127928814E+04  0.31127523797E+04 0.  0.
        2    1    3    3  502    0 -0.92118690036E+03  0.11776343435E+04 -0.42438413044E+03  0.15541910573E+04  0.25500000920E-02 0.  1.
       -2    1    3    3    0  502  0.92118690036E+03 -0.11776343435E+04  0.44026320955E+03  0.15586018241E+04  0.25500000920E-02 0. -1.
</event>
<event>
 5   0  0.5131083E-06  0.2982432E+04  0.7818609E-02  0.8248765E-01
        2   -1    0    0  501    0  0.00000000000E+00  0.00000000000E+00  0.19477272541E+04  0.19477272541E+04  0.25500000920E-02 0. -1.
       -2   -1    0    0    0  501  0.00000000000E+00  0.00000000000E+00 -0.11417023032E+04  0.11417023032E+04  0.25500000920E-02 0.  1.
    10030    2    1    2    0    0  0.00000000000E+00  0.00000000000E+00  0.80602495093E+03  0.30894295572E+04  0.29824316870E+04 0.  0.
        3    1    3    3  502    0 -0.12852925839E+04 -0.75613754952E+03  0.40103027401E+03  0.15441976269E+04  0.10100000352E+00 0. -1.
       -3    1    3    3    0  502  0.12852925839E+04  0.75613754952E+03  0.40499467691E+03  0.15452319303E+04  0.10100000352E+00 0.  1.
</event>
<event>
 5   0  0.5347280E-06  0.3182005E+04  0.7818609E-02  0.8193586E-01
       -2   -1    0    0    0  501  0.00000000000E+00  0.00000000000E+00  0.14785367455E+04  0.14785367455E+04  0.25500000920E-02 0.  1.
        2   -1    0    0  501    0  0.00000000000E+00  0.00000000000E+00 -0.17120233883E+04  0.17120233883E+04  0.25500000920E-02 0. -1.
    10030    2    1    2    0    0  0.00000000000E+00  0.00000000000E+00 -0.23348664274E+03  0.31905601338E+04  0.31820053355E+04 0.  0.
        2    1    3    3  502    0 -0.11415061511E+04  0.57129362495E+02 -0.12265113315E+04  0.16764933950E+04  0.25500000920E-02 0. -1.
       -2    1    3    3    0  502  0.11415061511E+04 -0.57129362495E+02  0.99302468878E+03  0.15140667388E+04  0.25500000920E-02 0.  1.
</event>
<event>
 5   0  0.5108810E-06  0.3316404E+04  0.7818609E-02  0.8158734E-01
        2   -1    0    0  501    0  0.00000000000E+00  0.00000000000E+00  0.15113921853E+04  0.15113921853E+04  0.25500000920E-02 0. -1.
       -2   -1    0    0    0  501  0.00000000000E+00  0.00000000000E+00 -0.18192719914E+04  0.18192719914E+04  0.25500000920E-02 0.  1.
    10030    2    1    2    0    0  0.00000000000E+00  0.00000000000E+00 -0.30787980607E+03  0.33306641767E+04  0.33164037575E+04 0.  0.
        1    1    3    3  502    0 -0.12277302992E+03 -0.76601856841E+03 -0.16257708168E+04  0.18013851373E+04  0.50400001928E-02 0.  1.
       -1    1    3    3    0  502  0.12277302992E+03  0.76601856841E+03  0.13178910108E+04  0.15292790394E+04  0.50400001928E-02 0. -1.
</event>
<event>
 5   0  0.1846850E-06  0.3205614E+04  0.7818609E-02  0.8187336E-01
       -1   -1    0    0    0  501  0.00000000000E+00  0.00000000000E+00  0.13884038333E+04  0.13884038334E+04  0.50400001928E-02 0. -1.
        1   -1    0    0  501    0  0.00000000000E+00  0.00000000000E+00 -0.18503186492E+04  0.18503186493E+04  0.50400001928E-02 0.  1.
    10030    2    1    2    0    0  0.00000000000E+00  0.00000000000E+00 -0.46191481590E+03  0.32387224826E+04  0.32056135173E+04 0.  0.
        5    1    3    3  502    0  0.99160006768E+03 -0.19863540208E+03 -0.14872798720E+04  0.17985411379E+04  0.46999998093E+01 0.  1.
       -5    1    3    3    0  502 -0.99160006768E+03  0.19863540208E+03  0.10253650561E+04  0.14401813447E+04  0.46999998093E+01 0. -1.
</event>
<event>
 5   0  0.5373060E-06  0.3166475E+04  0.7818609E-02  0.8197727E-01
        2   -1    0    0  501    0  0.00000000000E+00  0.00000000000E+00  0.22558266764E+04  0.22558266764E+04  0.25500000920E-02 0. -1.
       -2   -1    0    0    0  501  0.00000000000E+00  0.00000000000E+00 -0.11111853204E+04  0.11111853204E+04  0.25500000920E-02 0.  1.
    10030    2    1    2    0    0  0.00000000000E+00  0.00000000000E+00  0.11446413560E+04  0.33670119967E+04  0.31664753200E+04 0.  0.
        5    1    3    3  502    0  0.31135245068E+03 -0.93687894358E+03 -0.74377964046E+03  0.12360876777E+04  0.46999998093E+01 0.  1.
       -5    1    3    3    0  502 -0.31135245068E+03  0.93687894358E+03  0.18884209964E+04  0.21309243190E+04  0.46999998093E+01 0. -1.
</event>
<event>
 5   0  0.5121624E-06  0.3218985E+04  0.7818609E-02  0.8183821E-01
        2   -1    0    0  501    0  0.00000000000E+00  0.00000000000E+00  0.11936148381E+04  0.11936148381E+04  0.25500000920E-02 0. -1.
       -2   -1    0    0    0  501  0.00000000000E+00  0.00000000000E+00 -0.21702702030E+04  0.21702702030E+04  0.25500000920E-02 0.  1.
    10030    2    1    2    0    0  0.00000000000E+00  0.00000000000E+00 -0.97665536492E+03  0.33638850410E+04  0.32189853786E+04 0.  0.
        4    1    3    3  502    0  0.13815485876E+04 -0.74507181164E+03 -0.86023613905E+03  0.17899207614E+04  0.12699999809E+01 0.  1.
       -4    1    3    3    0  502 -0.13815485876E+04  0.74507181164E+03 -0.11641922587E+03  0.15739642796E+04  0.12699999809E+01 0. -1.
</event>
<event>
 5   0  0.5347280E-06  0.3145170E+04  0.7818609E-02  0.8203449E-01
        2   -1    0    0  501    0  0.00000000000E+00  0.00000000000E+00  0.28510356839E+04  0.28510356839E+04  0.25500000920E-02 0. -1.
       -2   -1    0    0    0  501  0.00000000000E+00  0.00000000000E+00 -0.86741262955E+03  0.86741262956E+03  0.25500000920E-02 0.  1.
    10030    2    1    2    0    0  0.00000000000E+00  0.00000000000E+00  0.19836230544E+04  0.37184483135E+04  0.31451704943E+04 0.  0.
        2    1    3    3  502    0  0.14807621500E+04  0.35135651301E+03  0.14601412764E+04  0.21090567776E+04  0.25500000920E-02 0. -1.
       -2    1    3    3    0  502 -0.14807621500E+04 -0.35135651301E+03  0.52348177799E+03  0.16093915359E+04  0.25500000920E-02 0.  1.
</event>
<event>
 5   0  0.1846850E-06  0.3303918E+04  0.7818609E-02  0.8161899E-01
        1   -1    0    0  501    0  0.00000000000E+00  0.00000000000E+00  0.19361568063E+04  0.19361568063E+04  0.50400001928E-02 0. -1.
       -1   -1    0    0    0  501  0.00000000000E+00  0.00000000000E+00 -0.14094767558E+04  0.14094767558E+04  0.50400001928E-02 0.  1.
    10030    2    1    2    0    0  0.00000000000E+00  0.00000000000E+00  0.52668005048E+03  0.33456335622E+04  0.33039176831E+04 0.  0.
        5    1    3    3  502    0 -0.47422497021E+03 -0.10428673959E+04  0.14685286407E+04  0.18625413247E+04  0.46999998093E+01 0. -1.
       -5    1    3    3    0  502  0.47422497021E+03  0.10428673959E+04 -0.94184859023E+03  0.14830922374E+04  0.46999998093E+01 0.  1.
</event>
<event>
 5   0  0.1846850E-06  0.2157605E+04  0.7818609E-02  0.8536284E-01
       -1   -1    0    0    0  501  0.00000000000E+00  0.00000000000E+00  0.83994592417E+03  0.83994592418E+03  0.50400001928E-02 0.  1.
        1   -1    0    0  501    0  0.00000000000E+00  0.00000000000E+00 -0.13855831352E+04  0.13855831352E+04  0.50400001928E-02 0. -1.
    10030    2    1    2    0    0  0.00000000000E+00  0.00000000000E+00 -0.54563721105E+03  0.22255290594E+04  0.21576050677E+04 0.  0.
        5    1    3    3  502    0 -0.78442231606E+03 -0.65729516632E+03  0.79153116796E+02  0.10264709502E+04  0.46999998093E+01 0.  1.
       -5    1    3    3    0  502  0.78442231606E+03  0.65729516632E+03 -0.62479032785E+03  0.11990581093E+04  0.46999998093E+01 0. -1.
</event>
<event>
 5   0  0.5108810E-06  0.3252452E+04  0.7818609E-02  0.8175100E-01
       -2   -1    0    0    0  501  0.00000000000E+00  0.00000000000E+00  0.14090469396E+04  0.14090469396E+04  0.25500000920E-02 0. -1.
        2   -1    0    0  501    0  0.00000000000E+00  0.00000000000E+00 -0.18768797240E+04  0.18768797240E+04  0.25500000920E-02 0.  1.
    10030    2    1    2    0    0  0.00000000000E+00  0.00000000000E+00 -0.46783278445E+03  0.32859266636E+04  0.32524523862E+04 0.  0.
        1    1    3    3  502    0 -0.85407248764E+03  0.57864550639E+03  0.10361380841E+04  0.14621397216E+04  0.50400001928E-02 0. -1.
       -1    1    3    3    0  502  0.85407248764E+03 -0.57864550639E+03 -0.15039708686E+04  0.18237869420E+04  0.50400001928E-02 0.  1.
</event>
<event>
 5   0  0.5373060E-06  0.3264016E+04  0.7818609E-02  0.8172112E-01
        2   -1    0    0  501    0  0.00000000000E+00  0.00000000000E+00  0.25487963632E+04  0.25487963632E+04  0.25500000920E-02 0. -1.
       -2   -1    0    0    0  501  0.00000000000E+00  0.00000000000E+00 -0.10449837235E+04  0.10449837235E+04  0.25500000920E-02 0.  1.
    10030    2    1    2    0    0  0.00000000000E+00  0.00000000000E+00  0.15038126397E+04  0.35937800867E+04  0.32640163689E+04 0.  0.
        5    1    3    3  502    0  0.91464036461E+03  0.10671297450E+04  0.16652276549E+04  0.21790681774E+04  0.46999998093E+01 0.  1.
       -5    1    3    3    0  502 -0.91464036461E+03 -0.10671297450E+04 -0.16141501518E+03  0.14147119093E+04  0.46999998093E+01 0. -1.
</event>
<event>
 5   0  0.5373060E-06  0.3189632E+04  0.7818609E-02  0.8191561E-01
        2   -1    0    0  501    0  0.00000000000E+00  0.00000000000E+00  0.96735525958E+03  0.96735525958E+03  0.25500000920E-02 0.  1.
       -2   -1    0    0    0  501  0.00000000000E+00  0.00000000000E+00 -0.26292705165E+04  0.26292705165E+04  0.25500000920E-02 0. -1.
    10030    2    1    2    0    0  0.00000000000E+00  0.00000000000E+00 -0.16619152569E+04  0.35966257761E+04  0.31896323694E+04 0.  0.
        5    1    3    3  502    0 -0.27808746230E+03  0.15175717438E+04 -0.12862897197E+04  0.20087110213E+04  0.46999998093E+01 0. -1.
       -5    1    3    3    0  502  0.27808746230E+03 -0.15175717438E+04 -0.37562553726E+03  0.15879147548E+04  0.46999998093E+01 0.  1.
</event>
<event>
 5   0  0.1886248E-06  0.3240378E+04  0.7818609E-02  0.8178234E-01
        1   -1    0    0  501    0  0.00000000000E+00  0.00000000000E+00  0.21488964228E+04  0.21488964228E+04  0.50400001928E-02 0. -1.
       -1   -1    0    0    0  501  0.00000000000E+00  0.00000000000E+00 -0.12215632874E+04  0.12215632875E+04  0.50400001928E-02 0.  1.
    10030    2    1    2    0    0  0.00000000000E+00  0.00000000000E+00  0.92733313538E+03  0.33704597103E+04  0.32403783598E+04 0.  0.
        4    1    3    3  502    0 -0.95749372256E+03 -0.83543638169E+03  0.15091344161E+04  0.19728751799E+04  0.12699999809E+01 0. -1.
       -4    1    3    3    0  502  0.95749372256E+03  0.83543638169E+03 -0.58180128069E+03  0.13975845304E+04  0.12699999809E+01 0.  1.
</event>
<event>
 5   0  0.1886248E-06  0.3303829E+04  0.7818609E-02  0.8161922E-01
        1   -1    0    0  501    0  0.00000000000E+00  0.00000000000E+00  0.20696358656E+04  0.20696358656E+04  0.50400001928E-02 0.  1.
       -1   -1    0    0    0  501  0.00000000000E+00  0.00000000000E+00 -0.13185031845E+04  0.13185031845E+04  0.50400001928E-02 0. -1.
    10030    2    1    2    0    0  0.00000000000E+00  0.00000000000E+00  0.75113268114E+03  0.33881390501E+04  0.33038289783E+04 0.  0.
        4    1    3    3  502    0  0.12227753347E+04  0.10718730626E+04  0.67407599942E+03  0.17602475529E+04  0.12699999809E+01 0.  1.
       -4    1    3    3    0  502 -0.12227753347E+04 -0.10718730626E+04  0.77056681713E+02  0.16278914972E+04  0.12699999809E+01 0. -1.
</event>
<event>
 5   0  0.1969465E-06  0.2971325E+04  0.7818609E-02  0.8251967E-01
       -1   -1    0    0    0  501  0.00000000000E+00  0.00000000000E+00  0.12014396776E+04  0.12014396776E+04  0.50400001928E-02 0. -1.
        1   -1    0    0  501    0  0.00000000000E+00  0.00000000000E+00 -0.18371232849E+04  0.18371232849E+04  0.50400001928E-02 0.  1.
    10030    2    1    2    0    0  0.00000000000E+00  0.00000000000E+00 -0.63568360732E+03  0.30385629625E+04  0.29713248271E+04 0.  0.
        2    1    3    3  502    0  0.27298270507E+03  0.11652147354E+04 -0.12180736091E+04  0.17076147850E+04  0.25500000920E-02 0.  1.
       -2    1    3    3    0  502 -0.27298270507E+03 -0.11652147354E+04  0.58239000175E+03  0.13309481775E+04  0.25500000920E-02 0. -1.
</event>
<event>
 5   0  0.5108810E-06  0.3210767E+04  0.7818609E-02  0.8185979E-01
        2   -1    0    0  501    0  0.00000000000E+00  0.00000000000E+00  0.11789634384E+04  0.11789634384E+04  0.25500000920E-02 0. -1.
       -2   -1    0    0    0  501  0.00000000000E+00  0.00000000000E+00 -0.21860358543E+04  0.21860358543E+04  0.25500000920E-02 0.  1.
    10030    2    1    2    0    0  0.00000000000E+00  0.00000000000E+00 -0.10070724159E+04  0.33649992927E+04  0.32107671029E+04 0.  0.
        1    1    3    3  502    0  0.88879690689E+03  0.79022102398E+03 -0.16336898449E+04  0.20207304912E+04  0.50400001928E-02 0.  1.
       -1    1    3    3    0  502 -0.88879690689E+03 -0.79022102398E+03  0.62661742904E+03  0.13442688016E+04  0.50400001928E-02 0. -1.
</event>
<event>
 5   0  0.5373060E-06  0.3003746E+04  0.7818609E-02  0.8242662E-01
        2   -1    0    0  501    0  0.00000000000E+00  0.00000000000E+00  0.23833849036E+04  0.23833849036E+04  0.25500000920E-02 0.  1.
       -2   -1    0    0    0  501  0.00000000000E+00  0.00000000000E+00 -0.94639466863E+03  0.94639466863E+03  0.25500000920E-02 0. -1.
    10030    2    1    2    0    0  0.00000000000E+00  0.00000000000E+00  0.14369902350E+04  0.33297795723E+04  0.30037461718E+04 0.  0.
        5    1    3    3  502    0  0.11828136772E+04  0.70853379008E+03  0.58440021060E+02  0.13800382794E+04  0.46999998093E+01 0. -1.
       -5    1    3    3    0  502 -0.11828136772E+04 -0.70853379008E+03  0.13785502140E+04  0.19497412928E+04  0.46999998093E+01 0.  1.
</event>
<event>
 5   0  0.5131083E-06  0.3319650E+04  0.7818609E-02  0.8157913E-01
        2   -1    0    0  501    0  0.00000000000E+00  0.00000000000E+00  0.22228470518E+04  0.22228470518E+04  0.25500000920E-02 0. -1.
       -2   -1    0    0    0  501  0.00000000000E+00  0.00000000000E+00 -0.12394102542E+04  0.12394102542E+04  0.25500000920E-02 0.  1.
    10030    2    1    2    0    0  0.00000000000E+00  0.00000000000E+00  0.98343679758E+03  0.34622573060E+04  0.33196502403E+04 0.  0.
        3    1    3    3  502    0 -0.40088704924E+03 -0.12355431333E+04 -0.58598736880E+03  0.14250117428E+04  0.10100000352E+00 0.  1.
       -3    1    3    3    0  502  0.40088704924E+03  0.12355431333E+04  0.15694241664E+04  0.20372455632E+04  0.10100000352E+00 0. -1.
</event>
<event>
 5   0  0.1886248E-06  0.3132708E+04  0.7818609E-02  0.8206818E-01
        1   -1    0    0  501    0  0.00000000000E+00  0.00000000000E+00  0.17533607164E+04  0.17533607164E+04  0.50400001928E-02 0.  1.
       -1   -1    0    0    0  501  0.00000000000E+00  0.00000000000E+00 -0.13992929108E+04  0.13992929108E+04  0.50400001928E-02 0. -1.
    10030    2    1    2    0    0  0.00000000000E+00  0.00000000000E+00  0.35406780553E+03  0.31526536272E+04  0.31327082345E+04 0.  0.
        4    1    3    3  502    0 -0.10777342570E+04  0.11272762892E+04  0.32356535841E+03  0.15927834489E+04  0.12699999809E+01 0.  1.
       -4    1    3    3    0  502  0.10777342570E+04 -0.11272762892E+04  0.30502447123E+02  0.15598701783E+04  0.12699999809E+01 0. -1.
</event>
<event>
 5   0  0.5108810E-06  0.3186770E+04  0.7818609E-02  0.8192320E-01
       -2   -1    0    0    0  501  0.00000000000E+00  0.00000000000E+00  0.10849619434E+04  0.10849619434E+04  0.25500000920E-02 0.  1.
        2   -1    0    0  501    0  0.00000000000E+00  0.00000000000E+00 -0.23400590253E+04  0.23400590253E+04  0.25500000920E-02 0. -1.
    10030    2    1    2    0    0  0.00000000000E+00  0.00000000000E+00 -0.12550970819E+04  0.34250209688E+04  0.31867695165E+04 0.  0.
        1    1    3    3  502    0 -0.99735674109E+03 -0.51295452432E+03 -0.18439938819E+04  0.21582762217E+04  0.50400001928E-02 0. -1.
       -1    1    3    3    0  502  0.99735674109E+03  0.51295452432E+03  0.58889679999E+03  0.12667447470E+04  0.50400001928E-02 0.  1.
</event>
<event>
 5   0  0.1886248E-06  0.3173044E+04  0.7818609E-02  0.8195973E-01
       -1   -1    0    0    0  501  0.00000000000E+00  0.00000000000E+00  0.18825224415E+04  0.18825224415E+04  0.50400001928E-02 0. -1.
        1   -1    0    0  501    0  0.00000000000E+00  0.00000000000E+00 -0.13370630914E+04  0.13370630914E+04  0.50400001928E-02 0.  1.
    10030    2    1    2    0    0  0.00000000000E+00  0.00000000000E+00  0.54545935015E+03  0.32195855329E+04  0.31730435076E+04 0.  0.
        4    1    3    3  502    0  0.12158635976E+04  0.14002648069E+03  0.12970508902E+04  0.17833323661E+04  0.12699999809E+01 0. -1.
       -4    1    3    3    0  502 -0.12158635976E+04 -0.14002648069E+03 -0.75159154005E+03  0.14362531668E+04  0.12699999809E+01 0.  1.
</event>
<event>
 5   0  0.5131083E-06  0.3232489E+04  0.7818609E-02  0.8180289E-01
        2   -1    0    0  501    0  0.00000000000E+00  0.00000000000E+00  0.16245361789E+04  0.16245361789E+04  0.25500000920E-02 0.  1.
       -2   -1    0    0    0  501  0.00000000000E+00  0.00000000000E+00 -0.16079947361E+04  0.16079947361E+04  0.25500000920E-02 0. -1.
    10030    2    1    2    0    0  0.00000000000E+00  0.00000000000E+00  0.16541442781E+02  0.32325309150E+04  0.32324885920E+04 0.  0.
        3    1    3    3  502    0 -0.30157967993E+02 -0.13533739896E+04  0.89129697980E+03  0.16207840619E+04  0.10100000352E+00 0.  1.
       -3    1    3    3    0  502  0.30157967993E+02  0.13533739896E+04 -0.87475553702E+03  0.16117468531E+04  0.10100000352E+00 0. -1.
</event>
<event>
 5   0  0.5121624E-06  0.2487295E+04  0.7818609E-02  0.8407526E-01
        2   -1    0    0  501    0  0.00000000000E+00  0.00000000000E+00  0.11475027627E+04  0.11475027628E+04  0.25500000920E-02 0.  1.
       -2   -1    0    0    0  501  0.00000000000E+00  0.00000000000E+00 -0.13478483568E+04  0.13478483568E+04  0.25500000920E-02 0. -1.
    10030    2    1    2    0    0  0.00000000000E+00  0.00000000000E+00 -0.20034559405E+03  0.24953511196E+04  0.24872954896E+04 0.  0.
        4    1    3    3  502    0  0.63276329801E+02  0.10862087110E+04 -0.70445641228E+03  0.12961920026E+04  0.12699999809E+01 0. -1.
       -4    1    3    3    0  502 -0.63276329801E+02 -0.10862087110E+04  0.50411081822E+03  0.11991591170E+04  0.12699999809E+01 0.  1.
</event>
<event>
 5   0  0.1977015E-06  0.3213440E+04  0.7818609E-02  0.8185277E-01
        1   -1    0    0  501    0  0.00000000000E+00  0.00000000000E+00  0.26236563123E+04  0.26236563123E+04  0.50400001928E-02 0. -1.
       -1   -1    0    0    0  501  0.00000000000E+00  0.00000000000E+00 -0.98395097283E+03  0.98395097284E+03  0.50400001928E-02 0.  1.
    10030    2    1    2    0    0  0.00000000000E+00  0.00000000000E+00  0.16397053395E+04  0.36076072851E+04  0.32134400140E+04 0.  0.
        1    1    3    3  502    0  0.13172691041E+04 -0.23329173875E+03  0.18189123407E+04  0.22578895082E+04  0.50400001928E-02 0. -1.
       -1    1    3    3    0  502 -0.13172691041E+04  0.23329173875E+03 -0.17920700124E+03  0.13497177769E+04  0.50400001928E-02 0.  1.
</event>
<event>
 5   0  0.5108810E-06  0.3166139E+04  0.7818609E-02  0.8197817E-01
        2   -1    0    0  501    0  0.00000000000E+00  0.00000000000E+00  0.22111761849E+04  0.22111761849E+04  0.25500000920E-02 0.  1.
       -2   -1    0    0    0  501  0.00000000000E+00  0.00000000000E+00 -0.11333829560E+04  0.11333829560E+04  0.25500000920E-02 0. -1.
    10030    2    1    2    0    0  0.00000000000E+00  0.00000000000E+00  0.10777932289E+04  0.33445591408E+04  0.31661392266E+04 0.  0.
        1    1    3    3  502    0  0.12842931913E+04  0.91149829290E+03  0.70880611856E+03  0.17270333677E+04  0.50400001928E-02 0. -1.
       -1    1    3    3    0  502 -0.12842931913E+04 -0.91149829290E+03  0.36898711032E+03  0.16175257732E+04  0.50400001928E-02 0.  1.
</event>
<event>
 5   0  0.1846850E-06  0.3253984E+04  0.7818609E-02  0.8174704E-01
        1   -1    0    0  501    0  0.00000000000E+00  0.00000000000E+00  0.18539998084E+04  0.18539998084E+04  0.50400001928E-02 0.  1.
       -1   -1    0    0    0  501  0.00000000000E+00  0.00000000000E+00 -0.14277796884E+04  0.14277796884E+04  0.50400001928E-02 0. -1.
    10030    2    1    2    0    0  0.00000000000E+00  0.00000000000E+00  0.42622012004E+03  0.32817794968E+04  0.32539841848E+04 0.  0.
        5    1    3    3  502    0  0.28615345010E+03  0.26292635592E+03  0.18065000654E+04  0.18478307937E+04  0.46999998093E+01 0.  1.
       -5    1    3    3    0  502 -0.28615345010E+03 -0.26292635592E+03 -0.13802799454E+04  0.14339487032E+04  0.46999998093E+01 0. -1.
</event>
<event>
 5   0  0.1846850E-06  0.3169484E+04  0.7818609E-02  0.8196923E-01
       -1   -1    0    0    0  501  0.00000000000E+00  0.00000000000E+00  0.11584878925E+04  0.11584878925E+04  0.50400001928E-02 0. -1.
        1   -1    0    0  501    0  0.00000000000E+00  0.00000000000E+00 -0.21678318013E+04  0.21678318013E+04  0.50400001928E-02 0.  1.
    10030    2    1    2    0    0  0.00000000000E+00  0.00000000000E+00 -0.10093439088E+04  0.33263196938E+04  0.31694838032E+04 0.  0.
        5    1    3    3  502    0 -0.18460150972E+03 -0.84253567841E+03 -0.18999086125E+04  0.20865327490E+04  0.46999998093E+01 0.  1.
       -5    1    3    3    0  502  0.18460150972E+03  0.84253567841E+03  0.89056470375E+03  0.12397869447E+04  0.46999998093E+01 0. -1.
</event>
<event>
 5   0  0.1977015E-06  0.3129620E+04  0.7818609E-02  0.8207656E-01
       -1   -1    0    0    0  501  0.00000000000E+00  0.00000000000E+00  0.10246066157E+04  0.10246066157E+04  0.50400001928E-02 0. -1.
        1   -1    0    0  501    0  0.00000000000E+00  0.00000000000E+00 -0.23898251246E+04  0.23898251246E+04  0.50400001928E-02 0.  1.
    10030    2    1    2    0    0  0.00000000000E+00  0.00000000000E+00 -0.13652185089E+04  0.34144317404E+04  0.31296201898E+04 0.  0.
        1    1    3    3  502    0  0.45750174317E+03  0.13366988429E+04  0.51337237588E+02  0.14137563983E+04  0.50400001928E-02 0. -1.
       -1    1    3    3    0  502 -0.45750174317E+03 -0.13366988429E+04 -0.14165557465E+04  0.20006753421E+04  0.50400001928E-02 0.  1.
</event>
<event>
 5   0  0.1881144E-06  0.3198779E+04  0.7818609E-02  0.8189140E-01
       -1   -1    0    0    0  501  0.00000000000E+00  0.00000000000E+00  0.10813008997E+04  0.10813008997E+04  0.50400001928E-02 0.  1.
        1   -1    0    0  501    0  0.00000000000E+00  0.00000000000E+00 -0.23657120763E+04  0.23657120763E+04  0.50400001928E-02 0. -1.
    10030    2    1    2    0    0  0.00000000000E+00  0.00000000000E+00 -0.12844111767E+04  0.34470129760E+04  0.31987788898E+04 0.  0.
        3    1    3    3  502    0 -0.91102547097E+03  0.59757398450E+03 -0.19039604044E+04  0.21936561507E+04  0.10100000352E+00 0. -1.
       -3    1    3    3    0  502  0.91102547097E+03 -0.59757398450E+03  0.61954922775E+03  0.12533568253E+04  0.10100000352E+00 0.  1.
</event>
<event>
 5   0  0.1881144E-06  0.3044791E+04  0.7818609E-02  0.8231055E-01
       -1   -1    0    0    0  501  0.00000000000E+00  0.00000000000E+00  0.16057126674E+04  0.16057126674E+04  0.50400001928E-02 0.  1.
        1   -1    0    0  501    0  0.00000000000E+00  0.00000000000E+00 -0.14434013013E+04  0.14434013013E+04  0.50400001928E-02 0. -1.
    10030    2    1    2    0    0  0.00000000000E+00  0.00000000000E+00  0.16231136611E+03  0.30491139686E+04  0.30447907997E+04 0.  0.
        3    1    3    3  502    0 -0.15610107933E+03  0.13876862306E+04  0.68835571275E+03  0.15568796418E+04  0.10100000352E+00 0.  1.
       -3    1    3    3    0  502  0.15610107933E+03 -0.13876862306E+04 -0.52604434663E+03  0.14922343269E+04  0.10100000352E+00 0. -1.
</event>
<event>
 5   0  0.1886248E-06  0.2795447E+04  0.7818609E-02  0.8304683E-01
       -1   -1    0    0    0  501  0.00000000000E+00  0.00000000000E+00  0.13610081841E+04  0.13610081841E+04  0.50400001928E-02 0.  1.
        1   -1    0    0  501    0  0.00000000000E+00  0.00000000000E+00 -0.14354297597E+04  0.14354297597E+04  0.50400001928E-02 0. -1.
    10030    2    1    2    0    0  0.00000000000E+00  0.00000000000E+00 -0.74421575538E+02  0.27964379438E+04  0.27954474781E+04 0.  0.
        4    1    3    3  502    0  0.15310635709E+03 -0.20587638201E+03  0.13372496093E+04  0.13616404708E+04  0.12699999809E+01 0.  1.
       -4    1    3    3    0  502 -0.15310635709E+03  0.20587638201E+03 -0.14116711849E+04  0.14347974730E+04  0.12699999809E+01 0. -1.
</event>
<event>
 5   0  0.1881144E-06  0.2998331E+04  0.7818609E-02  0.8244208E-01
        1   -1    0    0  501    0  0.00000000000E+00  0.00000000000E+00  0.17293293713E+04  0.17293293713E+04  0.50400001928E-02 0.  1.
       -1   -1    0    0    0  501  0.00000000000E+00  0.00000000000E+00 -0.12996347780E+04  0.12996347780E+04  0.50400001928E-02 0. -1.
    10030    2    1    2    0    0  0.00000000000E+00  0.00000000000E+00  0.42969459329E+03  0.30289641493E+04  0.29983305979E+04 0.  0.
        3    1    3    3  502    0  0.27396685971E+03  0.12218891476E+03 -0.12690057247E+04  0.13039798735E+04  0.10100000352E+00 0. -1.
       -3    1    3    3    0  502 -0.27396685971E+03 -0.12218891476E+03  0.16987003180E+04  0.17249842757E+04  0.10100000352E+00 0.  1.
</event>
<event>
 5   0  0.1977015E-06  0.3180249E+04  0.7818609E-02  0.8194053E-01
        1   -1    0    0  501    0  0.00000000000E+00  0.00000000000E+00  0.17242475028E+04  0.17242475028E+04  0.50400001928E-02 0. -1.
       -1   -1    0    0    0  501  0.00000000000E+00  0.00000000000E+00 -0.14664343391E+04  0.14664343391E+04  0.50400001928E-02 0.  1.
    10030    2    1    2    0    0  0.00000000000E+00  0.00000000000E+00  0.25781316372E+03  0.31906818418E+04  0.31802488878E+04 0.  0.
        1    1    3    3  502    0 -0.10751005054E+04 -0.32814066185E+03 -0.99949565604E+03  0.15041638731E+04  0.50400001928E-02 0.  1.
       -1    1    3    3    0  502  0.10751005054E+04  0.32814066185E+03  0.12573088198E+04  0.16865179688E+04  0.50400001928E-02 0. -1.
</event>
<event>
 5   0  0.1846850E-06  0.2675112E+04  0.7818609E-02  0.8343126E-01
        1   -1    0    0  501    0  0.00000000000E+00  0.00000000000E+00  0.11588816419E+04  0.11588816419E+04  0.50400001928E-02 0. -1.
       -1   -1    0    0    0  501  0.00000000000E+00  0.00000000000E+00 -0.15437782503E+04  0.15437782503E+04  0.50400001928E-02 0.  1.
    10030    2    1    2    0    0  0.00000000000E+00  0.00000000000E+00 -0.38489660841E+03  0.27026598921E+04  0.26751121646E+04 0.  0.
        5    1    3    3  502    0  0.58442991009E+03 -0.94117824867E+03 -0.94960523800E+03  0.14591596943E+04  0.46999998093E+01 0.  1.
       -5    1    3    3    0  502 -0.58442991009E+03  0.94117824867E+03  0.56470862960E+03  0.12435001978E+04  0.46999998093E+01 0. -1.
</event>
<event>
 5   0  0.5131083E-06  0.3356064E+04  0.7818609E-02  0.8148775E-01
        2   -1    0    0  501    0  0.00000000000E+00  0.00000000000E+00  0.10540424629E+04  0.10540424629E+04  0.25500000920E-02 0.  1.
       -2   -1    0    0    0  501  0.00000000000E+00  0.00000000000E+00 -0.26714206280E+04  0.26714206280E+04  0.25500000920E-02 0. -1.
    10030    2    1    2    0    0  0.00000000000E+00  0.00000000000E+00 -0.16173781651E+04  0.37254630909E+04  0.33560636336E+04 0.  0.
        3    1    3    3  502    0  0.10993157954E+04 -0.14760007878E+03 -0.22064552977E+04  0.24695598782E+04  0.10100000352E+00 0. -1.
       -3    1    3    3    0  502 -0.10993157954E+04  0.14760007878E+03  0.58907713257E+03  0.12559032127E+04  0.10100000352E+00 0.  1.
</event>
<event>
 5   0  0.5347280E-06  0.3153370E+04  0.7818609E-02  0.8201242E-01
       -2   -1    0    0    0  501  0.00000000000E+00  0.00000000000E+00  0.11260559152E+04  0.11260559152E+04  0.25500000920E-02 0. -1.
        2   -1    0    0  501    0  0.00000000000E+00  0.00000000000E+00 -0.22076482659E+04  0.22076482659E+04  0.25500000920E-02 0.  1.
    10030    2    1    2    0    0  0.00000000000E+00  0.00000000000E+00 -0.10815923507E+04  0.33337041811E+04  0.31533698727E+04 0.  0.
        2    1    3    3  502    0 -0.99236491240E+02 -0.13313321521E+04  0.34600873082E+03  0.13791356794E+04  0.25500000920E-02 0. -1.
       -2    1    3    3    0  502  0.99236491240E+02  0.13313321521E+04 -0.14276010815E+04  0.19545685018E+04  0.25500000920E-02 0.  1.
</event>
<event>
 5   0  0.1846850E-06  0.3196631E+04  0.7818609E-02  0.8189708E-01
       -1   -1    0    0    0  501  0.00000000000E+00  0.00000000000E+00  0.12645773553E+04  0.12645773553E+04  0.50400001928E-02 0. -1.
        1   -1    0    0  501    0  0.00000000000E+00  0.00000000000E+00 -0.20201309197E+04  0.20201309197E+04  0.50400001928E-02 0.  1.
    10030    2    1    2    0    0  0.00000000000E+00  0.00000000000E+00 -0.75555356434E+03  0.32847082750E+04  0.31966306110E+04 0.  0.
        5    1    3    3  502    0  0.73919062131E+03 -0.28287354173E+03 -0.18046223030E+04  0.19705593018E+04  0.46999998093E+01 0.  1.
       -5    1    3    3    0  502 -0.73919062131E+03  0.28287354173E+03  0.10490687387E+04  0.13141489732E+04  0.46999998093E+01 0. -1.
</event>
<event>
 5   0  0.5131083E-06  0.3158940E+04  0.7818609E-02  0.8199746E-01
       -2   -1    0    0    0  501  0.00000000000E+00  0.00000000000E+00  0.11723031224E+04  0.11723031224E+04  0.25500000920E-02 0.  1.
        2   -1    0    0  501    0  0.00000000000E+00  0.00000000000E+00 -0.21280549081E+04  0.21280549081E+04  0.25500000920E-02 0. -1.
    10030    2    1    2    0    0  0.00000000000E+00  0.00000000000E+00 -0.95575178571E+03  0.33003580305E+04  0.31589399573E+04 0.  0.
        3    1    3    3  502    0 -0.41500194282E+03 -0.38934953580E+03  0.10614839994E+04  0.12043952693E+04  0.10100000352E+00 0.  1.
       -3    1    3    3    0  502  0.41500194282E+03  0.38934953580E+03 -0.20172357851E+04  0.20959627612E+04  0.10100000352E+00 0. -1.
</event>
<event>
 5   0  0.5108810E-06  0.3222839E+04  0.7818609E-02  0.8182811E-01
        2   -1    0    0  501    0  0.00000000000E+00  0.00000000000E+00  0.19236994722E+04  0.19236994722E+04  0.25500000920E-02 0.  1.
       -2   -1    0    0    0  501  0.00000000000E+00  0.00000000000E+00 -0.13498332243E+04  0.13498332243E+04  0.25500000920E-02 0. -1.
    10030    2    1    2    0    0  0.00000000000E+00  0.00000000000E+00  0.57386624790E+03  0.32735326965E+04  0.32228394072E+04 0.  0.
        1    1    3    3  502    0 -0.69096952206E+03 -0.95305701233E+03 -0.83079245575E+03  0.14408236026E+04  0.50400001928E-02 0. -1.
       -1    1    3    3    0  502  0.69096952206E+03  0.95305701233E+03  0.14046587037E+04  0.18327090939E+04  0.50400001928E-02 0.  1.
</event>
<event>
 5   0  0.5121624E-06  0.3162083E+04  0.7818609E-02  0.8198903E-01
        2   -1    0    0  501    0  0.00000000000E+00  0.00000000000E+00  0.26562053258E+04  0.26562053258E+04  0.25500000920E-02 0. -1.
       -2   -1    0    0    0  501  0.00000000000E+00  0.00000000000E+00 -0.94107628607E+03  0.94107628607E+03  0.25500000920E-02 0.  1.
    10030    2    1    2    0    0  0.00000000000E+00  0.00000000000E+00  0.17151290398E+04  0.35972816119E+04  0.31620827586E+04 0.  0.
        4    1    3    3  502    0 -0.85448322959E+03 -0.96660908307E+02  0.23668898787E+04  0.25182641306E+04  0.12699999809E+01 0. -1.
       -4    1    3    3    0  502  0.85448322959E+03  0.96660908307E+02 -0.65176083893E+03  0.10790174813E+04  0.12699999809E+01 0.  1.
</event>
<event>
 5   0  0.5347280E-06  0.3427588E+04  0.7818609E-02  0.8131168E-01
       -2   -1    0    0    0  501  0.00000000000E+00  0.00000000000E+00  0.17988233205E+04  0.17988233205E+04  0.25500000920E-02 0.  1.
        2   -1    0    0  501    0  0.00000000000E+00  0.00000000000E+00 -0.16327841201E+04  0.16327841201E+04  0.25500000920E-02 0. -1.
    10030    2    1    2    0    0  0.00000000000E+00  0.00000000000E+00  0.16603920041E+03  0.34316074406E+04  0.34275881623E+04 0.  0.
        2    1    3    3  502    0 -0.93313031831E+03 -0.13663232422E+04  0.53021861121E+03  0.17374415584E+04  0.25500000920E-02 0.  1.
       -2    1    3    3    0  502  0.93313031831E+03  0.13663232422E+04 -0.36417941080E+03  0.16941658822E+04  0.25500000920E-02 0. -1.
</event>
<event>
 5   0  0.1846850E-06  0.3190635E+04  0.7818609E-02  0.8191295E-01
       -1   -1    0    0    0  501  0.00000000000E+00  0.00000000000E+00  0.15276434976E+04  0.15276434976E+04  0.50400001928E-02 0. -1.
        1   -1    0    0  501    0  0.00000000000E+00  0.00000000000E+00 -0.16659895591E+04  0.16659895591E+04  0.50400001928E-02 0.  1.
    10030    2    1    2    0    0  0.00000000000E+00  0.00000000000E+00 -0.13834606156E+03  0.31936330567E+04  0.31906351199E+04 0.  0.
        5    1    3    3  502    0 -0.10531701953E+04 -0.48788880506E+03  0.10263017890E+04  0.15493612872E+04  0.46999998093E+01 0. -1.
       -5    1    3    3    0  502  0.10531701953E+04  0.48788880506E+03 -0.11646478505E+04  0.16442717695E+04  0.46999998093E+01 0.  1.
</event>
<event>
 5   0  0.5347280E-06  0.3052689E+04  0.7818609E-02  0.8228843E-01
        2   -1    0    0  501    0  0.00000000000E+00  0.00000000000E+00  0.13694977999E+04  0.13694977999E+04  0.25500000920E-02 0.  1.
       -2   -1    0    0    0  501  0.00000000000E+00  0.00000000000E+00 -0.17011549566E+04  0.17011549566E+04  0.25500000920E-02 0. -1.
    10030    2    1    2    0    0  0.00000000000E+00  0.00000000000E+00 -0.33165715678E+03  0.30706527565E+04  0.30526892867E+04 0.  0.
        2    1    3    3  502    0  0.50247503526E+03  0.72819016939E+03 -0.14169264361E+04  0.16704558088E+04  0.25500000920E-02 0. -1.
       -2    1    3    3    0  502 -0.50247503526E+03 -0.72819016939E+03  0.10852692793E+04  0.14001969477E+04  0.25500000920E-02 0.  1.
</event>
<event>
 5   0  0.1846850E-06  0.3240400E+04  0.7818609E-02  0.8178228E-01
       -1   -1    0    0    0  501  0.00000000000E+00  0.00000000000E+00  0.17294218898E+04  0.17294218898E+04  0.50400001928E-02 0. -1.
        1   -1    0    0  501    0  0.00000000000E+00  0.00000000000E+00 -0.15178762137E+04  0.15178762137E+04  0.50400001928E-02 0.  1.
    10030    2    1    2    0    0  0.00000000000E+00  0.00000000000E+00  0.21154567609E+03  0.32472981035E+04  0.32404001913E+04 0.  0.
        5    1    3    3  502    0 -0.11256832105E+04  0.10995581206E+04 -0.28084046030E+03  0.15984630759E+04  0.46999998093E+01 0.  1.
       -5    1    3    3    0  502  0.11256832105E+04 -0.10995581206E+04  0.49238613638E+03  0.16488350276E+04  0.46999998093E+01 0. -1.
</event>
<event>
 5   0  0.1886248E-06  0.3303253E+04  0.7818609E-02  0.8162068E-01
       -1   -1    0    0    0  501  0.00000000000E+00  0.00000000000E+00  0.13166834497E+04  0.13166834497E+04  0.50400001928E-02 0.  1.
        1   -1    0    0  501    0  0.00000000000E+00  0.00000000000E+00 -0.20717737408E+04  0.20717737408E+04  0.50400001928E-02 0. -1.
    10030    2    1    2    0    0  0.00000000000E+00  0.00000000000E+00 -0.75509029115E+03  0.33884571905E+04  0.33032530609E+04 0.  0.
        4    1    3    3  502    0  0.10943308965E+04  0.67517164913E+03  0.68574945633E+03  0.14572819894E+04  0.12699999809E+01 0.  1.
       -4    1    3    3    0  502 -0.10943308965E+04 -0.67517164913E+03 -0.14408397475E+04  0.19311752012E+04  0.12699999809E+01 0. -1.
</event>
<event>
 5   0  0.1969465E-06  0.2678027E+04  0.7818609E-02  0.8342170E-01
       -1   -1    0    0    0  501  0.00000000000E+00  0.00000000000E+00  0.22320181658E+04  0.22320181658E+04  0.50400001928E-02 0.  1.
        1   -1    0    0  501    0  0.00000000000E+00  0.00000000000E+00 -0.80328969657E+03  0.80328969659E+03  0.50400001928E-02 0. -1.
    10030    2    1    2    0    0  0.00000000000E+00  0.00000000000E+00  0.14287284692E+04  0.30353078624E+04  0.26780270313E+04 0.  0.
        2    1    3    3  502    0 -0.26535574107E+03 -0.41731295054E+03 -0.69599078977E+03  0.85379561223E+03  0.25500000920E-02 0. -1.
       -2    1    3    3    0  502  0.26535574107E+03  0.41731295054E+03  0.21247192590E+04  0.21815122501E+04  0.25500000920E-02 0.  1.
</event>
<event>
 5   0  0.1886248E-06  0.2471380E+04  0.7818609E-02  0.8413253E-01
        1   -1    0    0  501    0  0.00000000000E+00  0.00000000000E+00  0.10640849788E+04  0.10640849788E+04  0.50400001928E-02 0.  1.
       -1   -1    0    0    0  501  0.00000000000E+00  0.00000000000E+00 -0.14349698008E+04  0.14349698008E+04  0.50400001928E-02 0. -1.
    10030    2    1    2    0    0  0.00000000000E+00  0.00000000000E+00 -0.37088482207E+03  0.24990547796E+04  0.24713800275E+04 0.  0.
        4    1    3    3  502    0 -0.23634361122E+03 -0.14997475757E+02 -0.14118072582E+04  0.14315322469E+04  0.12699999809E+01 0. -1.
       -4    1    3    3    0  502  0.23634361122E+03  0.14997475757E+02  0.10409224361E+04  0.10675225327E+04  0.12699999809E+01 0.  1.
</event>
<event>
 5   0  0.5108810E-06  0.3187179E+04  0.7818609E-02  0.8192212E-01
       -2   -1    0    0    0  501  0.00000000000E+00  0.00000000000E+00  0.14983416104E+04  0.14983416104E+04  0.25500000920E-02 0. -1.
        2   -1    0    0  501    0  0.00000000000E+00  0.00000000000E+00 -0.16948917065E+04  0.16948917065E+04  0.25500000920E-02 0.  1.
    10030    2    1    2    0    0  0.00000000000E+00  0.00000000000E+00 -0.19655009610E+03  0.31932333170E+04  0.31871785448E+04 0.  0.
        1    1    3    3  502    0  0.63103163602E+03 -0.75222763057E+03 -0.13558405874E+04  0.16740224109E+04  0.50400001928E-02 0.  1.
       -1    1    3    3    0  502 -0.63103163602E+03  0.75222763057E+03  0.11592904913E+04  0.15192109061E+04  0.50400001928E-02 0. -1.
</event>
<event>
 5   0  0.5121624E-06  0.2686560E+04  0.7818609E-02  0.8339379E-01
       -2   -1    0    0    0  501  0.00000000000E+00  0.00000000000E+00  0.13822135425E+04  0.13822135425E+04  0.25500000920E-02 0.  1.
        2   -1    0    0  501    0  0.00000000000E+00  0.00000000000E+00 -0.13054432426E+04  0.13054432427E+04  0.25500000920E-02 0. -1.
    10030    2    1    2    0    0  0.00000000000E+00  0.00000000000E+00  0.76770299813E+02  0.26876567851E+04  0.26865601269E+04 0.  0.
        4    1    3    3  502    0  0.64106771441E+03 -0.34581951434E+03  0.11674914093E+04  0.13760802137E+04  0.12699999809E+01 0.  1.
       -4    1    3    3    0  502 -0.64106771441E+03  0.34581951434E+03 -0.10907211095E+04  0.13115765714E+04  0.12699999809E+01 0. -1.
</event>
<event>
 5   0  0.1881144E-06  0.2419672E+04  0.7818609E-02  0.8432175E-01
       -1   -1    0    0    0  501  0.00000000000E+00  0.00000000000E+00  0.90833637973E+03  0.90833637974E+03  0.50400001928E-02 0. -1.
        1   -1    0    0  501    0  0.00000000000E+00  0.00000000000E+00 -0.16114104185E+04  0.16114104185E+04  0.50400001928E-02 0.  1.
    10030    2    1    2    0    0  0.00000000000E+00  0.00000000000E+00 -0.70307403879E+03  0.25197467983E+04  0.24196716354E+04 0.  0.
        3    1    3    3  502    0 -0.37904124337E+03 -0.49134619136E+03  0.72997801044E+03  0.95810294325E+03  0.10100000352E+00 0. -1.
       -3    1    3    3    0  502  0.37904124337E+03  0.49134619136E+03 -0.14330520492E+04  0.15616438550E+04  0.10100000352E+00 0.  1.
</event>
<event>
 5   0  0.5131083E-06  0.3059528E+04  0.7818609E-02  0.8226934E-01
       -2   -1    0    0    0  501  0.00000000000E+00  0.00000000000E+00  0.10015925645E+04  0.10015925645E+04  0.25500000920E-02 0.  1.
        2   -1    0    0  501    0  0.00000000000E+00  0.00000000000E+00 -0.23364574244E+04  0.23364574244E+04  0.25500000920E-02 0. -1.
    10030    2    1    2    0    0  0.00000000000E+00  0.00000000000E+00 -0.13348648599E+04  0.33380499889E+04  0.30595283189E+04 0.  0.
        3    1    3    3  502    0  0.37629873334E+03  0.13483584232E+04 -0.13404397652E+04  0.19381563272E+04  0.10100000352E+00 0. -1.
       -3    1    3    3    0  502 -0.37629873334E+03 -0.13483584232E+04  0.55749053664E+01  0.13998936617E+04  0.10100000352E+00 0.  1.
</event>
<event>
 5   0  0.1881144E-06  0.2764589E+04  0.7818609E-02  0.8314347E-01
        1   -1    0    0  501    0  0.00000000000E+00  0.00000000000E+00  0.16523735309E+04  0.16523735309E+04  0.50400001928E-02 0. -1.
       -1   -1    0    0    0  501  0.00000000000E+00  0.00000000000E+00 -0.11563599204E+04  0.11563599204E+04  0.50400001928E-02 0.  1.
    10030    2    1    2    0    0  0.00000000000E+00  0.00000000000E+00  0.49601361046E+03  0.28087334513E+04  0.27645893183E+04 0.  0.
        3    1    3    3  502    0  0.65595823819E+03  0.10468890303E+04 -0.38195925437E+03  0.12931166747E+04  0.10100000352E+00 0.  1.
       -3    1    3    3    0  502 -0.65595823819E+03 -0.10468890303E+04  0.87797286482E+03  0.15156167766E+04  0.10100000352E+00 0. -1.
</event>
<event>
 5   0  0.1969465E-06  0.3096316E+04  0.7818609E-02  0.8216750E-01
        1   -1    0    0  501    0  0.00000000000E+00  0.00000000000E+00  0.23957326313E+04  0.23957326313E+04  0.50400001928E-02 0.  1.
       -1   -1    0    0    0  501  0.00000000000E+00  0.00000000000E+00 -0.10004428128E+04  0.10004428128E+04  0.50400001928E-02 0. -1.
    10030    2    1    2    0    0  0.00000000000E+00  0.00000000000E+00  0.13952898185E+04  0.33961754441E+04  0.30963161934E+04 0.  0.
        2    1    3    3  502    0  0.17568714757E+03  0.25421092765E+03 -0.96627278481E+03  0.10144812784E+04  0.25500000920E-02 0. -1.
       -2    1    3    3    0  502 -0.17568714757E+03 -0.25421092765E+03  0.23615626033E+04  0.23816941657E+04  0.25500000920E-02 0.  1.
</event>
<event>
 5   0  0.5347280E-06  0.2142458E+04  0.7818609E-02  0.8542768E-01
       -2   -1    0    0    0  501  0.00000000000E+00  0.00000000000E+00  0.90097378045E+03  0.90097378046E+03  0.25500000920E-02 0. -1.
        2   -1    0    0  501    0  0.00000000000E+00  0.00000000000E+00 -0.12736569765E+04  0.12736569765E+04  0.25500000920E-02 0.  1.
    10030    2    1    2    0    0  0.00000000000E+00  0.00000000000E+00 -0.37268319605E+03  0.21746307570E+04  0.21424579726E+04 0.  0.
        2    1    3    3  502    0 -0.33635917909E+03 -0.63849619194E+03 -0.98988406402E+03  0.12250246302E+04  0.25500000920E-02 0.  1.
       -2    1    3    3    0  502  0.33635917909E+03  0.63849619194E+03  0.61720086798E+03  0.94960612672E+03  0.25500000920E-02 0. -1.
</event>
<event>
 5   0  0.1729500E-06  0.2381355E+04  0.7818609E-02  0.8446517E-01
       -3   -1    0    0    0  501  0.00000000000E+00  0.00000000000E+00  0.21683671505E+04  0.21683671528E+04  0.10100000352E+00 0.  1.
        3   -1    0    0  501    0  0.00000000000E+00  0.00000000000E+00 -0.65381607512E+03  0.65381608292E+03  0.10100000352E+00 0. -1.
    10030    2    1    2    0    0  0.00000000000E+00  0.00000000000E+00  0.15145510753E+04  0.28221832357E+04  0.23813553402E+04 0.  0.
        2    1    3    3  502    0 -0.69916626316E+03 -0.12177219279E+02 -0.38482965591E+03  0.79817016500E+03  0.25500000920E-02 0. -1.
       -2    1    3    3    0  502  0.69916626316E+03  0.12177219279E+02  0.18993807313E+04  0.20240130707E+04  0.25500000920E-02 0.  1.
</event>
<event>
 5   0  0.1977015E-06  0.3237847E+04  0.7818609E-02  0.8178893E-01
        1   -1    0    0  501    0  0.00000000000E+00  0.00000000000E+00  0.15557758129E+04  0.15557758129E+04  0.50400001928E-02 0.  1.
       -1   -1    0    0    0  501  0.00000000000E+00  0.00000000000E+00 -0.16846346245E+04  0.16846346245E+04  0.50400001928E-02 0. -1.
    10030    2    1    2    0    0  0.00000000000E+00  0.00000000000E+00 -0.12885881162E+03  0.32404104375E+04  0.32378473111E+04 0.  0.
        1    1    3    3  502    0  0.77682223007E+03  0.87438077411E+03  0.10557954511E+04  0.15756581323E+04  0.50400001928E-02 0.  1.
       -1    1    3    3    0  502 -0.77682223007E+03 -0.87438077411E+03 -0.11846542627E+04  0.16647523052E+04  0.50400001928E-02 0. -1.
</event>
<event>
 5   0  0.5121624E-06  0.2108843E+04  0.7818609E-02  0.8557358E-01
       -2   -1    0    0    0  501  0.00000000000E+00  0.00000000000E+00  0.79243746860E+03  0.79243746860E+03  0.25500000920E-02 0. -1.
        2   -1    0    0  501    0  0.00000000000E+00  0.00000000000E+00 -0.14030193618E+04  0.14030193618E+04  0.25500000920E-02 0.  1.
    10030    2    1    2    0    0  0.00000000000E+00  0.00000000000E+00 -0.61058189324E+03  0.21954568304E+04  0.21088433906E+04 0.  0.
        4    1    3    3  502    0  0.97746903863E+03  0.12205741296E+03  0.86267898860E+02  0.98883137936E+03  0.12699999809E+01 0. -1.
       -4    1    3    3    0  502 -0.97746903863E+03 -0.12205741296E+03 -0.69684979210E+03  0.12066254511E+04  0.12699999809E+01 0.  1.
</event>
<event>
 5   0  0.1977015E-06  0.3235917E+04  0.7818609E-02  0.8179395E-01
       -1   -1    0    0    0  501  0.00000000000E+00  0.00000000000E+00  0.90153637724E+03  0.90153637725E+03  0.50400001928E-02 0.  1.
        1   -1    0    0  501    0  0.00000000000E+00  0.00000000000E+00 -0.29036991286E+04  0.29036991286E+04  0.50400001928E-02 0. -1.
    10030    2    1    2    0    0  0.00000000000E+00  0.00000000000E+00 -0.20021627513E+04  0.38052355058E+04  0.32359174235E+04 0.  0.
        1    1    3    3  502    0  0.92092569672E+03 -0.27471250830E+03  0.52954404315E+03  0.10972638674E+04  0.50400001928E-02 0.  1.
       -1    1    3    3    0  502 -0.92092569672E+03  0.27471250830E+03 -0.25317067945E+04  0.27079716384E+04  0.50400001928E-02 0. -1.
</event>
<event>
 5   0  0.5121624E-06  0.3147178E+04  0.7818609E-02  0.8202908E-01
       -2   -1    0    0    0  501  0.00000000000E+00  0.00000000000E+00  0.12466739276E+04  0.12466739276E+04  0.25500000920E-02 0.  1.
        2   -1    0    0  501    0  0.00000000000E+00  0.00000000000E+00 -0.19862315140E+04  0.19862315140E+04  0.25500000920E-02 0. -1.
    10030    2    1    2    0    0  0.00000000000E+00  0.00000000000E+00 -0.73955758635E+03  0.32329054416E+04  0.31471784460E+04 0.  0.
        4    1    3    3  502    0  0.14939694138E+04  0.31534989527E+03  0.21100634450E+02  0.15270353681E+04  0.12699999809E+01 0.  1.
       -4    1    3    3    0  502 -0.14939694138E+04 -0.31534989527E+03 -0.76065822080E+03  0.17058700735E+04  0.12699999809E+01 0. -1.
</event>
<event>
 5   0  0.5373060E-06  0.3165781E+04  0.7818609E-02  0.8197913E-01
       -2   -1    0    0    0  501  0.00000000000E+00  0.00000000000E+00  0.17238032723E+04  0.17238032723E+04  0.25500000920E-02 0.  1.
        2   -1    0    0  501    0  0.00000000000E+00  0.00000000000E+00 -0.14534970327E+04  0.14534970327E+04  0.25500000920E-02 0. -1.
    10030    2    1    2    0    0  0.00000000000E+00  0.00000000000E+00  0.27030623967E+03  0.31773003050E+04  0.31657813830E+04 0.  0.
        5    1    3    3  502    0  0.13612099412E+02  0.47128376776E+03 -0.13813800223E+04  0.14596323287E+04  0.46999998093E+01 0. -1.
       -5    1    3    3    0  502 -0.13612099412E+02 -0.47128376776E+03  0.16516862619E+04  0.17176679763E+04  0.46999998093E+01 0.  1.
</event>
<event>
 5   0  0.1886248E-06  0.2151467E+04  0.7818609E-02  0.8538905E-01
       -1   -1    0    0    0  501  0.00000000000E+00  0.00000000000E+00  0.10843478536E+04  0.10843478536E+04  0.50400001928E-02 0. -1.
        1   -1    0    0  501    0  0.00000000000E+00  0.00000000000E+00 -0.10671872680E+04  0.10671872680E+04  0.50400001928E-02 0.  1.
    10030    2    1    2    0    0  0.00000000000E+00  0.00000000000E+00  0.17160585654E+02  0.21515351216E+04  0.21514666843E+04 0.  0.
        4    1    3    3  502    0  0.19313764540E+03 -0.47847344687E+03 -0.93535736627E+03  0.10682387397E+04  0.12699999809E+01 0.  1.
       -4    1    3    3    0  502 -0.19313764540E+03  0.47847344687E+03  0.95251795193E+03  0.10832963819E+04  0.12699999809E+01 0. -1.
</event>
<event>
 5   0  0.5373060E-06  0.3168316E+04  0.7818609E-02  0.8197235E-01
        2   -1    0    0  501    0  0.00000000000E+00  0.00000000000E+00  0.22115684350E+04  0.22115684350E+04  0.25500000920E-02 0. -1.
       -2   -1    0    0    0  501  0.00000000000E+00  0.00000000000E+00 -0.11347407223E+04  0.11347407223E+04  0.25500000920E-02 0.  1.
    10030    2    1    2    0    0  0.00000000000E+00  0.00000000000E+00  0.10768277127E+04  0.33463091573E+04  0.31683161227E+04 0.  0.
        5    1    3    3  502    0  0.15061426179E+04  0.27218553185E+03  0.97000760552E+03  0.18120395674E+04  0.46999998093E+01 0.  1.
       -5    1    3    3    0  502 -0.15061426179E+04 -0.27218553185E+03  0.10682010722E+03  0.15342695899E+04  0.46999998093E+01 0. -1.
</event>
<event>
 5   0  0.1969465E-06  0.3139120E+04  0.7818609E-02  0.8205083E-01
        1   -1    0    0  501    0  0.00000000000E+00  0.00000000000E+00  0.11586281424E+04  0.11586281424E+04  0.50400001928E-02 0. -1.
       -1   -1    0    0    0  501  0.00000000000E+00  0.00000000000E+00 -0.21262380661E+04  0.21262380661E+04  0.50400001928E-02 0.  1.
    10030    2    1    2    0    0  0.00000000000E+00  0.00000000000E+00 -0.96760992369E+03  0.32848662086E+04  0.31391204252E+04 0.  0.
        2    1    3    3  502    0  0.63865863062E+03 -0.57839202613E+03 -0.18566211527E+04  0.20468180884E+04  0.25500000920E-02 0.  1.
       -2    1    3    3    0  502 -0.63865863062E+03  0.57839202613E+03  0.88901122906E+03  0.12380481201E+04  0.25500000920E-02 0. -1.
</event>
<event>
 5   0  0.5347280E-06  0.3209446E+04  0.7818609E-02  0.8186327E-01
       -2   -1    0    0    0  501  0.00000000000E+00  0.00000000000E+00  0.16053396801E+04  0.16053396801E+04  0.25500000920E-02 0. -1.
        2   -1    0    0  501    0  0.00000000000E+00  0.00000000000E+00 -0.16041061003E+04  0.16041061003E+04  0.25500000920E-02 0.  1.
    10030    2    1    2    0    0  0.00000000000E+00  0.00000000000E+00  0.12335797811E+01  0.32094457804E+04  0.32094455433E+04 0.  0.
        2    1    3    3  502    0 -0.11388636099E+03 -0.71995293514E+02 -0.15984398464E+04  0.16041082782E+04  0.25500000920E-02 0.  1.
       -2    1    3    3    0  502  0.11388636099E+03  0.71995293514E+02  0.15996734262E+04  0.16053375022E+04  0.25500000920E-02 0. -1.
</event>
<event>
 5   0  0.1846850E-06  0.2264352E+04  0.7818609E-02  0.8492111E-01
       -1   -1    0    0    0  501  0.00000000000E+00  0.00000000000E+00  0.97854849105E+03  0.97854849106E+03  0.50400001928E-02 0. -1.
        1   -1    0    0  501    0  0.00000000000E+00  0.00000000000E+00 -0.13099224834E+04  0.13099224834E+04  0.50400001928E-02 0.  1.
    10030    2    1    2    0    0  0.00000000000E+00  0.00000000000E+00 -0.33137399238E+03  0.22884709745E+04  0.22643521542E+04 0.  0.
        5    1    3    3  502    0  0.10540502237E+04 -0.15405772853E+03  0.22186185516E+03  0.10881178386E+04  0.46999998093E+01 0. -1.
       -5    1    3    3    0  502 -0.10540502237E+04  0.15405772853E+03 -0.55323584753E+03  0.12003531359E+04  0.46999998093E+01 0.  1.
</event>
</LesHouchesEvents>
