<LesHouchesEvents version="3.0">
<header>
<!--
#*********************************************************************
#                                                                    *
#                        MadGraph5_aMC@NLO                           *
#                                                                    *
#                           Going Beyond                             *
#                                                                    *
#                   http://madgraph.hep.uiuc.edu                     *
#                   http://madgraph.phys.ucl.ac.be                   *
#                   http://amcatnlo.cern.ch                          *
#                                                                    *
#                     The MadGraph5_aMC@NLO team                     *
#                                                                    *
#....................................................................*
#                                                                    *
# This file contains all the information necessary to reproduce      *
# the events generated:                                              *
#                                                                    *
# 1. software version                                                *
# 2. proc_card          : code generation info including model       *
# 3. param_card         : model primary parameters in the LH format  *
# 4. run_card           : running parameters (collider and cuts)     *
# 5. pythia_card        : present only if pythia has been run        *
# 6. pgs_card           : present only if pgs has been run           *
# 7. delphes_cards      : present only if delphes has been run       *
#                                                                    *
#                                                                    *
#*********************************************************************
-->
<MGVersion>
#5.2.2.3
</MGVersion>
<MG5ProcCard>
#************************************************************
#*                     MadGraph5_aMC@NLO                    *
#*                                                          *
#*                *                       *                 *
#*                  *        * *        *                   *
#*                    * * * * 5 * * * *                     *
#*                  *        * *        *                   *
#*                *                       *                 *
#*                                                          *
#*                                                          *
#*         VERSION 2.2.3                 2015-02-10         *
#*                                                          *
#*    The MadGraph5_aMC@NLO Development Team - Find us at   *
#*    https://server06.fynu.ucl.ac.be/projects/madgraph     *
#*                                                          *
#************************************************************
#*                                                          *
#*               Command File for MadGraph5_aMC@NLO         *
#*                                                          *
#*     run as ./bin/mg5_aMC  filename                       *
#*                                                          *
#************************************************************
set group_subprocesses Auto
set ignore_six_quark_processes False
set loop_optimized_output True
set gauge unitary
set complex_mass_scheme False
import model sm
define p = g u c d s u~ c~ d~ s~
define j = g u c d s u~ c~ d~ s~
define l+ = e+ mu+
define l- = e- mu-
define vl = ve vm vt
define vl~ = ve~ vm~ vt~
import model Zprime_UFO
generate p p > zph, zph > j j
add process p p > zph, zph > b b~
output Dijet_signal
</MG5ProcCard>
<MGProcCard>
#*********************************************************************
#                        MadGraph/MadEvent                           *
#                   http://madgraph.hep.uiuc.edu                     *
#                                                                    *
#                          proc_card.dat                             *
#*********************************************************************
#                                                                    *
#            This Files is generated by MADGRAPH 5                   *
#                                                                    *
# WARNING: This Files is generated for MADEVENT (compatibility issue)*
#          This files is NOT a valid MG4 proc_card.dat               *
#          Running this in MG4 will NEVER reproduce the result of MG5*
#                                                                    *
#*********************************************************************
#*********************************************************************
# Process(es) requested : mg2 input                                  *
#*********************************************************************
# Begin PROCESS # This is TAG. Do not modify this line
p p > zph , zph > j j           #Process
# Be carefull the coupling are here in MG5 convention
          
end_coup           # End the couplings input

done               # this tells MG there are no more procs
# End PROCESS  # This is TAG. Do not modify this line
#*********************************************************************
# Model information                                                  *
#*********************************************************************
# Begin MODEL  # This is TAG. Do not modify this line
Zprime_UFO
# End   MODEL  # This is TAG. Do not modify this line
#*********************************************************************
# Start multiparticle definitions                                    *
#*********************************************************************
# Begin MULTIPARTICLES # This is TAG. Do not modify this line

# End  MULTIPARTICLES # This is TAG. Do not modify this line
</MGProcCard>
<MGRunCard>
#*********************************************************************
#                       MadGraph5_aMC@NLO                            *
#                                                                    *
#                     run_card.dat MadEvent                          *
#                                                                    *
#  This file is used to set the parameters of the run.               *
#                                                                    *
#  Some notation/conventions:                                        *
#                                                                    *
#   Lines starting with a '# ' are info or comments                  *
#                                                                    *
#   mind the format:   value    = variable     ! comment             *
#*********************************************************************
#
#*******************                                                 
# Running parameters
#*******************                                                 
#                                                                    
#*********************************************************************
# Tag name for the run (one word)                                    *
#*********************************************************************
  tag_1     = run_tag ! name of the run 
#*********************************************************************
# Run to generate the grid pack                                      *
#*********************************************************************
  .false.     = gridpack  !True = setting up the grid pack
#*********************************************************************
# Number of events and rnd seed                                      *
# Warning: Do not generate more than 1M events in a single run       *
# If you want to run Pythia, avoid more than 50k events in a run.    *
#*********************************************************************
  2000 = nevents ! Number of unweighted events requested 
 534 = iseed   ! rnd seed (0=assigned automatically=default))
#*********************************************************************
# Collider type and energy                                           *
# lpp: 0=No PDF, 1=proton, -1=antiproton, 2=photon from proton,      *
#                                         3=photon from electron     *
#*********************************************************************
        1     = lpp1    ! beam 1 type 
        1     = lpp2    ! beam 2 type
     4000     = ebeam1  ! beam 1 total energy in GeV
     4000     = ebeam2  ! beam 2 total energy in GeV
#*********************************************************************
# Beam polarization from -100 (left-handed) to 100 (right-handed)    *
#*********************************************************************
        0     = polbeam1 ! beam polarization for beam 1
        0     = polbeam2 ! beam polarization for beam 2
#*********************************************************************
# PDF CHOICE: this automatically fixes also alpha_s and its evol.    *
#*********************************************************************
 'nn23lo1'    = pdlabel     ! PDF set                                     
 230000    = lhaid     ! if pdlabel=lhapdf, this is the lhapdf number
#*********************************************************************
# Renormalization and factorization scales                           *
#*********************************************************************
 F        = fixed_ren_scale  ! if .true. use fixed ren scale
 F        = fixed_fac_scale  ! if .true. use fixed fac scale
 91.1880  = scale            ! fixed ren scale
 91.1880  = dsqrt_q2fact1    ! fixed fact scale for pdf1
 91.1880  = dsqrt_q2fact2    ! fixed fact scale for pdf2
 1        = scalefact        ! scale factor for event-by-event scales
#*********************************************************************
# Matching - Warning! ickkw > 1 is still beta
#*********************************************************************
 0        = ickkw            ! 0 no matching, 1 MLM, 2 CKKW matching
 1        = highestmult      ! for ickkw=2, highest mult group
 1        = ktscheme         ! for ickkw=1, 1 Durham kT, 2 Pythia pTE
 1        = alpsfact         ! scale factor for QCD emission vx
 F        = chcluster        ! cluster only according to channel diag
 T        = pdfwgt           ! for ickkw=1, perform pdf reweighting
 5        = asrwgtflavor     ! highest quark flavor for a_s reweight
 T        = clusinfo         ! include clustering tag in output
 3.0      = lhe_version       ! Change the way clustering information pass to shower.        
#*********************************************************************
#**********************************************************
#
#**********************************************************
# Automatic ptj and mjj cuts if xqcut > 0
# (turn off for VBF and single top processes)
#**********************************************************
   T  = auto_ptj_mjj  ! Automatic setting of ptj and mjj
#**********************************************************
#                                                                    
#**********************************
# BW cutoff (M+/-bwcutoff*Gamma)
#**********************************
  15  = bwcutoff      ! (M+/-bwcutoff*Gamma)
#**********************************************************
# Apply pt/E/eta/dr/mij cuts on decay products or not
# (note that etmiss/ptll/ptheavy/ht/sorted cuts always apply)
#**********************************************************
   T  = cut_decays    ! Cut decay products 
#*************************************************************
# Number of helicities to sum per event (0 = all helicities)
# 0 gives more stable result, but longer run time (needed for
# long decay chains e.g.).
# Use >=2 if most helicities contribute, e.g. pure QCD.
#*************************************************************
   0  = nhel          ! Number of helicities used per event
#*******************                                                 
# Standard Cuts
#*******************                                                 
#                                                                    
#*********************************************************************
# Minimum and maximum pt's (for max, -1 means no cut)                *
#*********************************************************************
 20  = ptj       ! minimum pt for the jets 
  0  = ptb       ! minimum pt for the b 
 10  = pta       ! minimum pt for the photons 
 10  = ptl       ! minimum pt for the charged leptons 
  0  = misset    ! minimum missing Et (sum of neutrino's momenta)
  0  = ptheavy   ! minimum pt for one heavy final state
 1.0 = ptonium   ! minimum pt for the quarkonium states
 -1  = ptjmax    ! maximum pt for the jets
 -1  = ptbmax    ! maximum pt for the b
 -1  = ptamax    ! maximum pt for the photons
 -1  = ptlmax    ! maximum pt for the charged leptons
 -1  = missetmax ! maximum missing Et (sum of neutrino's momenta)
#*********************************************************************
# Minimum and maximum E's (in the center of mass frame)              *
#*********************************************************************
  0  = ej     ! minimum E for the jets 
  0  = eb     ! minimum E for the b 
  0  = ea     ! minimum E for the photons 
  0  = el     ! minimum E for the charged leptons 
 -1   = ejmax ! maximum E for the jets
 -1   = ebmax ! maximum E for the b
 -1   = eamax ! maximum E for the photons
 -1   = elmax ! maximum E for the charged leptons
#*********************************************************************
# Maximum and minimum absolute rapidity (for max, -1 means no cut)   *
#*********************************************************************
   5  = etaj    ! max rap for the jets 
  -1  = etab    ! max rap for the b
 2.5  = etaa    ! max rap for the photons 
 2.5  = etal    ! max rap for the charged leptons 
 0.6  = etaonium ! max rap for the quarkonium states
   0  = etajmin ! min rap for the jets
   0  = etabmin ! min rap for the b
   0  = etaamin ! min rap for the photons
   0  = etalmin ! main rap for the charged leptons
#*********************************************************************
# Minimum and maximum DeltaR distance                                *
#*********************************************************************
 0.4 = drjj    ! min distance between jets 
 0   = drbb    ! min distance between b's 
 0.4 = drll    ! min distance between leptons 
 0.4 = draa    ! min distance between gammas 
 0   = drbj    ! min distance between b and jet 
 0.4 = draj    ! min distance between gamma and jet 
 0.4 = drjl    ! min distance between jet and lepton 
 0   = drab    ! min distance between gamma and b 
 0   = drbl    ! min distance between b and lepton 
 0.4 = dral    ! min distance between gamma and lepton 
 -1  = drjjmax ! max distance between jets
 -1  = drbbmax ! max distance between b's
 -1  = drllmax ! max distance between leptons
 -1  = draamax ! max distance between gammas
 -1  = drbjmax ! max distance between b and jet
 -1  = drajmax ! max distance between gamma and jet
 -1  = drjlmax ! max distance between jet and lepton
 -1  = drabmax ! max distance between gamma and b
 -1  = drblmax ! max distance between b and lepton
 -1  = dralmax ! maxdistance between gamma and lepton
#*********************************************************************
# Minimum and maximum invariant mass for pairs                       *
# WARNING: for four lepton final state mmll cut require to have      *
#          different lepton masses for each flavor!                  *           
#*********************************************************************
 0   = mmjj    ! min invariant mass of a jet pair 
 0   = mmbb    ! min invariant mass of a b pair 
 0   = mmaa    ! min invariant mass of gamma gamma pair
 0   = mmll    ! min invariant mass of l+l- (same flavour) lepton pair
 -1  = mmjjmax ! max invariant mass of a jet pair
 -1  = mmbbmax ! max invariant mass of a b pair
 -1  = mmaamax ! max invariant mass of gamma gamma pair
 -1  = mmllmax ! max invariant mass of l+l- (same flavour) lepton pair
#*********************************************************************
# Minimum and maximum invariant mass for all letpons                 *
#*********************************************************************
 0   = mmnl    ! min invariant mass for all letpons (l+- and vl) 
 -1  = mmnlmax ! max invariant mass for all letpons (l+- and vl) 
#*********************************************************************
# Minimum and maximum pt for 4-momenta sum of leptons                *
#*********************************************************************
 0   = ptllmin  ! Minimum pt for 4-momenta sum of leptons(l and vl)
 -1  = ptllmax  ! Maximum pt for 4-momenta sum of leptons(l and vl)
#*********************************************************************
# Inclusive cuts                                                     *
#*********************************************************************
 0  = xptj ! minimum pt for at least one jet  
 0  = xptb ! minimum pt for at least one b 
 0  = xpta ! minimum pt for at least one photon 
 0  = xptl ! minimum pt for at least one charged lepton 
#*********************************************************************
# Control the pt's of the jets sorted by pt                          *
#*********************************************************************
 0   = ptj1min ! minimum pt for the leading jet in pt
 0   = ptj2min ! minimum pt for the second jet in pt
 0   = ptj3min ! minimum pt for the third jet in pt
 0   = ptj4min ! minimum pt for the fourth jet in pt
 -1  = ptj1max ! maximum pt for the leading jet in pt 
 -1  = ptj2max ! maximum pt for the second jet in pt
 -1  = ptj3max ! maximum pt for the third jet in pt
 -1  = ptj4max ! maximum pt for the fourth jet in pt
 0   = cutuse  ! reject event if fails any (0) / all (1) jet pt cuts
#*********************************************************************
# Control the pt's of leptons sorted by pt                           *
#*********************************************************************
 0   = ptl1min ! minimum pt for the leading lepton in pt
 0   = ptl2min ! minimum pt for the second lepton in pt
 0   = ptl3min ! minimum pt for the third lepton in pt
 0   = ptl4min ! minimum pt for the fourth lepton in pt
 -1  = ptl1max ! maximum pt for the leading lepton in pt 
 -1  = ptl2max ! maximum pt for the second lepton in pt
 -1  = ptl3max ! maximum pt for the third lepton in pt
 -1  = ptl4max ! maximum pt for the fourth lepton in pt
#*********************************************************************
# Control the Ht(k)=Sum of k leading jets                            *
#*********************************************************************
 0   = htjmin ! minimum jet HT=Sum(jet pt)
 -1  = htjmax ! maximum jet HT=Sum(jet pt)
 0   = ihtmin  !inclusive Ht for all partons (including b)
 -1  = ihtmax  !inclusive Ht for all partons (including b)
 0   = ht2min ! minimum Ht for the two leading jets
 0   = ht3min ! minimum Ht for the three leading jets
 0   = ht4min ! minimum Ht for the four leading jets
 -1  = ht2max ! maximum Ht for the two leading jets
 -1  = ht3max ! maximum Ht for the three leading jets
 -1  = ht4max ! maximum Ht for the four leading jets
#***********************************************************************
# Photon-isolation cuts, according to hep-ph/9801442                   *
# When ptgmin=0, all the other parameters are ignored                  *
# When ptgmin>0, pta and draj are not going to be used                 *
#***********************************************************************
   0 = ptgmin ! Min photon transverse momentum
 0.4 = R0gamma ! Radius of isolation code
 1.0 = xn ! n parameter of eq.(3.4) in hep-ph/9801442
 1.0 = epsgamma ! epsilon_gamma parameter of eq.(3.4) in hep-ph/9801442
 .true. = isoEM ! isolate photons from EM energy (photons and leptons)
#*********************************************************************
# WBF cuts                                                           *
#*********************************************************************
 0   = xetamin ! minimum rapidity for two jets in the WBF case  
 0   = deltaeta ! minimum rapidity for two jets in the WBF case 
#*********************************************************************
# KT DURHAM CUT                                                      *
#*********************************************************************
 -1    =  ktdurham        
 0.4  =  dparameter 
#*********************************************************************
# maximal pdg code for quark to be considered as a light jet         *
# (otherwise b cuts are applied)                                     *
#*********************************************************************
 4 = maxjetflavor    ! Maximum jet pdg code
#*********************************************************************
# Jet measure cuts                                                   *
#*********************************************************************
 0   = xqcut   ! minimum kt jet measure between partons
#*********************************************************************
#
#*********************************************************************
# Store info for systematics studies                                 *
# WARNING: If use_syst is T, matched Pythia output is                *
#          meaningful ONLY if plotted taking matchscale              *
#          reweighting into account!                                 *
#*********************************************************************
   F  = use_syst      ! Enable systematics studies
#
#**************************************
# Parameter of the systematics study
#  will be used by SysCalc (if installed)
#**************************************                                  
#
0.5 1 2 = sys_scalefact  # factorization/renormalization scale factor
0.5 1 2 = sys_alpsfact  # \alpha_s emission scale factors
30 50 = sys_matchscale # variation of merging scale
# PDF sets and number of members (0 or none for all members).
CT10nlo.LHgrid = sys_pdf # matching scales
# MSTW2008nlo68cl.LHgrid 1  = sys_pdf
</MGRunCard>
<slha>
######################################################################
## PARAM_CARD AUTOMATICALY GENERATED BY MG5 FOLLOWING UFO MODEL   ####
######################################################################
##                                                                  ##
##  Width set on Auto will be computed following the information    ##
##        present in the decay.py files of the model.               ##
##        See  arXiv:1402.1178 for more details.                    ##
##                                                                  ##
######################################################################

###################################
## INFORMATION FOR CKMBLOCK
###################################
Block ckmblock 
    1 2.277360e-01 # cabi 

###################################
## INFORMATION FOR FRBLOCK
###################################
Block frblock 
    1 2.000000e-01 # gz 

###################################
## INFORMATION FOR MASS
###################################
Block mass 
    1 5.040000e-03 # MD 
    2 2.550000e-03 # MU 
    3 1.010000e-01 # MS 
    4 1.270000e+00 # MC 
    5 4.700000e+00 # MB 
    6 1.720000e+02 # MT 
   11 5.110000e-04 # Me 
   13 1.056600e-01 # MM 
   15 1.777000e+00 # MTA 
   23 9.118760e+01 # MZ 
   25 1.200000e+02 # MH 
  10030 9.000000e+02 # MZph 
  10031 3.000000e+02 # MZpl 
## Dependent parameters, given by model restrictions.
## Those values should be edited following the 
## analytical expression. MG5 ignores those values 
## but they are important for interfacing the output of MG5
## to external program such as Pythia.
  12 0.000000 # ve : 0.0 
  14 0.000000 # vm : 0.0 
  16 0.000000 # vt : 0.0 
  21 0.000000 # g : 0.0 
  22 0.000000 # a : 0.0 
  24 79.824360 # w+ : cmath.sqrt(MZ__exp__2/2. + cmath.sqrt(MZ__exp__4/4. - (aEW*cmath.pi*MZ__exp__2)/(Gf*sqrt__2))) 

###################################
## INFORMATION FOR SMINPUTS
###################################
Block sminputs 
    1 1.279000e+02 # aEWM1 
    2 1.166370e-05 # Gf 
    3 1.184000e-01 # aS 

###################################
## INFORMATION FOR YUKAWA
###################################
Block yukawa 
    1 5.040000e-03 # ymdo 
    2 2.550000e-03 # ymup 
    3 1.010000e-01 # yms 
    4 1.270000e+00 # ymc 
    5 4.700000e+00 # ymb 
    6 1.720000e+02 # ymt 
   11 5.110000e-04 # yme 
   13 1.056600e-01 # ymm 
   15 1.777000e+00 # ymtau 

###################################
## INFORMATION FOR DECAY
###################################
DECAY   6 1.508336e+00 # WT 
DECAY  23 2.495200e+00 # WZ 
DECAY  24 2.085000e+00 # WW 
DECAY  25 5.753088e-03 # WH 
## Dependent parameters, given by model restrictions.
## Those values should be edited following the 
## analytical expression. MG5 ignores those values 
## but they are important for interfacing the output of MG5
## to external program such as Pythia.
DECAY  1 0.000000 # d : 0.0 
DECAY  2 0.000000 # u : 0.0 
DECAY  3 0.000000 # s : 0.0 
DECAY  4 0.000000 # c : 0.0 
DECAY  5 0.000000 # b : 0.0 
DECAY  11 0.000000 # e- : 0.0 
DECAY  12 0.000000 # ve : 0.0 
DECAY  13 0.000000 # mu- : 0.0 
DECAY  14 0.000000 # vm : 0.0 
DECAY  15 0.000000 # ta- : 0.0 
DECAY  16 0.000000 # vt : 0.0 
DECAY  21 0.000000 # g : 0.0 
DECAY  22 0.000000 # a : 0.0 
DECAY  10030 0.308725 # zph : (gz__exp__2*MZph*(5 + cmath.sqrt(1 - (4*MT__exp__2)/MZph__exp__2)))/(144.*cmath.pi) 
DECAY  10031 0.132629 # zpl : (5*gz__exp__2*MZpl)/(144.*cmath.pi) 
#===========================================================
# QUANTUM NUMBERS OF NEW STATE(S) (NON SM PDG CODE)
#===========================================================

Block QNUMBERS 10030  # zph 
        1 0  # 3 times electric charge
        2 3  # number of spin states (2S+1)
        3 1  # colour rep (1: singlet, 3: triplet, 8: octet)
        4 0  # Particle/Antiparticle distinction (0=own anti)
Block QNUMBERS 10031  # zpl 
        1 0  # 3 times electric charge
        2 3  # number of spin states (2S+1)
        3 1  # colour rep (1: singlet, 3: triplet, 8: octet)
        4 0  # Particle/Antiparticle distinction (0=own anti)
</slha>
## END BANNER##
<MGGenerationInfo>
#  Number of Events        :         4090
#  Integrated weight (pb)  :  0.12770E+00
#  Max wgt                 :  0.42435E-04
#  Average wgt             :  0.31222E-04
</MGGenerationInfo>
</header>
<init>
     2212     2212  0.40000000000E+04  0.40000000000E+04 0 0  247000  247000 2   1
  0.12759852957E+00  0.27665999113E-03  0.42435160000E-04   0
</init>
<event>
 5   0  0.4243516E-04  0.9000763E+03  0.7818609E-02  0.9425486E-01
       -2   -1    0    0    0  501  0.00000000000E+00  0.00000000000E+00  0.13560114195E+03  0.13560114198E+03  0.25500000920E-02 0. -1.
        2   -1    0    0  501    0  0.00000000000E+00  0.00000000000E+00 -0.14936035246E+04  0.14936035247E+04  0.25500000920E-02 0.  1.
    10030    2    1    2    0    0  0.00000000000E+00  0.00000000000E+00 -0.13580023827E+04  0.16292046666E+04  0.90007631585E+03 0.  0.
        1    1    3    3  502    0  0.38832500598E+03  0.94279374775E+02 -0.30431399742E+03  0.50228669088E+03  0.50400001928E-02 0. -1.
       -1    1    3    3    0  502 -0.38832500598E+03 -0.94279374775E+02 -0.10536883853E+04  0.11269179758E+04  0.50400001928E-02 0.  1.
</event>
<event>
 5   0  0.1596250E-04  0.8991944E+03  0.7818609E-02  0.9426589E-01
       -3   -1    0    0    0  501  0.00000000000E+00  0.00000000000E+00  0.14621854152E+03  0.14621857641E+03  0.10100000352E+00 0. -1.
        3   -1    0    0  501    0  0.00000000000E+00  0.00000000000E+00 -0.13824348195E+04  0.13824348232E+04  0.10100000352E+00 0.  1.
    10030    2    1    2    0    0  0.00000000000E+00  0.00000000000E+00 -0.12362162780E+04  0.15286533996E+04  0.89919437841E+03 0.  0.
        5    1    3    3  502    0 -0.28270425069E+01 -0.35213817897E+03 -0.14299357198E+03  0.38010332922E+03  0.46999998093E+01 0. -1.
       -5    1    3    3    0  502  0.28270425069E+01  0.35213817897E+03 -0.10932227060E+04  0.11485500704E+04  0.46999998093E+01 0.  1.
</event>
<event>
 5   0  0.4243516E-04  0.8991538E+03  0.7818609E-02  0.9426640E-01
        2   -1    0    0  501    0  0.00000000000E+00  0.00000000000E+00  0.51054113684E+03  0.51054113685E+03  0.25500000920E-02 0.  1.
       -2   -1    0    0    0  501  0.00000000000E+00  0.00000000000E+00 -0.39589245575E+03  0.39589245576E+03  0.25500000920E-02 0. -1.
    10030    2    1    2    0    0  0.00000000000E+00  0.00000000000E+00  0.11464868108E+03  0.90643359261E+03  0.89915378981E+03 0.  0.
        1    1    3    3  502    0  0.23292293887E+02 -0.31287075036E+03  0.38193877415E+03  0.49427509001E+03  0.50400001928E-02 0.  1.
       -1    1    3    3    0  502 -0.23292293887E+02  0.31287075036E+03 -0.26729009306E+03  0.41215850259E+03  0.50400001928E-02 0. -1.
</event>
<event>
 5   0  0.4110039E-04  0.8999396E+03  0.7818609E-02  0.9425657E-01
       -2   -1    0    0    0  501  0.00000000000E+00  0.00000000000E+00  0.10829198228E+03  0.10829198231E+03  0.25500000920E-02 0. -1.
        2   -1    0    0  501    0  0.00000000000E+00  0.00000000000E+00 -0.18696933539E+04  0.18696933539E+04  0.25500000920E-02 0.  1.
    10030    2    1    2    0    0  0.00000000000E+00  0.00000000000E+00 -0.17614013716E+04  0.19779853362E+04  0.89993955259E+03 0.  0.
        3    1    3    3  502    0 -0.48587975917E+02 -0.26870238442E+03 -0.94626163814E+02  0.28899114843E+03  0.10100000352E+00 0. -1.
       -3    1    3    3    0  502  0.48587975917E+02  0.26870238442E+03 -0.16667752078E+04  0.16889941877E+04  0.10100000352E+00 0.  1.
</event>
<event>
 5   0  0.4243516E-04  0.9007336E+03  0.7818609E-02  0.9424665E-01
        2   -1    0    0  501    0  0.00000000000E+00  0.00000000000E+00  0.50902182304E+03  0.50902182305E+03  0.25500000920E-02 0. -1.
       -2   -1    0    0    0  501  0.00000000000E+00  0.00000000000E+00 -0.39847061640E+03  0.39847061641E+03  0.25500000920E-02 0.  1.
    10030    2    1    2    0    0  0.00000000000E+00  0.00000000000E+00  0.11055120664E+03  0.90749243946E+03  0.90073356681E+03 0.  0.
        1    1    3    3  502    0  0.39915760764E+03 -0.94793839147E+02  0.24245876865E+03  0.47654897145E+03  0.50400001928E-02 0.  1.
       -1    1    3    3    0  502 -0.39915760764E+03  0.94793839147E+02 -0.13190756201E+03  0.43094346800E+03  0.50400001928E-02 0. -1.
</event>
<event>
 5   0  0.4110039E-04  0.8997020E+03  0.7818609E-02  0.9425954E-01
       -2   -1    0    0    0  501  0.00000000000E+00  0.00000000000E+00  0.63709862467E+03  0.63709862467E+03  0.25500000920E-02 0. -1.
        2   -1    0    0  501    0  0.00000000000E+00  0.00000000000E+00 -0.31763670310E+03  0.31763670311E+03  0.25500000920E-02 0.  1.
    10030    2    1    2    0    0  0.00000000000E+00  0.00000000000E+00  0.31946192157E+03  0.95473532778E+03  0.89970196553E+03 0.  0.
        3    1    3    3  502    0 -0.28195041705E+03  0.32443808075E+03  0.30055001374E+03  0.52448682241E+03  0.10100000352E+00 0. -1.
       -3    1    3    3    0  502  0.28195041705E+03 -0.32443808075E+03  0.18911907834E+02  0.43024850537E+03  0.10100000352E+00 0.  1.
</event>
<event>
 5   0  0.2308362E-04  0.9000282E+03  0.7818609E-02  0.9425546E-01
       -1   -1    0    0    0  501  0.00000000000E+00  0.00000000000E+00  0.12565666673E+03  0.12565666683E+03  0.50400001928E-02 0. -1.
        1   -1    0    0  501    0  0.00000000000E+00  0.00000000000E+00 -0.16116352110E+04  0.16116352110E+04  0.50400001928E-02 0.  1.
    10030    2    1    2    0    0  0.00000000000E+00  0.00000000000E+00 -0.14859785443E+04  0.17372918778E+04  0.90002824110E+03 0.  0.
        1    1    3    3  502    0 -0.36905339278E+00 -0.19954663974E+03 -0.15215671058E+04  0.15345961863E+04  0.50400001928E-02 0.  1.
       -1    1    3    3    0  502  0.36905339278E+00  0.19954663974E+03  0.35588561503E+02  0.20269569154E+03  0.50400001928E-02 0. -1.
</event>
<event>
 5   0  0.2450427E-04  0.9009204E+03  0.7818609E-02  0.9424432E-01
       -1   -1    0    0    0  501  0.00000000000E+00  0.00000000000E+00  0.34346285211E+03  0.34346285214E+03  0.50400001928E-02 0. -1.
        1   -1    0    0  501    0  0.00000000000E+00  0.00000000000E+00 -0.59078997616E+03  0.59078997618E+03  0.50400001928E-02 0.  1.
    10030    2    1    2    0    0  0.00000000000E+00  0.00000000000E+00 -0.24732712405E+03  0.93425282833E+03  0.90092044096E+03 0.  0.
        3    1    3    3  502    0  0.90461525569E+02  0.81780872574E+02 -0.57334666355E+03  0.58617216373E+03  0.10100000352E+00 0.  1.
       -3    1    3    3    0  502 -0.90461525569E+02 -0.81780872574E+02  0.32601953950E+03  0.34808066459E+03  0.10100000352E+00 0. -1.
</event>
<event>
 5   0  0.4243516E-04  0.9000472E+03  0.7818609E-02  0.9425522E-01
       -2   -1    0    0    0  501  0.00000000000E+00  0.00000000000E+00  0.19516510868E+03  0.19516510870E+03  0.25500000920E-02 0. -1.
        2   -1    0    0  501    0  0.00000000000E+00  0.00000000000E+00 -0.10376918990E+04  0.10376918990E+04  0.25500000920E-02 0.  1.
    10030    2    1    2    0    0  0.00000000000E+00  0.00000000000E+00 -0.84252679030E+03  0.12328570077E+04  0.90004722599E+03 0.  0.
        1    1    3    3  502    0 -0.16726538725E+02  0.13998402585E+03 -0.10066630080E+04  0.10164869484E+04  0.50400001928E-02 0.  1.
       -1    1    3    3    0  502  0.16726538725E+02 -0.13998402585E+03  0.16413621766E+03  0.21637005931E+03  0.50400001928E-02 0. -1.
</event>
<event>
 5   0  0.2332791E-04  0.8988147E+03  0.7818609E-02  0.9427064E-01
       -1   -1    0    0    0  501  0.00000000000E+00  0.00000000000E+00  0.34266353687E+03  0.34266353690E+03  0.50400001928E-02 0. -1.
        1   -1    0    0  501    0  0.00000000000E+00  0.00000000000E+00 -0.58940317906E+03  0.58940317908E+03  0.50400001928E-02 0.  1.
    10030    2    1    2    0    0  0.00000000000E+00  0.00000000000E+00 -0.24673964220E+03  0.93206671599E+03  0.89881472619E+03 0.  0.
        2    1    3    3  502    0 -0.39048270514E+02  0.20067821996E+03 -0.53838887431E+03  0.57589851135E+03  0.25500000920E-02 0.  1.
       -2    1    3    3    0  502  0.39048270514E+02 -0.20067821996E+03  0.29164923211E+03  0.35616820463E+03  0.25500000920E-02 0. -1.
</event>
<event>
 5   0  0.4243516E-04  0.8999308E+03  0.7818609E-02  0.9425668E-01
       -2   -1    0    0    0  501  0.00000000000E+00  0.00000000000E+00  0.48310310160E+03  0.48310310161E+03  0.25500000920E-02 0.  1.
        2   -1    0    0  501    0  0.00000000000E+00  0.00000000000E+00 -0.41910076617E+03  0.41910076618E+03  0.25500000920E-02 0. -1.
    10030    2    1    2    0    0  0.00000000000E+00  0.00000000000E+00  0.64002335435E+02  0.90220386779E+03  0.89993084185E+03 0.  0.
        1    1    3    3  502    0 -0.39062813726E+03  0.80881795063E+02  0.24070159357E+03  0.46590714050E+03  0.50400001928E-02 0.  1.
       -1    1    3    3    0  502  0.39062813726E+03 -0.80881795063E+02 -0.17669925814E+03  0.43629672729E+03  0.50400001928E-02 0. -1.
</event>
<event>
 5   0  0.1596250E-04  0.8998368E+03  0.7818609E-02  0.9425785E-01
       -4   -1    0    0    0  501  0.00000000000E+00  0.00000000000E+00  0.15016190005E+03  0.15016727049E+03  0.12699999809E+01 0.  1.
        4   -1    0    0  501    0  0.00000000000E+00  0.00000000000E+00 -0.13480257506E+04  0.13480263489E+04  0.12699999809E+01 0. -1.
    10030    2    1    2    0    0  0.00000000000E+00  0.00000000000E+00 -0.11978638506E+04  0.14981936194E+04  0.89983682776E+03 0.  0.
        4    1    3    3  502    0 -0.36026336826E+03  0.11388233631E+02 -0.10472537638E+04  0.11075474911E+04  0.12699999809E+01 0. -1.
       -4    1    3    3    0  502  0.36026336826E+03 -0.11388233631E+02 -0.15061008675E+03  0.39064612823E+03  0.12699999809E+01 0.  1.
</event>
<event>
 5   0  0.3959804E-04  0.8990056E+03  0.7818609E-02  0.9426825E-01
       -2   -1    0    0    0  501  0.00000000000E+00  0.00000000000E+00  0.19110626643E+03  0.19110626644E+03  0.25500000920E-02 0. -1.
        2   -1    0    0  501    0  0.00000000000E+00  0.00000000000E+00 -0.10572796523E+04  0.10572796523E+04  0.25500000920E-02 0.  1.
    10030    2    1    2    0    0  0.00000000000E+00  0.00000000000E+00 -0.86617338591E+03  0.12483859188E+04  0.89900559941E+03 0.  0.
        5    1    3    3  502    0  0.13186366052E+02 -0.26700727267E+03  0.68675625540E+02  0.27605288524E+03  0.46999998093E+01 0. -1.
       -5    1    3    3    0  502 -0.13186366052E+02  0.26700727267E+03 -0.93484901145E+03  0.97233303354E+03  0.46999998093E+01 0.  1.
</event>
<event>
 5   0  0.2356918E-04  0.8997866E+03  0.7818609E-02  0.9425848E-01
       -1   -1    0    0    0  501  0.00000000000E+00  0.00000000000E+00  0.28658357553E+03  0.28658357558E+03  0.50400001928E-02 0. -1.
        1   -1    0    0  501    0  0.00000000000E+00  0.00000000000E+00 -0.70626507401E+03  0.70626507403E+03  0.50400001928E-02 0.  1.
    10030    2    1    2    0    0  0.00000000000E+00  0.00000000000E+00 -0.41968149848E+03  0.99284864961E+03  0.89978657518E+03 0.  0.
        5    1    3    3  502    0 -0.14549968236E+03 -0.31194458736E+03  0.10977668865E+03  0.36132062564E+03  0.46999998093E+01 0. -1.
       -5    1    3    3    0  502  0.14549968236E+03  0.31194458736E+03 -0.52945818712E+03  0.63152802397E+03  0.46999998093E+01 0.  1.
</event>
<event>
 5   0  0.1596250E-04  0.8999840E+03  0.7818609E-02  0.9425601E-01
       -3   -1    0    0    0  501  0.00000000000E+00  0.00000000000E+00  0.52842090468E+03  0.52842091433E+03  0.10100000352E+00 0.  1.
        3   -1    0    0  501    0  0.00000000000E+00  0.00000000000E+00 -0.38320359966E+03  0.38320361297E+03  0.10100000352E+00 0. -1.
    10030    2    1    2    0    0  0.00000000000E+00  0.00000000000E+00  0.14521730502E+03  0.91162452731E+03  0.89998400714E+03 0.  0.
        4    1    3    3  502    0  0.34649341602E+03  0.21001960709E+03  0.27090915182E+03  0.48740055821E+03  0.12699999809E+01 0.  1.
       -4    1    3    3    0  502 -0.34649341602E+03 -0.21001960709E+03 -0.12569184680E+03  0.42422396910E+03  0.12699999809E+01 0. -1.
</event>
<event>
 5   0  0.2308362E-04  0.8997984E+03  0.7818609E-02  0.9425833E-01
        1   -1    0    0  501    0  0.00000000000E+00  0.00000000000E+00  0.21513662477E+03  0.21513662483E+03  0.50400001928E-02 0.  1.
       -1   -1    0    0    0  501  0.00000000000E+00  0.00000000000E+00 -0.94084064154E+03  0.94084064156E+03  0.50400001928E-02 0. -1.
    10030    2    1    2    0    0  0.00000000000E+00  0.00000000000E+00 -0.72570401677E+03  0.11559772664E+04  0.89979837766E+03 0.  0.
        1    1    3    3  502    0 -0.11321796913E+03 -0.12918960932E+03 -0.89705074996E+03  0.91335004885E+03  0.50400001928E-02 0. -1.
       -1    1    3    3    0  502  0.11321796913E+03  0.12918960932E+03  0.17134673319E+03  0.24262721754E+03  0.50400001928E-02 0.  1.
</event>
<event>
 5   0  0.2450427E-04  0.9012883E+03  0.7818609E-02  0.9423972E-01
        1   -1    0    0  501    0  0.00000000000E+00  0.00000000000E+00  0.11956207618E+04  0.11956207618E+04  0.50400001928E-02 0.  1.
       -1   -1    0    0    0  501  0.00000000000E+00  0.00000000000E+00 -0.16985333045E+03  0.16985333053E+03  0.50400001928E-02 0. -1.
    10030    2    1    2    0    0  0.00000000000E+00  0.00000000000E+00  0.10257674314E+04  0.13654740924E+04  0.90128834101E+03 0.  0.
        3    1    3    3  502    0  0.34760829616E+03  0.21356850306E+03  0.22289546281E+03  0.46489292380E+03  0.10100000352E+00 0. -1.
       -3    1    3    3    0  502 -0.34760829616E+03 -0.21356850306E+03  0.80287196856E+03  0.90058116856E+03  0.10100000352E+00 0.  1.
</event>
<event>
 5   0  0.2450427E-04  0.8999168E+03  0.7818609E-02  0.9425685E-01
       -1   -1    0    0    0  501  0.00000000000E+00  0.00000000000E+00  0.20472027998E+03  0.20472028004E+03  0.50400001928E-02 0. -1.
        1   -1    0    0  501    0  0.00000000000E+00  0.00000000000E+00 -0.98897172235E+03  0.98897172236E+03  0.50400001928E-02 0.  1.
    10030    2    1    2    0    0  0.00000000000E+00  0.00000000000E+00 -0.78425144237E+03  0.11936920024E+04  0.89991681380E+03 0.  0.
        3    1    3    3  502    0  0.91558193476E+02 -0.93398166635E+02  0.17895007622E+03  0.22165121318E+03  0.10100000352E+00 0. -1.
       -3    1    3    3    0  502 -0.91558193476E+02  0.93398166635E+02 -0.96320151858E+03  0.97204078923E+03  0.10100000352E+00 0.  1.
</event>
<event>
 5   0  0.4243516E-04  0.9006328E+03  0.7818609E-02  0.9424791E-01
       -2   -1    0    0    0  501  0.00000000000E+00  0.00000000000E+00  0.12308928743E+04  0.12308928743E+04  0.25500000920E-02 0.  1.
        2   -1    0    0  501    0  0.00000000000E+00  0.00000000000E+00 -0.16474613957E+03  0.16474613959E+03  0.25500000920E-02 0. -1.
    10030    2    1    2    0    0  0.00000000000E+00  0.00000000000E+00  0.10661467347E+04  0.13956390139E+04  0.90063277596E+03 0.  0.
        1    1    3    3  502    0 -0.31438173579E+03  0.12439831454E+03  0.72145182430E+02  0.34571049135E+03  0.50400001928E-02 0. -1.
       -1    1    3    3    0  502  0.31438173579E+03 -0.12439831454E+03  0.99400155229E+03  0.10499285225E+04  0.50400001928E-02 0.  1.
</event>
<event>
 5   0  0.2351435E-04  0.8994563E+03  0.7818609E-02  0.9426261E-01
        1   -1    0    0  501    0  0.00000000000E+00  0.00000000000E+00  0.53585920813E+03  0.53585920816E+03  0.50400001928E-02 0.  1.
       -1   -1    0    0    0  501  0.00000000000E+00  0.00000000000E+00 -0.37744135333E+03  0.37744135337E+03  0.50400001928E-02 0. -1.
    10030    2    1    2    0    0  0.00000000000E+00  0.00000000000E+00  0.15841785480E+03  0.91330056153E+03  0.89945633522E+03 0.  0.
        4    1    3    3  502    0 -0.17625058458E+03 -0.15838176168E+02  0.49901994514E+03  0.52946920112E+03  0.12699999809E+01 0.  1.
       -4    1    3    3    0  502  0.17625058458E+03  0.15838176168E+02 -0.34060209034E+03  0.38383136041E+03  0.12699999809E+01 0. -1.
</event>
<event>
 5   0  0.2308362E-04  0.8999529E+03  0.7818609E-02  0.9425640E-01
        1   -1    0    0  501    0  0.00000000000E+00  0.00000000000E+00  0.34539371629E+03  0.34539371632E+03  0.50400001928E-02 0.  1.
       -1   -1    0    0    0  501  0.00000000000E+00  0.00000000000E+00 -0.58622614389E+03  0.58622614391E+03  0.50400001928E-02 0. -1.
    10030    2    1    2    0    0  0.00000000000E+00  0.00000000000E+00 -0.24083242760E+03  0.93161986024E+03  0.89995294644E+03 0.  0.
        1    1    3    3  502    0  0.32371156292E+03 -0.76655287227E+02 -0.43408585300E+03  0.54689645897E+03  0.50400001928E-02 0. -1.
       -1    1    3    3    0  502 -0.32371156292E+03  0.76655287227E+02  0.19325342540E+03  0.38472340127E+03  0.50400001928E-02 0.  1.
</event>
<event>
 5   0  0.4236284E-04  0.9001048E+03  0.7818609E-02  0.9425450E-01
        2   -1    0    0  501    0  0.00000000000E+00  0.00000000000E+00  0.62435201903E+03  0.62435201903E+03  0.25500000920E-02 0. -1.
       -2   -1    0    0    0  501  0.00000000000E+00  0.00000000000E+00 -0.32441181081E+03  0.32441181082E+03  0.25500000920E-02 0.  1.
    10030    2    1    2    0    0  0.00000000000E+00  0.00000000000E+00  0.29994020822E+03  0.94876382985E+03  0.90010481408E+03 0.  0.
        2    1    3    3  502    0  0.65490561069E+02  0.38360402377E+03  0.38825770300E+03  0.54971365690E+03  0.25500000920E-02 0. -1.
       -2    1    3    3    0  502 -0.65490561069E+02 -0.38360402377E+03 -0.88317494785E+02  0.39905017295E+03  0.25500000920E-02 0.  1.
</event>
<event>
 5   0  0.2450427E-04  0.9002143E+03  0.7818609E-02  0.9425314E-01
       -1   -1    0    0    0  501  0.00000000000E+00  0.00000000000E+00  0.11404614663E+03  0.11404614674E+03  0.50400001928E-02 0.  1.
        1   -1    0    0  501    0  0.00000000000E+00  0.00000000000E+00 -0.17764427535E+04  0.17764427535E+04  0.50400001928E-02 0. -1.
    10030    2    1    2    0    0  0.00000000000E+00  0.00000000000E+00 -0.16623966069E+04  0.18904889003E+04  0.90021430974E+03 0.  0.
        3    1    3    3  502    0  0.45868856394E+02 -0.69178251754E+02 -0.17602315202E+04  0.17621874468E+04  0.10100000352E+00 0. -1.
       -3    1    3    3    0  502 -0.45868856394E+02  0.69178251754E+02  0.97834913344E+02  0.12830145351E+03  0.10100000352E+00 0.  1.
</event>
<event>
 5   0  0.1596250E-04  0.9003585E+03  0.7818609E-02  0.9425133E-01
        3   -1    0    0  501    0  0.00000000000E+00  0.00000000000E+00  0.37450276966E+03  0.37450278328E+03  0.10100000352E+00 0. -1.
       -3   -1    0    0    0  501  0.00000000000E+00  0.00000000000E+00 -0.54114779761E+03  0.54114780704E+03  0.10100000352E+00 0.  1.
    10030    2    1    2    0    0  0.00000000000E+00  0.00000000000E+00 -0.16664502795E+03  0.91565059032E+03  0.90035850538E+03 0.  0.
        4    1    3    3  502    0  0.42957805856E+03  0.73893388359E+02 -0.19776017837E+03  0.47865252771E+03  0.12699999809E+01 0.  1.
       -4    1    3    3    0  502 -0.42957805856E+03 -0.73893388359E+02  0.31115150418E+02  0.43699806261E+03  0.12699999809E+01 0. -1.
</event>
<event>
 5   0  0.4110039E-04  0.8999955E+03  0.7818609E-02  0.9425587E-01
        2   -1    0    0  501    0  0.00000000000E+00  0.00000000000E+00  0.13193707674E+04  0.13193707674E+04  0.25500000920E-02 0. -1.
       -2   -1    0    0    0  501  0.00000000000E+00  0.00000000000E+00 -0.15348072838E+03  0.15348072840E+03  0.25500000920E-02 0.  1.
    10030    2    1    2    0    0  0.00000000000E+00  0.00000000000E+00  0.11658900391E+04  0.14728514958E+04  0.89999552534E+03 0.  0.
        3    1    3    3  502    0  0.19961924397E+02  0.41792066257E+03  0.31184781051E+03  0.52182873220E+03  0.10100000352E+00 0. -1.
       -3    1    3    3    0  502 -0.19961924397E+02 -0.41792066257E+03  0.85404222855E+03  0.95102276364E+03  0.10100000352E+00 0.  1.
</event>
<event>
 5   0  0.2308362E-04  0.9000012E+03  0.7818609E-02  0.9425580E-01
        1   -1    0    0  501    0  0.00000000000E+00  0.00000000000E+00  0.76835836612E+03  0.76835836614E+03  0.50400001928E-02 0. -1.
       -1   -1    0    0    0  501  0.00000000000E+00  0.00000000000E+00 -0.26354959009E+03  0.26354959014E+03  0.50400001928E-02 0.  1.
    10030    2    1    2    0    0  0.00000000000E+00  0.00000000000E+00  0.50480877603E+03  0.10319079563E+04  0.90000118326E+03 0.  0.
        1    1    3    3  502    0  0.29577303325E+03 -0.19256108795E+03  0.57249688741E+03  0.67254304391E+03  0.50400001928E-02 0. -1.
       -1    1    3    3    0  502 -0.29577303325E+03  0.19256108795E+03 -0.67688111381E+02  0.35936491236E+03  0.50400001928E-02 0.  1.
</event>
<event>
 5   0  0.4236284E-04  0.8991610E+03  0.7818609E-02  0.9426631E-01
        2   -1    0    0  501    0  0.00000000000E+00  0.00000000000E+00  0.10096772519E+04  0.10096772519E+04  0.25500000920E-02 0.  1.
       -2   -1    0    0    0  501  0.00000000000E+00  0.00000000000E+00 -0.20018536932E+03  0.20018536934E+03  0.25500000920E-02 0. -1.
    10030    2    1    2    0    0  0.00000000000E+00  0.00000000000E+00  0.80949188260E+03  0.12098626213E+04  0.89916097243E+03 0.  0.
        2    1    3    3  502    0 -0.32990765179E+01  0.35785450131E+03  0.38589505702E+02  0.35994427065E+03  0.25500000920E-02 0. -1.
       -2    1    3    3    0  502  0.32990765179E+01 -0.35785450131E+03  0.77090237689E+03  0.84991835062E+03  0.25500000920E-02 0.  1.
</event>
<event>
 5   0  0.2332791E-04  0.8996729E+03  0.7818609E-02  0.9425990E-01
        1   -1    0    0  501    0  0.00000000000E+00  0.00000000000E+00  0.48408826384E+03  0.48408826387E+03  0.50400001928E-02 0. -1.
       -1   -1    0    0    0  501  0.00000000000E+00  0.00000000000E+00 -0.41800812046E+03  0.41800812049E+03  0.50400001928E-02 0.  1.
    10030    2    1    2    0    0  0.00000000000E+00  0.00000000000E+00  0.66080143384E+02  0.90209638436E+03  0.89967288573E+03 0.  0.
        2    1    3    3  502    0  0.44764875090E+03 -0.21132223399E+02  0.72091746789E+02  0.45390879592E+03  0.25500000920E-02 0. -1.
       -2    1    3    3    0  502 -0.44764875090E+03  0.21132223399E+02 -0.60116034055E+01  0.44818758844E+03  0.25500000920E-02 0.  1.
</event>
<event>
 5   0  0.4110039E-04  0.9000002E+03  0.7818609E-02  0.9425581E-01
        2   -1    0    0  501    0  0.00000000000E+00  0.00000000000E+00  0.22060146421E+03  0.22060146423E+03  0.25500000920E-02 0.  1.
       -2   -1    0    0    0  501  0.00000000000E+00  0.00000000000E+00 -0.91794544434E+03  0.91794544435E+03  0.25500000920E-02 0. -1.
    10030    2    1    2    0    0  0.00000000000E+00  0.00000000000E+00 -0.69734398013E+03  0.11385469086E+04  0.90000024245E+03 0.  0.
        3    1    3    3  502    0  0.39272293326E+03 -0.69100469341E+02 -0.61250102344E+03  0.73086502932E+03  0.10100000352E+00 0. -1.
       -3    1    3    3    0  502 -0.39272293326E+03  0.69100469341E+02 -0.84842956693E+02  0.40768187925E+03  0.10100000352E+00 0.  1.
</event>
<event>
 5   0  0.3959804E-04  0.9000149E+03  0.7818609E-02  0.9425563E-01
       -2   -1    0    0    0  501  0.00000000000E+00  0.00000000000E+00  0.18523316072E+03  0.18523316073E+03  0.25500000920E-02 0.  1.
        2   -1    0    0  501    0  0.00000000000E+00  0.00000000000E+00 -0.10932530628E+04  0.10932530628E+04  0.25500000920E-02 0. -1.
    10030    2    1    2    0    0  0.00000000000E+00  0.00000000000E+00 -0.90801990204E+03  0.12784862235E+04  0.90001493385E+03 0.  0.
        5    1    3    3  502    0  0.17570190692E+03 -0.41364213273E+03 -0.42181538212E+03  0.61637754717E+03  0.46999998093E+01 0. -1.
       -5    1    3    3    0  502 -0.17570190692E+03  0.41364213273E+03 -0.48620451993E+03  0.66210867632E+03  0.46999998093E+01 0.  1.
</event>
<event>
 5   0  0.2332791E-04  0.8999274E+03  0.7818609E-02  0.9425672E-01
       -1   -1    0    0    0  501  0.00000000000E+00  0.00000000000E+00  0.51344356748E+03  0.51344356751E+03  0.50400001928E-02 0.  1.
        1   -1    0    0  501    0  0.00000000000E+00  0.00000000000E+00 -0.39433220895E+03  0.39433220898E+03  0.50400001928E-02 0. -1.
    10030    2    1    2    0    0  0.00000000000E+00  0.00000000000E+00  0.11911135853E+03  0.90777577649E+03  0.89992741077E+03 0.  0.
        2    1    3    3  502    0 -0.15408725123E+03  0.34794992406E+03  0.30176494237E+03  0.48566872568E+03  0.25500000920E-02 0.  1.
       -2    1    3    3    0  502  0.15408725123E+03 -0.34794992406E+03 -0.18265358384E+03  0.42210705081E+03  0.25500000920E-02 0. -1.
</event>
<event>
 5   0  0.4110039E-04  0.8999624E+03  0.7818609E-02  0.9425628E-01
        2   -1    0    0  501    0  0.00000000000E+00  0.00000000000E+00  0.84564314529E+03  0.84564314529E+03  0.25500000920E-02 0. -1.
       -2   -1    0    0    0  501  0.00000000000E+00  0.00000000000E+00 -0.23944272826E+03  0.23944272827E+03  0.25500000920E-02 0.  1.
    10030    2    1    2    0    0  0.00000000000E+00  0.00000000000E+00  0.60620041703E+03  0.10850858736E+04  0.89996244778E+03 0.  0.
        3    1    3    3  502    0  0.62512457206E+02  0.30440631164E+03  0.69548527775E+03  0.76175507326E+03  0.10100000352E+00 0. -1.
       -3    1    3    3    0  502 -0.62512457206E+02 -0.30440631164E+03 -0.89284860720E+02  0.32333080031E+03  0.10100000352E+00 0.  1.
</event>
<event>
 5   0  0.4243516E-04  0.8996578E+03  0.7818609E-02  0.9426009E-01
        2   -1    0    0  501    0  0.00000000000E+00  0.00000000000E+00  0.98959984473E+03  0.98959984474E+03  0.25500000920E-02 0. -1.
       -2   -1    0    0    0  501  0.00000000000E+00  0.00000000000E+00 -0.20447258013E+03  0.20447258015E+03  0.25500000920E-02 0.  1.
    10030    2    1    2    0    0  0.00000000000E+00  0.00000000000E+00  0.78512726460E+03  0.11940724249E+04  0.89965778730E+03 0.  0.
        1    1    3    3  502    0  0.36886487924E+03 -0.13274561401E+03  0.99774962835E+02  0.40452161921E+03  0.50400001928E-02 0.  1.
       -1    1    3    3    0  502 -0.36886487924E+03  0.13274561401E+03  0.68535230177E+03  0.78955080567E+03  0.50400001928E-02 0. -1.
</event>
<event>
 5   0  0.2450427E-04  0.9000368E+03  0.7818609E-02  0.9425535E-01
        1   -1    0    0  501    0  0.00000000000E+00  0.00000000000E+00  0.13557171972E+04  0.13557171972E+04  0.50400001928E-02 0. -1.
       -1   -1    0    0    0  501  0.00000000000E+00  0.00000000000E+00 -0.14937966182E+03  0.14937966190E+03  0.50400001928E-02 0.  1.
    10030    2    1    2    0    0  0.00000000000E+00  0.00000000000E+00  0.12063375354E+04  0.15050968591E+04  0.90003683593E+03 0.  0.
        3    1    3    3  502    0 -0.39507756544E+03  0.18093179436E+03  0.40747867384E+03  0.59570250692E+03  0.10100000352E+00 0. -1.
       -3    1    3    3    0  502  0.39507756544E+03 -0.18093179436E+03  0.79885886153E+03  0.90939435217E+03  0.10100000352E+00 0.  1.
</event>
<event>
 5   0  0.4110039E-04  0.8994183E+03  0.7818609E-02  0.9426309E-01
       -2   -1    0    0    0  501  0.00000000000E+00  0.00000000000E+00  0.28909365001E+03  0.28909365002E+03  0.25500000920E-02 0. -1.
        2   -1    0    0  501    0  0.00000000000E+00  0.00000000000E+00 -0.69955986375E+03  0.69955986376E+03  0.25500000920E-02 0.  1.
    10030    2    1    2    0    0  0.00000000000E+00  0.00000000000E+00 -0.41046621374E+03  0.98865351378E+03  0.89941828850E+03 0.  0.
        3    1    3    3  502    0  0.37541799251E+03 -0.20318289688E+03 -0.36074900572E+03  0.55889338340E+03  0.10100000352E+00 0.  1.
       -3    1    3    3    0  502 -0.37541799251E+03  0.20318289688E+03 -0.49717208027E+02  0.42976013038E+03  0.10100000352E+00 0. -1.
</event>
<event>
 5   0  0.2351435E-04  0.8997532E+03  0.7818609E-02  0.9425890E-01
       -1   -1    0    0    0  501  0.00000000000E+00  0.00000000000E+00  0.37379715367E+03  0.37379715370E+03  0.50400001928E-02 0. -1.
        1   -1    0    0  501    0  0.00000000000E+00  0.00000000000E+00 -0.54144064508E+03  0.54144064510E+03  0.50400001928E-02 0.  1.
    10030    2    1    2    0    0  0.00000000000E+00  0.00000000000E+00 -0.16764349141E+03  0.91523779881E+03  0.89975323737E+03 0.  0.
        4    1    3    3  502    0  0.28458233498E+02 -0.32699817005E+03  0.22912476683E+03  0.40029669740E+03  0.12699999809E+01 0. -1.
       -4    1    3    3    0  502 -0.28458233498E+02  0.32699817005E+03 -0.39676825824E+03  0.51494110141E+03  0.12699999809E+01 0.  1.
</event>
<event>
 5   0  0.2308362E-04  0.8968577E+03  0.7818609E-02  0.9429518E-01
       -1   -1    0    0    0  501  0.00000000000E+00  0.00000000000E+00  0.48283138120E+03  0.48283138122E+03  0.50400001928E-02 0. -1.
        1   -1    0    0  501    0  0.00000000000E+00  0.00000000000E+00 -0.41647759542E+03  0.41647759546E+03  0.50400001928E-02 0.  1.
    10030    2    1    2    0    0  0.00000000000E+00  0.00000000000E+00  0.66353785771E+02  0.89930897668E+03  0.89685774270E+03 0.  0.
        1    1    3    3  502    0 -0.14334804105E+03 -0.11287419171E+02  0.45908758388E+03  0.48107949074E+03  0.50400001928E-02 0. -1.
       -1    1    3    3    0  502  0.14334804105E+03  0.11287419171E+02 -0.39273379811E+03  0.41822948594E+03  0.50400001928E-02 0.  1.
</event>
<event>
 5   0  0.2450427E-04  0.8997790E+03  0.7818609E-02  0.9425858E-01
       -1   -1    0    0    0  501  0.00000000000E+00  0.00000000000E+00  0.40839380664E+03  0.40839380667E+03  0.50400001928E-02 0.  1.
        1   -1    0    0  501    0  0.00000000000E+00  0.00000000000E+00 -0.49560144513E+03  0.49560144516E+03  0.50400001928E-02 0. -1.
    10030    2    1    2    0    0  0.00000000000E+00  0.00000000000E+00 -0.87207638494E+02  0.90399525183E+03  0.89977899682E+03 0.  0.
        3    1    3    3  502    0  0.28721130857E+03 -0.24637509971E+03  0.20086647019E+03  0.42841378897E+03  0.10100000352E+00 0.  1.
       -3    1    3    3    0  502 -0.28721130857E+03  0.24637509971E+03 -0.28807410868E+03  0.47558146287E+03  0.10100000352E+00 0. -1.
</event>
<event>
 5   0  0.4033144E-04  0.8993683E+03  0.7818609E-02  0.9426371E-01
       -2   -1    0    0    0  501  0.00000000000E+00  0.00000000000E+00  0.22185272767E+03  0.22185272769E+03  0.25500000920E-02 0. -1.
        2   -1    0    0  501    0  0.00000000000E+00  0.00000000000E+00 -0.91148673018E+03  0.91148673019E+03  0.25500000920E-02 0.  1.
    10030    2    1    2    0    0  0.00000000000E+00  0.00000000000E+00 -0.68963400251E+03  0.11333394579E+04  0.89936826126E+03 0.  0.
        4    1    3    3  502    0  0.49986834636E+02 -0.15111616619E+03 -0.87479899066E+03  0.88916233967E+03  0.12699999809E+01 0.  1.
       -4    1    3    3    0  502 -0.49986834636E+02  0.15111616619E+03  0.18516498815E+03  0.24417711821E+03  0.12699999809E+01 0. -1.
</event>
<event>
 5   0  0.4033144E-04  0.8998290E+03  0.7818609E-02  0.9425795E-01
        2   -1    0    0  501    0  0.00000000000E+00  0.00000000000E+00  0.53159376780E+03  0.53159376781E+03  0.25500000920E-02 0.  1.
       -2   -1    0    0    0  501  0.00000000000E+00  0.00000000000E+00 -0.38078521553E+03  0.38078521554E+03  0.25500000920E-02 0. -1.
    10030    2    1    2    0    0  0.00000000000E+00  0.00000000000E+00  0.15080855227E+03  0.91237898334E+03  0.89982897809E+03 0.  0.
        4    1    3    3  502    0  0.17661255352E+03  0.35394318139E+03 -0.14195359602E+03  0.42026206829E+03  0.12699999809E+01 0. -1.
       -4    1    3    3    0  502 -0.17661255352E+03 -0.35394318139E+03  0.29276214829E+03  0.49211691506E+03  0.12699999809E+01 0.  1.
</event>
<event>
 5   0  0.1596250E-04  0.9001670E+03  0.7818609E-02  0.9425373E-01
       -4   -1    0    0    0  501  0.00000000000E+00  0.00000000000E+00  0.45600395958E+03  0.45600572809E+03  0.12699999809E+01 0. -1.
        4   -1    0    0  501    0  0.00000000000E+00  0.00000000000E+00 -0.44423632540E+03  0.44423814076E+03  0.12699999809E+01 0.  1.
    10030    2    1    2    0    0  0.00000000000E+00  0.00000000000E+00  0.11767634175E+02  0.90024386885E+03  0.90016695462E+03 0.  0.
        3    1    3    3  502    0 -0.20257539681E+03 -0.86208675237E+02  0.39848123869E+03  0.45525381368E+03  0.10100000352E+00 0. -1.
       -3    1    3    3    0  502  0.20257539681E+03  0.86208675237E+02 -0.38671360452E+03  0.44499005517E+03  0.10100000352E+00 0.  1.
</event>
<event>
 5   0  0.2450427E-04  0.8997892E+03  0.7818609E-02  0.9425845E-01
        1   -1    0    0  501    0  0.00000000000E+00  0.00000000000E+00  0.43333282139E+03  0.43333282142E+03  0.50400001928E-02 0.  1.
       -1   -1    0    0    0  501  0.00000000000E+00  0.00000000000E+00 -0.46708936970E+03  0.46708936973E+03  0.50400001928E-02 0. -1.
    10030    2    1    2    0    0  0.00000000000E+00  0.00000000000E+00 -0.33756548307E+02  0.90042219115E+03  0.89978920740E+03 0.  0.
        3    1    3    3  502    0 -0.74845690880E+01 -0.39681800020E+03  0.19513062479E+03  0.44226294779E+03  0.10100000352E+00 0.  1.
       -3    1    3    3    0  502  0.74845690880E+01  0.39681800020E+03 -0.22888717310E+03  0.45815924335E+03  0.10100000352E+00 0. -1.
</event>
<event>
 5   0  0.2356918E-04  0.9003408E+03  0.7818609E-02  0.9425156E-01
       -1   -1    0    0    0  501  0.00000000000E+00  0.00000000000E+00  0.23118800667E+03  0.23118800673E+03  0.50400001928E-02 0. -1.
        1   -1    0    0  501    0  0.00000000000E+00  0.00000000000E+00 -0.87657395689E+03  0.87657395691E+03  0.50400001928E-02 0.  1.
    10030    2    1    2    0    0  0.00000000000E+00  0.00000000000E+00 -0.64538595022E+03  0.11077619636E+04  0.90034079289E+03 0.  0.
        5    1    3    3  502    0  0.41448225223E+03 -0.89727665221E+02 -0.50841406417E+03  0.66208273046E+03  0.46999998093E+01 0. -1.
       -5    1    3    3    0  502 -0.41448225223E+03  0.89727665221E+02 -0.13697188605E+03  0.44567923318E+03  0.46999998093E+01 0.  1.
</event>
<event>
 5   0  0.4236284E-04  0.9000988E+03  0.7818609E-02  0.9425458E-01
        2   -1    0    0  501    0  0.00000000000E+00  0.00000000000E+00  0.22605677463E+04  0.22605677463E+04  0.25500000920E-02 0. -1.
       -2   -1    0    0    0  501  0.00000000000E+00  0.00000000000E+00 -0.89598940198E+02  0.89598940234E+02  0.25500000920E-02 0.  1.
    10030    2    1    2    0    0  0.00000000000E+00  0.00000000000E+00  0.21709688061E+04  0.23501666865E+04  0.90009882648E+03 0.  0.
        2    1    3    3  502    0 -0.17458436256E+03  0.75640647490E+02  0.21503899372E+04  0.21587908859E+04  0.25500000920E-02 0. -1.
       -2    1    3    3    0  502  0.17458436256E+03 -0.75640647490E+02  0.20578868902E+02  0.19137580059E+03  0.25500000920E-02 0.  1.
</event>
<event>
 5   0  0.4110039E-04  0.8996611E+03  0.7818609E-02  0.9426005E-01
       -2   -1    0    0    0  501  0.00000000000E+00  0.00000000000E+00  0.92496608465E+02  0.92496608500E+02  0.25500000920E-02 0. -1.
        2   -1    0    0  501    0  0.00000000000E+00  0.00000000000E+00 -0.21876211005E+04  0.21876211005E+04  0.25500000920E-02 0.  1.
    10030    2    1    2    0    0  0.00000000000E+00  0.00000000000E+00 -0.20951244920E+04  0.22801177090E+04  0.89966111940E+03 0.  0.
        3    1    3    3  502    0 -0.24931884452E+03 -0.23816851887E+03 -0.31536796463E+03  0.46726982883E+03  0.10100000352E+00 0. -1.
       -3    1    3    3    0  502  0.24931884452E+03  0.23816851887E+03 -0.17797565274E+04  0.18128478801E+04  0.10100000352E+00 0.  1.
</event>
<event>
 5   0  0.4243516E-04  0.9000493E+03  0.7818609E-02  0.9425520E-01
        2   -1    0    0  501    0  0.00000000000E+00  0.00000000000E+00  0.13205416420E+04  0.13205416421E+04  0.25500000920E-02 0. -1.
       -2   -1    0    0    0  501  0.00000000000E+00  0.00000000000E+00 -0.15336298376E+03  0.15336298378E+03  0.25500000920E-02 0.  1.
    10030    2    1    2    0    0  0.00000000000E+00  0.00000000000E+00  0.11671786583E+04  0.14739046258E+04  0.90004934624E+03 0.  0.
        1    1    3    3  502    0  0.13910046868E+03 -0.21111470868E+03  0.11932535401E+04  0.12197427481E+04  0.50400001928E-02 0. -1.
       -1    1    3    3    0  502 -0.13910046868E+03  0.21111470868E+03 -0.26074881777E+02  0.25416187774E+03  0.50400001928E-02 0.  1.
</event>
<event>
 5   0  0.4236284E-04  0.8998662E+03  0.7818609E-02  0.9425749E-01
        2   -1    0    0  501    0  0.00000000000E+00  0.00000000000E+00  0.50603275794E+03  0.50603275795E+03  0.25500000920E-02 0. -1.
       -2   -1    0    0    0  501  0.00000000000E+00  0.00000000000E+00 -0.40005273420E+03  0.40005273421E+03  0.25500000920E-02 0.  1.
    10030    2    1    2    0    0  0.00000000000E+00  0.00000000000E+00  0.10598002374E+03  0.90608549215E+03  0.89986618653E+03 0.  0.
        2    1    3    3  502    0 -0.25716179752E+03  0.22755902579E+03 -0.23975029132E+03  0.41880246240E+03  0.25500000920E-02 0.  1.
       -2    1    3    3    0  502  0.25716179752E+03 -0.22755902579E+03  0.34573031506E+03  0.48728302975E+03  0.25500000920E-02 0. -1.
</event>
<event>
 5   0  0.4110039E-04  0.9001139E+03  0.7818609E-02  0.9425439E-01
       -2   -1    0    0    0  501  0.00000000000E+00  0.00000000000E+00  0.52900055254E+03  0.52900055254E+03  0.25500000920E-02 0. -1.
        2   -1    0    0  501    0  0.00000000000E+00  0.00000000000E+00 -0.38289422482E+03  0.38289422483E+03  0.25500000920E-02 0.  1.
    10030    2    1    2    0    0  0.00000000000E+00  0.00000000000E+00  0.14610632772E+03  0.91189477737E+03  0.90011389613E+03 0.  0.
        3    1    3    3  502    0  0.12706842600E+03  0.40688150089E+03  0.21934641885E+03  0.47938690253E+03  0.10100000352E+00 0. -1.
       -3    1    3    3    0  502 -0.12706842600E+03 -0.40688150089E+03 -0.73240091133E+02  0.43250787484E+03  0.10100000352E+00 0.  1.
</event>
<event>
 5   0  0.2450427E-04  0.9000216E+03  0.7818609E-02  0.9425554E-01
        1   -1    0    0  501    0  0.00000000000E+00  0.00000000000E+00  0.83298003883E+03  0.83298003884E+03  0.50400001928E-02 0.  1.
       -1   -1    0    0    0  501  0.00000000000E+00  0.00000000000E+00 -0.24311475893E+03  0.24311475898E+03  0.50400001928E-02 0. -1.
    10030    2    1    2    0    0  0.00000000000E+00  0.00000000000E+00  0.58986527990E+03  0.10760947978E+04  0.90002164723E+03 0.  0.
        3    1    3    3  502    0  0.33762935378E+02 -0.25716741191E+03  0.73461766647E+03  0.77906234644E+03  0.10100000352E+00 0.  1.
       -3    1    3    3    0  502 -0.33762935378E+02  0.25716741191E+03 -0.14475238657E+03  0.29703245138E+03  0.10100000352E+00 0. -1.
</event>
<event>
 5   0  0.3959804E-04  0.8994128E+03  0.7818609E-02  0.9426316E-01
        2   -1    0    0  501    0  0.00000000000E+00  0.00000000000E+00  0.25217077530E+03  0.25217077531E+03  0.25500000920E-02 0. -1.
       -2   -1    0    0    0  501  0.00000000000E+00  0.00000000000E+00 -0.80197969878E+03  0.80197969878E+03  0.25500000920E-02 0.  1.
    10030    2    1    2    0    0  0.00000000000E+00  0.00000000000E+00 -0.54980892348E+03  0.10541504741E+04  0.89941279159E+03 0.  0.
        5    1    3    3  502    0 -0.24963545472E+03 -0.34284126608E+03 -0.45014648258E+03  0.61847549649E+03  0.46999998093E+01 0.  1.
       -5    1    3    3    0  502  0.24963545472E+03  0.34284126608E+03 -0.99662440901E+02  0.43567497760E+03  0.46999998093E+01 0. -1.
</event>
<event>
 5   0  0.2356918E-04  0.9004980E+03  0.7818609E-02  0.9424959E-01
       -1   -1    0    0    0  501  0.00000000000E+00  0.00000000000E+00  0.25184413773E+03  0.25184413778E+03  0.50400001928E-02 0.  1.
        1   -1    0    0  501    0  0.00000000000E+00  0.00000000000E+00 -0.80495881178E+03  0.80495881180E+03  0.50400001928E-02 0. -1.
    10030    2    1    2    0    0  0.00000000000E+00  0.00000000000E+00 -0.55311467406E+03  0.10568029496E+04  0.90049799088E+03 0.  0.
        5    1    3    3  502    0  0.33741845865E+03 -0.13076837593E+03 -0.59091473445E+03  0.69293138028E+03  0.46999998093E+01 0. -1.
       -5    1    3    3    0  502 -0.33741845865E+03  0.13076837593E+03  0.37800060392E+02  0.36387156930E+03  0.46999998093E+01 0.  1.
</event>
<event>
 5   0  0.2450427E-04  0.9002003E+03  0.7818609E-02  0.9425331E-01
        1   -1    0    0  501    0  0.00000000000E+00  0.00000000000E+00  0.17731476473E+04  0.17731476473E+04  0.50400001928E-02 0.  1.
       -1   -1    0    0    0  501  0.00000000000E+00  0.00000000000E+00 -0.11425452792E+03  0.11425452803E+03  0.50400001928E-02 0. -1.
    10030    2    1    2    0    0  0.00000000000E+00  0.00000000000E+00  0.16588931193E+04  0.18874021753E+04  0.90020030544E+03 0.  0.
        3    1    3    3  502    0 -0.63228270945E+02 -0.39696955532E+03  0.40486911730E+03  0.57052752295E+03  0.10100000352E+00 0. -1.
       -3    1    3    3    0  502  0.63228270945E+02  0.39696955532E+03  0.12540240020E+04  0.13168746523E+04  0.10100000352E+00 0.  1.
</event>
<event>
 5   0  0.4110039E-04  0.8999073E+03  0.7818609E-02  0.9425697E-01
       -2   -1    0    0    0  501  0.00000000000E+00  0.00000000000E+00  0.93907997497E+02  0.93907997531E+02  0.25500000920E-02 0. -1.
        2   -1    0    0  501    0  0.00000000000E+00  0.00000000000E+00 -0.21559214653E+04  0.21559214653E+04  0.25500000920E-02 0.  1.
    10030    2    1    2    0    0  0.00000000000E+00  0.00000000000E+00 -0.20620134678E+04  0.22498294628E+04  0.89990725657E+03 0.  0.
        3    1    3    3  502    0  0.10505972762E+03 -0.19705379131E+03 -0.20076042480E+04  0.20199857846E+04  0.10100000352E+00 0.  1.
       -3    1    3    3    0  502 -0.10505972762E+03  0.19705379131E+03 -0.54409219787E+02  0.22984367826E+03  0.10100000352E+00 0. -1.
</event>
<event>
 5   0  0.2308362E-04  0.9000383E+03  0.7818609E-02  0.9425534E-01
       -1   -1    0    0    0  501  0.00000000000E+00  0.00000000000E+00  0.22950238459E+03  0.22950238464E+03  0.50400001928E-02 0. -1.
        1   -1    0    0  501    0  0.00000000000E+00  0.00000000000E+00 -0.88241884541E+03  0.88241884542E+03  0.50400001928E-02 0.  1.
    10030    2    1    2    0    0  0.00000000000E+00  0.00000000000E+00 -0.65291646082E+03  0.11119212301E+04  0.90003828644E+03 0.  0.
        1    1    3    3  502    0  0.35510178773E+02  0.92459829732E+02 -0.86878653986E+03  0.87441400079E+03  0.50400001928E-02 0.  1.
       -1    1    3    3    0  502 -0.35510178773E+02 -0.92459829732E+02  0.21587007903E+03  0.23750722928E+03  0.50400001928E-02 0. -1.
</event>
<event>
 5   0  0.2450427E-04  0.8993201E+03  0.7818609E-02  0.9426432E-01
        1   -1    0    0  501    0  0.00000000000E+00  0.00000000000E+00  0.16099056872E+04  0.16099056872E+04  0.50400001928E-02 0. -1.
       -1   -1    0    0    0  501  0.00000000000E+00  0.00000000000E+00 -0.12559378089E+03  0.12559378099E+03  0.50400001928E-02 0.  1.
    10030    2    1    2    0    0  0.00000000000E+00  0.00000000000E+00  0.14843119063E+04  0.17354994682E+04  0.89932005921E+03 0.  0.
        3    1    3    3  502    0  0.12139384020E+03  0.16881971019E+03  0.15115535335E+04  0.15257885351E+04  0.10100000352E+00 0. -1.
       -3    1    3    3    0  502 -0.12139384020E+03 -0.16881971019E+03 -0.27241627242E+02  0.20971093305E+03  0.10100000352E+00 0.  1.
</event>
<event>
 5   0  0.2332791E-04  0.8997656E+03  0.7818609E-02  0.9425875E-01
        1   -1    0    0  501    0  0.00000000000E+00  0.00000000000E+00  0.37828078870E+03  0.37828078873E+03  0.50400001928E-02 0. -1.
       -1   -1    0    0    0  501  0.00000000000E+00  0.00000000000E+00 -0.53503780146E+03  0.53503780148E+03  0.50400001928E-02 0.  1.
    10030    2    1    2    0    0  0.00000000000E+00  0.00000000000E+00 -0.15675701276E+03  0.91331859021E+03  0.89976557290E+03 0.  0.
        2    1    3    3  502    0  0.25629587981E+03  0.36769233489E+03 -0.38943734805E+02  0.44989092637E+03  0.25500000920E-02 0. -1.
       -2    1    3    3    0  502 -0.25629587981E+03 -0.36769233489E+03 -0.11781327796E+03  0.46342766384E+03  0.25500000920E-02 0.  1.
</event>
<event>
 5   0  0.2356918E-04  0.9003342E+03  0.7818609E-02  0.9425164E-01
        1   -1    0    0  501    0  0.00000000000E+00  0.00000000000E+00  0.44736976668E+03  0.44736976671E+03  0.50400001928E-02 0. -1.
       -1   -1    0    0    0  501  0.00000000000E+00  0.00000000000E+00 -0.45298189949E+03  0.45298189951E+03  0.50400001928E-02 0.  1.
    10030    2    1    2    0    0  0.00000000000E+00  0.00000000000E+00 -0.56121328086E+01  0.90035166622E+03  0.90033417509E+03 0.  0.
        5    1    3    3  502    0 -0.73792353317E+02  0.40982769809E+03 -0.17376044245E+03  0.45124143747E+03  0.46999998093E+01 0.  1.
       -5    1    3    3    0  502  0.73792353317E+02 -0.40982769809E+03  0.16814830964E+03  0.44911022875E+03  0.46999998093E+01 0. -1.
</event>
<event>
 5   0  0.4033144E-04  0.9001597E+03  0.7818609E-02  0.9425382E-01
       -2   -1    0    0    0  501  0.00000000000E+00  0.00000000000E+00  0.28708212444E+03  0.28708212445E+03  0.25500000920E-02 0. -1.
        2   -1    0    0  501    0  0.00000000000E+00  0.00000000000E+00 -0.70562335248E+03  0.70562335248E+03  0.25500000920E-02 0.  1.
    10030    2    1    2    0    0  0.00000000000E+00  0.00000000000E+00 -0.41854122803E+03  0.99270547694E+03  0.90015965494E+03 0.  0.
        4    1    3    3  502    0 -0.39340108318E+03 -0.16055087369E+03 -0.37295251483E+03  0.56536376477E+03  0.12699999809E+01 0. -1.
       -4    1    3    3    0  502  0.39340108318E+03  0.16055087369E+03 -0.45588713200E+02  0.42734171217E+03  0.12699999809E+01 0.  1.
</event>
<event>
 5   0  0.4243516E-04  0.9022500E+03  0.7818609E-02  0.9422773E-01
       -2   -1    0    0    0  501  0.00000000000E+00  0.00000000000E+00  0.69155082299E+03  0.69155082299E+03  0.25500000920E-02 0.  1.
        2   -1    0    0  501    0  0.00000000000E+00  0.00000000000E+00 -0.29428605001E+03  0.29428605002E+03  0.25500000920E-02 0. -1.
    10030    2    1    2    0    0  0.00000000000E+00  0.00000000000E+00  0.39726477298E+03  0.98583687302E+03  0.90224998772E+03 0.  0.
        1    1    3    3  502    0  0.31737266742E+03  0.27618635623E+03  0.20731339301E+02  0.42122927468E+03  0.50400001928E-02 0. -1.
       -1    1    3    3    0  502 -0.31737266742E+03 -0.27618635623E+03  0.37653343368E+03  0.56460759833E+03  0.50400001928E-02 0.  1.
</event>
<event>
 5   0  0.2351435E-04  0.8993272E+03  0.7818609E-02  0.9426423E-01
       -1   -1    0    0    0  501  0.00000000000E+00  0.00000000000E+00  0.15653039346E+03  0.15653039354E+03  0.50400001928E-02 0.  1.
        1   -1    0    0  501    0  0.00000000000E+00  0.00000000000E+00 -0.12917450058E+04  0.12917450058E+04  0.50400001928E-02 0. -1.
    10030    2    1    2    0    0  0.00000000000E+00  0.00000000000E+00 -0.11352146124E+04  0.14482753994E+04  0.89932720203E+03 0.  0.
        4    1    3    3  502    0  0.36223933714E+03  0.25208456916E+03 -0.70643613674E+03  0.83295713909E+03  0.12699999809E+01 0.  1.
       -4    1    3    3    0  502 -0.36223933714E+03 -0.25208456916E+03 -0.42877847563E+03  0.61531826029E+03  0.12699999809E+01 0. -1.
</event>
<event>
 5   0  0.4236284E-04  0.8975152E+03  0.7818609E-02  0.9428693E-01
        2   -1    0    0  501    0  0.00000000000E+00  0.00000000000E+00  0.87708573930E+03  0.87708573930E+03  0.25500000920E-02 0. -1.
       -2   -1    0    0    0  501  0.00000000000E+00  0.00000000000E+00 -0.22960513186E+03  0.22960513187E+03  0.25500000920E-02 0.  1.
    10030    2    1    2    0    0  0.00000000000E+00  0.00000000000E+00  0.64748060744E+03  0.11066908712E+04  0.89751520729E+03 0.  0.
        2    1    3    3  502    0 -0.67430107920E+01 -0.44507969663E+03  0.25353178181E+03  0.51226923482E+03  0.25500000920E-02 0.  1.
       -2    1    3    3    0  502  0.67430107920E+01  0.44507969663E+03  0.39394882563E+03  0.59442163636E+03  0.25500000920E-02 0. -1.
</event>
<event>
 5   0  0.2356918E-04  0.9002233E+03  0.7818609E-02  0.9425302E-01
        1   -1    0    0  501    0  0.00000000000E+00  0.00000000000E+00  0.53646070955E+03  0.53646070957E+03  0.50400001928E-02 0.  1.
       -1   -1    0    0    0  501  0.00000000000E+00  0.00000000000E+00 -0.37766135844E+03  0.37766135848E+03  0.50400001928E-02 0. -1.
    10030    2    1    2    0    0  0.00000000000E+00  0.00000000000E+00  0.15879935110E+03  0.91412206805E+03  0.90022326196E+03 0.  0.
        5    1    3    3  502    0 -0.23435130074E+03  0.34051623990E+03  0.26021217388E+03  0.48847139858E+03  0.46999998093E+01 0.  1.
       -5    1    3    3    0  502  0.23435130074E+03 -0.34051623990E+03 -0.10141282278E+03  0.42565066947E+03  0.46999998093E+01 0. -1.
</event>
<event>
 5   0  0.4236284E-04  0.9001697E+03  0.7818609E-02  0.9425369E-01
       -2   -1    0    0    0  501  0.00000000000E+00  0.00000000000E+00  0.14083663919E+04  0.14083663919E+04  0.25500000920E-02 0. -1.
        2   -1    0    0  501    0  0.00000000000E+00  0.00000000000E+00 -0.14383783758E+03  0.14383783761E+03  0.25500000920E-02 0.  1.
    10030    2    1    2    0    0  0.00000000000E+00  0.00000000000E+00  0.12645285544E+04  0.15522042295E+04  0.90016970925E+03 0.  0.
        2    1    3    3  502    0  0.20467303850E+03 -0.70712833714E+02  0.13126385441E+04  0.13303801356E+04  0.25500000920E-02 0. -1.
       -2    1    3    3    0  502 -0.20467303850E+03  0.70712833714E+02 -0.48109989794E+02  0.22182409397E+03  0.25500000920E-02 0.  1.
</event>
<event>
 5   0  0.2332791E-04  0.9000913E+03  0.7818609E-02  0.9425467E-01
       -1   -1    0    0    0  501  0.00000000000E+00  0.00000000000E+00  0.56259251069E+03  0.56259251071E+03  0.50400001928E-02 0. -1.
        1   -1    0    0  501    0  0.00000000000E+00  0.00000000000E+00 -0.36001383834E+03  0.36001383838E+03  0.50400001928E-02 0.  1.
    10030    2    1    2    0    0  0.00000000000E+00  0.00000000000E+00  0.20257867234E+03  0.92260634909E+03  0.90009130475E+03 0.  0.
        2    1    3    3  502    0  0.83645955291E+02  0.22333811152E+03 -0.28991781107E+03  0.37540497476E+03  0.25500000920E-02 0.  1.
       -2    1    3    3    0  502 -0.83645955291E+02 -0.22333811152E+03  0.49249648341E+03  0.54720137433E+03  0.25500000920E-02 0. -1.
</event>
<event>
 5   0  0.2332791E-04  0.8997012E+03  0.7818609E-02  0.9425955E-01
        1   -1    0    0  501    0  0.00000000000E+00  0.00000000000E+00  0.27889198101E+03  0.27889198106E+03  0.50400001928E-02 0.  1.
       -1   -1    0    0    0  501  0.00000000000E+00  0.00000000000E+00 -0.72560557976E+03  0.72560557978E+03  0.50400001928E-02 0. -1.
    10030    2    1    2    0    0  0.00000000000E+00  0.00000000000E+00 -0.44671359875E+03  0.10044975608E+04  0.89970123398E+03 0.  0.
        2    1    3    3  502    0  0.26655547184E+03 -0.15712259778E+03 -0.58792823013E+03  0.66437860749E+03  0.25500000920E-02 0. -1.
       -2    1    3    3    0  502 -0.26655547184E+03  0.15712259778E+03  0.14121463138E+03  0.34011895335E+03  0.25500000920E-02 0.  1.
</event>
<event>
 5   0  0.2332791E-04  0.9000307E+03  0.7818609E-02  0.9425543E-01
        1   -1    0    0  501    0  0.00000000000E+00  0.00000000000E+00  0.55547258659E+03  0.55547258662E+03  0.50400001928E-02 0. -1.
       -1   -1    0    0    0  501  0.00000000000E+00  0.00000000000E+00 -0.36457928164E+03  0.36457928167E+03  0.50400001928E-02 0.  1.
    10030    2    1    2    0    0  0.00000000000E+00  0.00000000000E+00  0.19089330496E+03  0.92005186829E+03  0.90003065863E+03 0.  0.
        2    1    3    3  502    0 -0.40768288207E+03 -0.10882019189E+03 -0.64450999455E+02  0.42685020538E+03  0.25500000920E-02 0.  1.
       -2    1    3    3    0  502  0.40768288207E+03  0.10882019189E+03  0.25534430441E+03  0.49320166291E+03  0.25500000920E-02 0. -1.
</event>
<event>
 5   0  0.4033144E-04  0.9002255E+03  0.7818609E-02  0.9425300E-01
       -2   -1    0    0    0  501  0.00000000000E+00  0.00000000000E+00  0.27574760015E+03  0.27574760016E+03  0.25500000920E-02 0. -1.
        2   -1    0    0  501    0  0.00000000000E+00  0.00000000000E+00 -0.73473530213E+03  0.73473530213E+03  0.25500000920E-02 0.  1.
    10030    2    1    2    0    0  0.00000000000E+00  0.00000000000E+00 -0.45898770198E+03  0.10104829023E+04  0.90022551911E+03 0.  0.
        4    1    3    3  502    0 -0.54716933289E+01 -0.32002642147E+03 -0.58472390650E+03  0.66659621181E+03  0.12699999809E+01 0.  1.
       -4    1    3    3    0  502  0.54716933289E+01  0.32002642147E+03  0.12573620452E+03  0.34388669048E+03  0.12699999809E+01 0. -1.
</event>
<event>
 5   0  0.2356918E-04  0.8997165E+03  0.7818609E-02  0.9425936E-01
        1   -1    0    0  501    0  0.00000000000E+00  0.00000000000E+00  0.28065580295E+03  0.28065580300E+03  0.50400001928E-02 0. -1.
       -1   -1    0    0    0  501  0.00000000000E+00  0.00000000000E+00 -0.72106994606E+03  0.72106994607E+03  0.50400001928E-02 0.  1.
    10030    2    1    2    0    0  0.00000000000E+00  0.00000000000E+00 -0.44041414310E+03  0.10017257491E+04  0.89971654365E+03 0.  0.
        5    1    3    3  502    0  0.28414444736E+03  0.28849319914E+03 -0.20756932362E+01  0.40496023436E+03  0.46999998093E+01 0. -1.
       -5    1    3    3    0  502 -0.28414444736E+03 -0.28849319914E+03 -0.43833844987E+03  0.59676551471E+03  0.46999998093E+01 0.  1.
</event>
<event>
 5   0  0.3959804E-04  0.9002656E+03  0.7818609E-02  0.9425249E-01
        2   -1    0    0  501    0  0.00000000000E+00  0.00000000000E+00  0.56804718988E+03  0.56804718988E+03  0.25500000920E-02 0. -1.
       -2   -1    0    0    0  501  0.00000000000E+00  0.00000000000E+00 -0.35669490082E+03  0.35669490083E+03  0.25500000920E-02 0.  1.
    10030    2    1    2    0    0  0.00000000000E+00  0.00000000000E+00  0.21135228906E+03  0.92474209071E+03  0.90026559650E+03 0.  0.
        5    1    3    3  502    0 -0.28268190942E+03  0.19137206887E+03  0.40702083875E+03  0.53124418475E+03  0.46999998093E+01 0. -1.
       -5    1    3    3    0  502  0.28268190942E+03 -0.19137206887E+03 -0.19566854969E+03  0.39349790596E+03  0.46999998093E+01 0.  1.
</event>
<event>
 5   0  0.3959804E-04  0.9003719E+03  0.7818609E-02  0.9425117E-01
        2   -1    0    0  501    0  0.00000000000E+00  0.00000000000E+00  0.11442993570E+04  0.11442993570E+04  0.25500000920E-02 0.  1.
       -2   -1    0    0    0  501  0.00000000000E+00  0.00000000000E+00 -0.17711045305E+03  0.17711045306E+03  0.25500000920E-02 0. -1.
    10030    2    1    2    0    0  0.00000000000E+00  0.00000000000E+00  0.96718890392E+03  0.13214098100E+04  0.90037187328E+03 0.  0.
        5    1    3    3  502    0  0.17402929552E+03 -0.30253022912E+03  0.90086153489E+03  0.96611817614E+03  0.46999998093E+01 0.  1.
       -5    1    3    3    0  502 -0.17402929552E+03  0.30253022912E+03  0.66327369023E+02  0.35529163388E+03  0.46999998093E+01 0. -1.
</event>
<event>
 5   0  0.4033144E-04  0.8996872E+03  0.7818609E-02  0.9425972E-01
        2   -1    0    0  501    0  0.00000000000E+00  0.00000000000E+00  0.60417234863E+03  0.60417234863E+03  0.25500000920E-02 0.  1.
       -2   -1    0    0    0  501  0.00000000000E+00  0.00000000000E+00 -0.33493635890E+03  0.33493635891E+03  0.25500000920E-02 0. -1.
    10030    2    1    2    0    0  0.00000000000E+00  0.00000000000E+00  0.26923598972E+03  0.93910870754E+03  0.89968724922E+03 0.  0.
        4    1    3    3  502    0  0.26648056147E+03  0.13578304758E+03  0.48536025635E+03  0.57010974118E+03  0.12699999809E+01 0.  1.
       -4    1    3    3    0  502 -0.26648056147E+03 -0.13578304758E+03 -0.21612426662E+03  0.36899896636E+03  0.12699999809E+01 0. -1.
</event>
<event>
 5   0  0.2351435E-04  0.8990230E+03  0.7818609E-02  0.9426804E-01
        1   -1    0    0  501    0  0.00000000000E+00  0.00000000000E+00  0.59847348196E+03  0.59847348198E+03  0.50400001928E-02 0.  1.
       -1   -1    0    0    0  501  0.00000000000E+00  0.00000000000E+00 -0.33762662421E+03  0.33762662425E+03  0.50400001928E-02 0. -1.
    10030    2    1    2    0    0  0.00000000000E+00  0.00000000000E+00  0.26084685775E+03  0.93610010623E+03  0.89902298395E+03 0.  0.
        4    1    3    3  502    0  0.36147289258E+03  0.26359812266E+03  0.84889538687E+02  0.45536190993E+03  0.12699999809E+01 0.  1.
       -4    1    3    3    0  502 -0.36147289258E+03 -0.26359812266E+03  0.17595731906E+03  0.48073819629E+03  0.12699999809E+01 0. -1.
</event>
<event>
 5   0  0.2332791E-04  0.8998028E+03  0.7818609E-02  0.9425828E-01
       -1   -1    0    0    0  501  0.00000000000E+00  0.00000000000E+00  0.74420924986E+03  0.74420924988E+03  0.50400001928E-02 0. -1.
        1   -1    0    0  501    0  0.00000000000E+00  0.00000000000E+00 -0.27198168009E+03  0.27198168014E+03  0.50400001928E-02 0.  1.
    10030    2    1    2    0    0  0.00000000000E+00  0.00000000000E+00  0.47222756977E+03  0.10161909300E+04  0.89980282762E+03 0.  0.
        2    1    3    3  502    0  0.24986171511E+03 -0.16488623046E+03 -0.14317404896E+03  0.33183904830E+03  0.25500000920E-02 0.  1.
       -2    1    3    3    0  502 -0.24986171511E+03  0.16488623046E+03  0.61540161872E+03  0.68435188172E+03  0.25500000920E-02 0. -1.
</event>
<event>
 5   0  0.1596250E-04  0.8999323E+03  0.7818609E-02  0.9425666E-01
       -3   -1    0    0    0  501  0.00000000000E+00  0.00000000000E+00  0.11053078270E+04  0.11053078316E+04  0.10100000352E+00 0.  1.
        3   -1    0    0  501    0  0.00000000000E+00  0.00000000000E+00 -0.18317930526E+03  0.18317933310E+03  0.10100000352E+00 0. -1.
    10030    2    1    2    0    0  0.00000000000E+00  0.00000000000E+00  0.92212852173E+03  0.12884871647E+04  0.89993231024E+03 0.  0.
        1    1    3    3  502    0  0.16967980345E+03 -0.32823828942E+03  0.82871708636E+03  0.90736079901E+03  0.50400001928E-02 0. -1.
       -1    1    3    3    0  502 -0.16967980345E+03  0.32823828942E+03  0.93411435366E+02  0.38112636568E+03  0.50400001928E-02 0.  1.
</event>
<event>
 5   0  0.4236284E-04  0.9050446E+03  0.7818609E-02  0.9419297E-01
       -2   -1    0    0    0  501  0.00000000000E+00  0.00000000000E+00  0.73360119354E+03  0.73360119354E+03  0.25500000920E-02 0.  1.
        2   -1    0    0  501    0  0.00000000000E+00  0.00000000000E+00 -0.27913861410E+03  0.27913861412E+03  0.25500000920E-02 0. -1.
    10030    2    1    2    0    0  0.00000000000E+00  0.00000000000E+00  0.45446257943E+03  0.10127398077E+04  0.90504457454E+03 0.  0.
        2    1    3    3  502    0 -0.84893832452E+02 -0.42505090944E+03  0.81756930841E+02  0.44108891865E+03  0.25500000920E-02 0. -1.
       -2    1    3    3    0  502  0.84893832452E+02  0.42505090944E+03  0.37270564859E+03  0.57165088901E+03  0.25500000920E-02 0.  1.
</event>
<event>
 5   0  0.2332791E-04  0.8994549E+03  0.7818609E-02  0.9426263E-01
       -1   -1    0    0    0  501  0.00000000000E+00  0.00000000000E+00  0.29808826984E+03  0.29808826989E+03  0.50400001928E-02 0.  1.
        1   -1    0    0  501    0  0.00000000000E+00  0.00000000000E+00 -0.67850636190E+03  0.67850636192E+03  0.50400001928E-02 0. -1.
    10030    2    1    2    0    0  0.00000000000E+00  0.00000000000E+00 -0.38041809206E+03  0.97659463181E+03  0.89945491833E+03 0.  0.
        2    1    3    3  502    0 -0.25281572168E+03  0.14331994734E+03  0.18244394486E+03  0.34313581780E+03  0.25500000920E-02 0.  1.
       -2    1    3    3    0  502  0.25281572168E+03 -0.14331994734E+03 -0.56286203692E+03  0.63345881401E+03  0.25500000920E-02 0. -1.
</event>
<event>
 5   0  0.4110039E-04  0.8997626E+03  0.7818609E-02  0.9425878E-01
       -2   -1    0    0    0  501  0.00000000000E+00  0.00000000000E+00  0.19856016326E+03  0.19856016328E+03  0.25500000920E-02 0.  1.
        2   -1    0    0  501    0  0.00000000000E+00  0.00000000000E+00 -0.10193039736E+04  0.10193039736E+04  0.25500000920E-02 0. -1.
    10030    2    1    2    0    0  0.00000000000E+00  0.00000000000E+00 -0.82074381029E+03  0.12178641368E+04  0.89976255404E+03 0.  0.
        3    1    3    3  502    0  0.26082117266E+03  0.32871416642E+03 -0.19081267366E+03  0.46096656489E+03  0.10100000352E+00 0.  1.
       -3    1    3    3    0  502 -0.26082117266E+03 -0.32871416642E+03 -0.62993113663E+03  0.75689757194E+03  0.10100000352E+00 0. -1.
</event>
<event>
 5   0  0.3959804E-04  0.9003127E+03  0.7818609E-02  0.9425191E-01
        2   -1    0    0  501    0  0.00000000000E+00  0.00000000000E+00  0.58450724656E+03  0.58450724657E+03  0.25500000920E-02 0.  1.
       -2   -1    0    0    0  501  0.00000000000E+00  0.00000000000E+00 -0.34668642542E+03  0.34668642543E+03  0.25500000920E-02 0. -1.
    10030    2    1    2    0    0  0.00000000000E+00  0.00000000000E+00  0.23782082114E+03  0.93119367199E+03  0.90031267446E+03 0.  0.
        5    1    3    3  502    0  0.22529874889E+03 -0.19560196833E+03 -0.22969479751E+03  0.37656532801E+03  0.46999998093E+01 0. -1.
       -5    1    3    3    0  502 -0.22529874889E+03  0.19560196833E+03  0.46751561865E+03  0.55462834398E+03  0.46999998093E+01 0.  1.
</event>
<event>
 5   0  0.2356918E-04  0.8997955E+03  0.7818609E-02  0.9425837E-01
        1   -1    0    0  501    0  0.00000000000E+00  0.00000000000E+00  0.63996109700E+03  0.63996109702E+03  0.50400001928E-02 0. -1.
       -1   -1    0    0    0  501  0.00000000000E+00  0.00000000000E+00 -0.31628170883E+03  0.31628170887E+03  0.50400001928E-02 0.  1.
    10030    2    1    2    0    0  0.00000000000E+00  0.00000000000E+00  0.32367938817E+03  0.95624280589E+03  0.89979550871E+03 0.  0.
        5    1    3    3  502    0  0.34004681566E+02 -0.16442122237E+03  0.60538961361E+03  0.62825896810E+03  0.46999998093E+01 0. -1.
       -5    1    3    3    0  502 -0.34004681566E+02  0.16442122237E+03 -0.28171022544E+03  0.32798383779E+03  0.46999998093E+01 0.  1.
</event>
<event>
 5   0  0.2450427E-04  0.8993896E+03  0.7818609E-02  0.9426345E-01
        1   -1    0    0  501    0  0.00000000000E+00  0.00000000000E+00  0.38965064127E+03  0.38965064130E+03  0.50400001928E-02 0. -1.
       -1   -1    0    0    0  501  0.00000000000E+00  0.00000000000E+00 -0.51899156653E+03  0.51899156656E+03  0.50400001928E-02 0.  1.
    10030    2    1    2    0    0  0.00000000000E+00  0.00000000000E+00 -0.12934092526E+03  0.90864220786E+03  0.89938956351E+03 0.  0.
        3    1    3    3  502    0 -0.13168093918E+03  0.24779162010E+03  0.29034875831E+03  0.40378579517E+03  0.10100000352E+00 0. -1.
       -3    1    3    3    0  502  0.13168093918E+03 -0.24779162010E+03 -0.41968968357E+03  0.50485641268E+03  0.10100000352E+00 0.  1.
</event>
<event>
 5   0  0.4110039E-04  0.9011106E+03  0.7818609E-02  0.9424194E-01
        2   -1    0    0  501    0  0.00000000000E+00  0.00000000000E+00  0.31604010621E+03  0.31604010622E+03  0.25500000920E-02 0.  1.
       -2   -1    0    0    0  501  0.00000000000E+00  0.00000000000E+00 -0.64232380260E+03  0.64232380261E+03  0.25500000920E-02 0. -1.
    10030    2    1    2    0    0  0.00000000000E+00  0.00000000000E+00 -0.32628369640E+03  0.95836390882E+03  0.90111060986E+03 0.  0.
        3    1    3    3  502    0  0.95382084226E+02 -0.78866128655E+02 -0.62389063001E+03  0.63604806159E+03  0.10100000352E+00 0. -1.
       -3    1    3    3    0  502 -0.95382084226E+02  0.78866128655E+02  0.29760693361E+03  0.32231584723E+03  0.10100000352E+00 0.  1.
</event>
<event>
 5   0  0.4243516E-04  0.9002087E+03  0.7818609E-02  0.9425321E-01
       -2   -1    0    0    0  501  0.00000000000E+00  0.00000000000E+00  0.15420634344E+03  0.15420634346E+03  0.25500000920E-02 0. -1.
        2   -1    0    0  501    0  0.00000000000E+00  0.00000000000E+00 -0.13137847316E+04  0.13137847316E+04  0.25500000920E-02 0.  1.
    10030    2    1    2    0    0  0.00000000000E+00  0.00000000000E+00 -0.11595783882E+04  0.14679910751E+04  0.90020873034E+03 0.  0.
        1    1    3    3  502    0  0.46233824292E+02 -0.39881082378E+03 -0.91161748192E+03  0.99610946840E+03  0.50400001928E-02 0.  1.
       -1    1    3    3    0  502 -0.46233824292E+02  0.39881082378E+03 -0.24796090628E+03  0.47188160670E+03  0.50400001928E-02 0. -1.
</event>
<event>
 5   0  0.4243516E-04  0.8997871E+03  0.7818609E-02  0.9425848E-01
        2   -1    0    0  501    0  0.00000000000E+00  0.00000000000E+00  0.98671541740E+03  0.98671541740E+03  0.25500000920E-02 0.  1.
       -2   -1    0    0    0  501  0.00000000000E+00  0.00000000000E+00 -0.20512925191E+03  0.20512925192E+03  0.25500000920E-02 0. -1.
    10030    2    1    2    0    0  0.00000000000E+00  0.00000000000E+00  0.78158616549E+03  0.11918446693E+04  0.89978707577E+03 0.  0.
        1    1    3    3  502    0 -0.26097160759E+03  0.13472403649E+03 -0.60631022780E+02  0.29988809067E+03  0.50400001928E-02 0. -1.
       -1    1    3    3    0  502  0.26097160759E+03 -0.13472403649E+03  0.84221718827E+03  0.89195657866E+03  0.50400001928E-02 0.  1.
</event>
<event>
 5   0  0.4236284E-04  0.9009266E+03  0.7818609E-02  0.9424424E-01
       -2   -1    0    0    0  501  0.00000000000E+00  0.00000000000E+00  0.25867704551E+03  0.25867704552E+03  0.25500000920E-02 0.  1.
        2   -1    0    0  501    0  0.00000000000E+00  0.00000000000E+00 -0.78444210637E+03  0.78444210638E+03  0.25500000920E-02 0. -1.
    10030    2    1    2    0    0  0.00000000000E+00  0.00000000000E+00 -0.52576506086E+03  0.10431191519E+04  0.90092655962E+03 0.  0.
        2    1    3    3  502    0  0.24184089569E+03  0.11457538489E+03 -0.68243012895E+03  0.73302484170E+03  0.25500000920E-02 0. -1.
       -2    1    3    3    0  502 -0.24184089569E+03 -0.11457538489E+03  0.15666506808E+03  0.31009431020E+03  0.25500000920E-02 0.  1.
</event>
<event>
 5   0  0.2308362E-04  0.8999131E+03  0.7818609E-02  0.9425690E-01
       -1   -1    0    0    0  501  0.00000000000E+00  0.00000000000E+00  0.31679280620E+03  0.31679280624E+03  0.50400001928E-02 0. -1.
        1   -1    0    0  501    0  0.00000000000E+00  0.00000000000E+00 -0.63909559486E+03  0.63909559488E+03  0.50400001928E-02 0.  1.
    10030    2    1    2    0    0  0.00000000000E+00  0.00000000000E+00 -0.32230278866E+03  0.95588840111E+03  0.89991307792E+03 0.  0.
        1    1    3    3  502    0 -0.16535961825E+03  0.32160563722E+02  0.28203307978E+03  0.32851295761E+03  0.50400001928E-02 0. -1.
       -1    1    3    3    0  502  0.16535961825E+03 -0.32160563722E+02 -0.60433586844E+03  0.62737544350E+03  0.50400001928E-02 0.  1.
</event>
<event>
 5   0  0.4243516E-04  0.9016925E+03  0.7818609E-02  0.9423468E-01
        2   -1    0    0  501    0  0.00000000000E+00  0.00000000000E+00  0.63934978126E+03  0.63934978126E+03  0.25500000920E-02 0. -1.
       -2   -1    0    0    0  501  0.00000000000E+00  0.00000000000E+00 -0.31792041838E+03  0.31792041839E+03  0.25500000920E-02 0.  1.
    10030    2    1    2    0    0  0.00000000000E+00  0.00000000000E+00  0.32142936288E+03  0.95727019965E+03  0.90169251955E+03 0.  0.
        1    1    3    3  502    0 -0.33310615977E+03  0.50594727832E+02  0.47875040412E+03  0.58542419631E+03  0.50400001928E-02 0. -1.
       -1    1    3    3    0  502  0.33310615977E+03 -0.50594727832E+02 -0.15732104124E+03  0.37184600334E+03  0.50400001928E-02 0.  1.
</event>
<event>
 5   0  0.4033144E-04  0.9002983E+03  0.7818609E-02  0.9425209E-01
       -2   -1    0    0    0  501  0.00000000000E+00  0.00000000000E+00  0.19210949190E+03  0.19210949192E+03  0.25500000920E-02 0. -1.
        2   -1    0    0  501    0  0.00000000000E+00  0.00000000000E+00 -0.10547853301E+04  0.10547853301E+04  0.25500000920E-02 0.  1.
    10030    2    1    2    0    0  0.00000000000E+00  0.00000000000E+00 -0.86267583822E+03  0.12468948220E+04  0.90029833688E+03 0.  0.
        4    1    3    3  502    0 -0.37606282443E+03 -0.53935816754E+02 -0.76574766047E+03  0.85481191654E+03  0.12699999809E+01 0.  1.
       -4    1    3    3    0  502  0.37606282443E+03  0.53935816754E+02 -0.96928177753E+02  0.39208290550E+03  0.12699999809E+01 0. -1.
</event>
<event>
 5   0  0.4110039E-04  0.8999484E+03  0.7818609E-02  0.9425646E-01
       -2   -1    0    0    0  501  0.00000000000E+00  0.00000000000E+00  0.20215530440E+03  0.20215530442E+03  0.25500000920E-02 0. -1.
        2   -1    0    0  501    0  0.00000000000E+00  0.00000000000E+00 -0.10015901944E+04  0.10015901944E+04  0.25500000920E-02 0.  1.
    10030    2    1    2    0    0  0.00000000000E+00  0.00000000000E+00 -0.79943488998E+03  0.12037454988E+04  0.89994837773E+03 0.  0.
        3    1    3    3  502    0 -0.19143440017E+03 -0.18622931758E+03 -0.88411100920E+03  0.92356958324E+03  0.10100000352E+00 0.  1.
       -3    1    3    3    0  502  0.19143440017E+03  0.18622931758E+03  0.84676119223E+02  0.28017591556E+03  0.10100000352E+00 0. -1.
</event>
<event>
 5   0  0.2450427E-04  0.9003173E+03  0.7818609E-02  0.9425185E-01
       -1   -1    0    0    0  501  0.00000000000E+00  0.00000000000E+00  0.10961847244E+04  0.10961847244E+04  0.50400001928E-02 0.  1.
        1   -1    0    0  501    0  0.00000000000E+00  0.00000000000E+00 -0.18486190258E+03  0.18486190265E+03  0.50400001928E-02 0. -1.
    10030    2    1    2    0    0  0.00000000000E+00  0.00000000000E+00  0.91132282183E+03  0.12810466271E+04  0.90031726361E+03 0.  0.
        3    1    3    3  502    0  0.18854057176E+03  0.29852473535E+03  0.58327149809E+02  0.35786398453E+03  0.10100000352E+00 0.  1.
       -3    1    3    3    0  502 -0.18854057176E+03 -0.29852473535E+03  0.85299567202E+03  0.92318264255E+03  0.10100000352E+00 0. -1.
</event>
<event>
 5   0  0.1596250E-04  0.8998897E+03  0.7818609E-02  0.9425719E-01
       -4   -1    0    0    0  501  0.00000000000E+00  0.00000000000E+00  0.20811272744E+03  0.20811660246E+03  0.12699999809E+01 0. -1.
        4   -1    0    0  501    0  0.00000000000E+00  0.00000000000E+00 -0.97277846765E+03  0.97277929666E+03  0.12699999809E+01 0.  1.
    10030    2    1    2    0    0  0.00000000000E+00  0.00000000000E+00 -0.76466574021E+03  0.11808958991E+04  0.89988967675E+03 0.  0.
        5    1    3    3  502    0 -0.24127200880E+03  0.28893682518E+03 -0.70572518367E+03  0.79985423424E+03  0.46999998093E+01 0.  1.
       -5    1    3    3    0  502  0.24127200880E+03 -0.28893682518E+03 -0.58940556540E+02  0.38104166488E+03  0.46999998093E+01 0. -1.
</event>
<event>
 5   0  0.4243516E-04  0.9017617E+03  0.7818609E-02  0.9423382E-01
        2   -1    0    0  501    0  0.00000000000E+00  0.00000000000E+00  0.71343808909E+03  0.71343808910E+03  0.25500000920E-02 0. -1.
       -2   -1    0    0    0  501  0.00000000000E+00  0.00000000000E+00 -0.28494912277E+03  0.28494912278E+03  0.25500000920E-02 0.  1.
    10030    2    1    2    0    0  0.00000000000E+00  0.00000000000E+00  0.42848896632E+03  0.99838721188E+03  0.90176173715E+03 0.  0.
        1    1    3    3  502    0 -0.61884220502E+02  0.38105332677E+02 -0.27842179218E+03  0.28775053000E+03  0.50400001928E-02 0.  1.
       -1    1    3    3    0  502  0.61884220502E+02 -0.38105332677E+02  0.70691075850E+03  0.71063668189E+03  0.50400001928E-02 0. -1.
</event>
<event>
 5   0  0.4033144E-04  0.9004196E+03  0.7818609E-02  0.9425057E-01
       -2   -1    0    0    0  501  0.00000000000E+00  0.00000000000E+00  0.48022091431E+03  0.48022091432E+03  0.25500000920E-02 0.  1.
        2   -1    0    0  501    0  0.00000000000E+00  0.00000000000E+00 -0.42207425406E+03  0.42207425406E+03  0.25500000920E-02 0. -1.
    10030    2    1    2    0    0  0.00000000000E+00  0.00000000000E+00  0.58146660258E+02  0.90229516838E+03  0.90041964483E+03 0.  0.
        4    1    3    3  502    0 -0.33946034980E+03  0.29568822559E+03  0.33817688697E+02  0.45145332517E+03  0.12699999809E+01 0.  1.
       -4    1    3    3    0  502  0.33946034980E+03 -0.29568822559E+03  0.24328971561E+02  0.45084184322E+03  0.12699999809E+01 0. -1.
</event>
<event>
 5   0  0.4110039E-04  0.8994762E+03  0.7818609E-02  0.9426236E-01
       -2   -1    0    0    0  501  0.00000000000E+00  0.00000000000E+00  0.26772296682E+03  0.26772296684E+03  0.25500000920E-02 0. -1.
        2   -1    0    0  501    0  0.00000000000E+00  0.00000000000E+00 -0.75549875546E+03  0.75549875547E+03  0.25500000920E-02 0.  1.
    10030    2    1    2    0    0  0.00000000000E+00  0.00000000000E+00 -0.48777578864E+03  0.10232217223E+04  0.89947622148E+03 0.  0.
        3    1    3    3  502    0  0.42139413996E+03 -0.56681570508E+02 -0.41060586174E+03  0.59108629279E+03  0.10100000352E+00 0.  1.
       -3    1    3    3    0  502 -0.42139413996E+03  0.56681570508E+02 -0.77169926898E+02  0.43213542952E+03  0.10100000352E+00 0. -1.
</event>
<event>
 5   0  0.2308362E-04  0.8997463E+03  0.7818609E-02  0.9425899E-01
       -1   -1    0    0    0  501  0.00000000000E+00  0.00000000000E+00  0.39357478251E+03  0.39357478254E+03  0.50400001928E-02 0. -1.
        1   -1    0    0  501    0  0.00000000000E+00  0.00000000000E+00 -0.51422464379E+03  0.51422464381E+03  0.50400001928E-02 0.  1.
    10030    2    1    2    0    0  0.00000000000E+00  0.00000000000E+00 -0.12064986128E+03  0.90779942636E+03  0.89974630284E+03 0.  0.
        1    1    3    3  502    0  0.67713815857E+02 -0.26681119641E+03  0.29868634241E+03  0.40618580300E+03  0.50400001928E-02 0. -1.
       -1    1    3    3    0  502 -0.67713815857E+02  0.26681119641E+03 -0.41933620369E+03  0.50161362336E+03  0.50400001928E-02 0.  1.
</event>
<event>
 5   0  0.4236284E-04  0.8952045E+03  0.7818609E-02  0.9431596E-01
       -2   -1    0    0    0  501  0.00000000000E+00  0.00000000000E+00  0.20771326228E+03  0.20771326229E+03  0.25500000920E-02 0.  1.
        2   -1    0    0  501    0  0.00000000000E+00  0.00000000000E+00 -0.96454010813E+03  0.96454010813E+03  0.25500000920E-02 0. -1.
    10030    2    1    2    0    0  0.00000000000E+00  0.00000000000E+00 -0.75682684585E+03  0.11722533704E+04  0.89520449612E+03 0.  0.
        2    1    3    3  502    0 -0.42132076513E+03  0.75476391153E+02 -0.54984995525E+03  0.69680904561E+03  0.25500000920E-02 0. -1.
       -2    1    3    3    0  502  0.42132076513E+03 -0.75476391153E+02 -0.20697689060E+03  0.47544432481E+03  0.25500000920E-02 0.  1.
</event>
<event>
 5   0  0.2351435E-04  0.9005600E+03  0.7818609E-02  0.9424882E-01
       -1   -1    0    0    0  501  0.00000000000E+00  0.00000000000E+00  0.42216548263E+03  0.42216548266E+03  0.50400001928E-02 0. -1.
        1   -1    0    0  501    0  0.00000000000E+00  0.00000000000E+00 -0.48026678439E+03  0.48026678441E+03  0.50400001928E-02 0.  1.
    10030    2    1    2    0    0  0.00000000000E+00  0.00000000000E+00 -0.58101301762E+02  0.90243226707E+03  0.90055995657E+03 0.  0.
        4    1    3    3  502    0  0.10908213743E+03  0.42710855454E+03 -0.12105556574E+03  0.45713968649E+03  0.12699999809E+01 0. -1.
       -4    1    3    3    0  502 -0.10908213743E+03 -0.42710855454E+03  0.62954263977E+02  0.44529258058E+03  0.12699999809E+01 0.  1.
</event>
<event>
 5   0  0.2332791E-04  0.9002740E+03  0.7818609E-02  0.9425239E-01
       -1   -1    0    0    0  501  0.00000000000E+00  0.00000000000E+00  0.17775663806E+03  0.17775663813E+03  0.50400001928E-02 0. -1.
        1   -1    0    0  501    0  0.00000000000E+00  0.00000000000E+00 -0.11398917760E+04  0.11398917760E+04  0.50400001928E-02 0.  1.
    10030    2    1    2    0    0  0.00000000000E+00  0.00000000000E+00 -0.96213513794E+03  0.13176484141E+04  0.90027402475E+03 0.  0.
        2    1    3    3  502    0  0.90919718261E+02  0.12734857699E+03 -0.10988060612E+04  0.11098913529E+04  0.25500000920E-02 0.  1.
       -2    1    3    3    0  502 -0.90919718261E+02 -0.12734857699E+03  0.13667092322E+03  0.20775706123E+03  0.25500000920E-02 0. -1.
</event>
<event>
 5   0  0.3959804E-04  0.8997735E+03  0.7818609E-02  0.9425865E-01
        2   -1    0    0  501    0  0.00000000000E+00  0.00000000000E+00  0.57666299824E+03  0.57666299825E+03  0.25500000920E-02 0.  1.
       -2   -1    0    0    0  501  0.00000000000E+00  0.00000000000E+00 -0.35098159246E+03  0.35098159247E+03  0.25500000920E-02 0. -1.
    10030    2    1    2    0    0  0.00000000000E+00  0.00000000000E+00  0.22568140578E+03  0.92764459072E+03  0.89977352138E+03 0.  0.
        5    1    3    3  502    0 -0.20107239019E+03 -0.32683111610E+03  0.35490562463E+03  0.52271290107E+03  0.46999998093E+01 0.  1.
       -5    1    3    3    0  502  0.20107239019E+03  0.32683111610E+03 -0.12922421885E+03  0.40493168965E+03  0.46999998093E+01 0. -1.
</event>
<event>
 5   0  0.2308362E-04  0.8996453E+03  0.7818609E-02  0.9426025E-01
       -1   -1    0    0    0  501  0.00000000000E+00  0.00000000000E+00  0.13975148370E+04  0.13975148370E+04  0.50400001928E-02 0.  1.
        1   -1    0    0  501    0  0.00000000000E+00  0.00000000000E+00 -0.14478587834E+03  0.14478587843E+03  0.50400001928E-02 0. -1.
    10030    2    1    2    0    0  0.00000000000E+00  0.00000000000E+00  0.12527289586E+04  0.15423007154E+04  0.89964529284E+03 0.  0.
        1    1    3    3  502    0  0.21537202585E+03  0.20044172815E+03  0.12096907722E+04  0.12449553246E+04  0.50400001928E-02 0.  1.
       -1    1    3    3    0  502 -0.21537202585E+03 -0.20044172815E+03  0.43038186414E+02  0.29734539078E+03  0.50400001928E-02 0. -1.
</event>
<event>
 5   0  0.4033144E-04  0.9002572E+03  0.7818609E-02  0.9425260E-01
        2   -1    0    0  501    0  0.00000000000E+00  0.00000000000E+00  0.46931368709E+03  0.46931368710E+03  0.25500000920E-02 0.  1.
       -2   -1    0    0    0  501  0.00000000000E+00  0.00000000000E+00 -0.43172781342E+03  0.43172781342E+03  0.25500000920E-02 0. -1.
    10030    2    1    2    0    0  0.00000000000E+00  0.00000000000E+00  0.37585873677E+02  0.90104150052E+03  0.90025723422E+03 0.  0.
        4    1    3    3  502    0  0.28315141399E+03  0.34608627202E+03  0.70449216154E+02  0.45267553047E+03  0.12699999809E+01 0.  1.
       -4    1    3    3    0  502 -0.28315141399E+03 -0.34608627202E+03 -0.32863342477E+02  0.44836597006E+03  0.12699999809E+01 0. -1.
</event>
<event>
 5   0  0.2356918E-04  0.9003497E+03  0.7818609E-02  0.9425144E-01
        1   -1    0    0  501    0  0.00000000000E+00  0.00000000000E+00  0.80497917492E+03  0.80497917494E+03  0.50400001928E-02 0. -1.
       -1   -1    0    0    0  501  0.00000000000E+00  0.00000000000E+00 -0.25175484088E+03  0.25175484093E+03  0.50400001928E-02 0.  1.
    10030    2    1    2    0    0  0.00000000000E+00  0.00000000000E+00  0.55322433404E+03  0.10567340159E+04  0.90034971901E+03 0.  0.
        5    1    3    3  502    0 -0.37847011475E+03  0.10392866294E+03  0.17881385895E+02  0.39291554907E+03  0.46999998093E+01 0.  1.
       -5    1    3    3    0  502  0.37847011475E+03 -0.10392866294E+03  0.53534294814E+03  0.66381846680E+03  0.46999998093E+01 0. -1.
</event>
<event>
 5   0  0.4110039E-04  0.8991523E+03  0.7818609E-02  0.9426642E-01
       -2   -1    0    0    0  501  0.00000000000E+00  0.00000000000E+00  0.81237519003E+03  0.81237519003E+03  0.25500000920E-02 0. -1.
        2   -1    0    0  501    0  0.00000000000E+00  0.00000000000E+00 -0.24879968993E+03  0.24879968994E+03  0.25500000920E-02 0.  1.
    10030    2    1    2    0    0  0.00000000000E+00  0.00000000000E+00  0.56357550010E+03  0.10611748800E+04  0.89915225717E+03 0.  0.
        3    1    3    3  502    0 -0.39100224110E+03  0.11789210616E+02  0.54329333368E+03  0.66946948747E+03  0.10100000352E+00 0. -1.
       -3    1    3    3    0  502  0.39100224110E+03 -0.11789210616E+02  0.20282166417E+02  0.39170539250E+03  0.10100000352E+00 0.  1.
</event>
<event>
 5   0  0.3959804E-04  0.8997528E+03  0.7818609E-02  0.9425890E-01
        2   -1    0    0  501    0  0.00000000000E+00  0.00000000000E+00  0.30492045241E+03  0.30492045242E+03  0.25500000920E-02 0. -1.
       -2   -1    0    0    0  501  0.00000000000E+00  0.00000000000E+00 -0.66374291157E+03  0.66374291157E+03  0.25500000920E-02 0.  1.
    10030    2    1    2    0    0  0.00000000000E+00  0.00000000000E+00 -0.35882245916E+03  0.96866336399E+03  0.89975283025E+03 0.  0.
        5    1    3    3  502    0 -0.29122302462E+02 -0.41473169259E+03  0.55496895656E+01  0.41581651530E+03  0.46999998093E+01 0. -1.
       -5    1    3    3    0  502  0.29122302462E+02  0.41473169259E+03 -0.36437214873E+03  0.55284684869E+03  0.46999998093E+01 0.  1.
</event>
<event>
 5   0  0.2450427E-04  0.8955336E+03  0.7818609E-02  0.9431182E-01
       -1   -1    0    0    0  501  0.00000000000E+00  0.00000000000E+00  0.12121050184E+03  0.12121050194E+03  0.50400001928E-02 0.  1.
        1   -1    0    0  501    0  0.00000000000E+00  0.00000000000E+00 -0.16541066370E+04  0.16541066370E+04  0.50400001928E-02 0. -1.
    10030    2    1    2    0    0  0.00000000000E+00  0.00000000000E+00 -0.15328961351E+04  0.17753171389E+04  0.89553357427E+03 0.  0.
        3    1    3    3  502    0  0.61708068646E+02  0.40290573469E+03 -0.11338858362E+04  0.12049224110E+04  0.10100000352E+00 0. -1.
       -3    1    3    3    0  502 -0.61708068646E+02 -0.40290573469E+03 -0.39901029889E+03  0.57039472789E+03  0.10100000352E+00 0.  1.
</event>
<event>
 5   0  0.4236284E-04  0.9007614E+03  0.7818609E-02  0.9424630E-01
        2   -1    0    0  501    0  0.00000000000E+00  0.00000000000E+00  0.13926134075E+04  0.13926134075E+04  0.25500000920E-02 0. -1.
       -2   -1    0    0    0  501  0.00000000000E+00  0.00000000000E+00 -0.14565619471E+03  0.14565619473E+03  0.25500000920E-02 0.  1.
    10030    2    1    2    0    0  0.00000000000E+00  0.00000000000E+00  0.12469572128E+04  0.15382696023E+04  0.90076138830E+03 0.  0.
        2    1    3    3  502    0  0.51759958699E+02  0.13182903817E+03  0.13535960304E+04  0.13609850117E+04  0.25500000920E-02 0. -1.
       -2    1    3    3    0  502 -0.51759958699E+02 -0.13182903817E+03 -0.10663881757E+03  0.17728459055E+03  0.25500000920E-02 0.  1.
</event>
<event>
 5   0  0.4033144E-04  0.8993586E+03  0.7818609E-02  0.9426384E-01
        2   -1    0    0  501    0  0.00000000000E+00  0.00000000000E+00  0.49924543874E+03  0.49924543874E+03  0.25500000920E-02 0. -1.
       -2   -1    0    0    0  501  0.00000000000E+00  0.00000000000E+00 -0.40503419225E+03  0.40503419226E+03  0.25500000920E-02 0.  1.
    10030    2    1    2    0    0  0.00000000000E+00  0.00000000000E+00  0.94211246481E+02  0.90427963100E+03  0.89935860038E+03 0.  0.
        4    1    3    3  502    0  0.15647947570E+03 -0.69755765356E+02  0.46514270567E+03  0.49569248799E+03  0.12699999809E+01 0. -1.
       -4    1    3    3    0  502 -0.15647947570E+03  0.69755765356E+02 -0.37093145919E+03  0.40858714301E+03  0.12699999809E+01 0.  1.
</event>
<event>
 5   0  0.4033144E-04  0.8999248E+03  0.7818609E-02  0.9425675E-01
       -2   -1    0    0    0  501  0.00000000000E+00  0.00000000000E+00  0.37980073555E+03  0.37980073556E+03  0.25500000920E-02 0.  1.
        2   -1    0    0  501    0  0.00000000000E+00  0.00000000000E+00 -0.53308523365E+03  0.53308523365E+03  0.25500000920E-02 0. -1.
    10030    2    1    2    0    0  0.00000000000E+00  0.00000000000E+00 -0.15328449810E+03  0.91288596921E+03  0.89992480543E+03 0.  0.
        4    1    3    3  502    0  0.18506789307E+03 -0.34350991166E+03 -0.30395752799E+03  0.49461194504E+03  0.12699999809E+01 0. -1.
       -4    1    3    3    0  502 -0.18506789307E+03  0.34350991166E+03  0.15067302989E+03  0.41827402417E+03  0.12699999809E+01 0.  1.
</event>
<event>
 5   0  0.2351435E-04  0.8999271E+03  0.7818609E-02  0.9425673E-01
        1   -1    0    0  501    0  0.00000000000E+00  0.00000000000E+00  0.10472129484E+04  0.10472129484E+04  0.50400001928E-02 0.  1.
       -1   -1    0    0    0  501  0.00000000000E+00  0.00000000000E+00 -0.19333907489E+03  0.19333907496E+03  0.50400001928E-02 0. -1.
    10030    2    1    2    0    0  0.00000000000E+00  0.00000000000E+00  0.85387387354E+03  0.12405520234E+04  0.89992706974E+03 0.  0.
        4    1    3    3  502    0  0.48695087869E+02  0.43882358167E+03  0.30733068344E+03  0.53795084282E+03  0.12699999809E+01 0. -1.
       -4    1    3    3    0  502 -0.48695087869E+02 -0.43882358167E+03  0.54654319010E+03  0.70260118058E+03  0.12699999809E+01 0.  1.
</event>
<event>
 5   0  0.2450427E-04  0.8998390E+03  0.7818609E-02  0.9425783E-01
        1   -1    0    0  501    0  0.00000000000E+00  0.00000000000E+00  0.38084904689E+03  0.38084904692E+03  0.50400001928E-02 0. -1.
       -1   -1    0    0    0  501  0.00000000000E+00  0.00000000000E+00 -0.53151650201E+03  0.53151650203E+03  0.50400001928E-02 0.  1.
    10030    2    1    2    0    0  0.00000000000E+00  0.00000000000E+00 -0.15066745512E+03  0.91236554896E+03  0.89983899276E+03 0.  0.
        3    1    3    3  502    0  0.10673831905E+03  0.52293522440E+02 -0.51530981156E+03  0.52884013968E+03  0.10100000352E+00 0.  1.
       -3    1    3    3    0  502 -0.10673831905E+03 -0.52293522440E+02  0.36464235645E+03  0.38352540927E+03  0.10100000352E+00 0. -1.
</event>
<event>
 5   0  0.2308362E-04  0.8999230E+03  0.7818609E-02  0.9425678E-01
       -1   -1    0    0    0  501  0.00000000000E+00  0.00000000000E+00  0.10585603351E+04  0.10585603351E+04  0.50400001928E-02 0.  1.
        1   -1    0    0  501    0  0.00000000000E+00  0.00000000000E+00 -0.19126482622E+03  0.19126482629E+03  0.50400001928E-02 0. -1.
    10030    2    1    2    0    0  0.00000000000E+00  0.00000000000E+00  0.86729550890E+03  0.12498251614E+04  0.89992301579E+03 0.  0.
        1    1    3    3  502    0 -0.42754446121E+02 -0.43770033939E+03  0.56581018173E+03  0.71662451224E+03  0.50400001928E-02 0.  1.
       -1    1    3    3    0  502  0.42754446121E+02  0.43770033939E+03  0.30148532716E+03  0.53320064918E+03  0.50400001928E-02 0. -1.
</event>
<event>
 5   0  0.2332791E-04  0.8998303E+03  0.7818609E-02  0.9425794E-01
        1   -1    0    0  501    0  0.00000000000E+00  0.00000000000E+00  0.35245707193E+03  0.35245707196E+03  0.50400001928E-02 0.  1.
       -1   -1    0    0    0  501  0.00000000000E+00  0.00000000000E+00 -0.57432139440E+03  0.57432139442E+03  0.50400001928E-02 0. -1.
    10030    2    1    2    0    0  0.00000000000E+00  0.00000000000E+00 -0.22186432247E+03  0.92677846638E+03  0.89983028854E+03 0.  0.
        2    1    3    3  502    0  0.13008765520E+03  0.36282131834E+03 -0.34996340412E+03  0.52061165114E+03  0.25500000920E-02 0. -1.
       -2    1    3    3    0  502 -0.13008765520E+03 -0.36282131834E+03  0.12809908165E+03  0.40616681524E+03  0.25500000920E-02 0.  1.
</event>
<event>
 5   0  0.2308362E-04  0.9009856E+03  0.7818609E-02  0.9424350E-01
       -1   -1    0    0    0  501  0.00000000000E+00  0.00000000000E+00  0.35158650994E+03  0.35158650997E+03  0.50400001928E-02 0. -1.
        1   -1    0    0  501    0  0.00000000000E+00  0.00000000000E+00 -0.57722289265E+03  0.57722289267E+03  0.50400001928E-02 0.  1.
    10030    2    1    2    0    0  0.00000000000E+00  0.00000000000E+00 -0.22563638271E+03  0.92880940264E+03  0.90098564319E+03 0.  0.
        1    1    3    3  502    0  0.34499777826E+03 -0.10157844590E+03 -0.39249337858E+03  0.53234640971E+03  0.50400001928E-02 0.  1.
       -1    1    3    3    0  502 -0.34499777826E+03  0.10157844590E+03  0.16685699586E+03  0.39646299294E+03  0.50400001928E-02 0. -1.
</event>
<event>
 5   0  0.4236284E-04  0.9000381E+03  0.7818609E-02  0.9425534E-01
       -2   -1    0    0    0  501  0.00000000000E+00  0.00000000000E+00  0.14738680548E+03  0.14738680550E+03  0.25500000920E-02 0. -1.
        2   -1    0    0  501    0  0.00000000000E+00  0.00000000000E+00 -0.13740520168E+04  0.13740520168E+04  0.25500000920E-02 0.  1.
    10030    2    1    2    0    0  0.00000000000E+00  0.00000000000E+00 -0.12266652114E+04  0.15214388223E+04  0.90003808217E+03 0.  0.
        2    1    3    3  502    0 -0.73682837622E+01  0.31569261304E+03 -0.11553239112E+04  0.11977017397E+04  0.25500000920E-02 0.  1.
       -2    1    3    3    0  502  0.73682837622E+01 -0.31569261304E+03 -0.71341300137E+02  0.32373708259E+03  0.25500000920E-02 0. -1.
</event>
<event>
 5   0  0.2351435E-04  0.8998113E+03  0.7818609E-02  0.9425817E-01
        1   -1    0    0  501    0  0.00000000000E+00  0.00000000000E+00  0.52965650189E+03  0.52965650191E+03  0.50400001928E-02 0.  1.
       -1   -1    0    0    0  501  0.00000000000E+00  0.00000000000E+00 -0.38216298184E+03  0.38216298187E+03  0.50400001928E-02 0. -1.
    10030    2    1    2    0    0  0.00000000000E+00  0.00000000000E+00  0.14749352005E+03  0.91181948378E+03  0.89981133164E+03 0.  0.
        4    1    3    3  502    0  0.24720772471E+03 -0.79247404650E+02  0.44610345898E+03  0.51614118158E+03  0.12699999809E+01 0.  1.
       -4    1    3    3    0  502 -0.24720772471E+03  0.79247404650E+02 -0.29860993894E+03  0.39567830220E+03  0.12699999809E+01 0. -1.
</event>
<event>
 5   0  0.4033144E-04  0.8992101E+03  0.7818609E-02  0.9426569E-01
       -2   -1    0    0    0  501  0.00000000000E+00  0.00000000000E+00  0.48917491107E+03  0.48917491107E+03  0.25500000920E-02 0. -1.
        2   -1    0    0  501    0  0.00000000000E+00  0.00000000000E+00 -0.41323602937E+03  0.41323602938E+03  0.25500000920E-02 0.  1.
    10030    2    1    2    0    0  0.00000000000E+00  0.00000000000E+00  0.75938881694E+02  0.90241094045E+03  0.89921009319E+03 0.  0.
        4    1    3    3  502    0 -0.12089754787E+03 -0.12066801064E+03  0.45534179062E+03  0.48632781646E+03  0.12699999809E+01 0. -1.
       -4    1    3    3    0  502  0.12089754787E+03  0.12066801064E+03 -0.37940290893E+03  0.41608312400E+03  0.12699999809E+01 0.  1.
</event>
<event>
 5   0  0.2308362E-04  0.8997919E+03  0.7818609E-02  0.9425842E-01
       -1   -1    0    0    0  501  0.00000000000E+00  0.00000000000E+00  0.19814201487E+03  0.19814201493E+03  0.50400001928E-02 0.  1.
        1   -1    0    0  501    0  0.00000000000E+00  0.00000000000E+00 -0.10215217164E+04  0.10215217164E+04  0.50400001928E-02 0. -1.
    10030    2    1    2    0    0  0.00000000000E+00  0.00000000000E+00 -0.82337970152E+03  0.12196637313E+04  0.89979191185E+03 0.  0.
        1    1    3    3  502    0 -0.42447956024E+03 -0.79995322448E+02 -0.58220352566E+03  0.72494351090E+03  0.50400001928E-02 0. -1.
       -1    1    3    3    0  502  0.42447956024E+03  0.79995322448E+02 -0.24117617585E+03  0.49472022043E+03  0.50400001928E-02 0.  1.
</event>
<event>
 5   0  0.2450427E-04  0.9001575E+03  0.7818609E-02  0.9425385E-01
        1   -1    0    0  501    0  0.00000000000E+00  0.00000000000E+00  0.13411379976E+04  0.13411379976E+04  0.50400001928E-02 0. -1.
       -1   -1    0    0    0  501  0.00000000000E+00  0.00000000000E+00 -0.15104403145E+03  0.15104403154E+03  0.50400001928E-02 0.  1.
    10030    2    1    2    0    0  0.00000000000E+00  0.00000000000E+00  0.11900939662E+04  0.14921820292E+04  0.90015751947E+03 0.  0.
        3    1    3    3  502    0  0.36791281567E+03 -0.69359078383E+01  0.10246507873E+04  0.10887227346E+04  0.10100000352E+00 0. -1.
       -3    1    3    3    0  502 -0.36791281567E+03  0.69359078383E+01  0.16544317892E+03  0.40345929460E+03  0.10100000352E+00 0.  1.
</event>
<event>
 5   0  0.4236284E-04  0.9000673E+03  0.7818609E-02  0.9425497E-01
       -2   -1    0    0    0  501  0.00000000000E+00  0.00000000000E+00  0.39858332113E+03  0.39858332114E+03  0.25500000920E-02 0.  1.
        2   -1    0    0  501    0  0.00000000000E+00  0.00000000000E+00 -0.50812536196E+03  0.50812536197E+03  0.25500000920E-02 0. -1.
    10030    2    1    2    0    0  0.00000000000E+00  0.00000000000E+00 -0.10954204083E+03  0.90670868311E+03  0.90006731821E+03 0.  0.
        2    1    3    3  502    0  0.16768471715E+03  0.17021958865E+03 -0.43894758217E+03  0.49976779871E+03  0.25500000920E-02 0. -1.
       -2    1    3    3    0  502 -0.16768471715E+03 -0.17021958865E+03  0.32940554134E+03  0.40694088440E+03  0.25500000920E-02 0.  1.
</event>
<event>
 5   0  0.4110039E-04  0.9001363E+03  0.7818609E-02  0.9425411E-01
        2   -1    0    0  501    0  0.00000000000E+00  0.00000000000E+00  0.87845734086E+03  0.87845734087E+03  0.25500000920E-02 0.  1.
       -2   -1    0    0    0  501  0.00000000000E+00  0.00000000000E+00 -0.23058758922E+03  0.23058758924E+03  0.25500000920E-02 0. -1.
    10030    2    1    2    0    0  0.00000000000E+00  0.00000000000E+00  0.64786975164E+03  0.11090449301E+04  0.90013634628E+03 0.  0.
        3    1    3    3  502    0 -0.27976650576E+03  0.35060140011E+03  0.27831923766E+03  0.52787521987E+03  0.10100000352E+00 0.  1.
       -3    1    3    3    0  502  0.27976650576E+03 -0.35060140011E+03  0.36955051398E+03  0.58116971023E+03  0.10100000352E+00 0. -1.
</event>
<event>
 5   0  0.3959804E-04  0.8991116E+03  0.7818609E-02  0.9426693E-01
        2   -1    0    0  501    0  0.00000000000E+00  0.00000000000E+00  0.10500519303E+04  0.10500519303E+04  0.25500000920E-02 0. -1.
       -2   -1    0    0    0  501  0.00000000000E+00  0.00000000000E+00 -0.19246706227E+03  0.19246706228E+03  0.25500000920E-02 0.  1.
    10030    2    1    2    0    0  0.00000000000E+00  0.00000000000E+00  0.85758486800E+03  0.12425189926E+04  0.89911158430E+03 0.  0.
        5    1    3    3  502    0 -0.43277619362E+03 -0.12962067280E+02  0.26172572721E+03  0.50595028930E+03  0.46999998093E+01 0.  1.
       -5    1    3    3    0  502  0.43277619362E+03  0.12962067280E+02  0.59585914079E+03  0.73656870325E+03  0.46999998093E+01 0. -1.
</event>
<event>
 5   0  0.2351435E-04  0.9008201E+03  0.7818609E-02  0.9424557E-01
       -1   -1    0    0    0  501  0.00000000000E+00  0.00000000000E+00  0.64526599284E+03  0.64526599286E+03  0.50400001928E-02 0. -1.
        1   -1    0    0  501    0  0.00000000000E+00  0.00000000000E+00 -0.31439627326E+03  0.31439627330E+03  0.50400001928E-02 0.  1.
    10030    2    1    2    0    0  0.00000000000E+00  0.00000000000E+00  0.33086971958E+03  0.95966226616E+03  0.90082012287E+03 0.  0.
        4    1    3    3  502    0 -0.44617340835E+03 -0.43737393870E+02  0.11919527322E+03  0.46388877546E+03  0.12699999809E+01 0.  1.
       -4    1    3    3    0  502  0.44617340835E+03  0.43737393870E+02  0.21167444636E+03  0.49577349070E+03  0.12699999809E+01 0. -1.
</event>
<event>
 5   0  0.2308362E-04  0.9001548E+03  0.7818609E-02  0.9425388E-01
        1   -1    0    0  501    0  0.00000000000E+00  0.00000000000E+00  0.27050810116E+03  0.27050810121E+03  0.50400001928E-02 0.  1.
       -1   -1    0    0    0  501  0.00000000000E+00  0.00000000000E+00 -0.74884887406E+03  0.74884887408E+03  0.50400001928E-02 0. -1.
    10030    2    1    2    0    0  0.00000000000E+00  0.00000000000E+00 -0.47834077290E+03  0.10193569753E+04  0.90015484670E+03 0.  0.
        1    1    3    3  502    0 -0.29441432537E+03 -0.28680235679E+03 -0.44685306317E+03  0.60713511423E+03  0.50400001928E-02 0. -1.
       -1    1    3    3    0  502  0.29441432537E+03  0.28680235679E+03 -0.31487709736E+02  0.41222186106E+03  0.50400001928E-02 0.  1.
</event>
<event>
 5   0  0.2450427E-04  0.9019664E+03  0.7818609E-02  0.9423127E-01
        1   -1    0    0  501    0  0.00000000000E+00  0.00000000000E+00  0.41387754554E+03  0.41387754557E+03  0.50400001928E-02 0.  1.
       -1   -1    0    0    0  501  0.00000000000E+00  0.00000000000E+00 -0.49141554056E+03  0.49141554059E+03  0.50400001928E-02 0. -1.
    10030    2    1    2    0    0  0.00000000000E+00  0.00000000000E+00 -0.77537995023E+02  0.90529308615E+03  0.90196642463E+03 0.  0.
        3    1    3    3  502    0  0.25128808287E+03 -0.21541685413E+03  0.26868698028E+03  0.42631306010E+03  0.10100000352E+00 0.  1.
       -3    1    3    3    0  502 -0.25128808287E+03  0.21541685413E+03 -0.34622497530E+03  0.47898002606E+03  0.10100000352E+00 0. -1.
</event>
<event>
 5   0  0.4110039E-04  0.9000537E+03  0.7818609E-02  0.9425514E-01
       -2   -1    0    0    0  501  0.00000000000E+00  0.00000000000E+00  0.79133597422E+02  0.79133597463E+02  0.25500000920E-02 0. -1.
        2   -1    0    0  501    0  0.00000000000E+00  0.00000000000E+00 -0.25592688169E+04  0.25592688169E+04  0.25500000920E-02 0.  1.
    10030    2    1    2    0    0  0.00000000000E+00  0.00000000000E+00 -0.24801352194E+04  0.26384024143E+04  0.90005366130E+03 0.  0.
        3    1    3    3  502    0  0.20926083295E+03  0.36569661509E+03 -0.77657493259E+03  0.88351159960E+03  0.10100000352E+00 0. -1.
       -3    1    3    3    0  502 -0.20926083295E+03 -0.36569661509E+03 -0.17035602868E+04  0.17548908147E+04  0.10100000352E+00 0.  1.
</event>
<event>
 5   0  0.4236284E-04  0.8998758E+03  0.7818609E-02  0.9425737E-01
        2   -1    0    0  501    0  0.00000000000E+00  0.00000000000E+00  0.79154447304E+03  0.79154447305E+03  0.25500000920E-02 0.  1.
       -2   -1    0    0    0  501  0.00000000000E+00  0.00000000000E+00 -0.25575834261E+03  0.25575834262E+03  0.25500000920E-02 0. -1.
    10030    2    1    2    0    0  0.00000000000E+00  0.00000000000E+00  0.53578613043E+03  0.10473028157E+04  0.89987577484E+03 0.  0.
        2    1    3    3  502    0  0.73224009036E+02  0.16352524037E+03  0.74823486526E+03  0.76938785624E+03  0.25500000920E-02 0.  1.
       -2    1    3    3    0  502 -0.73224009036E+02 -0.16352524037E+03 -0.21244873482E+03  0.27791495943E+03  0.25500000920E-02 0. -1.
</event>
<event>
 5   0  0.1596250E-04  0.9001906E+03  0.7818609E-02  0.9425343E-01
        4   -1    0    0  501    0  0.00000000000E+00  0.00000000000E+00  0.14045694361E+03  0.14046268511E+03  0.12699999809E+01 0. -1.
       -4   -1    0    0    0  501  0.00000000000E+00  0.00000000000E+00 -0.14422981364E+04  0.14422986955E+04  0.12699999809E+01 0.  1.
    10030    2    1    2    0    0  0.00000000000E+00  0.00000000000E+00 -0.13018411928E+04  0.15827613807E+04  0.90019058918E+03 0.  0.
        5    1    3    3  502    0 -0.36912742942E+03 -0.93427640209E+02 -0.22901388502E+03  0.44435710036E+03  0.46999998093E+01 0.  1.
       -5    1    3    3    0  502  0.36912742942E+03  0.93427640209E+02 -0.10728273078E+04  0.11384042803E+04  0.46999998093E+01 0. -1.
</event>
<event>
 5   0  0.2332791E-04  0.9001795E+03  0.7818609E-02  0.9425357E-01
       -1   -1    0    0    0  501  0.00000000000E+00  0.00000000000E+00  0.14242699668E+03  0.14242699677E+03  0.50400001928E-02 0. -1.
        1   -1    0    0  501    0  0.00000000000E+00  0.00000000000E+00 -0.14223482016E+04  0.14223482016E+04  0.50400001928E-02 0.  1.
    10030    2    1    2    0    0  0.00000000000E+00  0.00000000000E+00 -0.12799212049E+04  0.15647751984E+04  0.90017949913E+03 0.  0.
        2    1    3    3  502    0 -0.47999404016E+02 -0.34664084365E+03 -0.14793796864E+03  0.37993349397E+03  0.25500000920E-02 0. -1.
       -2    1    3    3    0  502  0.47999404016E+02  0.34664084365E+03 -0.11319832363E+04  0.11848417044E+04  0.25500000920E-02 0.  1.
</event>
<event>
 5   0  0.4243516E-04  0.8995097E+03  0.7818609E-02  0.9426195E-01
        2   -1    0    0  501    0  0.00000000000E+00  0.00000000000E+00  0.66768836097E+03  0.66768836098E+03  0.25500000920E-02 0.  1.
       -2   -1    0    0    0  501  0.00000000000E+00  0.00000000000E+00 -0.30295484804E+03  0.30295484805E+03  0.25500000920E-02 0. -1.
    10030    2    1    2    0    0  0.00000000000E+00  0.00000000000E+00  0.36473351293E+03  0.97064320902E+03  0.89950970187E+03 0.  0.
        1    1    3    3  502    0 -0.44526712686E+03 -0.62227235448E+02  0.16940059171E+03  0.48044937672E+03  0.50400001928E-02 0. -1.
       -1    1    3    3    0  502  0.44526712686E+03  0.62227235448E+02  0.19533292122E+03  0.49019383231E+03  0.50400001928E-02 0.  1.
</event>
<event>
 5   0  0.2450427E-04  0.9043612E+03  0.7818609E-02  0.9420146E-01
        1   -1    0    0  501    0  0.00000000000E+00  0.00000000000E+00  0.11821958883E+04  0.11821958883E+04  0.50400001928E-02 0.  1.
       -1   -1    0    0    0  501  0.00000000000E+00  0.00000000000E+00 -0.17295550448E+03  0.17295550455E+03  0.50400001928E-02 0. -1.
    10030    2    1    2    0    0  0.00000000000E+00  0.00000000000E+00  0.10092403839E+04  0.13551513929E+04  0.90436118075E+03 0.  0.
        3    1    3    3  502    0  0.18005587157E+03  0.39620918709E+03  0.68854351435E+03  0.81455142144E+03  0.10100000352E+00 0.  1.
       -3    1    3    3    0  502 -0.18005587157E+03 -0.39620918709E+03  0.32069686950E+03  0.54059997144E+03  0.10100000352E+00 0. -1.
</event>
<event>
 5   0  0.4243516E-04  0.9001730E+03  0.7818609E-02  0.9425365E-01
        2   -1    0    0  501    0  0.00000000000E+00  0.00000000000E+00  0.15347198359E+04  0.15347198359E+04  0.25500000920E-02 0.  1.
       -2   -1    0    0    0  501  0.00000000000E+00  0.00000000000E+00 -0.13199665073E+03  0.13199665076E+03  0.25500000920E-02 0. -1.
    10030    2    1    2    0    0  0.00000000000E+00  0.00000000000E+00  0.14027231851E+04  0.16667164866E+04  0.90017304597E+03 0.  0.
        1    1    3    3  502    0 -0.23174861134E+03 -0.19766505059E+03  0.13148903071E+04  0.13497093801E+04  0.50400001928E-02 0.  1.
       -1    1    3    3    0  502  0.23174861134E+03  0.19766505059E+03  0.87832878041E+02  0.31700710650E+03  0.50400001928E-02 0. -1.
</event>
<event>
 5   0  0.1596250E-04  0.9002507E+03  0.7818609E-02  0.9425268E-01
        4   -1    0    0  501    0  0.00000000000E+00  0.00000000000E+00  0.24953903315E+03  0.24954226489E+03  0.12699999809E+01 0.  1.
       -4   -1    0    0    0  501  0.00000000000E+00  0.00000000000E+00 -0.81193943700E+03  0.81194043024E+03  0.12699999809E+01 0. -1.
    10030    2    1    2    0    0  0.00000000000E+00  0.00000000000E+00 -0.56240040385E+03  0.10614826951E+04  0.90025068609E+03 0.  0.
        5    1    3    3  502    0 -0.26085870525E+03 -0.34602778324E+03 -0.13771694306E+03  0.45472028466E+03  0.46999998093E+01 0.  1.
       -5    1    3    3    0  502  0.26085870525E+03  0.34602778324E+03 -0.42468346079E+03  0.60676241046E+03  0.46999998093E+01 0. -1.
</event>
<event>
 5   0  0.2351435E-04  0.9001442E+03  0.7818609E-02  0.9425401E-01
       -1   -1    0    0    0  501  0.00000000000E+00  0.00000000000E+00  0.87102357645E+02  0.87102357791E+02  0.50400001928E-02 0. -1.
        1   -1    0    0  501    0  0.00000000000E+00  0.00000000000E+00 -0.23255959508E+04  0.23255959508E+04  0.50400001928E-02 0.  1.
    10030    2    1    2    0    0  0.00000000000E+00  0.00000000000E+00 -0.22384935932E+04  0.24126983086E+04  0.90014418940E+03 0.  0.
        4    1    3    3  502    0  0.32919623302E+03 -0.17434524959E+03 -0.17962497461E+04  0.18344702748E+04  0.12699999809E+01 0.  1.
       -4    1    3    3    0  502 -0.32919623302E+03  0.17434524959E+03 -0.44224384702E+03  0.57822803376E+03  0.12699999809E+01 0. -1.
</event>
<event>
 5   0  0.4033144E-04  0.8994877E+03  0.7818609E-02  0.9426222E-01
        2   -1    0    0  501    0  0.00000000000E+00  0.00000000000E+00  0.10467745101E+04  0.10467745101E+04  0.25500000920E-02 0.  1.
       -2   -1    0    0    0  501  0.00000000000E+00  0.00000000000E+00 -0.19323124343E+03  0.19323124344E+03  0.25500000920E-02 0. -1.
    10030    2    1    2    0    0  0.00000000000E+00  0.00000000000E+00  0.85354326664E+03  0.12400057535E+04  0.89948772127E+03 0.  0.
        4    1    3    3  502    0  0.35679669006E+03  0.13633363729E+03  0.75409738083E+03  0.84531367632E+03  0.12699999809E+01 0.  1.
       -4    1    3    3    0  502 -0.35679669006E+03 -0.13633363729E+03  0.99445885810E+02  0.39469207720E+03  0.12699999809E+01 0. -1.
</event>
<event>
 5   0  0.4236284E-04  0.8997288E+03  0.7818609E-02  0.9425921E-01
        2   -1    0    0  501    0  0.00000000000E+00  0.00000000000E+00  0.88945040253E+03  0.88945040253E+03  0.25500000920E-02 0. -1.
       -2   -1    0    0    0  501  0.00000000000E+00  0.00000000000E+00 -0.22753147160E+03  0.22753147162E+03  0.25500000920E-02 0.  1.
    10030    2    1    2    0    0  0.00000000000E+00  0.00000000000E+00  0.66191893093E+03  0.11169818741E+04  0.89972875694E+03 0.  0.
        2    1    3    3  502    0  0.19032644066E+03  0.33437360306E+02 -0.17338067723E+03  0.25962101286E+03  0.25500000920E-02 0.  1.
       -2    1    3    3    0  502 -0.19032644066E+03 -0.33437360306E+02  0.83529960815E+03  0.85736086129E+03  0.25500000920E-02 0. -1.
</event>
<event>
 5   0  0.2356918E-04  0.9000818E+03  0.7818609E-02  0.9425479E-01
        1   -1    0    0  501    0  0.00000000000E+00  0.00000000000E+00  0.16188719672E+04  0.16188719672E+04  0.50400001928E-02 0. -1.
       -1   -1    0    0    0  501  0.00000000000E+00  0.00000000000E+00 -0.12510983016E+03  0.12510983027E+03  0.50400001928E-02 0.  1.
    10030    2    1    2    0    0  0.00000000000E+00  0.00000000000E+00  0.14937621371E+04  0.17439817975E+04  0.90008176733E+03 0.  0.
        5    1    3    3  502    0  0.32875426441E+03  0.30566783449E+03  0.68553234289E+03  0.81944424737E+03  0.46999998093E+01 0.  1.
       -5    1    3    3    0  502 -0.32875426441E+03 -0.30566783449E+03  0.80822979417E+03  0.92453755012E+03  0.46999998093E+01 0. -1.
</event>
<event>
 5   0  0.3959804E-04  0.9000662E+03  0.7818609E-02  0.9425499E-01
       -2   -1    0    0    0  501  0.00000000000E+00  0.00000000000E+00  0.57900284903E+03  0.57900284903E+03  0.25500000920E-02 0.  1.
        2   -1    0    0  501    0  0.00000000000E+00  0.00000000000E+00 -0.34979070020E+03  0.34979070021E+03  0.25500000920E-02 0. -1.
    10030    2    1    2    0    0  0.00000000000E+00  0.00000000000E+00  0.22921214883E+03  0.92879354925E+03  0.90006624642E+03 0.  0.
        5    1    3    3  502    0  0.18742393962E+03  0.13865090708E+03 -0.28258932744E+03  0.36637497889E+03  0.46999998093E+01 0. -1.
       -5    1    3    3    0  502 -0.18742393962E+03 -0.13865090708E+03  0.51180147626E+03  0.56241857036E+03  0.46999998093E+01 0.  1.
</event>
<event>
 5   0  0.4236284E-04  0.9001404E+03  0.7818609E-02  0.9425406E-01
       -2   -1    0    0    0  501  0.00000000000E+00  0.00000000000E+00  0.33004664356E+03  0.33004664357E+03  0.25500000920E-02 0. -1.
        2   -1    0    0  501    0  0.00000000000E+00  0.00000000000E+00 -0.61374114545E+03  0.61374114545E+03  0.25500000920E-02 0.  1.
    10030    2    1    2    0    0  0.00000000000E+00  0.00000000000E+00 -0.28369450189E+03  0.94378778902E+03  0.90014044476E+03 0.  0.
        2    1    3    3  502    0  0.45130195315E+02 -0.21352194266E+02 -0.61082870202E+03  0.61286568998E+03  0.25500000920E-02 0.  1.
       -2    1    3    3    0  502 -0.45130195315E+02  0.21352194266E+02  0.32713420013E+03  0.33092209904E+03  0.25500000920E-02 0. -1.
</event>
<event>
 5   0  0.1596250E-04  0.8994100E+03  0.7818609E-02  0.9426319E-01
       -4   -1    0    0    0  501  0.00000000000E+00  0.00000000000E+00  0.20520367802E+03  0.20520760798E+03  0.12699999809E+01 0. -1.
        4   -1    0    0  501    0  0.00000000000E+00  0.00000000000E+00 -0.98551730461E+03  0.98551812291E+03  0.12699999809E+01 0.  1.
    10030    2    1    2    0    0  0.00000000000E+00  0.00000000000E+00 -0.78031362659E+03  0.11907257309E+04  0.89941003461E+03 0.  0.
        4    1    3    3  502    0  0.33892306509E+03 -0.27757597359E+03 -0.25569347847E+03  0.50724553521E+03  0.12699999809E+01 0. -1.
       -4    1    3    3    0  502 -0.33892306509E+03  0.27757597359E+03 -0.52462014812E+03  0.68348019568E+03  0.12699999809E+01 0.  1.
</event>
<event>
 5   0  0.2450427E-04  0.8990985E+03  0.7818609E-02  0.9426709E-01
       -1   -1    0    0    0  501  0.00000000000E+00  0.00000000000E+00  0.77952457695E+03  0.77952457697E+03  0.50400001928E-02 0. -1.
        1   -1    0    0  501    0  0.00000000000E+00  0.00000000000E+00 -0.25925359571E+03  0.25925359576E+03  0.50400001928E-02 0.  1.
    10030    2    1    2    0    0  0.00000000000E+00  0.00000000000E+00  0.52027098124E+03  0.10387781727E+04  0.89909854756E+03 0.  0.
        3    1    3    3  502    0  0.30125000370E+03  0.27408920310E+03  0.48001170516E+03  0.62951386266E+03  0.10100000352E+00 0. -1.
       -3    1    3    3    0  502 -0.30125000370E+03 -0.27408920310E+03  0.40259276077E+02  0.40926431007E+03  0.10100000352E+00 0.  1.
</event>
<event>
 5   0  0.4243516E-04  0.9028022E+03  0.7818609E-02  0.9422085E-01
       -2   -1    0    0    0  501  0.00000000000E+00  0.00000000000E+00  0.32884263996E+03  0.32884263997E+03  0.25500000920E-02 0.  1.
        2   -1    0    0  501    0  0.00000000000E+00  0.00000000000E+00 -0.61963664202E+03  0.61963664203E+03  0.25500000920E-02 0. -1.
    10030    2    1    2    0    0  0.00000000000E+00  0.00000000000E+00 -0.29079400206E+03  0.94847928200E+03  0.90280219137E+03 0.  0.
        1    1    3    3  502    0 -0.27480703326E+03  0.21901863592E+03  0.15226615274E+03  0.38297917660E+03  0.50400001928E-02 0.  1.
       -1    1    3    3    0  502  0.27480703326E+03 -0.21901863592E+03 -0.44306015480E+03  0.56550010540E+03  0.50400001928E-02 0. -1.
</event>
<event>
 5   0  0.2450427E-04  0.9004478E+03  0.7818609E-02  0.9425022E-01
       -1   -1    0    0    0  501  0.00000000000E+00  0.00000000000E+00  0.54125698658E+03  0.54125698660E+03  0.50400001928E-02 0.  1.
        1   -1    0    0  501    0  0.00000000000E+00  0.00000000000E+00 -0.37450150464E+03  0.37450150467E+03  0.50400001928E-02 0. -1.
    10030    2    1    2    0    0  0.00000000000E+00  0.00000000000E+00  0.16675548194E+03  0.91575849127E+03  0.90044779059E+03 0.  0.
        3    1    3    3  502    0  0.11813109658E+03  0.29844101114E+03 -0.23771128115E+03  0.39941038606E+03  0.10100000352E+00 0. -1.
       -3    1    3    3    0  502 -0.11813109658E+03 -0.29844101114E+03  0.40446676309E+03  0.51634810521E+03  0.10100000352E+00 0.  1.
</event>
<event>
 5   0  0.4236284E-04  0.8994686E+03  0.7818609E-02  0.9426246E-01
        2   -1    0    0  501    0  0.00000000000E+00  0.00000000000E+00  0.69750072889E+03  0.69750072889E+03  0.25500000920E-02 0. -1.
       -2   -1    0    0    0  501  0.00000000000E+00  0.00000000000E+00 -0.28997951634E+03  0.28997951636E+03  0.25500000920E-02 0.  1.
    10030    2    1    2    0    0  0.00000000000E+00  0.00000000000E+00  0.40752121254E+03  0.98748024525E+03  0.89946856314E+03 0.  0.
        2    1    3    3  502    0  0.37736373330E+03 -0.14738286756E+03  0.41815282183E+03  0.58221720970E+03  0.25500000920E-02 0.  1.
       -2    1    3    3    0  502 -0.37736373330E+03  0.14738286756E+03 -0.10631609294E+02  0.40526303555E+03  0.25500000920E-02 0. -1.
</event>
<event>
 5   0  0.4110039E-04  0.9000675E+03  0.7818609E-02  0.9425497E-01
        2   -1    0    0  501    0  0.00000000000E+00  0.00000000000E+00  0.17205365831E+04  0.17205365832E+04  0.25500000920E-02 0.  1.
       -2   -1    0    0    0  501  0.00000000000E+00  0.00000000000E+00 -0.11771349505E+03  0.11771349508E+03  0.25500000920E-02 0. -1.
    10030    2    1    2    0    0  0.00000000000E+00  0.00000000000E+00  0.16028230881E+04  0.18382500782E+04  0.90006749656E+03 0.  0.
        3    1    3    3  502    0 -0.42763702259E+03 -0.12630046843E+03  0.92572879965E+03  0.10275208281E+04  0.10100000352E+00 0.  1.
       -3    1    3    3    0  502  0.42763702259E+03  0.12630046843E+03  0.67709428845E+03  0.81072925016E+03  0.10100000352E+00 0. -1.
</event>
<event>
 5   0  0.4243516E-04  0.9001273E+03  0.7818609E-02  0.9425422E-01
       -2   -1    0    0    0  501  0.00000000000E+00  0.00000000000E+00  0.20867749126E+03  0.20867749128E+03  0.25500000920E-02 0.  1.
        2   -1    0    0  501    0  0.00000000000E+00  0.00000000000E+00 -0.97067150125E+03  0.97067150126E+03  0.25500000920E-02 0. -1.
    10030    2    1    2    0    0  0.00000000000E+00  0.00000000000E+00 -0.76199400999E+03  0.11793489925E+04  0.90012731040E+03 0.  0.
        1    1    3    3  502    0  0.63529203228E+02  0.54483461238E+02 -0.96038636720E+03  0.96402613115E+03  0.50400001928E-02 0. -1.
       -1    1    3    3    0  502 -0.63529203228E+02 -0.54483461238E+02  0.19839235721E+03  0.21532286138E+03  0.50400001928E-02 0.  1.
</event>
<event>
 5   0  0.3959804E-04  0.8995086E+03  0.7818609E-02  0.9426196E-01
       -2   -1    0    0    0  501  0.00000000000E+00  0.00000000000E+00  0.72755241069E+03  0.72755241069E+03  0.25500000920E-02 0. -1.
        2   -1    0    0  501    0  0.00000000000E+00  0.00000000000E+00 -0.27802660232E+03  0.27802660233E+03  0.25500000920E-02 0.  1.
    10030    2    1    2    0    0  0.00000000000E+00  0.00000000000E+00  0.44952580837E+03  0.10055790130E+04  0.89950858753E+03 0.  0.
        5    1    3    3  502    0 -0.69435015452E+02  0.17744876118E+03 -0.23064053929E+03  0.29920967995E+03  0.46999998093E+01 0.  1.
       -5    1    3    3    0  502  0.69435015452E+02 -0.17744876118E+03  0.68016634766E+03  0.70636933307E+03  0.46999998093E+01 0. -1.
</event>
<event>
 5   0  0.2351435E-04  0.8999572E+03  0.7818609E-02  0.9425635E-01
        1   -1    0    0  501    0  0.00000000000E+00  0.00000000000E+00  0.15128342974E+04  0.15128342974E+04  0.50400001928E-02 0.  1.
       -1   -1    0    0    0  501  0.00000000000E+00  0.00000000000E+00 -0.13384199242E+03  0.13384199252E+03  0.50400001928E-02 0. -1.
    10030    2    1    2    0    0  0.00000000000E+00  0.00000000000E+00  0.13789923050E+04  0.16466762899E+04  0.89995723600E+03 0.  0.
        4    1    3    3  502    0 -0.25628223422E+03 -0.26015700200E+03  0.20845916916E+03  0.42049861756E+03  0.12699999809E+01 0. -1.
       -4    1    3    3    0  502  0.25628223422E+03  0.26015700200E+03  0.11705331358E+04  0.12261776724E+04  0.12699999809E+01 0.  1.
</event>
<event>
 5   0  0.2356918E-04  0.8999614E+03  0.7818609E-02  0.9425630E-01
        1   -1    0    0  501    0  0.00000000000E+00  0.00000000000E+00  0.35724212569E+03  0.35724212572E+03  0.50400001928E-02 0.  1.
       -1   -1    0    0    0  501  0.00000000000E+00  0.00000000000E+00 -0.56679378429E+03  0.56679378431E+03  0.50400001928E-02 0. -1.
    10030    2    1    2    0    0  0.00000000000E+00  0.00000000000E+00 -0.20955165860E+03  0.92403591004E+03  0.89996136885E+03 0.  0.
        5    1    3    3  502    0  0.43718453880E+03 -0.10368895414E+03 -0.12947779759E+03  0.46761983517E+03  0.46999998093E+01 0.  1.
       -5    1    3    3    0  502 -0.43718453880E+03  0.10368895414E+03 -0.80073861008E+02  0.45641607486E+03  0.46999998093E+01 0. -1.
</event>
<event>
 5   0  0.1596250E-04  0.9006177E+03  0.7818609E-02  0.9424810E-01
       -3   -1    0    0    0  501  0.00000000000E+00  0.00000000000E+00  0.48399212896E+03  0.48399213950E+03  0.10100000352E+00 0. -1.
        3   -1    0    0  501    0  0.00000000000E+00  0.00000000000E+00 -0.41896976631E+03  0.41896977848E+03  0.10100000352E+00 0.  1.
    10030    2    1    2    0    0  0.00000000000E+00  0.00000000000E+00  0.65022362648E+02  0.90296191798E+03  0.90061774226E+03 0.  0.
        1    1    3    3  502    0  0.21067835582E+02  0.44008521356E+03 -0.60786013612E+02  0.44476262024E+03  0.50400001928E-02 0. -1.
       -1    1    3    3    0  502 -0.21067835582E+02 -0.44008521356E+03  0.12580837626E+03  0.45819929774E+03  0.50400001928E-02 0.  1.
</event>
<event>
 5   0  0.4033144E-04  0.8991352E+03  0.7818609E-02  0.9426663E-01
        2   -1    0    0  501    0  0.00000000000E+00  0.00000000000E+00  0.13338238813E+04  0.13338238813E+04  0.25500000920E-02 0.  1.
       -2   -1    0    0    0  501  0.00000000000E+00  0.00000000000E+00 -0.15152752842E+03  0.15152752844E+03  0.25500000920E-02 0. -1.
    10030    2    1    2    0    0  0.00000000000E+00  0.00000000000E+00  0.11822963528E+04  0.14853514097E+04  0.89913522028E+03 0.  0.
        4    1    3    3  502    0  0.28683707076E+03  0.27797851186E+03  0.93195990156E+03  0.10139518870E+04  0.12699999809E+01 0.  1.
       -4    1    3    3    0  502 -0.28683707076E+03 -0.27797851186E+03  0.25033645128E+03  0.47139952265E+03  0.12699999809E+01 0. -1.
</event>
<event>
 5   0  0.2351435E-04  0.9003846E+03  0.7818609E-02  0.9425101E-01
       -1   -1    0    0    0  501  0.00000000000E+00  0.00000000000E+00  0.16603728994E+03  0.16603729002E+03  0.50400001928E-02 0. -1.
        1   -1    0    0  501    0  0.00000000000E+00  0.00000000000E+00 -0.12206481803E+04  0.12206481803E+04  0.50400001928E-02 0.  1.
    10030    2    1    2    0    0  0.00000000000E+00  0.00000000000E+00 -0.10546108903E+04  0.13866854703E+04  0.90038461979E+03 0.  0.
        4    1    3    3  502    0 -0.34482587284E+03 -0.23019084173E+03 -0.79749945490E+03  0.89883240911E+03  0.12699999809E+01 0.  1.
       -4    1    3    3    0  502  0.34482587284E+03  0.23019084173E+03 -0.25711143544E+03  0.48785306121E+03  0.12699999809E+01 0. -1.
</event>
<event>
 5   0  0.1596250E-04  0.8999708E+03  0.7818609E-02  0.9425618E-01
       -3   -1    0    0    0  501  0.00000000000E+00  0.00000000000E+00  0.29989226675E+03  0.29989228376E+03  0.10100000352E+00 0.  1.
        3   -1    0    0  501    0  0.00000000000E+00  0.00000000000E+00 -0.67519867549E+03  0.67519868304E+03  0.10100000352E+00 0. -1.
    10030    2    1    2    0    0  0.00000000000E+00  0.00000000000E+00 -0.37530640874E+03  0.97509096681E+03  0.89997082903E+03 0.  0.
        1    1    3    3  502    0 -0.14063587180E+03 -0.18632615569E+03 -0.60445956318E+03  0.64797164156E+03  0.50400001928E-02 0. -1.
       -1    1    3    3    0  502  0.14063587180E+03  0.18632615569E+03  0.22915315444E+03  0.32711932524E+03  0.50400001928E-02 0.  1.
</event>
<event>
 5   0  0.2308362E-04  0.8995935E+03  0.7818609E-02  0.9426090E-01
       -1   -1    0    0    0  501  0.00000000000E+00  0.00000000000E+00  0.60485163943E+03  0.60485163945E+03  0.50400001928E-02 0.  1.
        1   -1    0    0  501    0  0.00000000000E+00  0.00000000000E+00 -0.33449044912E+03  0.33449044916E+03  0.50400001928E-02 0. -1.
    10030    2    1    2    0    0  0.00000000000E+00  0.00000000000E+00  0.27036119031E+03  0.93934208861E+03  0.89959345607E+03 0.  0.
        1    1    3    3  502    0  0.17863343454E+03 -0.34327731331E+03  0.37458807812E+03  0.53857724243E+03  0.50400001928E-02 0.  1.
       -1    1    3    3    0  502 -0.17863343454E+03  0.34327731331E+03 -0.10422688780E+03  0.40076484618E+03  0.50400001928E-02 0. -1.
</event>
<event>
 5   0  0.4243516E-04  0.9001226E+03  0.7818609E-02  0.9425428E-01
       -2   -1    0    0    0  501  0.00000000000E+00  0.00000000000E+00  0.61799242832E+03  0.61799242833E+03  0.25500000920E-02 0. -1.
        2   -1    0    0  501    0  0.00000000000E+00  0.00000000000E+00 -0.32776321458E+03  0.32776321459E+03  0.25500000920E-02 0.  1.
    10030    2    1    2    0    0  0.00000000000E+00  0.00000000000E+00  0.29022921375E+03  0.94575564292E+03  0.90012262475E+03 0.  0.
        1    1    3    3  502    0 -0.91248121824E+02  0.13295673464E+02 -0.31773141753E+03  0.33084172709E+03  0.50400001928E-02 0.  1.
       -1    1    3    3    0  502  0.91248121824E+02 -0.13295673464E+02  0.60796063128E+03  0.61491391583E+03  0.50400001928E-02 0. -1.
</event>
<event>
 5   0  0.2356918E-04  0.8994993E+03  0.7818609E-02  0.9426208E-01
       -1   -1    0    0    0  501  0.00000000000E+00  0.00000000000E+00  0.25100747273E+03  0.25100747278E+03  0.50400001928E-02 0.  1.
        1   -1    0    0  501    0  0.00000000000E+00  0.00000000000E+00 -0.80585149574E+03  0.80585149575E+03  0.50400001928E-02 0. -1.
    10030    2    1    2    0    0  0.00000000000E+00  0.00000000000E+00 -0.55484402301E+03  0.10568589685E+04  0.89949929933E+03 0.  0.
        5    1    3    3  502    0  0.43366496244E+03 -0.92632773676E+02 -0.36539779949E+03  0.57461619563E+03  0.46999998093E+01 0.  1.
       -5    1    3    3    0  502 -0.43366496244E+03  0.92632773676E+02 -0.18944622352E+03  0.48224277290E+03  0.46999998093E+01 0. -1.
</event>
<event>
 5   0  0.4033144E-04  0.9002410E+03  0.7818609E-02  0.9425280E-01
       -2   -1    0    0    0  501  0.00000000000E+00  0.00000000000E+00  0.15272437407E+03  0.15272437409E+03  0.25500000920E-02 0.  1.
        2   -1    0    0  501    0  0.00000000000E+00  0.00000000000E+00 -0.13266281278E+04  0.13266281278E+04  0.25500000920E-02 0. -1.
    10030    2    1    2    0    0  0.00000000000E+00  0.00000000000E+00 -0.11739037537E+04  0.14793525019E+04  0.90024096874E+03 0.  0.
        4    1    3    3  502    0  0.10105948822E+03 -0.25876245447E+03 -0.11689527897E+04  0.12015087455E+04  0.12699999809E+01 0. -1.
       -4    1    3    3    0  502 -0.10105948822E+03  0.25876245447E+03 -0.49509639701E+01  0.27784375635E+03  0.12699999809E+01 0.  1.
</event>
<event>
 5   0  0.4243516E-04  0.8988183E+03  0.7818609E-02  0.9427060E-01
        2   -1    0    0  501    0  0.00000000000E+00  0.00000000000E+00  0.17677705361E+04  0.17677705361E+04  0.25500000920E-02 0.  1.
       -2   -1    0    0    0  501  0.00000000000E+00  0.00000000000E+00 -0.11425044048E+03  0.11425044051E+03  0.25500000920E-02 0. -1.
    10030    2    1    2    0    0  0.00000000000E+00  0.00000000000E+00  0.16535200957E+04  0.18820209767E+04  0.89881825181E+03 0.  0.
        1    1    3    3  502    0 -0.42776844491E+03 -0.11135967686E+03  0.99663252306E+03  0.10902583208E+04  0.50400001928E-02 0. -1.
       -1    1    3    3    0  502  0.42776844491E+03  0.11135967686E+03  0.65688757260E+03  0.79176265582E+03  0.50400001928E-02 0.  1.
</event>
<event>
 5   0  0.4110039E-04  0.9001108E+03  0.7818609E-02  0.9425443E-01
        2   -1    0    0  501    0  0.00000000000E+00  0.00000000000E+00  0.10227035249E+04  0.10227035249E+04  0.25500000920E-02 0.  1.
       -2   -1    0    0    0  501  0.00000000000E+00  0.00000000000E+00 -0.19805334126E+03  0.19805334127E+03  0.25500000920E-02 0. -1.
    10030    2    1    2    0    0  0.00000000000E+00  0.00000000000E+00  0.82465018360E+03  0.12207568661E+04  0.90011077146E+03 0.  0.
        3    1    3    3  502    0  0.34532713077E+03  0.18443939437E+03  0.11125091133E+03  0.40699569152E+03  0.10100000352E+00 0. -1.
       -3    1    3    3    0  502 -0.34532713077E+03 -0.18443939437E+03  0.71339927227E+03  0.81376117462E+03  0.10100000352E+00 0.  1.
</event>
<event>
 5   0  0.4236284E-04  0.9001698E+03  0.7818609E-02  0.9425369E-01
       -2   -1    0    0    0  501  0.00000000000E+00  0.00000000000E+00  0.16336137524E+03  0.16336137526E+03  0.25500000920E-02 0.  1.
        2   -1    0    0  501    0  0.00000000000E+00  0.00000000000E+00 -0.12400508728E+04  0.12400508728E+04  0.25500000920E-02 0. -1.
    10030    2    1    2    0    0  0.00000000000E+00  0.00000000000E+00 -0.10766894976E+04  0.14034122481E+04  0.90016979724E+03 0.  0.
        2    1    3    3  502    0  0.13291941066E+02  0.22637754852E+03 -0.11444794288E+04  0.11667290316E+04  0.25500000920E-02 0. -1.
       -2    1    3    3    0  502 -0.13291941066E+02 -0.22637754852E+03  0.67789931260E+02  0.23668321647E+03  0.25500000920E-02 0.  1.
</event>
<event>
 5   0  0.4243516E-04  0.8999051E+03  0.7818609E-02  0.9425700E-01
        2   -1    0    0  501    0  0.00000000000E+00  0.00000000000E+00  0.95505640631E+03  0.95505640631E+03  0.25500000920E-02 0.  1.
       -2   -1    0    0    0  501  0.00000000000E+00  0.00000000000E+00 -0.21198463181E+03  0.21198463183E+03  0.25500000920E-02 0. -1.
    10030    2    1    2    0    0  0.00000000000E+00  0.00000000000E+00  0.74307177450E+03  0.11670410381E+04  0.89990506313E+03 0.  0.
        1    1    3    3  502    0  0.11359476535E+03  0.76100185378E+02  0.92746268377E+03  0.93748708724E+03  0.50400001928E-02 0.  1.
       -1    1    3    3    0  502 -0.11359476535E+03 -0.76100185378E+02 -0.18439090927E+03  0.22955395090E+03  0.50400001928E-02 0. -1.
</event>
<event>
 5   0  0.3959804E-04  0.8995651E+03  0.7818609E-02  0.9426125E-01
        2   -1    0    0  501    0  0.00000000000E+00  0.00000000000E+00  0.84974172496E+03  0.84974172496E+03  0.25500000920E-02 0.  1.
       -2   -1    0    0    0  501  0.00000000000E+00  0.00000000000E+00 -0.23807747271E+03  0.23807747273E+03  0.25500000920E-02 0. -1.
    10030    2    1    2    0    0  0.00000000000E+00  0.00000000000E+00  0.61166425224E+03  0.10878191977E+04  0.89956514461E+03 0.  0.
        5    1    3    3  502    0 -0.77296410633E+02 -0.42419895465E+03  0.46051872826E+03  0.63088753142E+03  0.46999998093E+01 0.  1.
       -5    1    3    3    0  502  0.77296410633E+02  0.42419895465E+03  0.15114552398E+03  0.45693166627E+03  0.46999998093E+01 0. -1.
</event>
<event>
 5   0  0.4236284E-04  0.9003530E+03  0.7818609E-02  0.9425140E-01
        2   -1    0    0  501    0  0.00000000000E+00  0.00000000000E+00  0.11819547791E+04  0.11819547791E+04  0.25500000920E-02 0.  1.
       -2   -1    0    0    0  501  0.00000000000E+00  0.00000000000E+00 -0.17146078774E+03  0.17146078775E+03  0.25500000920E-02 0. -1.
    10030    2    1    2    0    0  0.00000000000E+00  0.00000000000E+00  0.10104939913E+04  0.13534155668E+04  0.90035303632E+03 0.  0.
        2    1    3    3  502    0 -0.11410102835E+03 -0.23346879227E+03 -0.47336257334E+02  0.26413527386E+03  0.25500000920E-02 0. -1.
       -2    1    3    3    0  502  0.11410102835E+03  0.23346879227E+03  0.10578302487E+04  0.10892802930E+04  0.25500000920E-02 0.  1.
</event>
<event>
 5   0  0.2450427E-04  0.9000188E+03  0.7818609E-02  0.9425558E-01
        1   -1    0    0  501    0  0.00000000000E+00  0.00000000000E+00  0.59651302303E+03  0.59651302305E+03  0.50400001928E-02 0.  1.
       -1   -1    0    0    0  501  0.00000000000E+00  0.00000000000E+00 -0.33948704620E+03  0.33948704624E+03  0.50400001928E-02 0. -1.
    10030    2    1    2    0    0  0.00000000000E+00  0.00000000000E+00  0.25702597683E+03  0.93600006929E+03  0.90001876478E+03 0.  0.
        3    1    3    3  502    0 -0.12316708773E+03  0.22584539565E+03 -0.25548015890E+03  0.36255536961E+03  0.10100000352E+00 0. -1.
       -3    1    3    3    0  502  0.12316708773E+03 -0.22584539565E+03  0.51250613573E+03  0.57344469969E+03  0.10100000352E+00 0.  1.
</event>
<event>
 5   0  0.2308362E-04  0.8994471E+03  0.7818609E-02  0.9426273E-01
        1   -1    0    0  501    0  0.00000000000E+00  0.00000000000E+00  0.27138205689E+03  0.27138205693E+03  0.50400001928E-02 0.  1.
       -1   -1    0    0    0  501  0.00000000000E+00  0.00000000000E+00 -0.74526396865E+03  0.74526396867E+03  0.50400001928E-02 0. -1.
    10030    2    1    2    0    0  0.00000000000E+00  0.00000000000E+00 -0.47388191176E+03  0.10166460256E+04  0.89944709409E+03 0.  0.
        1    1    3    3  502    0  0.21176006588E+02  0.43559189797E+03 -0.11280042512E+03  0.45045827860E+03  0.50400001928E-02 0.  1.
       -1    1    3    3    0  502 -0.21176006588E+02 -0.43559189797E+03 -0.36108148665E+03  0.56618774700E+03  0.50400001928E-02 0. -1.
</event>
<event>
 5   0  0.4033144E-04  0.9000268E+03  0.7818609E-02  0.9425548E-01
       -2   -1    0    0    0  501  0.00000000000E+00  0.00000000000E+00  0.53902220918E+03  0.53902220919E+03  0.25500000920E-02 0. -1.
        2   -1    0    0  501    0  0.00000000000E+00  0.00000000000E+00 -0.37570266435E+03  0.37570266436E+03  0.25500000920E-02 0.  1.
    10030    2    1    2    0    0  0.00000000000E+00  0.00000000000E+00  0.16331954483E+03  0.91472487354E+03  0.90002684435E+03 0.  0.
        4    1    3    3  502    0  0.30053014377E+03  0.24787017718E+03 -0.14730234859E+03  0.41648239681E+03  0.12699999809E+01 0.  1.
       -4    1    3    3    0  502 -0.30053014377E+03 -0.24787017718E+03  0.31062189342E+03  0.49824247674E+03  0.12699999809E+01 0. -1.
</event>
<event>
 5   0  0.3959804E-04  0.8999036E+03  0.7818609E-02  0.9425702E-01
       -2   -1    0    0    0  501  0.00000000000E+00  0.00000000000E+00  0.98560096018E+03  0.98560096018E+03  0.25500000920E-02 0.  1.
        2   -1    0    0  501    0  0.00000000000E+00  0.00000000000E+00 -0.20541438098E+03  0.20541438099E+03  0.25500000920E-02 0. -1.
    10030    2    1    2    0    0  0.00000000000E+00  0.00000000000E+00  0.78018657920E+03  0.11910153412E+04  0.89990357514E+03 0.  0.
        5    1    3    3  502    0 -0.19557121403E+02  0.19503817007E+03  0.92608662833E+03  0.94661549847E+03  0.46999998093E+01 0.  1.
       -5    1    3    3    0  502  0.19557121403E+02 -0.19503817007E+03 -0.14590004912E+03  0.24439984270E+03  0.46999998093E+01 0. -1.
</event>
<event>
 5   0  0.3959804E-04  0.8998745E+03  0.7818609E-02  0.9425738E-01
       -2   -1    0    0    0  501  0.00000000000E+00  0.00000000000E+00  0.85787971064E+02  0.85787971102E+02  0.25500000920E-02 0.  1.
        2   -1    0    0  501    0  0.00000000000E+00  0.00000000000E+00 -0.23598126426E+04  0.23598126426E+04  0.25500000920E-02 0. -1.
    10030    2    1    2    0    0  0.00000000000E+00  0.00000000000E+00 -0.22740246715E+04  0.24456006137E+04  0.89987452181E+03 0.  0.
        5    1    3    3  502    0 -0.33770237760E+03  0.20556950098E+03 -0.17206549203E+04  0.17654962929E+04  0.46999998093E+01 0. -1.
       -5    1    3    3    0  502  0.33770237760E+03 -0.20556950098E+03 -0.55336975125E+03  0.68010432080E+03  0.46999998093E+01 0.  1.
</event>
<event>
 5   0  0.2351435E-04  0.9004156E+03  0.7818609E-02  0.9425062E-01
       -1   -1    0    0    0  501  0.00000000000E+00  0.00000000000E+00  0.69844394291E+03  0.69844394293E+03  0.50400001928E-02 0.  1.
        1   -1    0    0  501    0  0.00000000000E+00  0.00000000000E+00 -0.29019805517E+03  0.29019805522E+03  0.50400001928E-02 0. -1.
    10030    2    1    2    0    0  0.00000000000E+00  0.00000000000E+00  0.40824588773E+03  0.98864199814E+03  0.90041562383E+03 0.  0.
        4    1    3    3  502    0 -0.10863521434E+03  0.99804402690E+02 -0.26290497408E+03  0.30146835138E+03  0.12699999809E+01 0. -1.
       -4    1    3    3    0  502  0.10863521434E+03 -0.99804402690E+02  0.67115086181E+03  0.68717364676E+03  0.12699999809E+01 0.  1.
</event>
<event>
 5   0  0.2356918E-04  0.9001395E+03  0.7818609E-02  0.9425407E-01
       -1   -1    0    0    0  501  0.00000000000E+00  0.00000000000E+00  0.34222079675E+03  0.34222079679E+03  0.50400001928E-02 0.  1.
        1   -1    0    0  501    0  0.00000000000E+00  0.00000000000E+00 -0.59190674455E+03  0.59190674457E+03  0.50400001928E-02 0. -1.
    10030    2    1    2    0    0  0.00000000000E+00  0.00000000000E+00 -0.24968594780E+03  0.93412754136E+03  0.90013953974E+03 0.  0.
        5    1    3    3  502    0  0.36258997150E+03  0.25963214477E+03 -0.18762839552E+03  0.48384588748E+03  0.46999998093E+01 0.  1.
       -5    1    3    3    0  502 -0.36258997150E+03 -0.25963214477E+03 -0.62057552277E+02  0.45028165388E+03  0.46999998093E+01 0. -1.
</event>
<event>
 5   0  0.4243516E-04  0.9008010E+03  0.7818609E-02  0.9424581E-01
       -2   -1    0    0    0  501  0.00000000000E+00  0.00000000000E+00  0.20807140924E+03  0.20807140926E+03  0.25500000920E-02 0.  1.
        2   -1    0    0  501    0  0.00000000000E+00  0.00000000000E+00 -0.97495658105E+03  0.97495658106E+03  0.25500000920E-02 0. -1.
    10030    2    1    2    0    0  0.00000000000E+00  0.00000000000E+00 -0.76688517181E+03  0.11830279903E+04  0.90080095423E+03 0.  0.
        1    1    3    3  502    0  0.17275179957E+03 -0.41259171646E+03 -0.31412933260E+03  0.54658242413E+03  0.50400001928E-02 0. -1.
       -1    1    3    3    0  502 -0.17275179957E+03  0.41259171646E+03 -0.45275583921E+03  0.63644556619E+03  0.50400001928E-02 0.  1.
</event>
<event>
 5   0  0.4033144E-04  0.8995107E+03  0.7818609E-02  0.9426193E-01
        2   -1    0    0  501    0  0.00000000000E+00  0.00000000000E+00  0.86356394978E+03  0.86356394978E+03  0.25500000920E-02 0. -1.
       -2   -1    0    0    0  501  0.00000000000E+00  0.00000000000E+00 -0.23423841988E+03  0.23423841989E+03  0.25500000920E-02 0.  1.
    10030    2    1    2    0    0  0.00000000000E+00  0.00000000000E+00  0.62932552990E+03  0.10978023697E+04  0.89951065601E+03 0.  0.
        4    1    3    3  502    0 -0.62790870224E+02  0.28344539606E+03  0.73388883787E+03  0.78922647268E+03  0.12699999809E+01 0. -1.
       -4    1    3    3    0  502  0.62790870224E+02 -0.28344539606E+03 -0.10456330797E+03  0.30857589699E+03  0.12699999809E+01 0.  1.
</event>
<event>
 5   0  0.4236284E-04  0.9002749E+03  0.7818609E-02  0.9425238E-01
        2   -1    0    0  501    0  0.00000000000E+00  0.00000000000E+00  0.59413110168E+03  0.59413110169E+03  0.25500000920E-02 0.  1.
       -2   -1    0    0    0  501  0.00000000000E+00  0.00000000000E+00 -0.34104208299E+03  0.34104208300E+03  0.25500000920E-02 0. -1.
    10030    2    1    2    0    0  0.00000000000E+00  0.00000000000E+00  0.25308901869E+03  0.93517318469E+03  0.90027486580E+03 0.  0.
        2    1    3    3  502    0  0.40697299485E+03  0.94325883674E+02 -0.47581964931E+02  0.42046216745E+03  0.25500000920E-02 0.  1.
       -2    1    3    3    0  502 -0.40697299485E+03 -0.94325883674E+02  0.30067098362E+03  0.51471101724E+03  0.25500000920E-02 0. -1.
</event>
<event>
 5   0  0.4236284E-04  0.8995587E+03  0.7818609E-02  0.9426133E-01
        2   -1    0    0  501    0  0.00000000000E+00  0.00000000000E+00  0.68183804027E+03  0.68183804027E+03  0.25500000920E-02 0. -1.
       -2   -1    0    0    0  501  0.00000000000E+00  0.00000000000E+00 -0.29670017036E+03  0.29670017037E+03  0.25500000920E-02 0.  1.
    10030    2    1    2    0    0  0.00000000000E+00  0.00000000000E+00  0.38513786991E+03  0.97853821064E+03  0.89955869783E+03 0.  0.
        2    1    3    3  502    0  0.27386278266E+03  0.10276195126E+03 -0.17910258203E+03  0.34298480615E+03  0.25500000920E-02 0.  1.
       -2    1    3    3    0  502 -0.27386278266E+03 -0.10276195126E+03  0.56424045194E+03  0.63555340449E+03  0.25500000920E-02 0. -1.
</event>
<event>
 5   0  0.1596250E-04  0.9007257E+03  0.7818609E-02  0.9424675E-01
        4   -1    0    0  501    0  0.00000000000E+00  0.00000000000E+00  0.87587593878E+03  0.87587685952E+03  0.12699999809E+01 0. -1.
       -4   -1    0    0    0  501  0.00000000000E+00  0.00000000000E+00 -0.23156733854E+03  0.23157082108E+03  0.12699999809E+01 0.  1.
    10030    2    1    2    0    0  0.00000000000E+00  0.00000000000E+00  0.64430860024E+03  0.11074476806E+04  0.90072570348E+03 0.  0.
        3    1    3    3  502    0 -0.38535628777E+03 -0.15241814968E+03  0.53896585143E+03  0.67986392763E+03  0.10100000352E+00 0. -1.
       -3    1    3    3    0  502  0.38535628777E+03  0.15241814968E+03  0.10534274881E+03  0.42758375297E+03  0.10100000352E+00 0.  1.
</event>
<event>
 5   0  0.2308362E-04  0.8991026E+03  0.7818609E-02  0.9426704E-01
       -1   -1    0    0    0  501  0.00000000000E+00  0.00000000000E+00  0.88279656514E+03  0.88279656516E+03  0.50400001928E-02 0. -1.
        1   -1    0    0  501    0  0.00000000000E+00  0.00000000000E+00 -0.22892743844E+03  0.22892743849E+03  0.50400001928E-02 0.  1.
    10030    2    1    2    0    0  0.00000000000E+00  0.00000000000E+00  0.65386912671E+03  0.11117240036E+04  0.89910256669E+03 0.  0.
        1    1    3    3  502    0  0.26509979262E+03  0.20312292046E+03 -0.45161296957E+02  0.33701092509E+03  0.50400001928E-02 0.  1.
       -1    1    3    3    0  502 -0.26509979262E+03 -0.20312292046E+03  0.69903042366E+03  0.77471307856E+03  0.50400001928E-02 0. -1.
</event>
<event>
 5   0  0.3959804E-04  0.8994184E+03  0.7818609E-02  0.9426309E-01
        2   -1    0    0  501    0  0.00000000000E+00  0.00000000000E+00  0.58185272610E+03  0.58185272610E+03  0.25500000920E-02 0.  1.
       -2   -1    0    0    0  501  0.00000000000E+00  0.00000000000E+00 -0.34757657759E+03  0.34757657759E+03  0.25500000920E-02 0. -1.
    10030    2    1    2    0    0  0.00000000000E+00  0.00000000000E+00  0.23427614851E+03  0.92942930370E+03  0.89941843255E+03 0.  0.
        5    1    3    3  502    0  0.29896361513E+01 -0.29402039754E+03 -0.23444878159E+03  0.37609208085E+03  0.46999998093E+01 0. -1.
       -5    1    3    3    0  502 -0.29896361513E+01  0.29402039754E+03  0.46872493010E+03  0.55333722285E+03  0.46999998093E+01 0.  1.
</event>
<event>
 5   0  0.4243516E-04  0.8997676E+03  0.7818609E-02  0.9425872E-01
        2   -1    0    0  501    0  0.00000000000E+00  0.00000000000E+00  0.49887209917E+03  0.49887209918E+03  0.25500000920E-02 0.  1.
       -2   -1    0    0    0  501  0.00000000000E+00  0.00000000000E+00 -0.40570606811E+03  0.40570606811E+03  0.25500000920E-02 0. -1.
    10030    2    1    2    0    0  0.00000000000E+00  0.00000000000E+00  0.93166031065E+02  0.90457816729E+03  0.89976760966E+03 0.  0.
        1    1    3    3  502    0 -0.14907256637E+03 -0.12302930076E+03 -0.36183592926E+03  0.41022442470E+03  0.50400001928E-02 0. -1.
       -1    1    3    3    0  502  0.14907256637E+03  0.12302930076E+03  0.45500196033E+03  0.49435374259E+03  0.50400001928E-02 0.  1.
</event>
<event>
 5   0  0.2351435E-04  0.9002988E+03  0.7818609E-02  0.9425208E-01
        1   -1    0    0  501    0  0.00000000000E+00  0.00000000000E+00  0.40185136966E+03  0.40185136969E+03  0.50400001928E-02 0.  1.
       -1   -1    0    0    0  501  0.00000000000E+00  0.00000000000E+00 -0.50425228792E+03  0.50425228794E+03  0.50400001928E-02 0. -1.
    10030    2    1    2    0    0  0.00000000000E+00  0.00000000000E+00 -0.10240091826E+03  0.90610365763E+03  0.90029877836E+03 0.  0.
        4    1    3    3  502    0  0.15631863103E+03 -0.79734517894E+02  0.36600793833E+03  0.40590212067E+03  0.12699999809E+01 0.  1.
       -4    1    3    3    0  502 -0.15631863103E+03  0.79734517894E+02 -0.46840885659E+03  0.50020153696E+03  0.12699999809E+01 0. -1.
</event>
<event>
 5   0  0.2450427E-04  0.8997105E+03  0.7818609E-02  0.9425943E-01
        1   -1    0    0  501    0  0.00000000000E+00  0.00000000000E+00  0.43052797038E+03  0.43052797041E+03  0.50400001928E-02 0.  1.
       -1   -1    0    0    0  501  0.00000000000E+00  0.00000000000E+00 -0.47005015010E+03  0.47005015013E+03  0.50400001928E-02 0. -1.
    10030    2    1    2    0    0  0.00000000000E+00  0.00000000000E+00 -0.39522179723E+02  0.90057812054E+03  0.89971048038E+03 0.  0.
        3    1    3    3  502    0 -0.13759289723E+03 -0.21629265264E+03  0.35026472771E+03  0.43405035035E+03  0.10100000352E+00 0.  1.
       -3    1    3    3    0  502  0.13759289723E+03  0.21629265264E+03 -0.38978690743E+03  0.46652777020E+03  0.10100000352E+00 0. -1.
</event>
<event>
 5   0  0.3959804E-04  0.9002334E+03  0.7818609E-02  0.9425290E-01
       -2   -1    0    0    0  501  0.00000000000E+00  0.00000000000E+00  0.31588303996E+03  0.31588303997E+03  0.25500000920E-02 0. -1.
        2   -1    0    0  501    0  0.00000000000E+00  0.00000000000E+00 -0.64139261932E+03  0.64139261932E+03  0.25500000920E-02 0.  1.
    10030    2    1    2    0    0  0.00000000000E+00  0.00000000000E+00 -0.32550957936E+03  0.95727565930E+03  0.90023341508E+03 0.  0.
        5    1    3    3  502    0 -0.72927069322E+02 -0.22262589287E+03 -0.57142740573E+03  0.61760182612E+03  0.46999998093E+01 0.  1.
       -5    1    3    3    0  502  0.72927069322E+02  0.22262589287E+03  0.24591782637E+03  0.33967383317E+03  0.46999998093E+01 0. -1.
</event>
<event>
 5   0  0.1596250E-04  0.9002034E+03  0.7818609E-02  0.9425327E-01
        4   -1    0    0  501    0  0.00000000000E+00  0.00000000000E+00  0.61177043753E+03  0.61177175575E+03  0.12699999809E+01 0.  1.
       -4   -1    0    0    0  501  0.00000000000E+00  0.00000000000E+00 -0.33115328400E+03  0.33115571927E+03  0.12699999809E+01 0. -1.
    10030    2    1    2    0    0  0.00000000000E+00  0.00000000000E+00  0.28061715353E+03  0.94292747502E+03  0.90020344161E+03 0.  0.
        2    1    3    3  502    0  0.22910498460E+03  0.38582998747E+03  0.17715903026E+03  0.48243050817E+03  0.25500000920E-02 0.  1.
       -2    1    3    3    0  502 -0.22910498460E+03 -0.38582998747E+03  0.10345812328E+03  0.46049696685E+03  0.25500000920E-02 0. -1.
</event>
<event>
 5   0  0.4236284E-04  0.9009823E+03  0.7818609E-02  0.9424354E-01
       -2   -1    0    0    0  501  0.00000000000E+00  0.00000000000E+00  0.30191334723E+03  0.30191334724E+03  0.25500000920E-02 0. -1.
        2   -1    0    0  501    0  0.00000000000E+00  0.00000000000E+00 -0.67218720843E+03  0.67218720843E+03  0.25500000920E-02 0.  1.
    10030    2    1    2    0    0  0.00000000000E+00  0.00000000000E+00 -0.37027386120E+03  0.97410055568E+03  0.90098233073E+03 0.  0.
        2    1    3    3  502    0  0.43144402160E+03 -0.37960010865E+02 -0.51155029151E+02  0.43612124829E+03  0.25500000920E-02 0.  1.
       -2    1    3    3    0  502 -0.43144402160E+03  0.37960010865E+02 -0.31911883205E+03  0.53797930738E+03  0.25500000920E-02 0. -1.
</event>
<event>
 5   0  0.4033144E-04  0.8998617E+03  0.7818609E-02  0.9425754E-01
        2   -1    0    0  501    0  0.00000000000E+00  0.00000000000E+00  0.42140720968E+03  0.42140720969E+03  0.25500000920E-02 0.  1.
       -2   -1    0    0    0  501  0.00000000000E+00  0.00000000000E+00 -0.48038514417E+03  0.48038514417E+03  0.25500000920E-02 0. -1.
    10030    2    1    2    0    0  0.00000000000E+00  0.00000000000E+00 -0.58977934488E+02  0.90179235386E+03  0.89986168533E+03 0.  0.
        4    1    3    3  502    0 -0.22947395513E+03 -0.34117639038E+03 -0.21257336932E+03  0.46287004190E+03  0.12699999809E+01 0. -1.
       -4    1    3    3    0  502  0.22947395513E+03  0.34117639038E+03  0.15359543484E+03  0.43892231197E+03  0.12699999809E+01 0.  1.
</event>
<event>
 5   0  0.2308362E-04  0.8997695E+03  0.7818609E-02  0.9425870E-01
       -1   -1    0    0    0  501  0.00000000000E+00  0.00000000000E+00  0.10766686126E+04  0.10766686126E+04  0.50400001928E-02 0.  1.
        1   -1    0    0  501    0  0.00000000000E+00  0.00000000000E+00 -0.18798383404E+03  0.18798383411E+03  0.50400001928E-02 0. -1.
    10030    2    1    2    0    0  0.00000000000E+00  0.00000000000E+00  0.88868477860E+03  0.12646524468E+04  0.89976951236E+03 0.  0.
        1    1    3    3  502    0 -0.22196435141E+03  0.38540179155E+03  0.34908130119E+03  0.56538523955E+03  0.50400001928E-02 0. -1.
       -1    1    3    3    0  502  0.22196435141E+03 -0.38540179155E+03  0.53960347740E+03  0.69926720721E+03  0.50400001928E-02 0.  1.
</event>
<event>
 5   0  0.2308362E-04  0.9006411E+03  0.7818609E-02  0.9424780E-01
        1   -1    0    0  501    0  0.00000000000E+00  0.00000000000E+00  0.58483415885E+03  0.58483415887E+03  0.50400001928E-02 0. -1.
       -1   -1    0    0    0  501  0.00000000000E+00  0.00000000000E+00 -0.34674549626E+03  0.34674549629E+03  0.50400001928E-02 0.  1.
    10030    2    1    2    0    0  0.00000000000E+00  0.00000000000E+00  0.23808866260E+03  0.93157965517E+03  0.90064112868E+03 0.  0.
        1    1    3    3  502    0 -0.23080099814E+03  0.38136194155E+03  0.18513429931E+03  0.48268078480E+03  0.50400001928E-02 0. -1.
       -1    1    3    3    0  502  0.23080099814E+03 -0.38136194155E+03  0.52954363286E+02  0.44889887037E+03  0.50400001928E-02 0.  1.
</event>
<event>
 5   0  0.2450427E-04  0.8997878E+03  0.7818609E-02  0.9425847E-01
        1   -1    0    0  501    0  0.00000000000E+00  0.00000000000E+00  0.35304914185E+03  0.35304914189E+03  0.50400001928E-02 0. -1.
       -1   -1    0    0    0  501  0.00000000000E+00  0.00000000000E+00 -0.57330407498E+03  0.57330407500E+03  0.50400001928E-02 0.  1.
    10030    2    1    2    0    0  0.00000000000E+00  0.00000000000E+00 -0.22025493313E+03  0.92635321689E+03  0.89978777880E+03 0.  0.
        3    1    3    3  502    0 -0.29955372382E+03  0.24900077124E+03  0.12161995306E+03  0.40807504300E+03  0.10100000352E+00 0. -1.
       -3    1    3    3    0  502  0.29955372382E+03 -0.24900077124E+03 -0.34187488619E+03  0.51827817390E+03  0.10100000352E+00 0.  1.
</event>
<event>
 5   0  0.4243516E-04  0.9001394E+03  0.7818609E-02  0.9425407E-01
        2   -1    0    0  501    0  0.00000000000E+00  0.00000000000E+00  0.57099848109E+03  0.57099848109E+03  0.25500000920E-02 0. -1.
       -2   -1    0    0    0  501  0.00000000000E+00  0.00000000000E+00 -0.35475179421E+03  0.35475179422E+03  0.25500000920E-02 0.  1.
    10030    2    1    2    0    0  0.00000000000E+00  0.00000000000E+00  0.21624668688E+03  0.92575027531E+03  0.90013940179E+03 0.  0.
        1    1    3    3  502    0 -0.36217564424E+03  0.14435337951E+03 -0.12311523663E+03  0.40885994787E+03  0.50400001928E-02 0.  1.
       -1    1    3    3    0  502  0.36217564424E+03 -0.14435337951E+03  0.33936192351E+03  0.51689032744E+03  0.50400001928E-02 0. -1.
</event>
<event>
 5   0  0.1596250E-04  0.9006109E+03  0.7818609E-02  0.9424818E-01
        3   -1    0    0  501    0  0.00000000000E+00  0.00000000000E+00  0.12038916585E+04  0.12038916627E+04  0.10100000352E+00 0. -1.
       -3   -1    0    0    0  501  0.00000000000E+00  0.00000000000E+00 -0.16843290170E+03  0.16843293199E+03  0.10100000352E+00 0.  1.
    10030    2    1    2    0    0  0.00000000000E+00  0.00000000000E+00  0.10354587568E+04  0.13723245947E+04  0.90061087948E+03 0.  0.
        2    1    3    3  502    0 -0.25318060848E+03 -0.25315724258E+03  0.93387780342E+03  0.10001583683E+04  0.25500000920E-02 0. -1.
       -2    1    3    3    0  502  0.25318060848E+03  0.25315724258E+03  0.10158095337E+03  0.37216622640E+03  0.25500000920E-02 0.  1.
</event>
<event>
 5   0  0.4033144E-04  0.8987106E+03  0.7818609E-02  0.9427195E-01
       -2   -1    0    0    0  501  0.00000000000E+00  0.00000000000E+00  0.51515744876E+03  0.51515744877E+03  0.25500000920E-02 0. -1.
        2   -1    0    0  501    0  0.00000000000E+00  0.00000000000E+00 -0.39195819915E+03  0.39195819915E+03  0.25500000920E-02 0.  1.
    10030    2    1    2    0    0  0.00000000000E+00  0.00000000000E+00  0.12319924961E+03  0.90711564792E+03  0.89871060058E+03 0.  0.
        4    1    3    3  502    0  0.99560926598E+02 -0.25445855432E+03  0.42166694071E+03  0.50246010365E+03  0.12699999809E+01 0. -1.
       -4    1    3    3    0  502 -0.99560926598E+02  0.25445855432E+03 -0.29846769110E+03  0.40465554426E+03  0.12699999809E+01 0.  1.
</event>
<event>
 5   0  0.2351435E-04  0.8989584E+03  0.7818609E-02  0.9426884E-01
       -1   -1    0    0    0  501  0.00000000000E+00  0.00000000000E+00  0.28734124296E+03  0.28734124300E+03  0.50400001928E-02 0. -1.
        1   -1    0    0  501    0  0.00000000000E+00  0.00000000000E+00 -0.70310676039E+03  0.70310676041E+03  0.50400001928E-02 0.  1.
    10030    2    1    2    0    0  0.00000000000E+00  0.00000000000E+00 -0.41576551744E+03  0.99044800341E+03  0.89895844285E+03 0.  0.
        4    1    3    3  502    0  0.16579365108E+03  0.35900040308E+03  0.27549196378E+02  0.39639550360E+03  0.12699999809E+01 0.  1.
       -4    1    3    3    0  502 -0.16579365108E+03 -0.35900040308E+03 -0.44331471382E+03  0.59405249981E+03  0.12699999809E+01 0. -1.
</event>
<event>
 5   0  0.2356918E-04  0.8996147E+03  0.7818609E-02  0.9426063E-01
        1   -1    0    0  501    0  0.00000000000E+00  0.00000000000E+00  0.40661342714E+03  0.40661342717E+03  0.50400001928E-02 0.  1.
       -1   -1    0    0    0  501  0.00000000000E+00  0.00000000000E+00 -0.49758965067E+03  0.49758965069E+03  0.50400001928E-02 0. -1.
    10030    2    1    2    0    0  0.00000000000E+00  0.00000000000E+00 -0.90976223523E+02  0.90420307786E+03  0.89961465794E+03 0.  0.
        5    1    3    3  502    0  0.59556552954E+02  0.43214687775E+03  0.64645564117E+02  0.44102045974E+03  0.46999998093E+01 0.  1.
       -5    1    3    3    0  502 -0.59556552954E+02 -0.43214687775E+03 -0.15562178764E+03  0.46318261813E+03  0.46999998093E+01 0. -1.
</event>
<event>
 5   0  0.4243516E-04  0.9004341E+03  0.7818609E-02  0.9425039E-01
       -2   -1    0    0    0  501  0.00000000000E+00  0.00000000000E+00  0.16317541061E+03  0.16317541063E+03  0.25500000920E-02 0.  1.
        2   -1    0    0  501    0  0.00000000000E+00  0.00000000000E+00 -0.12421932669E+04  0.12421932669E+04  0.25500000920E-02 0. -1.
    10030    2    1    2    0    0  0.00000000000E+00  0.00000000000E+00 -0.10790178563E+04  0.14053686776E+04  0.90043410955E+03 0.  0.
        1    1    3    3  502    0 -0.19874946037E+03  0.37729420554E+03 -0.31417851701E+03  0.52967953152E+03  0.50400001928E-02 0. -1.
       -1    1    3    3    0  502  0.19874946037E+03 -0.37729420554E+03 -0.76483933931E+03  0.87568914605E+03  0.50400001928E-02 0.  1.
</event>
<event>
 5   0  0.2450427E-04  0.8998396E+03  0.7818609E-02  0.9425782E-01
       -1   -1    0    0    0  501  0.00000000000E+00  0.00000000000E+00  0.17615971859E+03  0.17615971867E+03  0.50400001928E-02 0.  1.
        1   -1    0    0  501    0  0.00000000000E+00  0.00000000000E+00 -0.11491153536E+04  0.11491153536E+04  0.50400001928E-02 0. -1.
    10030    2    1    2    0    0  0.00000000000E+00  0.00000000000E+00 -0.97295563502E+03  0.13252750723E+04  0.89983962433E+03 0.  0.
        3    1    3    3  502    0 -0.93723731230E+02  0.39990318729E+03 -0.75693092556E+03  0.86119169368E+03  0.10100000352E+00 0. -1.
       -3    1    3    3    0  502  0.93723731230E+02 -0.39990318729E+03 -0.21602470947E+03  0.46408337861E+03  0.10100000352E+00 0.  1.
</event>
<event>
 5   0  0.4236284E-04  0.8999853E+03  0.7818609E-02  0.9425600E-01
       -2   -1    0    0    0  501  0.00000000000E+00  0.00000000000E+00  0.21638052776E+03  0.21638052778E+03  0.25500000920E-02 0. -1.
        2   -1    0    0  501    0  0.00000000000E+00  0.00000000000E+00 -0.93582066650E+03  0.93582066650E+03  0.25500000920E-02 0.  1.
    10030    2    1    2    0    0  0.00000000000E+00  0.00000000000E+00 -0.71944013874E+03  0.11522011943E+04  0.89998526592E+03 0.  0.
        2    1    3    3  502    0  0.96385759525E+02 -0.27870031941E+03 -0.79487004966E+03  0.84781040246E+03  0.25500000920E-02 0.  1.
       -2    1    3    3    0  502 -0.96385759525E+02  0.27870031941E+03  0.75429910920E+02  0.30439079182E+03  0.25500000920E-02 0. -1.
</event>
<event>
 5   0  0.4236284E-04  0.8985893E+03  0.7818609E-02  0.9427347E-01
        2   -1    0    0  501    0  0.00000000000E+00  0.00000000000E+00  0.88787811920E+03  0.88787811920E+03  0.25500000920E-02 0. -1.
       -2   -1    0    0    0  501  0.00000000000E+00  0.00000000000E+00 -0.22735743491E+03  0.22735743493E+03  0.25500000920E-02 0.  1.
    10030    2    1    2    0    0  0.00000000000E+00  0.00000000000E+00  0.66052068428E+03  0.11152355541E+04  0.89858932045E+03 0.  0.
        2    1    3    3  502    0  0.39046462321E+03  0.76169426073E+02  0.71108073972E+02  0.40412963470E+03  0.25500000920E-02 0.  1.
       -2    1    3    3    0  502 -0.39046462321E+03 -0.76169426073E+02  0.58941261031E+03  0.71110591943E+03  0.25500000920E-02 0. -1.
</event>
<event>
 5   0  0.4033144E-04  0.9001332E+03  0.7818609E-02  0.9425415E-01
       -2   -1    0    0    0  501  0.00000000000E+00  0.00000000000E+00  0.31021036638E+03  0.31021036640E+03  0.25500000920E-02 0. -1.
        2   -1    0    0  501    0  0.00000000000E+00  0.00000000000E+00 -0.65297606149E+03  0.65297606149E+03  0.25500000920E-02 0.  1.
    10030    2    1    2    0    0  0.00000000000E+00  0.00000000000E+00 -0.34276569510E+03  0.96318642789E+03  0.90013319744E+03 0.  0.
        4    1    3    3  502    0  0.30025488119E+03  0.22358209278E+03 -0.43871603680E+03  0.57672811595E+03  0.12699999809E+01 0.  1.
       -4    1    3    3    0  502 -0.30025488119E+03 -0.22358209278E+03  0.95950341692E+02  0.38645831193E+03  0.12699999809E+01 0. -1.
</event>
<event>
 5   0  0.3959804E-04  0.8982131E+03  0.7818609E-02  0.9427818E-01
        2   -1    0    0  501    0  0.00000000000E+00  0.00000000000E+00  0.67884495867E+03  0.67884495867E+03  0.25500000920E-02 0.  1.
       -2   -1    0    0    0  501  0.00000000000E+00  0.00000000000E+00 -0.29711749649E+03  0.29711749650E+03  0.25500000920E-02 0. -1.
    10030    2    1    2    0    0  0.00000000000E+00  0.00000000000E+00  0.38172746218E+03  0.97596245517E+03  0.89821314760E+03 0.  0.
        5    1    3    3  502    0 -0.18243574992E+03  0.22225950521E+03 -0.18394833198E+03  0.34138126683E+03  0.46999998093E+01 0. -1.
       -5    1    3    3    0  502  0.18243574992E+03 -0.22225950521E+03  0.56567579416E+03  0.63458118834E+03  0.46999998093E+01 0.  1.
</event>
<event>
 5   0  0.4243516E-04  0.9005149E+03  0.7818609E-02  0.9424938E-01
       -2   -1    0    0    0  501  0.00000000000E+00  0.00000000000E+00  0.19701608074E+03  0.19701608076E+03  0.25500000920E-02 0.  1.
        2   -1    0    0  501    0  0.00000000000E+00  0.00000000000E+00 -0.10290112080E+04  0.10290112080E+04  0.25500000920E-02 0. -1.
    10030    2    1    2    0    0  0.00000000000E+00  0.00000000000E+00 -0.83199512726E+03  0.12260272888E+04  0.90051486441E+03 0.  0.
        1    1    3    3  502    0 -0.23490809820E+03 -0.21205210303E+03 -0.85206006327E+03  0.90893028360E+03  0.50400001928E-02 0. -1.
       -1    1    3    3    0  502  0.23490809820E+03  0.21205210303E+03  0.20064936015E+02  0.31709700516E+03  0.50400001928E-02 0.  1.
</event>
<event>
 5   0  0.3959804E-04  0.8991294E+03  0.7818609E-02  0.9426670E-01
        2   -1    0    0  501    0  0.00000000000E+00  0.00000000000E+00  0.18301800265E+04  0.18301800265E+04  0.25500000920E-02 0.  1.
       -2   -1    0    0    0  501  0.00000000000E+00  0.00000000000E+00 -0.11043090073E+03  0.11043090076E+03  0.25500000920E-02 0. -1.
    10030    2    1    2    0    0  0.00000000000E+00  0.00000000000E+00  0.17197491258E+04  0.19406109272E+04  0.89912942083E+03 0.  0.
        5    1    3    3  502    0 -0.15498964741E+03  0.33844965875E+03  0.14038247383E+04  0.14523484252E+04  0.46999998093E+01 0.  1.
       -5    1    3    3    0  502  0.15498964741E+03 -0.33844965875E+03  0.31592438742E+03  0.48826250202E+03  0.46999998093E+01 0. -1.
</event>
<event>
 5   0  0.2351435E-04  0.8997633E+03  0.7818609E-02  0.9425877E-01
       -1   -1    0    0    0  501  0.00000000000E+00  0.00000000000E+00  0.18162207807E+03  0.18162207814E+03  0.50400001928E-02 0.  1.
        1   -1    0    0  501    0  0.00000000000E+00  0.00000000000E+00 -0.11143662227E+04  0.11143662227E+04  0.50400001928E-02 0. -1.
    10030    2    1    2    0    0  0.00000000000E+00  0.00000000000E+00 -0.93274414463E+03  0.12959883009E+04  0.89976332256E+03 0.  0.
        4    1    3    3  502    0 -0.38769394754E+03  0.19671570931E+03 -0.29971092724E+03  0.52804537689E+03  0.12699999809E+01 0. -1.
       -4    1    3    3    0  502  0.38769394754E+03 -0.19671570931E+03 -0.63303321739E+03  0.76794292396E+03  0.12699999809E+01 0.  1.
</event>
<event>
 5   0  0.2356918E-04  0.9003091E+03  0.7818609E-02  0.9425195E-01
       -1   -1    0    0    0  501  0.00000000000E+00  0.00000000000E+00  0.10106394288E+03  0.10106394300E+03  0.50400001928E-02 0.  1.
        1   -1    0    0  501    0  0.00000000000E+00  0.00000000000E+00 -0.20050584992E+04  0.20050584992E+04  0.50400001928E-02 0. -1.
    10030    2    1    2    0    0  0.00000000000E+00  0.00000000000E+00 -0.19039945563E+04  0.21061224422E+04  0.90030909752E+03 0.  0.
        5    1    3    3  502    0  0.37982084608E+03 -0.24129059573E+03 -0.92512028419E+03  0.10287636545E+04  0.46999998093E+01 0.  1.
       -5    1    3    3    0  502 -0.37982084608E+03  0.24129059573E+03 -0.97887427211E+03  0.10773587876E+04  0.46999998093E+01 0. -1.
</event>
<event>
 5   0  0.4033144E-04  0.8994139E+03  0.7818609E-02  0.9426314E-01
        2   -1    0    0  501    0  0.00000000000E+00  0.00000000000E+00  0.11368160567E+04  0.11368160567E+04  0.25500000920E-02 0. -1.
       -2   -1    0    0    0  501  0.00000000000E+00  0.00000000000E+00 -0.17789715299E+03  0.17789715301E+03  0.25500000920E-02 0.  1.
    10030    2    1    2    0    0  0.00000000000E+00  0.00000000000E+00  0.95891890374E+03  0.13147132097E+04  0.89941389800E+03 0.  0.
        4    1    3    3  502    0 -0.24873597627E+02  0.43517883803E+03  0.64114853505E+03  0.77528857455E+03  0.12699999809E+01 0. -1.
       -4    1    3    3    0  502  0.24873597627E+02 -0.43517883803E+03  0.31777036869E+03  0.53942463519E+03  0.12699999809E+01 0.  1.
</event>
<event>
 5   0  0.4236284E-04  0.8999295E+03  0.7818609E-02  0.9425670E-01
       -2   -1    0    0    0  501  0.00000000000E+00  0.00000000000E+00  0.95605790544E+03  0.95605790544E+03  0.25500000920E-02 0. -1.
        2   -1    0    0  501    0  0.00000000000E+00  0.00000000000E+00 -0.21177407972E+03  0.21177407974E+03  0.25500000920E-02 0.  1.
    10030    2    1    2    0    0  0.00000000000E+00  0.00000000000E+00  0.74428382572E+03  0.11678319852E+04  0.89992951523E+03 0.  0.
        2    1    3    3  502    0  0.12737498027E+03 -0.31587891555E+03  0.75372626471E+03  0.82710770581E+03  0.25500000920E-02 0. -1.
       -2    1    3    3    0  502 -0.12737498027E+03  0.31587891555E+03 -0.94424389965E+01  0.34072427936E+03  0.25500000920E-02 0.  1.
</event>
<event>
 5   0  0.2356918E-04  0.9021407E+03  0.7818609E-02  0.9422909E-01
       -1   -1    0    0    0  501  0.00000000000E+00  0.00000000000E+00  0.15289708968E+03  0.15289708976E+03  0.50400001928E-02 0.  1.
        1   -1    0    0  501    0  0.00000000000E+00  0.00000000000E+00 -0.13307282675E+04  0.13307282675E+04  0.50400001928E-02 0. -1.
    10030    2    1    2    0    0  0.00000000000E+00  0.00000000000E+00 -0.11778311778E+04  0.14836253572E+04  0.90214074139E+03 0.  0.
        5    1    3    3  502    0  0.22114663426E+03  0.17635347824E+03 -0.11124443733E+02  0.28311168534E+03  0.46999998093E+01 0.  1.
       -5    1    3    3    0  502 -0.22114663426E+03 -0.17635347824E+03 -0.11667067341E+04  0.12005136719E+04  0.46999998093E+01 0. -1.
</event>
<event>
 5   0  0.2332791E-04  0.9001010E+03  0.7818609E-02  0.9425455E-01
        1   -1    0    0  501    0  0.00000000000E+00  0.00000000000E+00  0.69186141835E+03  0.69186141836E+03  0.50400001928E-02 0.  1.
       -1   -1    0    0    0  501  0.00000000000E+00  0.00000000000E+00 -0.29275439282E+03  0.29275439287E+03  0.50400001928E-02 0. -1.
    10030    2    1    2    0    0  0.00000000000E+00  0.00000000000E+00  0.39910702552E+03  0.98461581123E+03  0.90010103761E+03 0.  0.
        2    1    3    3  502    0  0.24584773203E+03  0.24915514046E+03 -0.10989707363E+03  0.36687430840E+03  0.25500000920E-02 0. -1.
       -2    1    3    3    0  502 -0.24584773203E+03 -0.24915514046E+03  0.50900409915E+03  0.61774150283E+03  0.25500000920E-02 0.  1.
</event>
<event>
 5   0  0.3959804E-04  0.8998022E+03  0.7818609E-02  0.9425829E-01
        2   -1    0    0  501    0  0.00000000000E+00  0.00000000000E+00  0.60307684723E+03  0.60307684723E+03  0.25500000920E-02 0.  1.
       -2   -1    0    0    0  501  0.00000000000E+00  0.00000000000E+00 -0.33563056381E+03  0.33563056382E+03  0.25500000920E-02 0. -1.
    10030    2    1    2    0    0  0.00000000000E+00  0.00000000000E+00  0.26744628342E+03  0.93870741106E+03  0.89980224997E+03 0.  0.
        5    1    3    3  502    0 -0.24944068387E+03  0.26529689673E+03  0.40931526994E+03  0.54787241068E+03  0.46999998093E+01 0.  1.
       -5    1    3    3    0  502  0.24944068387E+03 -0.26529689673E+03 -0.14186898652E+03  0.39083500038E+03  0.46999998093E+01 0. -1.
</event>
<event>
 5   0  0.2332791E-04  0.9005781E+03  0.7818609E-02  0.9424859E-01
        1   -1    0    0  501    0  0.00000000000E+00  0.00000000000E+00  0.22210168286E+03  0.22210168292E+03  0.50400001928E-02 0.  1.
       -1   -1    0    0    0  501  0.00000000000E+00  0.00000000000E+00 -0.91291623530E+03  0.91291623531E+03  0.50400001928E-02 0. -1.
    10030    2    1    2    0    0  0.00000000000E+00  0.00000000000E+00 -0.69081455244E+03  0.11350179182E+04  0.90057810813E+03 0.  0.
        2    1    3    3  502    0  0.42955757545E+03  0.81102738428E+02 -0.48151538547E+03  0.65034946856E+03  0.25500000920E-02 0. -1.
       -2    1    3    3    0  502 -0.42955757545E+03 -0.81102738428E+02 -0.20929916697E+03  0.48466844967E+03  0.25500000920E-02 0.  1.
</event>
<event>
 5   0  0.2450427E-04  0.9000904E+03  0.7818609E-02  0.9425468E-01
       -1   -1    0    0    0  501  0.00000000000E+00  0.00000000000E+00  0.40479725268E+03  0.40479725271E+03  0.50400001928E-02 0.  1.
        1   -1    0    0  501    0  0.00000000000E+00  0.00000000000E+00 -0.50035091817E+03  0.50035091819E+03  0.50400001928E-02 0. -1.
    10030    2    1    2    0    0  0.00000000000E+00  0.00000000000E+00 -0.95553665490E+02  0.90514817090E+03  0.90009038896E+03 0.  0.
        3    1    3    3  502    0  0.12839311674E+03 -0.18162543274E+03  0.34566077101E+03  0.41104010639E+03  0.10100000352E+00 0.  1.
       -3    1    3    3    0  502 -0.12839311674E+03  0.18162543274E+03 -0.44121443650E+03  0.49410806451E+03  0.10100000352E+00 0. -1.
</event>
<event>
 5   0  0.2308362E-04  0.8996059E+03  0.7818609E-02  0.9426074E-01
       -1   -1    0    0    0  501  0.00000000000E+00  0.00000000000E+00  0.10429368379E+03  0.10429368391E+03  0.50400001928E-02 0. -1.
        1   -1    0    0  501    0  0.00000000000E+00  0.00000000000E+00 -0.19399323728E+04  0.19399323728E+04  0.50400001928E-02 0.  1.
    10030    2    1    2    0    0  0.00000000000E+00  0.00000000000E+00 -0.18356386890E+04  0.20442260567E+04  0.89960589949E+03 0.  0.
        1    1    3    3  502    0 -0.21524400254E+03  0.13260755436E+03 -0.72429274673E+02  0.26298430364E+03  0.50400001928E-02 0. -1.
       -1    1    3    3    0  502  0.21524400254E+03 -0.13260755436E+03 -0.17632094143E+04  0.17812417531E+04  0.50400001928E-02 0.  1.
</event>
<event>
 5   0  0.4243516E-04  0.9001297E+03  0.7818609E-02  0.9425419E-01
        2   -1    0    0  501    0  0.00000000000E+00  0.00000000000E+00  0.57267646573E+03  0.57267646574E+03  0.25500000920E-02 0.  1.
       -2   -1    0    0    0  501  0.00000000000E+00  0.00000000000E+00 -0.35370469095E+03  0.35370469096E+03  0.25500000920E-02 0. -1.
    10030    2    1    2    0    0  0.00000000000E+00  0.00000000000E+00  0.21897177478E+03  0.92638115670E+03  0.90012966252E+03 0.  0.
        1    1    3    3  502    0 -0.67059059834E+02  0.37583250809E+03  0.35478853440E+03  0.52117357551E+03  0.50400001928E-02 0.  1.
       -1    1    3    3    0  502  0.67059059834E+02 -0.37583250809E+03 -0.13581675962E+03  0.40520758120E+03  0.50400001928E-02 0. -1.
</event>
<event>
 5   0  0.1596250E-04  0.9005448E+03  0.7818609E-02  0.9424901E-01
        3   -1    0    0  501    0  0.00000000000E+00  0.00000000000E+00  0.67388531071E+03  0.67388531827E+03  0.10100000352E+00 0.  1.
       -3   -1    0    0    0  501  0.00000000000E+00  0.00000000000E+00 -0.30086014731E+03  0.30086016426E+03  0.10100000352E+00 0. -1.
    10030    2    1    2    0    0  0.00000000000E+00  0.00000000000E+00  0.37302516340E+03  0.97474548254E+03  0.90054482576E+03 0.  0.
        4    1    3    3  502    0 -0.43705816575E+03  0.10812847720E+03  0.18038723163E+03  0.48502863221E+03  0.12699999809E+01 0. -1.
       -4    1    3    3    0  502  0.43705816575E+03 -0.10812847720E+03  0.19263793177E+03  0.48971685032E+03  0.12699999809E+01 0.  1.
</event>
<event>
 5   0  0.4110039E-04  0.9009256E+03  0.7818609E-02  0.9424425E-01
        2   -1    0    0  501    0  0.00000000000E+00  0.00000000000E+00  0.17838182436E+04  0.17838182437E+04  0.25500000920E-02 0.  1.
       -2   -1    0    0    0  501  0.00000000000E+00  0.00000000000E+00 -0.11375415627E+03  0.11375415630E+03  0.25500000920E-02 0. -1.
    10030    2    1    2    0    0  0.00000000000E+00  0.00000000000E+00  0.16700640874E+04  0.18975723999E+04  0.90092561130E+03 0.  0.
        3    1    3    3  502    0  0.30496524758E+03 -0.72697351123E+01  0.15331509071E+04  0.15632045181E+04  0.10100000352E+00 0.  1.
       -3    1    3    3    0  502 -0.30496524758E+03  0.72697351123E+01  0.13691318030E+03  0.33436788186E+03  0.10100000352E+00 0. -1.
</event>
<event>
 5   0  0.3959804E-04  0.8991430E+03  0.7818609E-02  0.9426653E-01
        2   -1    0    0  501    0  0.00000000000E+00  0.00000000000E+00  0.73797340424E+03  0.73797340425E+03  0.25500000920E-02 0.  1.
       -2   -1    0    0    0  501  0.00000000000E+00  0.00000000000E+00 -0.27387782563E+03  0.27387782565E+03  0.25500000920E-02 0. -1.
    10030    2    1    2    0    0  0.00000000000E+00  0.00000000000E+00  0.46409557861E+03  0.10118512299E+04  0.89914303943E+03 0.  0.
        5    1    3    3  502    0  0.75982358977E+01 -0.29790065560E+03 -0.14672914685E+03  0.33219582527E+03  0.46999998093E+01 0. -1.
       -5    1    3    3    0  502 -0.75982358977E+01  0.29790065560E+03  0.61082472546E+03  0.67965540462E+03  0.46999998093E+01 0.  1.
</event>
<event>
 5   0  0.4033144E-04  0.9004371E+03  0.7818609E-02  0.9425035E-01
       -2   -1    0    0    0  501  0.00000000000E+00  0.00000000000E+00  0.81878624976E+03  0.81878624976E+03  0.25500000920E-02 0.  1.
        2   -1    0    0  501    0  0.00000000000E+00  0.00000000000E+00 -0.24755758853E+03  0.24755758855E+03  0.25500000920E-02 0. -1.
    10030    2    1    2    0    0  0.00000000000E+00  0.00000000000E+00  0.57122866123E+03  0.10663438383E+04  0.90043711501E+03 0.  0.
        4    1    3    3  502    0 -0.18268415709E+03  0.26896043568E+03  0.65441293044E+03  0.73073327120E+03  0.12699999809E+01 0.  1.
       -4    1    3    3    0  502  0.18268415709E+03 -0.26896043568E+03 -0.83184269211E+02  0.33561056711E+03  0.12699999809E+01 0. -1.
</event>
<event>
 5   0  0.4243516E-04  0.9000323E+03  0.7818609E-02  0.9425541E-01
       -2   -1    0    0    0  501  0.00000000000E+00  0.00000000000E+00  0.22249484511E+03  0.22249484512E+03  0.25500000920E-02 0. -1.
        2   -1    0    0  501    0  0.00000000000E+00  0.00000000000E+00 -0.91019874073E+03  0.91019874074E+03  0.25500000920E-02 0.  1.
    10030    2    1    2    0    0  0.00000000000E+00  0.00000000000E+00 -0.68770389562E+03  0.11326935859E+04  0.90003228353E+03 0.  0.
        1    1    3    3  502    0 -0.33433394675E+03  0.28276212516E+03 -0.47452386844E+03  0.64568297880E+03  0.50400001928E-02 0.  1.
       -1    1    3    3    0  502  0.33433394675E+03 -0.28276212516E+03 -0.21318002719E+03  0.48701060706E+03  0.50400001928E-02 0. -1.
</event>
<event>
 5   0  0.2332791E-04  0.8996282E+03  0.7818609E-02  0.9426046E-01
        1   -1    0    0  501    0  0.00000000000E+00  0.00000000000E+00  0.37198940269E+03  0.37198940272E+03  0.50400001928E-02 0. -1.
       -1   -1    0    0    0  501  0.00000000000E+00  0.00000000000E+00 -0.54392070045E+03  0.54392070048E+03  0.50400001928E-02 0.  1.
    10030    2    1    2    0    0  0.00000000000E+00  0.00000000000E+00 -0.17193129776E+03  0.91591010320E+03  0.89962822654E+03 0.  0.
        2    1    3    3  502    0  0.37457809816E+03 -0.10351709737E+03  0.14464701179E+03  0.41466528562E+03  0.25500000920E-02 0. -1.
       -2    1    3    3    0  502 -0.37457809816E+03  0.10351709737E+03 -0.31657830955E+03  0.50124481758E+03  0.25500000920E-02 0.  1.
</event>
<event>
 5   0  0.2450427E-04  0.8996099E+03  0.7818609E-02  0.9426069E-01
        1   -1    0    0  501    0  0.00000000000E+00  0.00000000000E+00  0.31027310703E+03  0.31027310707E+03  0.50400001928E-02 0.  1.
       -1   -1    0    0    0  501  0.00000000000E+00  0.00000000000E+00 -0.65208512680E+03  0.65208512682E+03  0.50400001928E-02 0. -1.
    10030    2    1    2    0    0  0.00000000000E+00  0.00000000000E+00 -0.34181201977E+03  0.96235823389E+03  0.89960986737E+03 0.  0.
        3    1    3    3  502    0 -0.40981684255E+03 -0.13345589541E+03 -0.33227199948E+02  0.43227812514E+03  0.10100000352E+00 0.  1.
       -3    1    3    3    0  502  0.40981684255E+03  0.13345589541E+03 -0.30858481982E+03  0.53008010874E+03  0.10100000352E+00 0. -1.
</event>
<event>
 5   0  0.1596250E-04  0.8999324E+03  0.7818609E-02  0.9425666E-01
        3   -1    0    0  501    0  0.00000000000E+00  0.00000000000E+00  0.20414703412E+03  0.20414705910E+03  0.10100000352E+00 0.  1.
       -3   -1    0    0    0  501  0.00000000000E+00  0.00000000000E+00 -0.99178309271E+03  0.99178309785E+03  0.10100000352E+00 0. -1.
    10030    2    1    2    0    0  0.00000000000E+00  0.00000000000E+00 -0.78763605859E+03  0.11959301570E+04  0.89993243052E+03 0.  0.
        3    1    3    3  502    0 -0.33444617894E+03  0.21727976876E+03 -0.11695498157E+03  0.41562389541E+03  0.10100000352E+00 0.  1.
       -3    1    3    3    0  502  0.33444617894E+03 -0.21727976876E+03 -0.67068107703E+03  0.78030626154E+03  0.10100000352E+00 0. -1.
</event>
<event>
 5   0  0.4110039E-04  0.8992248E+03  0.7818609E-02  0.9426551E-01
        2   -1    0    0  501    0  0.00000000000E+00  0.00000000000E+00  0.15652817569E+04  0.15652817569E+04  0.25500000920E-02 0.  1.
       -2   -1    0    0    0  501  0.00000000000E+00  0.00000000000E+00 -0.12914692647E+03  0.12914692649E+03  0.25500000920E-02 0. -1.
    10030    2    1    2    0    0  0.00000000000E+00  0.00000000000E+00  0.14361348304E+04  0.16944286834E+04  0.89922483947E+03 0.  0.
        3    1    3    3  502    0  0.30981687116E+03  0.31782130404E+03  0.58278359361E+03  0.73255279819E+03  0.10100000352E+00 0. -1.
       -3    1    3    3    0  502 -0.30981687116E+03 -0.31782130404E+03  0.85335123681E+03  0.96187588519E+03  0.10100000352E+00 0.  1.
</event>
<event>
 5   0  0.4110039E-04  0.8994928E+03  0.7818609E-02  0.9426216E-01
        2   -1    0    0  501    0  0.00000000000E+00  0.00000000000E+00  0.25511210539E+04  0.25511210539E+04  0.25500000920E-02 0.  1.
       -2   -1    0    0    0  501  0.00000000000E+00  0.00000000000E+00 -0.79287428495E+02  0.79287428536E+02  0.25500000920E-02 0. -1.
    10030    2    1    2    0    0  0.00000000000E+00  0.00000000000E+00  0.24718336254E+04  0.26304084824E+04  0.89949280864E+03 0.  0.
        3    1    3    3  502    0 -0.18371824403E+03 -0.12921742160E+03  0.23753615302E+04  0.23859572387E+04  0.10100000352E+00 0.  1.
       -3    1    3    3    0  502  0.18371824403E+03  0.12921742160E+03  0.96472095177E+02  0.24445124377E+03  0.10100000352E+00 0. -1.
</event>
<event>
 5   0  0.2332791E-04  0.8997535E+03  0.7818609E-02  0.9425890E-01
        1   -1    0    0  501    0  0.00000000000E+00  0.00000000000E+00  0.11499015195E+04  0.11499015195E+04  0.50400001928E-02 0.  1.
       -1   -1    0    0    0  501  0.00000000000E+00  0.00000000000E+00 -0.17600558025E+03  0.17600558032E+03  0.50400001928E-02 0. -1.
    10030    2    1    2    0    0  0.00000000000E+00  0.00000000000E+00  0.97389593923E+03  0.13259070998E+04  0.89975348673E+03 0.  0.
        2    1    3    3  502    0 -0.42675485685E+03  0.91161063203E+00  0.27715020904E+03  0.50885437726E+03  0.25500000920E-02 0. -1.
       -2    1    3    3    0  502  0.42675485685E+03 -0.91161063203E+00  0.69674573019E+03  0.81705272255E+03  0.25500000920E-02 0.  1.
</event>
<event>
 5   0  0.2308362E-04  0.8997561E+03  0.7818609E-02  0.9425886E-01
       -1   -1    0    0    0  501  0.00000000000E+00  0.00000000000E+00  0.35492312930E+03  0.35492312934E+03  0.50400001928E-02 0.  1.
        1   -1    0    0  501    0  0.00000000000E+00  0.00000000000E+00 -0.57023684724E+03  0.57023684726E+03  0.50400001928E-02 0. -1.
    10030    2    1    2    0    0  0.00000000000E+00  0.00000000000E+00 -0.21531371793E+03  0.92515997660E+03  0.89975606981E+03 0.  0.
        1    1    3    3  502    0  0.25117356347E+03 -0.20482478233E+03 -0.42847400150E+03  0.53724419069E+03  0.50400001928E-02 0. -1.
       -1    1    3    3    0  502 -0.25117356347E+03  0.20482478233E+03  0.21316028356E+03  0.38791578591E+03  0.50400001928E-02 0.  1.
</event>
<event>
 5   0  0.3959804E-04  0.9005171E+03  0.7818609E-02  0.9424935E-01
        2   -1    0    0  501    0  0.00000000000E+00  0.00000000000E+00  0.20495801767E+03  0.20495801769E+03  0.25500000920E-02 0. -1.
       -2   -1    0    0    0  501  0.00000000000E+00  0.00000000000E+00 -0.98914286465E+03  0.98914286465E+03  0.25500000920E-02 0.  1.
    10030    2    1    2    0    0  0.00000000000E+00  0.00000000000E+00 -0.78418484697E+03  0.11941008823E+04  0.90051709755E+03 0.  0.
        5    1    3    3  502    0 -0.19848981156E+02 -0.21231393921E+02 -0.98786506403E+03  0.98830371287E+03  0.46999998093E+01 0.  1.
       -5    1    3    3    0  502  0.19848981156E+02  0.21231393921E+02  0.20368021706E+03  0.20579716947E+03  0.46999998093E+01 0. -1.
</event>
<event>
 5   0  0.2351435E-04  0.8998124E+03  0.7818609E-02  0.9425816E-01
        1   -1    0    0  501    0  0.00000000000E+00  0.00000000000E+00  0.70462901671E+03  0.70462901672E+03  0.50400001928E-02 0.  1.
       -1   -1    0    0    0  501  0.00000000000E+00  0.00000000000E+00 -0.28726544705E+03  0.28726544710E+03  0.50400001928E-02 0. -1.
    10030    2    1    2    0    0  0.00000000000E+00  0.00000000000E+00  0.41736356965E+03  0.99189446382E+03  0.89981235715E+03 0.  0.
        4    1    3    3  502    0 -0.26949871675E+03  0.23678620802E+02 -0.18758222948E+03  0.32920957023E+03  0.12699999809E+01 0. -1.
       -4    1    3    3    0  502  0.26949871675E+03 -0.23678620802E+02  0.60494579913E+03  0.66268489360E+03  0.12699999809E+01 0.  1.
</event>
<event>
 5   0  0.2308362E-04  0.8991918E+03  0.7818609E-02  0.9426592E-01
        1   -1    0    0  501    0  0.00000000000E+00  0.00000000000E+00  0.83271714514E+03  0.83271714516E+03  0.50400001928E-02 0.  1.
       -1   -1    0    0    0  501  0.00000000000E+00  0.00000000000E+00 -0.24274324494E+03  0.24274324499E+03  0.50400001928E-02 0. -1.
    10030    2    1    2    0    0  0.00000000000E+00  0.00000000000E+00  0.58997390021E+03  0.10754603901E+04  0.89919177479E+03 0.  0.
        1    1    3    3  502    0  0.58240594074E+01 -0.39904648407E+03  0.54260979038E+03  0.67357063531E+03  0.50400001928E-02 0.  1.
       -1    1    3    3    0  502 -0.58240594074E+01  0.39904648407E+03  0.47364109828E+02  0.40188975483E+03  0.50400001928E-02 0. -1.
</event>
<event>
 5   0  0.4033144E-04  0.9000744E+03  0.7818609E-02  0.9425488E-01
       -2   -1    0    0    0  501  0.00000000000E+00  0.00000000000E+00  0.75402691534E+03  0.75402691534E+03  0.25500000920E-02 0.  1.
        2   -1    0    0  501    0  0.00000000000E+00  0.00000000000E+00 -0.26860245766E+03  0.26860245767E+03  0.25500000920E-02 0. -1.
    10030    2    1    2    0    0  0.00000000000E+00  0.00000000000E+00  0.48542445768E+03  0.10226293730E+04  0.90007440272E+03 0.  0.
        4    1    3    3  502    0 -0.17926727167E+03  0.30316407078E+03 -0.75588607144E+02  0.36022279069E+03  0.12699999809E+01 0. -1.
       -4    1    3    3    0  502  0.17926727167E+03 -0.30316407078E+03  0.56101306482E+03  0.66240658232E+03  0.12699999809E+01 0.  1.
</event>
<event>
 5   0  0.2308362E-04  0.9002617E+03  0.7818609E-02  0.9425254E-01
        1   -1    0    0  501    0  0.00000000000E+00  0.00000000000E+00  0.60242049089E+03  0.60242049091E+03  0.50400001928E-02 0. -1.
       -1   -1    0    0    0  501  0.00000000000E+00  0.00000000000E+00 -0.33633942184E+03  0.33633942188E+03  0.50400001928E-02 0.  1.
    10030    2    1    2    0    0  0.00000000000E+00  0.00000000000E+00  0.26608106904E+03  0.93875991279E+03  0.90026165005E+03 0.  0.
        1    1    3    3  502    0 -0.36733183329E+03 -0.44531623119E+02 -0.13424480684E+03  0.39362089553E+03  0.50400001928E-02 0.  1.
       -1    1    3    3    0  502  0.36733183329E+03  0.44531623119E+02  0.40032587588E+03  0.54513901726E+03  0.50400001928E-02 0. -1.
</event>
<event>
 5   0  0.2308362E-04  0.9001206E+03  0.7818609E-02  0.9425431E-01
        1   -1    0    0  501    0  0.00000000000E+00  0.00000000000E+00  0.42476184168E+03  0.42476184171E+03  0.50400001928E-02 0.  1.
       -1   -1    0    0    0  501  0.00000000000E+00  0.00000000000E+00 -0.47686555836E+03  0.47686555838E+03  0.50400001928E-02 0. -1.
    10030    2    1    2    0    0  0.00000000000E+00  0.00000000000E+00 -0.52103716682E+02  0.90162740009E+03  0.90012064264E+03 0.  0.
        1    1    3    3  502    0  0.84687501123E+02 -0.31329759761E+03  0.28628243995E+03  0.43276436194E+03  0.50400001928E-02 0.  1.
       -1    1    3    3    0  502 -0.84687501123E+02  0.31329759761E+03 -0.33838615663E+03  0.46886303815E+03  0.50400001928E-02 0. -1.
</event>
<event>
 5   0  0.2308362E-04  0.8947752E+03  0.7818609E-02  0.9432136E-01
       -1   -1    0    0    0  501  0.00000000000E+00  0.00000000000E+00  0.19653730727E+03  0.19653730734E+03  0.50400001928E-02 0.  1.
        1   -1    0    0  501    0  0.00000000000E+00  0.00000000000E+00 -0.10184105344E+04  0.10184105345E+04  0.50400001928E-02 0. -1.
    10030    2    1    2    0    0  0.00000000000E+00  0.00000000000E+00 -0.82187322718E+03  0.12149478418E+04  0.89477519899E+03 0.  0.
        1    1    3    3  502    0 -0.58272621414E+00  0.35816322854E+03 -0.77496134618E+03  0.85372497091E+03  0.50400001928E-02 0. -1.
       -1    1    3    3    0  502  0.58272621414E+00 -0.35816322854E+03 -0.46911880996E+02  0.36122287089E+03  0.50400001928E-02 0.  1.
</event>
<event>
 5   0  0.2356918E-04  0.8997223E+03  0.7818609E-02  0.9425929E-01
       -1   -1    0    0    0  501  0.00000000000E+00  0.00000000000E+00  0.61408558816E+03  0.61408558818E+03  0.50400001928E-02 0. -1.
        1   -1    0    0  501    0  0.00000000000E+00  0.00000000000E+00 -0.32955509475E+03  0.32955509479E+03  0.50400001928E-02 0.  1.
    10030    2    1    2    0    0  0.00000000000E+00  0.00000000000E+00  0.28453049342E+03  0.94364068297E+03  0.89972225540E+03 0.  0.
        5    1    3    3  502    0 -0.18360163696E+02  0.29006928091E+03  0.50235458548E+03  0.58039598800E+03  0.46999998093E+01 0. -1.
       -5    1    3    3    0  502  0.18360163696E+02 -0.29006928091E+03 -0.21782409206E+03  0.36324469497E+03  0.46999998093E+01 0.  1.
</event>
<event>
 5   0  0.2356918E-04  0.8999805E+03  0.7818609E-02  0.9425606E-01
       -1   -1    0    0    0  501  0.00000000000E+00  0.00000000000E+00  0.34782417804E+03  0.34782417808E+03  0.50400001928E-02 0.  1.
        1   -1    0    0  501    0  0.00000000000E+00  0.00000000000E+00 -0.58216551668E+03  0.58216551670E+03  0.50400001928E-02 0. -1.
    10030    2    1    2    0    0  0.00000000000E+00  0.00000000000E+00 -0.23434133864E+03  0.92998969478E+03  0.89998053835E+03 0.  0.
        5    1    3    3  502    0 -0.13576829016E+03  0.16818639340E+03  0.29063972785E+03  0.36223367174E+03  0.46999998093E+01 0.  1.
       -5    1    3    3    0  502  0.13576829016E+03 -0.16818639340E+03 -0.52498106648E+03  0.56775602304E+03  0.46999998093E+01 0. -1.
</event>
<event>
 5   0  0.2332791E-04  0.8976057E+03  0.7818609E-02  0.9428579E-01
        1   -1    0    0  501    0  0.00000000000E+00  0.00000000000E+00  0.33164376504E+03  0.33164376507E+03  0.50400001928E-02 0.  1.
       -1   -1    0    0    0  501  0.00000000000E+00  0.00000000000E+00 -0.60735040764E+03  0.60735040766E+03  0.50400001928E-02 0. -1.
    10030    2    1    2    0    0  0.00000000000E+00  0.00000000000E+00 -0.27570664260E+03  0.93899417273E+03  0.89760565041E+03 0.  0.
        2    1    3    3  502    0 -0.41103736494E+03 -0.11091615823E+03 -0.28642253670E+03  0.51311984864E+03  0.25500000920E-02 0. -1.
       -2    1    3    3    0  502  0.41103736494E+03  0.11091615823E+03  0.10715894098E+02  0.42587432409E+03  0.25500000920E-02 0.  1.
</event>
<event>
 5   0  0.2332791E-04  0.9000376E+03  0.7818609E-02  0.9425534E-01
        1   -1    0    0  501    0  0.00000000000E+00  0.00000000000E+00  0.11811458830E+04  0.11811458830E+04  0.50400001928E-02 0. -1.
       -1   -1    0    0    0  501  0.00000000000E+00  0.00000000000E+00 -0.17145801229E+03  0.17145801236E+03  0.50400001928E-02 0.  1.
    10030    2    1    2    0    0  0.00000000000E+00  0.00000000000E+00  0.10096878707E+04  0.13526038954E+04  0.90003761118E+03 0.  0.
        2    1    3    3  502    0 -0.39673824751E+03 -0.13333109260E+03  0.75332733534E+03  0.86178912239E+03  0.25500000920E-02 0. -1.
       -2    1    3    3    0  502  0.39673824751E+03  0.13333109260E+03  0.25636053541E+03  0.49081477302E+03  0.25500000920E-02 0.  1.
</event>
<event>
 5   0  0.2332791E-04  0.8991751E+03  0.7818609E-02  0.9426613E-01
        1   -1    0    0  501    0  0.00000000000E+00  0.00000000000E+00  0.38535337348E+03  0.38535337351E+03  0.50400001928E-02 0. -1.
       -1   -1    0    0    0  501  0.00000000000E+00  0.00000000000E+00 -0.52452886670E+03  0.52452886673E+03  0.50400001928E-02 0.  1.
    10030    2    1    2    0    0  0.00000000000E+00  0.00000000000E+00 -0.13917549322E+03  0.90988224024E+03  0.89917510708E+03 0.  0.
        2    1    3    3  502    0 -0.14407183153E+03 -0.12688165725E+03 -0.48096690891E+03  0.51786563418E+03  0.25500000920E-02 0.  1.
       -2    1    3    3    0  502  0.14407183153E+03  0.12688165725E+03  0.34179141569E+03  0.39201660606E+03  0.25500000920E-02 0. -1.
</event>
<event>
 5   0  0.3959804E-04  0.8998618E+03  0.7818609E-02  0.9425754E-01
       -2   -1    0    0    0  501  0.00000000000E+00  0.00000000000E+00  0.40605073291E+03  0.40605073292E+03  0.25500000920E-02 0. -1.
        2   -1    0    0  501    0  0.00000000000E+00  0.00000000000E+00 -0.49855296261E+03  0.49855296262E+03  0.25500000920E-02 0.  1.
    10030    2    1    2    0    0  0.00000000000E+00  0.00000000000E+00 -0.92502229701E+02  0.90460369553E+03  0.89986175798E+03 0.  0.
        5    1    3    3  502    0 -0.52694106645E+02 -0.55069619741E+02 -0.49199085821E+03  0.49788194028E+03  0.46999998093E+01 0.  1.
       -5    1    3    3    0  502  0.52694106645E+02  0.55069619741E+02  0.39948862851E+03  0.40672175526E+03  0.46999998093E+01 0. -1.
</event>
<event>
 5   0  0.2308362E-04  0.9003035E+03  0.7818609E-02  0.9425202E-01
       -1   -1    0    0    0  501  0.00000000000E+00  0.00000000000E+00  0.10227418344E+04  0.10227418344E+04  0.50400001928E-02 0.  1.
        1   -1    0    0  501    0  0.00000000000E+00  0.00000000000E+00 -0.19813074590E+03  0.19813074596E+03  0.50400001928E-02 0. -1.
    10030    2    1    2    0    0  0.00000000000E+00  0.00000000000E+00  0.82461108847E+03  0.12208725803E+04  0.90030351005E+03 0.  0.
        1    1    3    3  502    0  0.12692966101E+03  0.31634419910E+03  0.13585154386E+02  0.34112951733E+03  0.50400001928E-02 0.  1.
       -1    1    3    3    0  502 -0.12692966101E+03 -0.31634419910E+03  0.81102593408E+03  0.87974306302E+03  0.50400001928E-02 0. -1.
</event>
<event>
 5   0  0.2356918E-04  0.9012201E+03  0.7818609E-02  0.9424057E-01
       -1   -1    0    0    0  501  0.00000000000E+00  0.00000000000E+00  0.24990111811E+03  0.24990111816E+03  0.50400001928E-02 0.  1.
        1   -1    0    0  501    0  0.00000000000E+00  0.00000000000E+00 -0.81251911355E+03  0.81251911357E+03  0.50400001928E-02 0. -1.
    10030    2    1    2    0    0  0.00000000000E+00  0.00000000000E+00 -0.56261799544E+03  0.10624202317E+04  0.90122013958E+03 0.  0.
        5    1    3    3  502    0  0.19364905904E+03  0.36254999469E+03 -0.63665156867E+02  0.41595408270E+03  0.46999998093E+01 0.  1.
       -5    1    3    3    0  502 -0.19364905904E+03 -0.36254999469E+03 -0.49895283857E+03  0.64646614903E+03  0.46999998093E+01 0. -1.
</event>
<event>
 5   0  0.3959804E-04  0.9002129E+03  0.7818609E-02  0.9425315E-01
        2   -1    0    0  501    0  0.00000000000E+00  0.00000000000E+00  0.35998282310E+03  0.35998282311E+03  0.25500000920E-02 0. -1.
       -2   -1    0    0    0  501  0.00000000000E+00  0.00000000000E+00 -0.56279303793E+03  0.56279303793E+03  0.25500000920E-02 0.  1.
    10030    2    1    2    0    0  0.00000000000E+00  0.00000000000E+00 -0.20281021482E+03  0.92277586105E+03  0.90021292286E+03 0.  0.
        5    1    3    3  502    0 -0.40557617639E+03 -0.18508164455E+03 -0.37996081473E+02  0.44745172053E+03  0.46999998093E+01 0.  1.
       -5    1    3    3    0  502  0.40557617639E+03  0.18508164455E+03 -0.16481413335E+03  0.47532414051E+03  0.46999998093E+01 0. -1.
</event>
<event>
 5   0  0.2351435E-04  0.9001308E+03  0.7818609E-02  0.9425418E-01
        1   -1    0    0  501    0  0.00000000000E+00  0.00000000000E+00  0.16620747020E+03  0.16620747028E+03  0.50400001928E-02 0. -1.
       -1   -1    0    0    0  501  0.00000000000E+00  0.00000000000E+00 -0.12187109762E+04  0.12187109762E+04  0.50400001928E-02 0.  1.
    10030    2    1    2    0    0  0.00000000000E+00  0.00000000000E+00 -0.10525035060E+04  0.13849184465E+04  0.90013080900E+03 0.  0.
        4    1    3    3  502    0  0.58408565644E+02  0.43762005692E+03 -0.66068462558E+03  0.79462485623E+03  0.12699999809E+01 0.  1.
       -4    1    3    3    0  502 -0.58408565644E+02 -0.43762005692E+03 -0.39181888044E+03  0.59029359028E+03  0.12699999809E+01 0. -1.
</event>
<event>
 5   0  0.4033144E-04  0.9003928E+03  0.7818609E-02  0.9425091E-01
        2   -1    0    0  501    0  0.00000000000E+00  0.00000000000E+00  0.32464233867E+03  0.32464233868E+03  0.25500000920E-02 0. -1.
       -2   -1    0    0    0  501  0.00000000000E+00  0.00000000000E+00 -0.62430797840E+03  0.62430797840E+03  0.25500000920E-02 0.  1.
    10030    2    1    2    0    0  0.00000000000E+00  0.00000000000E+00 -0.29966563973E+03  0.94895031708E+03  0.90039280798E+03 0.  0.
        4    1    3    3  502    0 -0.36414331924E+03  0.95777290808E+01 -0.42864262587E+03  0.56251951384E+03  0.12699999809E+01 0.  1.
       -4    1    3    3    0  502  0.36414331924E+03 -0.95777290808E+01  0.12897698614E+03  0.38643080324E+03  0.12699999809E+01 0. -1.
</event>
<event>
 5   0  0.4243516E-04  0.9023255E+03  0.7818609E-02  0.9422679E-01
       -2   -1    0    0    0  501  0.00000000000E+00  0.00000000000E+00  0.17949424921E+03  0.17949424922E+03  0.25500000920E-02 0.  1.
        2   -1    0    0  501    0  0.00000000000E+00  0.00000000000E+00 -0.11340075764E+04  0.11340075764E+04  0.25500000920E-02 0. -1.
    10030    2    1    2    0    0  0.00000000000E+00  0.00000000000E+00 -0.95451332721E+03  0.13135018256E+04  0.90232552560E+03 0.  0.
        1    1    3    3  502    0 -0.33659139083E+03 -0.87149816898E+02 -0.89577305096E+03  0.96088407928E+03  0.50400001928E-02 0. -1.
       -1    1    3    3    0  502  0.33659139083E+03  0.87149816898E+02 -0.58740276254E+02  0.35261774636E+03  0.50400001928E-02 0.  1.
</event>
<event>
 5   0  0.2450427E-04  0.9003765E+03  0.7818609E-02  0.9425111E-01
        1   -1    0    0  501    0  0.00000000000E+00  0.00000000000E+00  0.11742948704E+04  0.11742948705E+04  0.50400001928E-02 0.  1.
       -1   -1    0    0    0  501  0.00000000000E+00  0.00000000000E+00 -0.17258820047E+03  0.17258820054E+03  0.50400001928E-02 0. -1.
    10030    2    1    2    0    0  0.00000000000E+00  0.00000000000E+00  0.10017066700E+04  0.13468830710E+04  0.90037645141E+03 0.  0.
        3    1    3    3  502    0  0.20938269780E+03  0.23853994912E+03  0.23268638439E+02  0.31825125483E+03  0.10100000352E+00 0. -1.
       -3    1    3    3    0  502 -0.20938269780E+03 -0.23853994912E+03  0.97843803154E+03  0.10286318162E+04  0.10100000352E+00 0.  1.
</event>
<event>
 5   0  0.4110039E-04  0.9000971E+03  0.7818609E-02  0.9425460E-01
        2   -1    0    0  501    0  0.00000000000E+00  0.00000000000E+00  0.58097517383E+03  0.58097517383E+03  0.25500000920E-02 0.  1.
       -2   -1    0    0    0  501  0.00000000000E+00  0.00000000000E+00 -0.34862714013E+03  0.34862714014E+03  0.25500000920E-02 0. -1.
    10030    2    1    2    0    0  0.00000000000E+00  0.00000000000E+00  0.23234803369E+03  0.92960231398E+03  0.90009713553E+03 0.  0.
        3    1    3    3  502    0 -0.31556819544E+03  0.10300435779E+03 -0.19767985291E+03  0.38635542981E+03  0.10100000352E+00 0. -1.
       -3    1    3    3    0  502  0.31556819544E+03 -0.10300435779E+03  0.43002788660E+03  0.54324688416E+03  0.10100000352E+00 0.  1.
</event>
<event>
 5   0  0.2351435E-04  0.9001013E+03  0.7818609E-02  0.9425455E-01
       -1   -1    0    0    0  501  0.00000000000E+00  0.00000000000E+00  0.21979463403E+03  0.21979463409E+03  0.50400001928E-02 0. -1.
        1   -1    0    0  501    0  0.00000000000E+00  0.00000000000E+00 -0.92152193859E+03  0.92152193860E+03  0.50400001928E-02 0.  1.
    10030    2    1    2    0    0  0.00000000000E+00  0.00000000000E+00 -0.70172730456E+03  0.11413165727E+04  0.90010127715E+03 0.  0.
        4    1    3    3  502    0 -0.33869381461E+03 -0.90662098271E+02 -0.70863114003E+03  0.79062811842E+03  0.12699999809E+01 0.  1.
       -4    1    3    3    0  502  0.33869381461E+03  0.90662098271E+02  0.69038354678E+01  0.35068845427E+03  0.12699999809E+01 0. -1.
</event>
<event>
 5   0  0.4236284E-04  0.9001025E+03  0.7818609E-02  0.9425453E-01
        2   -1    0    0  501    0  0.00000000000E+00  0.00000000000E+00  0.54788763399E+03  0.54788763399E+03  0.25500000920E-02 0.  1.
       -2   -1    0    0    0  501  0.00000000000E+00  0.00000000000E+00 -0.36968552990E+03  0.36968552991E+03  0.25500000920E-02 0. -1.
    10030    2    1    2    0    0  0.00000000000E+00  0.00000000000E+00  0.17820210408E+03  0.91757316391E+03  0.90010250595E+03 0.  0.
        2    1    3    3  502    0  0.20003510960E+03  0.20865262179E+03  0.44075477673E+03  0.52708133611E+03  0.25500000920E-02 0.  1.
       -2    1    3    3    0  502 -0.20003510960E+03 -0.20865262179E+03 -0.26255267265E+03  0.39049182780E+03  0.25500000920E-02 0. -1.
</event>
<event>
 5   0  0.2351435E-04  0.9004979E+03  0.7818609E-02  0.9424959E-01
        1   -1    0    0  501    0  0.00000000000E+00  0.00000000000E+00  0.43428772823E+03  0.43428772826E+03  0.50400001928E-02 0. -1.
       -1   -1    0    0    0  501  0.00000000000E+00  0.00000000000E+00 -0.46679673939E+03  0.46679673942E+03  0.50400001928E-02 0.  1.
    10030    2    1    2    0    0  0.00000000000E+00  0.00000000000E+00 -0.32509011165E+02  0.90108446768E+03  0.90049785235E+03 0.  0.
        4    1    3    3  502    0  0.25092217153E+03 -0.23778352042E+03  0.27241139706E+03  0.44012784608E+03  0.12699999809E+01 0. -1.
       -4    1    3    3    0  502 -0.25092217153E+03  0.23778352042E+03 -0.30492040822E+03  0.46095662160E+03  0.12699999809E+01 0.  1.
</event>
<event>
 5   0  0.2351435E-04  0.9000160E+03  0.7818609E-02  0.9425561E-01
        1   -1    0    0  501    0  0.00000000000E+00  0.00000000000E+00  0.78035051412E+03  0.78035051414E+03  0.50400001928E-02 0.  1.
       -1   -1    0    0    0  501  0.00000000000E+00  0.00000000000E+00 -0.25950799419E+03  0.25950799424E+03  0.50400001928E-02 0. -1.
    10030    2    1    2    0    0  0.00000000000E+00  0.00000000000E+00  0.52084251993E+03  0.10398585084E+04  0.90001599257E+03 0.  0.
        4    1    3    3  502    0  0.21656819414E+03  0.19642949983E+03 -0.13481127081E+03  0.32196587203E+03  0.12699999809E+01 0. -1.
       -4    1    3    3    0  502 -0.21656819414E+03 -0.19642949983E+03  0.65565379074E+03  0.71789263635E+03  0.12699999809E+01 0.  1.
</event>
<event>
 5   0  0.2332791E-04  0.8989394E+03  0.7818609E-02  0.9426908E-01
       -1   -1    0    0    0  501  0.00000000000E+00  0.00000000000E+00  0.30041999810E+03  0.30041999814E+03  0.50400001928E-02 0.  1.
        1   -1    0    0  501    0  0.00000000000E+00  0.00000000000E+00 -0.67246862398E+03  0.67246862400E+03  0.50400001928E-02 0. -1.
    10030    2    1    2    0    0  0.00000000000E+00  0.00000000000E+00 -0.37204862588E+03  0.97288862213E+03  0.89893942569E+03 0.  0.
        2    1    3    3  502    0 -0.87909124123E+02  0.42556814390E+03 -0.31030447355E+03  0.53397109052E+03  0.25500000920E-02 0. -1.
       -2    1    3    3    0  502  0.87909124123E+02 -0.42556814390E+03 -0.61744152334E+02  0.43891753161E+03  0.25500000920E-02 0.  1.
</event>
<event>
 5   0  0.4236284E-04  0.9001339E+03  0.7818609E-02  0.9425414E-01
       -2   -1    0    0    0  501  0.00000000000E+00  0.00000000000E+00  0.87606670341E+02  0.87606670378E+02  0.25500000920E-02 0.  1.
        2   -1    0    0  501    0  0.00000000000E+00  0.00000000000E+00 -0.23121557942E+04  0.23121557942E+04  0.25500000920E-02 0. -1.
    10030    2    1    2    0    0  0.00000000000E+00  0.00000000000E+00 -0.22245491239E+04  0.23997624646E+04  0.90013392446E+03 0.  0.
        2    1    3    3  502    0  0.34550619260E+03  0.10769781971E+03 -0.18255839962E+04  0.18611099582E+04  0.25500000920E-02 0. -1.
       -2    1    3    3    0  502 -0.34550619260E+03 -0.10769781971E+03 -0.39896512771E+03  0.53865250638E+03  0.25500000920E-02 0.  1.
</event>
<event>
 5   0  0.4243516E-04  0.8990986E+03  0.7818609E-02  0.9426709E-01
        2   -1    0    0  501    0  0.00000000000E+00  0.00000000000E+00  0.21770271698E+03  0.21770271700E+03  0.25500000920E-02 0. -1.
       -2   -1    0    0    0  501  0.00000000000E+00  0.00000000000E+00 -0.92830533352E+03  0.92830533352E+03  0.25500000920E-02 0.  1.
    10030    2    1    2    0    0  0.00000000000E+00  0.00000000000E+00 -0.71060261653E+03  0.11460080505E+04  0.89909864488E+03 0.  0.
        1    1    3    3  502    0 -0.33264229431E+03 -0.18619691512E+03 -0.51593033055E+02  0.38468432285E+03  0.50400001928E-02 0.  1.
       -1    1    3    3    0  502  0.33264229431E+03  0.18619691512E+03 -0.65900958348E+03  0.76132372766E+03  0.50400001928E-02 0. -1.
</event>
<event>
 5   0  0.1596250E-04  0.8999626E+03  0.7818609E-02  0.9425628E-01
        4   -1    0    0  501    0  0.00000000000E+00  0.00000000000E+00  0.49622185302E+03  0.49622347820E+03  0.12699999809E+01 0.  1.
       -4   -1    0    0    0  501  0.00000000000E+00  0.00000000000E+00 -0.40804640161E+03  0.40804837798E+03  0.12699999809E+01 0. -1.
    10030    2    1    2    0    0  0.00000000000E+00  0.00000000000E+00  0.88175451410E+02  0.90427185618E+03  0.89996259902E+03 0.  0.
        4    1    3    3  502    0  0.36003856107E+03  0.15023094197E+03  0.26940341283E+03  0.47410643650E+03  0.12699999809E+01 0. -1.
       -4    1    3    3    0  502 -0.36003856107E+03 -0.15023094197E+03 -0.18122796142E+03  0.43016541968E+03  0.12699999809E+01 0.  1.
</event>
<event>
 5   0  0.4243516E-04  0.9000408E+03  0.7818609E-02  0.9425530E-01
       -2   -1    0    0    0  501  0.00000000000E+00  0.00000000000E+00  0.35890193540E+03  0.35890193541E+03  0.25500000920E-02 0. -1.
        2   -1    0    0  501    0  0.00000000000E+00  0.00000000000E+00 -0.56427212131E+03  0.56427212132E+03  0.25500000920E-02 0.  1.
    10030    2    1    2    0    0  0.00000000000E+00  0.00000000000E+00 -0.20537018591E+03  0.92317405673E+03  0.90004079116E+03 0.  0.
        1    1    3    3  502    0 -0.51829597959E+02  0.44673966627E+03 -0.86282838367E+02  0.45793816708E+03  0.50400001928E-02 0. -1.
       -1    1    3    3    0  502  0.51829597959E+02 -0.44673966627E+03 -0.11908734754E+03  0.46523588965E+03  0.50400001928E-02 0.  1.
</event>
<event>
 5   0  0.2308362E-04  0.8977347E+03  0.7818609E-02  0.9428418E-01
       -1   -1    0    0    0  501  0.00000000000E+00  0.00000000000E+00  0.36328664225E+03  0.36328664228E+03  0.50400001928E-02 0. -1.
        1   -1    0    0  501    0  0.00000000000E+00  0.00000000000E+00 -0.55460865329E+03  0.55460865331E+03  0.50400001928E-02 0.  1.
    10030    2    1    2    0    0  0.00000000000E+00  0.00000000000E+00 -0.19132201104E+03  0.91789529559E+03  0.89773473909E+03 0.  0.
        1    1    3    3  502    0  0.24771076401E+03 -0.21293977079E+03  0.21911292790E+03  0.39333756977E+03  0.50400001928E-02 0. -1.
       -1    1    3    3    0  502 -0.24771076401E+03  0.21293977079E+03 -0.41043493895E+03  0.52455772583E+03  0.50400001928E-02 0.  1.
</event>
<event>
 5   0  0.3959804E-04  0.8995191E+03  0.7818609E-02  0.9426183E-01
       -2   -1    0    0    0  501  0.00000000000E+00  0.00000000000E+00  0.90998149220E+02  0.90998149255E+02  0.25500000920E-02 0. -1.
        2   -1    0    0  501    0  0.00000000000E+00  0.00000000000E+00 -0.22229423243E+04  0.22229423243E+04  0.25500000920E-02 0.  1.
    10030    2    1    2    0    0  0.00000000000E+00  0.00000000000E+00 -0.21319441751E+04  0.23139404736E+04  0.89951906568E+03 0.  0.
        5    1    3    3  502    0  0.36292556507E+03 -0.25124502390E+03 -0.12875964428E+04  0.13611633691E+04  0.46999998093E+01 0.  1.
       -5    1    3    3    0  502 -0.36292556507E+03  0.25124502390E+03 -0.84434773231E+03  0.95277710451E+03  0.46999998093E+01 0. -1.
</event>
<event>
 5   0  0.1596250E-04  0.9045948E+03  0.7818609E-02  0.9419856E-01
       -3   -1    0    0    0  501  0.00000000000E+00  0.00000000000E+00  0.16899750057E+04  0.16899750087E+04  0.10100000352E+00 0.  1.
        3   -1    0    0  501    0  0.00000000000E+00  0.00000000000E+00 -0.12105083966E+03  0.12105088180E+03  0.10100000352E+00 0. -1.
    10030    2    1    2    0    0  0.00000000000E+00  0.00000000000E+00  0.15689241661E+04  0.18110258905E+04  0.90459479181E+03 0.  0.
        2    1    3    3  502    0 -0.34242998909E+03  0.47607390152E+02  0.20060968116E+03  0.39971115221E+03  0.25500000920E-02 0. -1.
       -2    1    3    3    0  502  0.34242998909E+03 -0.47607390152E+02  0.13683144849E+04  0.14113147383E+04  0.25500000920E-02 0.  1.
</event>
<event>
 5   0  0.4033144E-04  0.9000133E+03  0.7818609E-02  0.9425565E-01
       -2   -1    0    0    0  501  0.00000000000E+00  0.00000000000E+00  0.90322866972E+02  0.90322867008E+02  0.25500000920E-02 0. -1.
        2   -1    0    0  501    0  0.00000000000E+00  0.00000000000E+00 -0.22420232372E+04  0.22420232372E+04  0.25500000920E-02 0.  1.
    10030    2    1    2    0    0  0.00000000000E+00  0.00000000000E+00 -0.21517003702E+04  0.23323461042E+04  0.90001325911E+03 0.  0.
        4    1    3    3  502    0 -0.11711590384E+03  0.93313839588E+02  0.23858690906E+02  0.15163923510E+03  0.12699999809E+01 0. -1.
       -4    1    3    3    0  502  0.11711590384E+03 -0.93313839588E+02 -0.21755590611E+04  0.21807068691E+04  0.12699999809E+01 0.  1.
</event>
<event>
 5   0  0.4033144E-04  0.8999980E+03  0.7818609E-02  0.9425584E-01
        2   -1    0    0  501    0  0.00000000000E+00  0.00000000000E+00  0.14984865972E+04  0.14984865972E+04  0.25500000920E-02 0. -1.
       -2   -1    0    0    0  501  0.00000000000E+00  0.00000000000E+00 -0.13513573724E+03  0.13513573726E+03  0.25500000920E-02 0.  1.
    10030    2    1    2    0    0  0.00000000000E+00  0.00000000000E+00  0.13633508600E+04  0.16336223345E+04  0.89999798017E+03 0.  0.
        4    1    3    3  502    0 -0.63999781777E+02 -0.20345757124E+03 -0.37556526257E+02  0.21657114519E+03  0.12699999809E+01 0.  1.
       -4    1    3    3    0  502  0.63999781777E+02  0.20345757124E+03  0.14009073862E+04  0.14170511893E+04  0.12699999809E+01 0. -1.
</event>
<event>
 5   0  0.2332791E-04  0.9002694E+03  0.7818609E-02  0.9425245E-01
        1   -1    0    0  501    0  0.00000000000E+00  0.00000000000E+00  0.16163000517E+04  0.16163000517E+04  0.50400001928E-02 0. -1.
       -1   -1    0    0    0  501  0.00000000000E+00  0.00000000000E+00 -0.12536117212E+03  0.12536117223E+03  0.50400001928E-02 0.  1.
    10030    2    1    2    0    0  0.00000000000E+00  0.00000000000E+00  0.14909388795E+04  0.17416612239E+04  0.90026944650E+03 0.  0.
        2    1    3    3  502    0 -0.11869327221E+03  0.42930210940E+03  0.87133557487E+03  0.97857757896E+03  0.25500000920E-02 0. -1.
       -2    1    3    3    0  502  0.11869327221E+03 -0.42930210940E+03  0.61960330467E+03  0.76308364493E+03  0.25500000920E-02 0.  1.
</event>
<event>
 5   0  0.2308362E-04  0.8996850E+03  0.7818609E-02  0.9425975E-01
        1   -1    0    0  501    0  0.00000000000E+00  0.00000000000E+00  0.98715968175E+03  0.98715968176E+03  0.50400001928E-02 0. -1.
       -1   -1    0    0    0  501  0.00000000000E+00  0.00000000000E+00 -0.20499041195E+03  0.20499041201E+03  0.50400001928E-02 0.  1.
    10030    2    1    2    0    0  0.00000000000E+00  0.00000000000E+00  0.78216926980E+03  0.11921500938E+04  0.89968498902E+03 0.  0.
        1    1    3    3  502    0 -0.30442710777E+03  0.83977090585E+02  0.81558509471E+03  0.87458965374E+03  0.50400001928E-02 0.  1.
       -1    1    3    3    0  502  0.30442710777E+03 -0.83977090585E+02 -0.33415824915E+02  0.31756044003E+03  0.50400001928E-02 0. -1.
</event>
<event>
 5   0  0.2356918E-04  0.9005902E+03  0.7818609E-02  0.9424844E-01
       -1   -1    0    0    0  501  0.00000000000E+00  0.00000000000E+00  0.45749829115E+03  0.45749829118E+03  0.50400001928E-02 0.  1.
        1   -1    0    0  501    0  0.00000000000E+00  0.00000000000E+00 -0.44320534754E+03  0.44320534757E+03  0.50400001928E-02 0. -1.
    10030    2    1    2    0    0  0.00000000000E+00  0.00000000000E+00  0.14292943611E+02  0.90070363875E+03  0.90059022681E+03 0.  0.
        5    1    3    3  502    0 -0.25994487650E+02 -0.32176336641E+03 -0.30679785580E+03  0.44536994923E+03  0.46999998093E+01 0.  1.
       -5    1    3    3    0  502  0.25994487650E+02  0.32176336641E+03  0.32109079941E+03  0.45533368953E+03  0.46999998093E+01 0. -1.
</event>
<event>
 5   0  0.4033144E-04  0.8995542E+03  0.7818609E-02  0.9426139E-01
       -2   -1    0    0    0  501  0.00000000000E+00  0.00000000000E+00  0.87159097625E+03  0.87159097625E+03  0.25500000920E-02 0.  1.
        2   -1    0    0  501    0  0.00000000000E+00  0.00000000000E+00 -0.23210362266E+03  0.23210362268E+03  0.25500000920E-02 0. -1.
    10030    2    1    2    0    0  0.00000000000E+00  0.00000000000E+00  0.63948735359E+03  0.11036945989E+04  0.89955416308E+03 0.  0.
        4    1    3    3  502    0 -0.12332258381E+03  0.21794157459E+03  0.77814939834E+03  0.81745035852E+03  0.12699999809E+01 0.  1.
       -4    1    3    3    0  502  0.12332258381E+03 -0.21794157459E+03 -0.13866204475E+03  0.28624424041E+03  0.12699999809E+01 0. -1.
</event>
<event>
 5   0  0.3959804E-04  0.9004169E+03  0.7818609E-02  0.9425060E-01
       -2   -1    0    0    0  501  0.00000000000E+00  0.00000000000E+00  0.15720324795E+03  0.15720324797E+03  0.25500000920E-02 0. -1.
        2   -1    0    0  501    0  0.00000000000E+00  0.00000000000E+00 -0.12893350506E+04  0.12893350506E+04  0.25500000920E-02 0.  1.
    10030    2    1    2    0    0  0.00000000000E+00  0.00000000000E+00 -0.11321318026E+04  0.14465382985E+04  0.90041692045E+03 0.  0.
        5    1    3    3  502    0 -0.12415812109E+03 -0.71282808909E+02 -0.12517492974E+04  0.12599185972E+04  0.46999998093E+01 0.  1.
       -5    1    3    3    0  502  0.12415812109E+03  0.71282808909E+02  0.11961749481E+03  0.18661970137E+03  0.46999998093E+01 0. -1.
</event>
<event>
 5   0  0.4243516E-04  0.9000383E+03  0.7818609E-02  0.9425534E-01
       -2   -1    0    0    0  501  0.00000000000E+00  0.00000000000E+00  0.33610285969E+03  0.33610285970E+03  0.25500000920E-02 0.  1.
        2   -1    0    0  501    0  0.00000000000E+00  0.00000000000E+00 -0.60254543015E+03  0.60254543015E+03  0.25500000920E-02 0. -1.
    10030    2    1    2    0    0  0.00000000000E+00  0.00000000000E+00 -0.26644257046E+03  0.93864828985E+03  0.90003831513E+03 0.  0.
        1    1    3    3  502    0  0.29053952470E+03 -0.39463030905E+01 -0.49160280981E+03  0.57105351006E+03  0.50400001928E-02 0. -1.
       -1    1    3    3    0  502 -0.29053952470E+03  0.39463030905E+01  0.22516023935E+03  0.36759477979E+03  0.50400001928E-02 0.  1.
</event>
<event>
 5   0  0.4243516E-04  0.9006750E+03  0.7818609E-02  0.9424738E-01
       -2   -1    0    0    0  501  0.00000000000E+00  0.00000000000E+00  0.23620028119E+03  0.23620028120E+03  0.25500000920E-02 0. -1.
        2   -1    0    0  501    0  0.00000000000E+00  0.00000000000E+00 -0.85860980073E+03  0.85860980074E+03  0.25500000920E-02 0.  1.
    10030    2    1    2    0    0  0.00000000000E+00  0.00000000000E+00 -0.62240951955E+03  0.10948100819E+04  0.90067502768E+03 0.  0.
        1    1    3    3  502    0  0.20993970311E+03  0.26774385052E+03  0.47416609801E+02  0.34352552066E+03  0.50400001928E-02 0. -1.
       -1    1    3    3    0  502 -0.20993970311E+03 -0.26774385052E+03 -0.66982612935E+03  0.75128456128E+03  0.50400001928E-02 0.  1.
</event>
<event>
 5   0  0.2356918E-04  0.8999833E+03  0.7818609E-02  0.9425602E-01
       -1   -1    0    0    0  501  0.00000000000E+00  0.00000000000E+00  0.53300476505E+03  0.53300476507E+03  0.50400001928E-02 0. -1.
        1   -1    0    0  501    0  0.00000000000E+00  0.00000000000E+00 -0.37990742593E+03  0.37990742596E+03  0.50400001928E-02 0.  1.
    10030    2    1    2    0    0  0.00000000000E+00  0.00000000000E+00  0.15309733911E+03  0.91291219103E+03  0.89998326279E+03 0.  0.
        5    1    3    3  502    0  0.16382872971E+03  0.10416145385E+03  0.48831234496E+03  0.52550975004E+03  0.46999998093E+01 0. -1.
       -5    1    3    3    0  502 -0.16382872971E+03 -0.10416145385E+03 -0.33521500585E+03  0.38740244100E+03  0.46999998093E+01 0.  1.
</event>
<event>
 5   0  0.2356918E-04  0.8999366E+03  0.7818609E-02  0.9425661E-01
        1   -1    0    0  501    0  0.00000000000E+00  0.00000000000E+00  0.60949665206E+03  0.60949665208E+03  0.50400001928E-02 0. -1.
       -1   -1    0    0    0  501  0.00000000000E+00  0.00000000000E+00 -0.33219458676E+03  0.33219458680E+03  0.50400001928E-02 0.  1.
    10030    2    1    2    0    0  0.00000000000E+00  0.00000000000E+00  0.27730206530E+03  0.94169123888E+03  0.89993663886E+03 0.  0.
        5    1    3    3  502    0  0.32626091038E+03  0.28518894684E+03  0.26539251427E+03  0.50816748584E+03  0.46999998093E+01 0.  1.
       -5    1    3    3    0  502 -0.32626091038E+03 -0.28518894684E+03  0.11909551030E+02  0.43352375303E+03  0.46999998093E+01 0. -1.
</event>
<event>
 5   0  0.4033144E-04  0.9005793E+03  0.7818609E-02  0.9424858E-01
       -2   -1    0    0    0  501  0.00000000000E+00  0.00000000000E+00  0.55885586419E+03  0.55885586420E+03  0.25500000920E-02 0.  1.
        2   -1    0    0  501    0  0.00000000000E+00  0.00000000000E+00 -0.36281406946E+03  0.36281406947E+03  0.25500000920E-02 0. -1.
    10030    2    1    2    0    0  0.00000000000E+00  0.00000000000E+00  0.19604179474E+03  0.92166993367E+03  0.90057930319E+03 0.  0.
        4    1    3    3  502    0  0.58798083448E+02 -0.29260988817E+03  0.44308370984E+03  0.53423080040E+03  0.12699999809E+01 0.  1.
       -4    1    3    3    0  502 -0.58798083448E+02  0.29260988817E+03 -0.24704191510E+03  0.38743913327E+03  0.12699999809E+01 0. -1.
</event>
<event>
 5   0  0.2351435E-04  0.9002505E+03  0.7818609E-02  0.9425268E-01
        1   -1    0    0  501    0  0.00000000000E+00  0.00000000000E+00  0.10627211627E+04  0.10627211627E+04  0.50400001928E-02 0. -1.
       -1   -1    0    0    0  501  0.00000000000E+00  0.00000000000E+00 -0.19065465767E+03  0.19065465773E+03  0.50400001928E-02 0.  1.
    10030    2    1    2    0    0  0.00000000000E+00  0.00000000000E+00  0.87206650505E+03  0.12533758205E+04  0.90025049741E+03 0.  0.
        4    1    3    3  502    0 -0.33065710089E+03 -0.14704422280E+02  0.86075187677E+03  0.92219615303E+03  0.12699999809E+01 0. -1.
       -4    1    3    3    0  502  0.33065710089E+03  0.14704422280E+02  0.11314628284E+02  0.33117966743E+03  0.12699999809E+01 0.  1.
</event>
<event>
 5   0  0.4033144E-04  0.8999630E+03  0.7818609E-02  0.9425628E-01
       -2   -1    0    0    0  501  0.00000000000E+00  0.00000000000E+00  0.12524598054E+03  0.12524598057E+03  0.25500000920E-02 0.  1.
        2   -1    0    0  501    0  0.00000000000E+00  0.00000000000E+00 -0.16166853209E+04  0.16166853209E+04  0.25500000920E-02 0. -1.
    10030    2    1    2    0    0  0.00000000000E+00  0.00000000000E+00 -0.14914393403E+04  0.17419313014E+04  0.89996297316E+03 0.  0.
        4    1    3    3  502    0 -0.21067512849E+02  0.27211128434E+03 -0.14381882265E+04  0.14638563382E+04  0.12699999809E+01 0. -1.
       -4    1    3    3    0  502  0.21067512849E+02 -0.27211128434E+03 -0.53251113845E+02  0.27807496325E+03  0.12699999809E+01 0.  1.
</event>
<event>
 5   0  0.2450427E-04  0.8995418E+03  0.7818609E-02  0.9426154E-01
       -1   -1    0    0    0  501  0.00000000000E+00  0.00000000000E+00  0.34065730532E+03  0.34065730535E+03  0.50400001928E-02 0.  1.
        1   -1    0    0  501    0  0.00000000000E+00  0.00000000000E+00 -0.59383397744E+03  0.59383397746E+03  0.50400001928E-02 0. -1.
    10030    2    1    2    0    0  0.00000000000E+00  0.00000000000E+00 -0.25317667212E+03  0.93449128281E+03  0.89954184469E+03 0.  0.
        3    1    3    3  502    0  0.38190845490E+03 -0.10224789385E+03  0.96184787741E+02  0.40689092311E+03  0.10100000352E+00 0.  1.
       -3    1    3    3    0  502 -0.38190845490E+03  0.10224789385E+03 -0.34936145986E+03  0.52760035970E+03  0.10100000352E+00 0. -1.
</event>
<event>
 5   0  0.2351435E-04  0.9001099E+03  0.7818609E-02  0.9425444E-01
        1   -1    0    0  501    0  0.00000000000E+00  0.00000000000E+00  0.15149995879E+04  0.15149995879E+04  0.50400001928E-02 0.  1.
       -1   -1    0    0    0  501  0.00000000000E+00  0.00000000000E+00 -0.13369605802E+03  0.13369605811E+03  0.50400001928E-02 0. -1.
    10030    2    1    2    0    0  0.00000000000E+00  0.00000000000E+00  0.13813035299E+04  0.16486956460E+04  0.90010993303E+03 0.  0.
        4    1    3    3  502    0  0.43191575117E+03 -0.10678910431E+03  0.81478281948E+03  0.92834680197E+03  0.12699999809E+01 0.  1.
       -4    1    3    3    0  502 -0.43191575117E+03  0.10678910431E+03  0.56652071043E+03  0.72034884407E+03  0.12699999809E+01 0. -1.
</event>
<event>
 5   0  0.2332791E-04  0.9001741E+03  0.7818609E-02  0.9425364E-01
        1   -1    0    0  501    0  0.00000000000E+00  0.00000000000E+00  0.15915138573E+03  0.15915138581E+03  0.50400001928E-02 0.  1.
       -1   -1    0    0    0  501  0.00000000000E+00  0.00000000000E+00 -0.12728658371E+04  0.12728658371E+04  0.50400001928E-02 0. -1.
    10030    2    1    2    0    0  0.00000000000E+00  0.00000000000E+00 -0.11137144514E+04  0.14320172230E+04  0.90017412070E+03 0.  0.
        2    1    3    3  502    0 -0.18646798293E+03 -0.10505647240E+03  0.73018463793E+02  0.22613904376E+03  0.25500000920E-02 0.  1.
       -2    1    3    3    0  502  0.18646798293E+03  0.10505647240E+03 -0.11867329152E+04  0.12058781792E+04  0.25500000920E-02 0. -1.
</event>
<event>
 5   0  0.4243516E-04  0.8970027E+03  0.7818609E-02  0.9429336E-01
        2   -1    0    0  501    0  0.00000000000E+00  0.00000000000E+00  0.10703082852E+04  0.10703082852E+04  0.25500000920E-02 0. -1.
       -2   -1    0    0    0  501  0.00000000000E+00  0.00000000000E+00 -0.18793972816E+03  0.18793972817E+03  0.25500000920E-02 0.  1.
    10030    2    1    2    0    0  0.00000000000E+00  0.00000000000E+00  0.88236855704E+03  0.12582480134E+04  0.89700267152E+03 0.  0.
        1    1    3    3  502    0  0.43465626678E+03  0.94643193456E+02  0.36097043913E+03  0.57287264053E+03  0.50400001928E-02 0.  1.
       -1    1    3    3    0  502 -0.43465626678E+03 -0.94643193456E+02  0.52139811791E+03  0.68537537284E+03  0.50400001928E-02 0. -1.
</event>
<event>
 5   0  0.2308362E-04  0.9000253E+03  0.7818609E-02  0.9425550E-01
       -1   -1    0    0    0  501  0.00000000000E+00  0.00000000000E+00  0.28666965953E+03  0.28666965958E+03  0.50400001928E-02 0.  1.
        1   -1    0    0  501    0  0.00000000000E+00  0.00000000000E+00 -0.70642767146E+03  0.70642767147E+03  0.50400001928E-02 0. -1.
    10030    2    1    2    0    0  0.00000000000E+00  0.00000000000E+00 -0.41975801192E+03  0.99309733105E+03  0.90002528874E+03 0.  0.
        1    1    3    3  502    0 -0.18723788119E+03  0.39391683261E+03 -0.87590034146E+02  0.44486010079E+03  0.50400001928E-02 0. -1.
       -1    1    3    3    0  502  0.18723788119E+03 -0.39391683261E+03 -0.33216797777E+03  0.54823723027E+03  0.50400001928E-02 0.  1.
</event>
<event>
 5   0  0.4110039E-04  0.8999608E+03  0.7818609E-02  0.9425630E-01
        2   -1    0    0  501    0  0.00000000000E+00  0.00000000000E+00  0.10149207544E+04  0.10149207544E+04  0.25500000920E-02 0. -1.
       -2   -1    0    0    0  501  0.00000000000E+00  0.00000000000E+00 -0.19950558689E+03  0.19950558691E+03  0.25500000920E-02 0.  1.
    10030    2    1    2    0    0  0.00000000000E+00  0.00000000000E+00  0.81541516755E+03  0.12144263413E+04  0.89996080087E+03 0.  0.
        3    1    3    3  502    0  0.30029891776E+03 -0.15420757939E+03  0.80919827707E+03  0.87679032805E+03  0.10100000352E+00 0. -1.
       -3    1    3    3    0  502 -0.30029891776E+03  0.15420757939E+03  0.62168904800E+01  0.33763601330E+03  0.10100000352E+00 0.  1.
</event>
<event>
 5   0  0.4236284E-04  0.9000860E+03  0.7818609E-02  0.9425474E-01
        2   -1    0    0  501    0  0.00000000000E+00  0.00000000000E+00  0.30690155165E+03  0.30690155166E+03  0.25500000920E-02 0. -1.
       -2   -1    0    0    0  501  0.00000000000E+00  0.00000000000E+00 -0.65994688406E+03  0.65994688406E+03  0.25500000920E-02 0.  1.
    10030    2    1    2    0    0  0.00000000000E+00  0.00000000000E+00 -0.35304533240E+03  0.96684843572E+03  0.90008604640E+03 0.  0.
        2    1    3    3  502    0 -0.25170648944E+03  0.19866447450E+03  0.16267636268E+03  0.35956547281E+03  0.25500000920E-02 0. -1.
       -2    1    3    3    0  502  0.25170648944E+03 -0.19866447450E+03 -0.51572169508E+03  0.60728296291E+03  0.25500000920E-02 0.  1.
</event>
<event>
 5   0  0.4033144E-04  0.9012115E+03  0.7818609E-02  0.9424068E-01
        2   -1    0    0  501    0  0.00000000000E+00  0.00000000000E+00  0.64293349720E+03  0.64293349721E+03  0.25500000920E-02 0. -1.
       -2   -1    0    0    0  501  0.00000000000E+00  0.00000000000E+00 -0.31581109297E+03  0.31581109298E+03  0.25500000920E-02 0.  1.
    10030    2    1    2    0    0  0.00000000000E+00  0.00000000000E+00  0.32712240423E+03  0.95874459018E+03  0.90121147455E+03 0.  0.
        4    1    3    3  502    0 -0.23842217718E+03 -0.29731618167E+03  0.41932976447E+03  0.56664019511E+03  0.12699999809E+01 0. -1.
       -4    1    3    3    0  502  0.23842217718E+03  0.29731618167E+03 -0.92207360235E+02  0.39210439507E+03  0.12699999809E+01 0.  1.
</event>
<event>
 5   0  0.2332791E-04  0.9002502E+03  0.7818609E-02  0.9425269E-01
       -1   -1    0    0    0  501  0.00000000000E+00  0.00000000000E+00  0.37940971193E+03  0.37940971197E+03  0.50400001928E-02 0.  1.
        1   -1    0    0  501    0  0.00000000000E+00  0.00000000000E+00 -0.53402065710E+03  0.53402065712E+03  0.50400001928E-02 0. -1.
    10030    2    1    2    0    0  0.00000000000E+00  0.00000000000E+00 -0.15461094516E+03  0.91343036909E+03  0.90025024010E+03 0.  0.
        2    1    3    3  502    0 -0.22988330025E+03 -0.10717454481E+03 -0.45460976251E+03  0.52057924562E+03  0.25500000920E-02 0. -1.
       -2    1    3    3    0  502  0.22988330025E+03  0.10717454481E+03  0.29999881735E+03  0.39285112347E+03  0.25500000920E-02 0.  1.
</event>
<event>
 5   0  0.2308362E-04  0.8999384E+03  0.7818609E-02  0.9425658E-01
       -1   -1    0    0    0  501  0.00000000000E+00  0.00000000000E+00  0.76198149400E+03  0.76198149402E+03  0.50400001928E-02 0.  1.
        1   -1    0    0  501    0  0.00000000000E+00  0.00000000000E+00 -0.26571809497E+03  0.26571809502E+03  0.50400001928E-02 0. -1.
    10030    2    1    2    0    0  0.00000000000E+00  0.00000000000E+00  0.49626339903E+03  0.10276995890E+04  0.89993837794E+03 0.  0.
        1    1    3    3  502    0 -0.32981984908E+03 -0.25737722133E+03  0.43732666962E+03  0.60520970158E+03  0.50400001928E-02 0.  1.
       -1    1    3    3    0  502  0.32981984908E+03  0.25737722133E+03  0.58936729412E+02  0.42248988746E+03  0.50400001928E-02 0. -1.
</event>
<event>
 5   0  0.4033144E-04  0.9002125E+03  0.7818609E-02  0.9425316E-01
       -2   -1    0    0    0  501  0.00000000000E+00  0.00000000000E+00  0.37007799809E+03  0.37007799810E+03  0.25500000920E-02 0.  1.
        2   -1    0    0  501    0  0.00000000000E+00  0.00000000000E+00 -0.54744034432E+03  0.54744034432E+03  0.25500000920E-02 0. -1.
    10030    2    1    2    0    0  0.00000000000E+00  0.00000000000E+00 -0.17736234622E+03  0.91751834242E+03  0.90021247871E+03 0.  0.
        4    1    3    3  502    0  0.15896196874E+03  0.28508885662E+03  0.22719521817E+03  0.39769818171E+03  0.12699999809E+01 0.  1.
       -4    1    3    3    0  502 -0.15896196874E+03 -0.28508885662E+03 -0.40455756440E+03  0.51982016071E+03  0.12699999809E+01 0. -1.
</event>
<event>
 5   0  0.3959804E-04  0.8966010E+03  0.7818609E-02  0.9429840E-01
        2   -1    0    0  501    0  0.00000000000E+00  0.00000000000E+00  0.18160632473E+04  0.18160632474E+04  0.25500000920E-02 0. -1.
       -2   -1    0    0    0  501  0.00000000000E+00  0.00000000000E+00 -0.11066427956E+03  0.11066427959E+03  0.25500000920E-02 0.  1.
    10030    2    1    2    0    0  0.00000000000E+00  0.00000000000E+00  0.17053989678E+04  0.19267275269E+04  0.89660098356E+03 0.  0.
        5    1    3    3  502    0  0.33024119018E+03  0.73312128441E+02  0.22061861911E+03  0.40389178868E+03  0.46999998093E+01 0. -1.
       -5    1    3    3    0  502 -0.33024119018E+03 -0.73312128441E+02  0.14847803487E+04  0.15228357383E+04  0.46999998093E+01 0.  1.
</event>
<event>
 5   0  0.2332791E-04  0.8998801E+03  0.7818609E-02  0.9425731E-01
        1   -1    0    0  501    0  0.00000000000E+00  0.00000000000E+00  0.21461057697E+04  0.21461057698E+04  0.50400001928E-02 0.  1.
       -1   -1    0    0    0  501  0.00000000000E+00  0.00000000000E+00 -0.94331805510E+02  0.94331805644E+02  0.50400001928E-02 0. -1.
    10030    2    1    2    0    0  0.00000000000E+00  0.00000000000E+00  0.20517739642E+04  0.22404375754E+04  0.89988006364E+03 0.  0.
        2    1    3    3  502    0  0.18182142882E+03 -0.23543208881E+03  0.18663566048E+04  0.18899138278E+04  0.25500000920E-02 0.  1.
       -2    1    3    3    0  502 -0.18182142882E+03  0.23543208881E+03  0.18541735948E+03  0.35052374759E+03  0.25500000920E-02 0. -1.
</event>
<event>
 5   0  0.1596250E-04  0.9011206E+03  0.7818609E-02  0.9424182E-01
        3   -1    0    0  501    0  0.00000000000E+00  0.00000000000E+00  0.73961145045E+03  0.73961145735E+03  0.10100000352E+00 0.  1.
       -3   -1    0    0    0  501  0.00000000000E+00  0.00000000000E+00 -0.27447459274E+03  0.27447461133E+03  0.10100000352E+00 0. -1.
    10030    2    1    2    0    0  0.00000000000E+00  0.00000000000E+00  0.46513685771E+03  0.10140860687E+04  0.90112055702E+03 0.  0.
        4    1    3    3  502    0 -0.17494399225E+03 -0.35680447770E+03  0.47152719291E+03  0.61664766462E+03  0.12699999809E+01 0.  1.
       -4    1    3    3    0  502  0.17494399225E+03  0.35680447770E+03 -0.63903351979E+01  0.39743840405E+03  0.12699999809E+01 0. -1.
</event>
<event>
 5   0  0.2450427E-04  0.9010657E+03  0.7818609E-02  0.9424250E-01
       -1   -1    0    0    0  501  0.00000000000E+00  0.00000000000E+00  0.61623938492E+03  0.61623938494E+03  0.50400001928E-02 0.  1.
        1   -1    0    0  501    0  0.00000000000E+00  0.00000000000E+00 -0.32938472354E+03  0.32938472358E+03  0.50400001928E-02 0. -1.
    10030    2    1    2    0    0  0.00000000000E+00  0.00000000000E+00  0.28685466138E+03  0.94562410852E+03  0.90106567899E+03 0.  0.
        3    1    3    3  502    0 -0.22870953223E+03 -0.91371527936E+01 -0.26381947923E+03  0.34927391188E+03  0.10100000352E+00 0. -1.
       -3    1    3    3    0  502  0.22870953223E+03  0.91371527936E+01  0.55067414061E+03  0.59635019664E+03  0.10100000352E+00 0.  1.
</event>
<event>
 5   0  0.4236284E-04  0.9001060E+03  0.7818609E-02  0.9425449E-01
       -2   -1    0    0    0  501  0.00000000000E+00  0.00000000000E+00  0.57462400756E+03  0.57462400756E+03  0.25500000920E-02 0.  1.
        2   -1    0    0  501    0  0.00000000000E+00  0.00000000000E+00 -0.35248738824E+03  0.35248738825E+03  0.25500000920E-02 0. -1.
    10030    2    1    2    0    0  0.00000000000E+00  0.00000000000E+00  0.22213661932E+03  0.92711139581E+03  0.90010602853E+03 0.  0.
        2    1    3    3  502    0  0.23936407469E+03  0.26971599086E+03  0.38841612038E+03  0.53000845140E+03  0.25500000920E-02 0.  1.
       -2    1    3    3    0  502 -0.23936407469E+03 -0.26971599086E+03 -0.16627950106E+03  0.39710294441E+03  0.25500000920E-02 0. -1.
</event>
<event>
 5   0  0.4033144E-04  0.9004331E+03  0.7818609E-02  0.9425040E-01
        2   -1    0    0  501    0  0.00000000000E+00  0.00000000000E+00  0.71666295760E+03  0.71666295761E+03  0.25500000920E-02 0. -1.
       -2   -1    0    0    0  501  0.00000000000E+00  0.00000000000E+00 -0.28283161210E+03  0.28283161211E+03  0.25500000920E-02 0.  1.
    10030    2    1    2    0    0  0.00000000000E+00  0.00000000000E+00  0.43383134550E+03  0.99949456972E+03  0.90043309499E+03 0.  0.
        4    1    3    3  502    0  0.27264739721E+03 -0.27681501724E+03 -0.35549189356E+02  0.39016472770E+03  0.12699999809E+01 0.  1.
       -4    1    3    3    0  502 -0.27264739721E+03  0.27681501724E+03  0.46938053486E+03  0.60932984202E+03  0.12699999809E+01 0. -1.
</event>
<event>
 5   0  0.2308362E-04  0.9000873E+03  0.7818609E-02  0.9425472E-01
        1   -1    0    0  501    0  0.00000000000E+00  0.00000000000E+00  0.26339433583E+04  0.26339433583E+04  0.50400001928E-02 0.  1.
       -1   -1    0    0    0  501  0.00000000000E+00  0.00000000000E+00 -0.76895843527E+02  0.76895843693E+02  0.50400001928E-02 0. -1.
    10030    2    1    2    0    0  0.00000000000E+00  0.00000000000E+00  0.25570475148E+04  0.27108392020E+04  0.90008732148E+03 0.  0.
        1    1    3    3  502    0  0.68183348196E+02 -0.15352794475E+03  0.25359777266E+04  0.25415355258E+04  0.50400001928E-02 0.  1.
       -1    1    3    3    0  502 -0.68183348196E+02  0.15352794475E+03  0.21069788165E+02  0.16930367624E+03  0.50400001928E-02 0. -1.
</event>
<event>
 5   0  0.2308362E-04  0.8994470E+03  0.7818609E-02  0.9426273E-01
        1   -1    0    0  501    0  0.00000000000E+00  0.00000000000E+00  0.24812986878E+04  0.24812986878E+04  0.50400001928E-02 0. -1.
       -1   -1    0    0    0  501  0.00000000000E+00  0.00000000000E+00 -0.81510234843E+02  0.81510234999E+02  0.50400001928E-02 0.  1.
    10030    2    1    2    0    0  0.00000000000E+00  0.00000000000E+00  0.23997884529E+04  0.25628089228E+04  0.89944702782E+03 0.  0.
        1    1    3    3  502    0 -0.10233883305E+02  0.82041206427E+02  0.24594587355E+04  0.24608479765E+04  0.50400001928E-02 0. -1.
       -1    1    3    3    0  502  0.10233883305E+02 -0.82041206427E+02 -0.59670282550E+02  0.10196094627E+03  0.50400001928E-02 0.  1.
</event>
<event>
 5   0  0.4110039E-04  0.9001123E+03  0.7818609E-02  0.9425441E-01
       -2   -1    0    0    0  501  0.00000000000E+00  0.00000000000E+00  0.47499596859E+03  0.47499596859E+03  0.25500000920E-02 0. -1.
        2   -1    0    0  501    0  0.00000000000E+00  0.00000000000E+00 -0.42642584091E+03  0.42642584092E+03  0.25500000920E-02 0.  1.
    10030    2    1    2    0    0  0.00000000000E+00  0.00000000000E+00  0.48570127673E+02  0.90142180952E+03  0.90011233819E+03 0.  0.
        3    1    3    3  502    0  0.41969949216E+02  0.30916941418E+03  0.34910757122E+03  0.46821288939E+03  0.10100000352E+00 0. -1.
       -3    1    3    3    0  502 -0.41969949216E+02 -0.30916941418E+03 -0.30053744355E+03  0.43320892013E+03  0.10100000352E+00 0.  1.
</event>
<event>
 5   0  0.2351435E-04  0.9016434E+03  0.7818609E-02  0.9423529E-01
        1   -1    0    0  501    0  0.00000000000E+00  0.00000000000E+00  0.20326959765E+03  0.20326959771E+03  0.50400001928E-02 0.  1.
       -1   -1    0    0    0  501  0.00000000000E+00  0.00000000000E+00 -0.99985547578E+03  0.99985547580E+03  0.50400001928E-02 0. -1.
    10030    2    1    2    0    0  0.00000000000E+00  0.00000000000E+00 -0.79658587814E+03  0.12031250735E+04  0.90164343355E+03 0.  0.
        4    1    3    3  502    0 -0.29794126565E+03 -0.21825099870E+03 -0.74326310692E+03  0.82996635789E+03  0.12699999809E+01 0. -1.
       -4    1    3    3    0  502  0.29794126565E+03  0.21825099870E+03 -0.53322771215E+02  0.37315871562E+03  0.12699999809E+01 0.  1.
</event>
<event>
 5   0  0.2308362E-04  0.9005289E+03  0.7818609E-02  0.9424920E-01
        1   -1    0    0  501    0  0.00000000000E+00  0.00000000000E+00  0.12717242729E+04  0.12717242730E+04  0.50400001928E-02 0. -1.
       -1   -1    0    0    0  501  0.00000000000E+00  0.00000000000E+00 -0.15941984923E+03  0.15941984931E+03  0.50400001928E-02 0.  1.
    10030    2    1    2    0    0  0.00000000000E+00  0.00000000000E+00  0.11123044237E+04  0.14311441223E+04  0.90052893772E+03 0.  0.
        1    1    3    3  502    0  0.11637835023E+02 -0.59634021734E+02  0.12651794203E+04  0.12666375256E+04  0.50400001928E-02 0. -1.
       -1    1    3    3    0  502 -0.11637835023E+02  0.59634021734E+02 -0.15287499655E+03  0.16450659667E+03  0.50400001928E-02 0.  1.
</event>
<event>
 5   0  0.1596250E-04  0.8998501E+03  0.7818609E-02  0.9425769E-01
        3   -1    0    0  501    0  0.00000000000E+00  0.00000000000E+00  0.72017004574E+03  0.72017005282E+03  0.10100000352E+00 0. -1.
       -3   -1    0    0    0  501  0.00000000000E+00  0.00000000000E+00 -0.28108989474E+03  0.28108991288E+03  0.10100000352E+00 0.  1.
    10030    2    1    2    0    0  0.00000000000E+00  0.00000000000E+00  0.43908015100E+03  0.10012599657E+04  0.89985006524E+03 0.  0.
        1    1    3    3  502    0  0.13157329817E+02 -0.44570492389E+03  0.15271767041E+03  0.47132651250E+03  0.50400001928E-02 0.  1.
       -1    1    3    3    0  502 -0.13157329817E+02  0.44570492389E+03  0.28636248059E+03  0.52993345320E+03  0.50400001928E-02 0. -1.
</event>
<event>
 5   0  0.2308362E-04  0.8979736E+03  0.7818609E-02  0.9428118E-01
       -1   -1    0    0    0  501  0.00000000000E+00  0.00000000000E+00  0.51627019163E+03  0.51627019166E+03  0.50400001928E-02 0.  1.
        1   -1    0    0  501    0  0.00000000000E+00  0.00000000000E+00 -0.39047217880E+03  0.39047217884E+03  0.50400001928E-02 0. -1.
    10030    2    1    2    0    0  0.00000000000E+00  0.00000000000E+00  0.12579801283E+03  0.90674237049E+03  0.89797360006E+03 0.  0.
        1    1    3    3  502    0 -0.18318064993E+03  0.33381766841E+02  0.47544661951E+03  0.51060648340E+03  0.50400001928E-02 0.  1.
       -1    1    3    3    0  502  0.18318064993E+03 -0.33381766841E+02 -0.34964860668E+03  0.39613588709E+03  0.50400001928E-02 0. -1.
</event>
<event>
 5   0  0.2450427E-04  0.9001788E+03  0.7818609E-02  0.9425358E-01
       -1   -1    0    0    0  501  0.00000000000E+00  0.00000000000E+00  0.60457217550E+03  0.60457217552E+03  0.50400001928E-02 0. -1.
        1   -1    0    0  501    0  0.00000000000E+00  0.00000000000E+00 -0.33508070673E+03  0.33508070677E+03  0.50400001928E-02 0.  1.
    10030    2    1    2    0    0  0.00000000000E+00  0.00000000000E+00  0.26949146877E+03  0.93965288229E+03  0.90017880860E+03 0.  0.
        3    1    3    3  502    0  0.44014365050E+03 -0.84208696952E+02  0.17857411793E+03  0.48239637594E+03  0.10100000352E+00 0. -1.
       -3    1    3    3    0  502 -0.44014365050E+03  0.84208696952E+02  0.90917350840E+02  0.45725650636E+03  0.10100000352E+00 0.  1.
</event>
<event>
 5   0  0.1596250E-04  0.9002443E+03  0.7818609E-02  0.9425276E-01
       -4   -1    0    0    0  501  0.00000000000E+00  0.00000000000E+00  0.16850346143E+04  0.16850350929E+04  0.12699999809E+01 0.  1.
        4   -1    0    0  501    0  0.00000000000E+00  0.00000000000E+00 -0.12023698166E+03  0.12024368864E+03  0.12699999809E+01 0. -1.
    10030    2    1    2    0    0  0.00000000000E+00  0.00000000000E+00  0.15647976326E+04  0.18052787815E+04  0.90024432679E+03 0.  0.
        2    1    3    3  502    0 -0.41067028673E+03  0.17567783410E+03  0.67079813661E+03  0.80590503527E+03  0.25500000920E-02 0.  1.
       -2    1    3    3    0  502  0.41067028673E+03 -0.17567783410E+03  0.89399949600E+03  0.99937374623E+03  0.25500000920E-02 0. -1.
</event>
<event>
 5   0  0.2351435E-04  0.8999559E+03  0.7818609E-02  0.9425637E-01
       -1   -1    0    0    0  501  0.00000000000E+00  0.00000000000E+00  0.20102484327E+03  0.20102484333E+03  0.50400001928E-02 0.  1.
        1   -1    0    0  501    0  0.00000000000E+00  0.00000000000E+00 -0.10072393696E+04  0.10072393697E+04  0.50400001928E-02 0. -1.
    10030    2    1    2    0    0  0.00000000000E+00  0.00000000000E+00 -0.80621452637E+03  0.12082642130E+04  0.89995585772E+03 0.  0.
        4    1    3    3  502    0  0.29730736982E+03 -0.25859886713E+03 -0.11138222968E+03  0.40947852229E+03  0.12699999809E+01 0.  1.
       -4    1    3    3    0  502 -0.29730736982E+03  0.25859886713E+03 -0.69483229670E+03  0.79878569070E+03  0.12699999809E+01 0. -1.
</event>
<event>
 5   0  0.2308362E-04  0.8999918E+03  0.7818609E-02  0.9425592E-01
       -1   -1    0    0    0  501  0.00000000000E+00  0.00000000000E+00  0.18632830221E+03  0.18632830228E+03  0.50400001928E-02 0. -1.
        1   -1    0    0  501    0  0.00000000000E+00  0.00000000000E+00 -0.10867716609E+04  0.10867716610E+04  0.50400001928E-02 0.  1.
    10030    2    1    2    0    0  0.00000000000E+00  0.00000000000E+00 -0.90044335873E+03  0.12730999632E+04  0.89999181890E+03 0.  0.
        1    1    3    3  502    0 -0.35348958947E+03 -0.10569170350E+03 -0.85793359947E+02  0.37879562655E+03  0.50400001928E-02 0. -1.
       -1    1    3    3    0  502  0.35348958947E+03  0.10569170350E+03 -0.81464999879E+03  0.89430433668E+03  0.50400001928E-02 0.  1.
</event>
<event>
 5   0  0.2308362E-04  0.8999446E+03  0.7818609E-02  0.9425651E-01
       -1   -1    0    0    0  501  0.00000000000E+00  0.00000000000E+00  0.31635486381E+03  0.31635486385E+03  0.50400001928E-02 0.  1.
        1   -1    0    0  501    0  0.00000000000E+00  0.00000000000E+00 -0.64002508627E+03  0.64002508629E+03  0.50400001928E-02 0. -1.
    10030    2    1    2    0    0  0.00000000000E+00  0.00000000000E+00 -0.32367022246E+03  0.95637995014E+03  0.89994455169E+03 0.  0.
        1    1    3    3  502    0 -0.37134024560E+02  0.28313061221E+03 -0.53139721330E+03  0.60326186493E+03  0.50400001928E-02 0. -1.
       -1    1    3    3    0  502  0.37134024560E+02 -0.28313061221E+03  0.20772699084E+03  0.35311808521E+03  0.50400001928E-02 0.  1.
</event>
<event>
 5   0  0.3959804E-04  0.9001725E+03  0.7818609E-02  0.9425366E-01
       -2   -1    0    0    0  501  0.00000000000E+00  0.00000000000E+00  0.12661214830E+03  0.12661214833E+03  0.25500000920E-02 0. -1.
        2   -1    0    0  501    0  0.00000000000E+00  0.00000000000E+00 -0.15999856775E+04  0.15999856775E+04  0.25500000920E-02 0.  1.
    10030    2    1    2    0    0  0.00000000000E+00  0.00000000000E+00 -0.14733735292E+04  0.17265978259E+04  0.90017248104E+03 0.  0.
        5    1    3    3  502    0  0.37150074226E+03 -0.24993995181E+03 -0.82401189107E+03  0.93781686252E+03  0.46999998093E+01 0.  1.
       -5    1    3    3    0  502 -0.37150074226E+03  0.24993995181E+03 -0.64936163815E+03  0.78878096333E+03  0.46999998093E+01 0. -1.
</event>
<event>
 5   0  0.4033144E-04  0.9002354E+03  0.7818609E-02  0.9425287E-01
       -2   -1    0    0    0  501  0.00000000000E+00  0.00000000000E+00  0.98428049826E+02  0.98428049859E+02  0.25500000920E-02 0.  1.
        2   -1    0    0  501    0  0.00000000000E+00  0.00000000000E+00 -0.20584166480E+04  0.20584166480E+04  0.25500000920E-02 0. -1.
    10030    2    1    2    0    0  0.00000000000E+00  0.00000000000E+00 -0.19599885982E+04  0.21568446979E+04  0.90023538351E+03 0.  0.
        4    1    3    3  502    0 -0.11153422464E+03  0.39150966940E+03 -0.14401294882E+04  0.14965608107E+04  0.12699999809E+01 0. -1.
       -4    1    3    3    0  502  0.11153422464E+03 -0.39150966940E+03 -0.51985910999E+03  0.66028388716E+03  0.12699999809E+01 0.  1.
</event>
<event>
 5   0  0.2356918E-04  0.9012169E+03  0.7818609E-02  0.9424062E-01
        1   -1    0    0  501    0  0.00000000000E+00  0.00000000000E+00  0.57690540699E+03  0.57690540701E+03  0.50400001928E-02 0. -1.
       -1   -1    0    0    0  501  0.00000000000E+00  0.00000000000E+00 -0.35196057827E+03  0.35196057830E+03  0.50400001928E-02 0.  1.
    10030    2    1    2    0    0  0.00000000000E+00  0.00000000000E+00  0.22494482873E+03  0.92886598532E+03  0.90121686774E+03 0.  0.
        5    1    3    3  502    0  0.40286206789E+03 -0.29409089712E+02 -0.93310563626E+02  0.41459822912E+03  0.46999998093E+01 0.  1.
       -5    1    3    3    0  502 -0.40286206789E+03  0.29409089712E+02  0.31825539235E+03  0.51426775620E+03  0.46999998093E+01 0. -1.
</event>
<event>
 5   0  0.4033144E-04  0.8997654E+03  0.7818609E-02  0.9425875E-01
       -2   -1    0    0    0  501  0.00000000000E+00  0.00000000000E+00  0.19287587089E+03  0.19287587091E+03  0.25500000920E-02 0.  1.
        2   -1    0    0  501    0  0.00000000000E+00  0.00000000000E+00 -0.10493507527E+04  0.10493507527E+04  0.25500000920E-02 0. -1.
    10030    2    1    2    0    0  0.00000000000E+00  0.00000000000E+00 -0.85647488184E+03  0.12422266236E+04  0.89976539234E+03 0.  0.
        4    1    3    3  502    0  0.15086459673E+03 -0.21119188443E+03  0.79089341112E+02  0.27132798487E+03  0.12699999809E+01 0.  1.
       -4    1    3    3    0  502 -0.15086459673E+03  0.21119188443E+03 -0.93556422295E+03  0.97089863876E+03  0.12699999809E+01 0. -1.
</event>
<event>
 5   0  0.2450427E-04  0.8954657E+03  0.7818609E-02  0.9431267E-01
        1   -1    0    0  501    0  0.00000000000E+00  0.00000000000E+00  0.67408180530E+03  0.67408180532E+03  0.50400001928E-02 0.  1.
       -1   -1    0    0    0  501  0.00000000000E+00  0.00000000000E+00 -0.29738930607E+03  0.29738930612E+03  0.50400001928E-02 0. -1.
    10030    2    1    2    0    0  0.00000000000E+00  0.00000000000E+00  0.37669249922E+03  0.97147111143E+03  0.89546573434E+03 0.  0.
        3    1    3    3  502    0  0.77221695261E+02  0.20821511838E+03 -0.23342997854E+03  0.32218983662E+03  0.10100000352E+00 0. -1.
       -3    1    3    3    0  502 -0.77221695261E+02 -0.20821511838E+03  0.61012247776E+03  0.64928127481E+03  0.10100000352E+00 0.  1.
</event>
<event>
 5   0  0.4236284E-04  0.9000876E+03  0.7818609E-02  0.9425472E-01
        2   -1    0    0  501    0  0.00000000000E+00  0.00000000000E+00  0.13946246207E+04  0.13946246207E+04  0.25500000920E-02 0. -1.
       -2   -1    0    0    0  501  0.00000000000E+00  0.00000000000E+00 -0.14522863387E+03  0.14522863389E+03  0.25500000920E-02 0.  1.
    10030    2    1    2    0    0  0.00000000000E+00  0.00000000000E+00  0.12493959868E+04  0.15398532546E+04  0.90008761451E+03 0.  0.
        2    1    3    3  502    0 -0.33381618758E+03 -0.14023863423E+03  0.10819579445E+04  0.11409351933E+04  0.25500000920E-02 0. -1.
       -2    1    3    3    0  502  0.33381618758E+03  0.14023863423E+03  0.16743804236E+03  0.39891806134E+03  0.25500000920E-02 0.  1.
</event>
<event>
 5   0  0.4243516E-04  0.8999246E+03  0.7818609E-02  0.9425676E-01
        2   -1    0    0  501    0  0.00000000000E+00  0.00000000000E+00  0.69280781773E+03  0.69280781773E+03  0.25500000920E-02 0.  1.
       -2   -1    0    0    0  501  0.00000000000E+00  0.00000000000E+00 -0.29223987719E+03  0.29223987721E+03  0.25500000920E-02 0. -1.
    10030    2    1    2    0    0  0.00000000000E+00  0.00000000000E+00  0.40056794053E+03  0.98504769494E+03  0.89992460035E+03 0.  0.
        1    1    3    3  502    0  0.51717036089E+02  0.30971143255E+03  0.55305809261E+03  0.63597883385E+03  0.50400001928E-02 0.  1.
       -1    1    3    3    0  502 -0.51717036089E+02 -0.30971143255E+03 -0.15249015208E+03  0.34906886109E+03  0.50400001928E-02 0. -1.
</event>
<event>
 5   0  0.2351435E-04  0.8998749E+03  0.7818609E-02  0.9425738E-01
        1   -1    0    0  501    0  0.00000000000E+00  0.00000000000E+00  0.53797377444E+03  0.53797377446E+03  0.50400001928E-02 0. -1.
       -1   -1    0    0    0  501  0.00000000000E+00  0.00000000000E+00 -0.37630778467E+03  0.37630778471E+03  0.50400001928E-02 0.  1.
    10030    2    1    2    0    0  0.00000000000E+00  0.00000000000E+00  0.16166598976E+03  0.91428155917E+03  0.89987492308E+03 0.  0.
        4    1    3    3  502    0  0.23411707749E+03 -0.44225227166E+02  0.46861795799E+03  0.52571007232E+03  0.12699999809E+01 0. -1.
       -4    1    3    3    0  502 -0.23411707749E+03  0.44225227166E+02 -0.30695196823E+03  0.38857148684E+03  0.12699999809E+01 0.  1.
</event>
<event>
 5   0  0.4243516E-04  0.8999863E+03  0.7818609E-02  0.9425599E-01
       -2   -1    0    0    0  501  0.00000000000E+00  0.00000000000E+00  0.15187217583E+03  0.15187217585E+03  0.25500000920E-02 0. -1.
        2   -1    0    0  501    0  0.00000000000E+00  0.00000000000E+00 -0.13333175955E+04  0.13333175955E+04  0.25500000920E-02 0.  1.
    10030    2    1    2    0    0  0.00000000000E+00  0.00000000000E+00 -0.11814454197E+04  0.14851897713E+04  0.89998632060E+03 0.  0.
        1    1    3    3  502    0 -0.15309735197E+03  0.14893613970E+03  0.62889627164E+02  0.22265641271E+03  0.50400001928E-02 0. -1.
       -1    1    3    3    0  502  0.15309735197E+03 -0.14893613970E+03 -0.12443350468E+04  0.12625333586E+04  0.50400001928E-02 0.  1.
</event>
<event>
 5   0  0.1596250E-04  0.8999480E+03  0.7818609E-02  0.9425646E-01
        4   -1    0    0  501    0  0.00000000000E+00  0.00000000000E+00  0.78162566640E+03  0.78162669816E+03  0.12699999809E+01 0.  1.
       -4   -1    0    0    0  501  0.00000000000E+00  0.00000000000E+00 -0.25904271350E+03  0.25904582667E+03  0.12699999809E+01 0. -1.
    10030    2    1    2    0    0  0.00000000000E+00  0.00000000000E+00  0.52258295290E+03  0.10406725248E+04  0.89994797699E+03 0.  0.
        5    1    3    3  502    0  0.17566020440E+03 -0.35141220224E+03  0.76601552478E+01  0.39297304140E+03  0.46999998093E+01 0. -1.
       -5    1    3    3    0  502 -0.17566020440E+03  0.35141220224E+03  0.51492279765E+03  0.64769948343E+03  0.46999998093E+01 0.  1.
</event>
<event>
 5   0  0.4033144E-04  0.9003800E+03  0.7818609E-02  0.9425106E-01
        2   -1    0    0  501    0  0.00000000000E+00  0.00000000000E+00  0.12461979069E+04  0.12461979069E+04  0.25500000920E-02 0. -1.
       -2   -1    0    0    0  501  0.00000000000E+00  0.00000000000E+00 -0.16263151472E+03  0.16263151474E+03  0.25500000920E-02 0.  1.
    10030    2    1    2    0    0  0.00000000000E+00  0.00000000000E+00  0.10835663922E+04  0.14088294217E+04  0.90038003812E+03 0.  0.
        4    1    3    3  502    0  0.21943177111E+03  0.18097378359E+03 -0.42241397297E+01  0.28446663912E+03  0.12699999809E+01 0.  1.
       -4    1    3    3    0  502 -0.21943177111E+03 -0.18097378359E+03  0.10877905319E+04  0.11243627825E+04  0.12699999809E+01 0. -1.
</event>
<event>
 5   0  0.4110039E-04  0.8998166E+03  0.7818609E-02  0.9425811E-01
        2   -1    0    0  501    0  0.00000000000E+00  0.00000000000E+00  0.19045711789E+04  0.19045711789E+04  0.25500000920E-02 0.  1.
       -2   -1    0    0    0  501  0.00000000000E+00  0.00000000000E+00 -0.10627981467E+03  0.10627981470E+03  0.25500000920E-02 0. -1.
    10030    2    1    2    0    0  0.00000000000E+00  0.00000000000E+00  0.17982913642E+04  0.20108509936E+04  0.89981658565E+03 0.  0.
        3    1    3    3  502    0 -0.96488440746E+01  0.64102872734E+02  0.18940798722E+04  0.18951888695E+04  0.10100000352E+00 0.  1.
       -3    1    3    3    0  502  0.96488440746E+01 -0.64102872734E+02 -0.95788508004E+02  0.11566212410E+03  0.10100000352E+00 0. -1.
</event>
<event>
 5   0  0.2332791E-04  0.9000544E+03  0.7818609E-02  0.9425513E-01
        1   -1    0    0  501    0  0.00000000000E+00  0.00000000000E+00  0.51849554909E+03  0.51849554911E+03  0.50400001928E-02 0. -1.
       -1   -1    0    0    0  501  0.00000000000E+00  0.00000000000E+00 -0.39060023727E+03  0.39060023730E+03  0.50400001928E-02 0.  1.
    10030    2    1    2    0    0  0.00000000000E+00  0.00000000000E+00  0.12789531182E+03  0.90909578641E+03  0.90005440840E+03 0.  0.
        2    1    3    3  502    0  0.24641266067E+03  0.32099810718E+02 -0.31502116077E+03  0.40123301076E+03  0.25500000920E-02 0.  1.
       -2    1    3    3    0  502 -0.24641266067E+03 -0.32099810718E+02  0.44291647259E+03  0.50786277565E+03  0.25500000920E-02 0. -1.
</event>
<event>
 5   0  0.2351435E-04  0.9038628E+03  0.7818609E-02  0.9420766E-01
       -1   -1    0    0    0  501  0.00000000000E+00  0.00000000000E+00  0.18858665016E+03  0.18858665023E+03  0.50400001928E-02 0. -1.
        1   -1    0    0  501    0  0.00000000000E+00  0.00000000000E+00 -0.10830139600E+04  0.10830139600E+04  0.50400001928E-02 0.  1.
    10030    2    1    2    0    0  0.00000000000E+00  0.00000000000E+00 -0.89442730982E+03  0.12716006102E+04  0.90386276578E+03 0.  0.
        4    1    3    3  502    0  0.61234034690E+02 -0.30931978007E+02 -0.10756432808E+04  0.10778295202E+04  0.12699999809E+01 0.  1.
       -4    1    3    3    0  502 -0.61234034690E+02  0.30931978007E+02  0.18121597099E+03  0.19377108997E+03  0.12699999809E+01 0. -1.
</event>
<event>
 5   0  0.2450427E-04  0.8997179E+03  0.7818609E-02  0.9425934E-01
        1   -1    0    0  501    0  0.00000000000E+00  0.00000000000E+00  0.27512235391E+04  0.27512235391E+04  0.50400001928E-02 0. -1.
       -1   -1    0    0    0  501  0.00000000000E+00  0.00000000000E+00 -0.73557483289E+02  0.73557483461E+02  0.50400001928E-02 0.  1.
    10030    2    1    2    0    0  0.00000000000E+00  0.00000000000E+00  0.26776660558E+04  0.28247810225E+04  0.89971791079E+03 0.  0.
        3    1    3    3  502    0 -0.40218319279E+02 -0.41767600015E+03  0.18480178036E+04  0.18950568769E+04  0.10100000352E+00 0. -1.
       -3    1    3    3    0  502  0.40218319279E+02  0.41767600015E+03  0.82964825220E+03  0.92972414559E+03  0.10100000352E+00 0.  1.
</event>
<event>
 5   0  0.2450427E-04  0.8998397E+03  0.7818609E-02  0.9425782E-01
       -1   -1    0    0    0  501  0.00000000000E+00  0.00000000000E+00  0.27625886947E+03  0.27625886951E+03  0.50400001928E-02 0. -1.
        1   -1    0    0  501    0  0.00000000000E+00  0.00000000000E+00 -0.73274700730E+03  0.73274700732E+03  0.50400001928E-02 0.  1.
    10030    2    1    2    0    0  0.00000000000E+00  0.00000000000E+00 -0.45648813784E+03  0.10090058768E+04  0.89983967433E+03 0.  0.
        3    1    3    3  502    0  0.37412592235E+03 -0.17722917360E+03 -0.42582345144E+03  0.59389056883E+03  0.10100000352E+00 0. -1.
       -3    1    3    3    0  502 -0.37412592235E+03  0.17722917360E+03 -0.30664686393E+02  0.41511530800E+03  0.10100000352E+00 0.  1.
</event>
<event>
 5   0  0.4110039E-04  0.8998744E+03  0.7818609E-02  0.9425738E-01
        2   -1    0    0  501    0  0.00000000000E+00  0.00000000000E+00  0.12582896658E+04  0.12582896658E+04  0.25500000920E-02 0.  1.
       -2   -1    0    0    0  501  0.00000000000E+00  0.00000000000E+00 -0.16088782537E+03  0.16088782539E+03  0.25500000920E-02 0. -1.
    10030    2    1    2    0    0  0.00000000000E+00  0.00000000000E+00  0.10974018404E+04  0.14191774912E+04  0.89987440906E+03 0.  0.
        3    1    3    3  502    0 -0.33726253643E+03  0.28912765915E+03  0.43604527449E+03  0.62247595405E+03  0.10100000352E+00 0. -1.
       -3    1    3    3    0  502  0.33726253643E+03 -0.28912765915E+03  0.66135656592E+03  0.79670153712E+03  0.10100000352E+00 0.  1.
</event>
<event>
 5   0  0.3959804E-04  0.8999402E+03  0.7818609E-02  0.9425656E-01
        2   -1    0    0  501    0  0.00000000000E+00  0.00000000000E+00  0.11722856898E+04  0.11722856898E+04  0.25500000920E-02 0. -1.
       -2   -1    0    0    0  501  0.00000000000E+00  0.00000000000E+00 -0.17271649613E+03  0.17271649615E+03  0.25500000920E-02 0.  1.
    10030    2    1    2    0    0  0.00000000000E+00  0.00000000000E+00  0.99956919371E+03  0.13450021860E+04  0.89994016874E+03 0.  0.
        5    1    3    3  502    0 -0.63145996605E+02 -0.32880422201E+03  0.94902280336E+03  0.10063627599E+04  0.46999998093E+01 0. -1.
       -5    1    3    3    0  502  0.63145996605E+02  0.32880422201E+03  0.50546390343E+02  0.33863942605E+03  0.46999998093E+01 0.  1.
</event>
<event>
 5   0  0.4236284E-04  0.9002329E+03  0.7818609E-02  0.9425290E-01
       -2   -1    0    0    0  501  0.00000000000E+00  0.00000000000E+00  0.36555804190E+03  0.36555804191E+03  0.25500000920E-02 0. -1.
        2   -1    0    0  501    0  0.00000000000E+00  0.00000000000E+00 -0.55423438276E+03  0.55423438277E+03  0.25500000920E-02 0.  1.
    10030    2    1    2    0    0  0.00000000000E+00  0.00000000000E+00 -0.18867634086E+03  0.91979242468E+03  0.90023293813E+03 0.  0.
        2    1    3    3  502    0  0.11973467624E+03 -0.11747269684E+03  0.33243153003E+03  0.37235325883E+03  0.25500000920E-02 0. -1.
       -2    1    3    3    0  502 -0.11973467624E+03  0.11747269684E+03 -0.52110787089E+03  0.54743916585E+03  0.25500000920E-02 0.  1.
</event>
<event>
 5   0  0.2308362E-04  0.8972785E+03  0.7818609E-02  0.9428990E-01
        1   -1    0    0  501    0  0.00000000000E+00  0.00000000000E+00  0.41140584738E+03  0.41140584741E+03  0.50400001928E-02 0.  1.
       -1   -1    0    0    0  501  0.00000000000E+00  0.00000000000E+00 -0.48924240115E+03  0.48924240118E+03  0.50400001928E-02 0. -1.
    10030    2    1    2    0    0  0.00000000000E+00  0.00000000000E+00 -0.77836553768E+02  0.90064824859E+03  0.89727851784E+03 0.  0.
        1    1    3    3  502    0 -0.16623645224E+03  0.21945734752E+02 -0.45660723576E+03  0.48642197843E+03  0.50400001928E-02 0. -1.
       -1    1    3    3    0  502  0.16623645224E+03 -0.21945734752E+02  0.37877068199E+03  0.41422627016E+03  0.50400001928E-02 0.  1.
</event>
<event>
 5   0  0.4236284E-04  0.8997608E+03  0.7818609E-02  0.9425880E-01
        2   -1    0    0  501    0  0.00000000000E+00  0.00000000000E+00  0.12847700539E+04  0.12847700539E+04  0.25500000920E-02 0. -1.
       -2   -1    0    0    0  501  0.00000000000E+00  0.00000000000E+00 -0.15753198099E+03  0.15753198101E+03  0.25500000920E-02 0.  1.
    10030    2    1    2    0    0  0.00000000000E+00  0.00000000000E+00  0.11272380729E+04  0.14423020349E+04  0.89976079425E+03 0.  0.
        2    1    3    3  502    0  0.46675255626E+02  0.30958055434E+03  0.45744409597E+02  0.31640361902E+03  0.25500000920E-02 0.  1.
       -2    1    3    3    0  502 -0.46675255626E+02 -0.30958055434E+03  0.10814936633E+04  0.11258984158E+04  0.25500000920E-02 0. -1.
</event>
<event>
 5   0  0.2308362E-04  0.8997369E+03  0.7818609E-02  0.9425910E-01
       -1   -1    0    0    0  501  0.00000000000E+00  0.00000000000E+00  0.13462263101E+03  0.13462263110E+03  0.50400001928E-02 0.  1.
        1   -1    0    0  501    0  0.00000000000E+00  0.00000000000E+00 -0.15033253972E+04  0.15033253972E+04  0.50400001928E-02 0. -1.
    10030    2    1    2    0    0  0.00000000000E+00  0.00000000000E+00 -0.13687027662E+04  0.16379480283E+04  0.89973689558E+03 0.  0.
        1    1    3    3  502    0 -0.37097394889E+03  0.13285898402E+03 -0.10794758733E+04  0.11491480938E+04  0.50400001928E-02 0. -1.
       -1    1    3    3    0  502  0.37097394889E+03 -0.13285898402E+03 -0.28922689288E+03  0.48879993451E+03  0.50400001928E-02 0.  1.
</event>
<event>
 5   0  0.2356918E-04  0.9001757E+03  0.7818609E-02  0.9425362E-01
       -1   -1    0    0    0  501  0.00000000000E+00  0.00000000000E+00  0.40075886768E+03  0.40075886771E+03  0.50400001928E-02 0.  1.
        1   -1    0    0  501    0  0.00000000000E+00  0.00000000000E+00 -0.50548868597E+03  0.50548868599E+03  0.50400001928E-02 0. -1.
    10030    2    1    2    0    0  0.00000000000E+00  0.00000000000E+00 -0.10472981829E+03  0.90624755371E+03  0.90017570160E+03 0.  0.
        5    1    3    3  502    0 -0.36002903519E+02  0.38943819939E+03  0.17184486812E+03  0.42721314224E+03  0.46999998093E+01 0.  1.
       -5    1    3    3    0  502  0.36002903519E+02 -0.38943819939E+03 -0.27657468641E+03  0.47903441146E+03  0.46999998093E+01 0. -1.
</event>
<event>
 5   0  0.4033144E-04  0.8999695E+03  0.7818609E-02  0.9425620E-01
       -2   -1    0    0    0  501  0.00000000000E+00  0.00000000000E+00  0.78459930749E+02  0.78459930790E+02  0.25500000920E-02 0. -1.
        2   -1    0    0  501    0  0.00000000000E+00  0.00000000000E+00 -0.25807603713E+04  0.25807603713E+04  0.25500000920E-02 0.  1.
    10030    2    1    2    0    0  0.00000000000E+00  0.00000000000E+00 -0.25023004406E+04  0.26592203021E+04  0.89996951075E+03 0.  0.
        4    1    3    3  502    0  0.10808999009E+03  0.37875973820E+03 -0.60823883778E+03  0.72463679311E+03  0.12699999809E+01 0. -1.
       -4    1    3    3    0  502 -0.10808999009E+03 -0.37875973820E+03 -0.18940616028E+04  0.19345835090E+04  0.12699999809E+01 0.  1.
</event>
<event>
 5   0  0.2308362E-04  0.9004146E+03  0.7818609E-02  0.9425063E-01
        1   -1    0    0  501    0  0.00000000000E+00  0.00000000000E+00  0.55839746555E+03  0.55839746557E+03  0.50400001928E-02 0.  1.
       -1   -1    0    0    0  501  0.00000000000E+00  0.00000000000E+00 -0.36297913945E+03  0.36297913949E+03  0.50400001928E-02 0. -1.
    10030    2    1    2    0    0  0.00000000000E+00  0.00000000000E+00  0.19541832610E+03  0.92137660506E+03  0.90041464125E+03 0.  0.
        1    1    3    3  502    0 -0.78702687864E+02 -0.14895960807E+03 -0.32950707673E+03  0.37007835867E+03  0.50400001928E-02 0. -1.
       -1    1    3    3    0  502  0.78702687864E+02  0.14895960807E+03  0.52492540283E+03  0.55129824639E+03  0.50400001928E-02 0.  1.
</event>
<event>
 5   0  0.2356918E-04  0.8997889E+03  0.7818609E-02  0.9425845E-01
        1   -1    0    0  501    0  0.00000000000E+00  0.00000000000E+00  0.52061140820E+03  0.52061140823E+03  0.50400001928E-02 0. -1.
       -1   -1    0    0    0  501  0.00000000000E+00  0.00000000000E+00 -0.38878326488E+03  0.38878326491E+03  0.50400001928E-02 0.  1.
    10030    2    1    2    0    0  0.00000000000E+00  0.00000000000E+00  0.13182814333E+03  0.90939467314E+03  0.89978887088E+03 0.  0.
        5    1    3    3  502    0  0.38917934748E+03  0.21289500093E+03 -0.97049125214E+01  0.44373541807E+03  0.46999998093E+01 0.  1.
       -5    1    3    3    0  502 -0.38917934748E+03 -0.21289500093E+03  0.14153305585E+03  0.46565925506E+03  0.46999998093E+01 0. -1.
</event>
<event>
 5   0  0.2308362E-04  0.8999548E+03  0.7818609E-02  0.9425638E-01
        1   -1    0    0  501    0  0.00000000000E+00  0.00000000000E+00  0.16534015285E+04  0.16534015285E+04  0.50400001928E-02 0. -1.
       -1   -1    0    0    0  501  0.00000000000E+00  0.00000000000E+00 -0.12246248826E+03  0.12246248836E+03  0.50400001928E-02 0.  1.
    10030    2    1    2    0    0  0.00000000000E+00  0.00000000000E+00  0.15309390403E+04  0.17758640169E+04  0.89995481080E+03 0.  0.
        1    1    3    3  502    0  0.29744729297E+03  0.32863793282E+02  0.14285764440E+04  0.14595840426E+04  0.50400001928E-02 0. -1.
       -1    1    3    3    0  502 -0.29744729297E+03 -0.32863793282E+02  0.10236259626E+03  0.31627997430E+03  0.50400001928E-02 0.  1.
</event>
<event>
 5   0  0.2332791E-04  0.8999023E+03  0.7818609E-02  0.9425704E-01
        1   -1    0    0  501    0  0.00000000000E+00  0.00000000000E+00  0.46426410321E+03  0.46426410324E+03  0.50400001928E-02 0.  1.
       -1   -1    0    0    0  501  0.00000000000E+00  0.00000000000E+00 -0.43607941958E+03  0.43607941961E+03  0.50400001928E-02 0. -1.
    10030    2    1    2    0    0  0.00000000000E+00  0.00000000000E+00  0.28184683631E+02  0.90034352284E+03  0.89990226288E+03 0.  0.
        2    1    3    3  502    0  0.19418755104E+03 -0.18620971632E+03  0.37492575104E+03  0.46146742272E+03  0.25500000920E-02 0.  1.
       -2    1    3    3    0  502 -0.19418755104E+03  0.18620971632E+03 -0.34674106741E+03  0.43887610013E+03  0.25500000920E-02 0. -1.
</event>
<event>
 5   0  0.2332791E-04  0.9010863E+03  0.7818609E-02  0.9424224E-01
        1   -1    0    0  501    0  0.00000000000E+00  0.00000000000E+00  0.35447509879E+03  0.35447509883E+03  0.50400001928E-02 0.  1.
       -1   -1    0    0    0  501  0.00000000000E+00  0.00000000000E+00 -0.57264711685E+03  0.57264711688E+03  0.50400001928E-02 0. -1.
    10030    2    1    2    0    0  0.00000000000E+00  0.00000000000E+00 -0.21817201806E+03  0.92712221570E+03  0.90108632960E+03 0.  0.
        2    1    3    3  502    0 -0.36466091891E+03 -0.11207963547E+03 -0.35569818658E+03  0.52159431593E+03  0.25500000920E-02 0. -1.
       -2    1    3    3    0  502  0.36466091891E+03  0.11207963547E+03  0.13752616851E+03  0.40552789978E+03  0.25500000920E-02 0.  1.
</event>
<event>
 5   0  0.2356918E-04  0.8998773E+03  0.7818609E-02  0.9425735E-01
        1   -1    0    0  501    0  0.00000000000E+00  0.00000000000E+00  0.26321965868E+03  0.26321965873E+03  0.50400001928E-02 0.  1.
       -1   -1    0    0    0  501  0.00000000000E+00  0.00000000000E+00 -0.76910964609E+03  0.76910964610E+03  0.50400001928E-02 0. -1.
    10030    2    1    2    0    0  0.00000000000E+00  0.00000000000E+00 -0.50588998741E+03  0.10323293048E+04  0.89987727733E+03 0.  0.
        5    1    3    3  502    0 -0.13505492200E+03  0.23415517887E+03 -0.66554122069E+03  0.71835623905E+03  0.46999998093E+01 0. -1.
       -5    1    3    3    0  502  0.13505492200E+03 -0.23415517887E+03  0.15965123328E+03  0.31397306578E+03  0.46999998093E+01 0.  1.
</event>
<event>
 5   0  0.4243516E-04  0.9008856E+03  0.7818609E-02  0.9424475E-01
       -2   -1    0    0    0  501  0.00000000000E+00  0.00000000000E+00  0.27191024892E+03  0.27191024894E+03  0.25500000920E-02 0. -1.
        2   -1    0    0  501    0  0.00000000000E+00  0.00000000000E+00 -0.74619743872E+03  0.74619743873E+03  0.25500000920E-02 0.  1.
    10030    2    1    2    0    0  0.00000000000E+00  0.00000000000E+00 -0.47428718980E+03  0.10181076877E+04  0.90088563385E+03 0.  0.
        1    1    3    3  502    0 -0.48402456286E+01 -0.45031319496E+03 -0.22622582007E+03  0.50396777994E+03  0.50400001928E-02 0.  1.
       -1    1    3    3    0  502  0.48402456286E+01  0.45031319496E+03 -0.24806136973E+03  0.51413990772E+03  0.50400001928E-02 0. -1.
</event>
<event>
 5   0  0.2332791E-04  0.9002181E+03  0.7818609E-02  0.9425309E-01
       -1   -1    0    0    0  501  0.00000000000E+00  0.00000000000E+00  0.27591985607E+03  0.27591985611E+03  0.50400001928E-02 0.  1.
        1   -1    0    0  501    0  0.00000000000E+00  0.00000000000E+00 -0.73426445711E+03  0.73426445713E+03  0.50400001928E-02 0. -1.
    10030    2    1    2    0    0  0.00000000000E+00  0.00000000000E+00 -0.45834460104E+03  0.10101843132E+04  0.90021806992E+03 0.  0.
        2    1    3    3  502    0  0.37881892459E+03 -0.24290411713E+03 -0.21841156418E+03  0.50020975512E+03  0.25500000920E-02 0. -1.
       -2    1    3    3    0  502 -0.37881892459E+03  0.24290411713E+03 -0.23993303686E+03  0.50997455812E+03  0.25500000920E-02 0.  1.
</event>
<event>
 5   0  0.4110039E-04  0.8997054E+03  0.7818609E-02  0.9425950E-01
       -2   -1    0    0    0  501  0.00000000000E+00  0.00000000000E+00  0.42940283223E+03  0.42940283223E+03  0.25500000920E-02 0. -1.
        2   -1    0    0  501    0  0.00000000000E+00  0.00000000000E+00 -0.47127642106E+03  0.47127642107E+03  0.25500000920E-02 0.  1.
    10030    2    1    2    0    0  0.00000000000E+00  0.00000000000E+00 -0.41873588834E+02  0.90067925330E+03  0.89970535170E+03 0.  0.
        3    1    3    3  502    0 -0.38743247028E+03  0.42806256454E+02  0.20387504763E+03  0.43988787193E+03  0.10100000352E+00 0. -1.
       -3    1    3    3    0  502  0.38743247028E+03 -0.42806256454E+02 -0.24574863647E+03  0.46079138137E+03  0.10100000352E+00 0.  1.
</event>
<event>
 5   0  0.2351435E-04  0.8999303E+03  0.7818609E-02  0.9425669E-01
        1   -1    0    0  501    0  0.00000000000E+00  0.00000000000E+00  0.47259292049E+03  0.47259292051E+03  0.50400001928E-02 0.  1.
       -1   -1    0    0    0  501  0.00000000000E+00  0.00000000000E+00 -0.42842082595E+03  0.42842082598E+03  0.50400001928E-02 0. -1.
    10030    2    1    2    0    0  0.00000000000E+00  0.00000000000E+00  0.44172094536E+02  0.90101374649E+03  0.89993032921E+03 0.  0.
        4    1    3    3  502    0 -0.34621884142E+03  0.27384569386E+03  0.10941540023E+03  0.45478818466E+03  0.12699999809E+01 0. -1.
       -4    1    3    3    0  502  0.34621884142E+03 -0.27384569386E+03 -0.65243305698E+02  0.44622556184E+03  0.12699999809E+01 0.  1.
</event>
<event>
 5   0  0.4243516E-04  0.9000656E+03  0.7818609E-02  0.9425499E-01
        2   -1    0    0  501    0  0.00000000000E+00  0.00000000000E+00  0.10101216726E+04  0.10101216726E+04  0.25500000920E-02 0. -1.
       -2   -1    0    0    0  501  0.00000000000E+00  0.00000000000E+00 -0.20050010251E+03  0.20050010252E+03  0.25500000920E-02 0.  1.
    10030    2    1    2    0    0  0.00000000000E+00  0.00000000000E+00  0.80962157005E+03  0.12106217751E+04  0.90006555074E+03 0.  0.
        1    1    3    3  502    0 -0.25278880037E+03 -0.34804873943E+02  0.90341150483E+03  0.93875763855E+03  0.50400001928E-02 0. -1.
       -1    1    3    3    0  502  0.25278880037E+03  0.34804873943E+02 -0.93789934781E+02  0.27186413654E+03  0.50400001928E-02 0.  1.
</event>
<event>
 5   0  0.2308362E-04  0.8992437E+03  0.7818609E-02  0.9426527E-01
        1   -1    0    0  501    0  0.00000000000E+00  0.00000000000E+00  0.79258651691E+03  0.79258651692E+03  0.50400001928E-02 0. -1.
       -1   -1    0    0    0  501  0.00000000000E+00  0.00000000000E+00 -0.25506341917E+03  0.25506341922E+03  0.50400001928E-02 0.  1.
    10030    2    1    2    0    0  0.00000000000E+00  0.00000000000E+00  0.53752309774E+03  0.10476499361E+04  0.89924374231E+03 0.  0.
        1    1    3    3  502    0  0.36335847092E+02  0.11228701573E+03 -0.23669581153E+03  0.26448738138E+03  0.50400001928E-02 0.  1.
       -1    1    3    3    0  502 -0.36335847092E+02 -0.11228701573E+03  0.77421890927E+03  0.78316255476E+03  0.50400001928E-02 0. -1.
</event>
<event>
 5   0  0.4033144E-04  0.9003132E+03  0.7818609E-02  0.9425190E-01
       -2   -1    0    0    0  501  0.00000000000E+00  0.00000000000E+00  0.40716872336E+03  0.40716872337E+03  0.25500000920E-02 0.  1.
        2   -1    0    0  501    0  0.00000000000E+00  0.00000000000E+00 -0.49768297989E+03  0.49768297989E+03  0.25500000920E-02 0. -1.
    10030    2    1    2    0    0  0.00000000000E+00  0.00000000000E+00 -0.90514256525E+02  0.90485170326E+03  0.90031315344E+03 0.  0.
        4    1    3    3  502    0  0.88663133513E+02  0.92343588915E+02  0.38848632650E+03  0.40903756360E+03  0.12699999809E+01 0.  1.
       -4    1    3    3    0  502 -0.88663133513E+02 -0.92343588915E+02 -0.47900058302E+03  0.49581413967E+03  0.12699999809E+01 0. -1.
</event>
<event>
 5   0  0.1596250E-04  0.8996474E+03  0.7818609E-02  0.9426022E-01
       -3   -1    0    0    0  501  0.00000000000E+00  0.00000000000E+00  0.30129442178E+03  0.30129443871E+03  0.10100000352E+00 0.  1.
        3   -1    0    0  501    0  0.00000000000E+00  0.00000000000E+00 -0.67157343782E+03  0.67157344542E+03  0.10100000352E+00 0. -1.
    10030    2    1    2    0    0  0.00000000000E+00  0.00000000000E+00 -0.37027901605E+03  0.97286788412E+03  0.89964735882E+03 0.  0.
        4    1    3    3  502    0 -0.51253916375E+02  0.84208523125E+01  0.29803871894E+03  0.30253357761E+03  0.12699999809E+01 0.  1.
       -4    1    3    3    0  502  0.51253916375E+02 -0.84208523125E+01 -0.66831773498E+03  0.67033430651E+03  0.12699999809E+01 0. -1.
</event>
<event>
 5   0  0.4033144E-04  0.8997946E+03  0.7818609E-02  0.9425838E-01
        2   -1    0    0  501    0  0.00000000000E+00  0.00000000000E+00  0.81198870096E+03  0.81198870096E+03  0.25500000920E-02 0. -1.
       -2   -1    0    0    0  501  0.00000000000E+00  0.00000000000E+00 -0.24927387083E+03  0.24927387084E+03  0.25500000920E-02 0.  1.
    10030    2    1    2    0    0  0.00000000000E+00  0.00000000000E+00  0.56271483013E+03  0.10612625718E+04  0.89979456892E+03 0.  0.
        4    1    3    3  502    0  0.16114028460E+03 -0.34206019732E+03 -0.61831310448E+01  0.37816823495E+03  0.12699999809E+01 0.  1.
       -4    1    3    3    0  502 -0.16114028460E+03  0.34206019732E+03  0.56889796117E+03  0.68309433685E+03  0.12699999809E+01 0. -1.
</event>
<event>
 5   0  0.3959804E-04  0.8998316E+03  0.7818609E-02  0.9425792E-01
        2   -1    0    0  501    0  0.00000000000E+00  0.00000000000E+00  0.56391000292E+03  0.56391000292E+03  0.25500000920E-02 0.  1.
       -2   -1    0    0    0  501  0.00000000000E+00  0.00000000000E+00 -0.35896546006E+03  0.35896546007E+03  0.25500000920E-02 0. -1.
    10030    2    1    2    0    0  0.00000000000E+00  0.00000000000E+00  0.20494454286E+03  0.92287546300E+03  0.89983157010E+03 0.  0.
        5    1    3    3  502    0  0.42330887518E+03 -0.15054653374E+03  0.78475187351E+02  0.45610865772E+03  0.46999998093E+01 0. -1.
       -5    1    3    3    0  502 -0.42330887518E+03  0.15054653374E+03  0.12646935551E+03  0.46676680527E+03  0.46999998093E+01 0.  1.
</event>
<event>
 5   0  0.4236284E-04  0.8997115E+03  0.7818609E-02  0.9425942E-01
        2   -1    0    0  501    0  0.00000000000E+00  0.00000000000E+00  0.13145664297E+04  0.13145664297E+04  0.25500000920E-02 0. -1.
       -2   -1    0    0    0  501  0.00000000000E+00  0.00000000000E+00 -0.15394445707E+03  0.15394445709E+03  0.25500000920E-02 0.  1.
    10030    2    1    2    0    0  0.00000000000E+00  0.00000000000E+00  0.11606219727E+04  0.14685108868E+04  0.89971154340E+03 0.  0.
        2    1    3    3  502    0 -0.38646023645E+03 -0.23193305868E+02  0.95422692980E+03  0.10297759355E+04  0.25500000920E-02 0. -1.
       -2    1    3    3    0  502  0.38646023645E+03  0.23193305868E+02  0.20639504288E+03  0.43873495134E+03  0.25500000920E-02 0.  1.
</event>
<event>
 5   0  0.4110039E-04  0.8989021E+03  0.7818609E-02  0.9426955E-01
        2   -1    0    0  501    0  0.00000000000E+00  0.00000000000E+00  0.79949128876E+03  0.79949128876E+03  0.25500000920E-02 0.  1.
       -2   -1    0    0    0  501  0.00000000000E+00  0.00000000000E+00 -0.25266848882E+03  0.25266848883E+03  0.25500000920E-02 0. -1.
    10030    2    1    2    0    0  0.00000000000E+00  0.00000000000E+00  0.54682279994E+03  0.10521597776E+04  0.89890212095E+03 0.  0.
        3    1    3    3  502    0  0.38255900365E+03  0.11992324290E+03  0.51120695373E+03  0.64966571035E+03  0.10100000352E+00 0.  1.
       -3    1    3    3    0  502 -0.38255900365E+03 -0.11992324290E+03  0.35615846207E+02  0.40249406724E+03  0.10100000352E+00 0. -1.
</event>
<event>
 5   0  0.4110039E-04  0.9004390E+03  0.7818609E-02  0.9425033E-01
        2   -1    0    0  501    0  0.00000000000E+00  0.00000000000E+00  0.31615670310E+03  0.31615670311E+03  0.25500000920E-02 0. -1.
       -2   -1    0    0    0  501  0.00000000000E+00  0.00000000000E+00 -0.64113011463E+03  0.64113011463E+03  0.25500000920E-02 0.  1.
    10030    2    1    2    0    0  0.00000000000E+00  0.00000000000E+00 -0.32497341152E+03  0.95728681774E+03  0.90043896697E+03 0.  0.
        3    1    3    3  502    0  0.57786752656E+02  0.26923016087E+03 -0.54116730934E+03  0.60719540117E+03  0.10100000352E+00 0.  1.
       -3    1    3    3    0  502 -0.57786752656E+02 -0.26923016087E+03  0.21619389782E+03  0.35009141657E+03  0.10100000352E+00 0. -1.
</event>
<event>
 5   0  0.4236284E-04  0.9001889E+03  0.7818609E-02  0.9425345E-01
        2   -1    0    0  501    0  0.00000000000E+00  0.00000000000E+00  0.13572837801E+04  0.13572837801E+04  0.25500000920E-02 0. -1.
       -2   -1    0    0    0  501  0.00000000000E+00  0.00000000000E+00 -0.14925768148E+03  0.14925768151E+03  0.25500000920E-02 0.  1.
    10030    2    1    2    0    0  0.00000000000E+00  0.00000000000E+00  0.12080260986E+04  0.15065414616E+04  0.90018893606E+03 0.  0.
        2    1    3    3  502    0 -0.14525839599E+03  0.42569818841E+03  0.57671357488E+03  0.73138054163E+03  0.25500000920E-02 0.  1.
       -2    1    3    3    0  502  0.14525839599E+03 -0.42569818841E+03  0.63131252373E+03  0.77516091996E+03  0.25500000920E-02 0. -1.
</event>
<event>
 5   0  0.1596250E-04  0.8994158E+03  0.7818609E-02  0.9426312E-01
        3   -1    0    0  501    0  0.00000000000E+00  0.00000000000E+00  0.37215999760E+03  0.37216001131E+03  0.10100000352E+00 0.  1.
       -3   -1    0    0    0  501  0.00000000000E+00  0.00000000000E+00 -0.54341458342E+03  0.54341459281E+03  0.10100000352E+00 0. -1.
    10030    2    1    2    0    0  0.00000000000E+00  0.00000000000E+00 -0.17125458582E+03  0.91557460412E+03  0.89941576734E+03 0.  0.
        2    1    3    3  502    0  0.16215688649E+03  0.31009729897E+03  0.20190436822E+03  0.40400564919E+03  0.25500000920E-02 0.  1.
       -2    1    3    3    0  502 -0.16215688649E+03 -0.31009729897E+03 -0.37315895404E+03  0.51156895493E+03  0.25500000920E-02 0. -1.
</event>
<event>
 5   0  0.1596250E-04  0.9014118E+03  0.7818609E-02  0.9423818E-01
        4   -1    0    0  501    0  0.00000000000E+00  0.00000000000E+00  0.41814300437E+03  0.41814493301E+03  0.12699999809E+01 0. -1.
       -4   -1    0    0    0  501  0.00000000000E+00  0.00000000000E+00 -0.48580071330E+03  0.48580237334E+03  0.12699999809E+01 0.  1.
    10030    2    1    2    0    0  0.00000000000E+00  0.00000000000E+00 -0.67657708930E+02  0.90394730635E+03  0.90141176334E+03 0.  0.
        4    1    3    3  502    0 -0.34609067595E+03  0.53251847374E+02  0.25072919135E+03  0.43067534817E+03  0.12699999809E+01 0. -1.
       -4    1    3    3    0  502  0.34609067595E+03 -0.53251847374E+02 -0.31838690028E+03  0.47327195818E+03  0.12699999809E+01 0.  1.
</event>
<event>
 5   0  0.4110039E-04  0.9003536E+03  0.7818609E-02  0.9425140E-01
        2   -1    0    0  501    0  0.00000000000E+00  0.00000000000E+00  0.11805367057E+04  0.11805367057E+04  0.25500000920E-02 0.  1.
       -2   -1    0    0    0  501  0.00000000000E+00  0.00000000000E+00 -0.17166696190E+03  0.17166696192E+03  0.25500000920E-02 0. -1.
    10030    2    1    2    0    0  0.00000000000E+00  0.00000000000E+00  0.10088697438E+04  0.13522036676E+04  0.90035359653E+03 0.  0.
        3    1    3    3  502    0  0.77868258332E+02 -0.18690642948E+02 -0.16088390706E+03  0.17971212408E+03  0.10100000352E+00 0. -1.
       -3    1    3    3    0  502 -0.77868258332E+02  0.18690642948E+02  0.11697536508E+04  0.11724915435E+04  0.10100000352E+00 0.  1.
</event>
<event>
 5   0  0.2351435E-04  0.9012041E+03  0.7818609E-02  0.9424078E-01
        1   -1    0    0  501    0  0.00000000000E+00  0.00000000000E+00  0.47255689954E+03  0.47255689956E+03  0.50400001928E-02 0. -1.
       -1   -1    0    0    0  501  0.00000000000E+00  0.00000000000E+00 -0.42966717458E+03  0.42966717461E+03  0.50400001928E-02 0.  1.
    10030    2    1    2    0    0  0.00000000000E+00  0.00000000000E+00  0.42889724955E+02  0.90222407417E+03  0.90120405653E+03 0.  0.
        4    1    3    3  502    0  0.14363044322E+03  0.41043069164E+03 -0.96830795681E+02  0.44548947547E+03  0.12699999809E+01 0. -1.
       -4    1    3    3    0  502 -0.14363044322E+03 -0.41043069164E+03  0.13972052064E+03  0.45673459870E+03  0.12699999809E+01 0.  1.
</event>
<event>
 5   0  0.4243516E-04  0.9005004E+03  0.7818609E-02  0.9424956E-01
        2   -1    0    0  501    0  0.00000000000E+00  0.00000000000E+00  0.14067522082E+04  0.14067522082E+04  0.25500000920E-02 0. -1.
       -2   -1    0    0    0  501  0.00000000000E+00  0.00000000000E+00 -0.14410872239E+03  0.14410872241E+03  0.25500000920E-02 0.  1.
    10030    2    1    2    0    0  0.00000000000E+00  0.00000000000E+00  0.12626434858E+04  0.15508609306E+04  0.90050044635E+03 0.  0.
        1    1    3    3  502    0  0.84819243842E+02  0.37923104347E+03  0.23967344575E+03  0.45656746388E+03  0.50400001928E-02 0.  1.
       -1    1    3    3    0  502 -0.84819243842E+02 -0.37923104347E+03  0.10229700401E+04  0.10942934668E+04  0.50400001928E-02 0. -1.
</event>
<event>
 5   0  0.4236284E-04  0.8993407E+03  0.7818609E-02  0.9426406E-01
        2   -1    0    0  501    0  0.00000000000E+00  0.00000000000E+00  0.16461971987E+03  0.16461971989E+03  0.25500000920E-02 0. -1.
       -2   -1    0    0    0  501  0.00000000000E+00  0.00000000000E+00 -0.12283061154E+04  0.12283061154E+04  0.25500000920E-02 0.  1.
    10030    2    1    2    0    0  0.00000000000E+00  0.00000000000E+00 -0.10636863956E+04  0.13929258353E+04  0.89934066660E+03 0.  0.
        2    1    3    3  502    0 -0.32646840274E+03  0.21565606999E+03 -0.87509080662E+03  0.95857867614E+03  0.25500000920E-02 0.  1.
       -2    1    3    3    0  502  0.32646840274E+03 -0.21565606999E+03 -0.18859558894E+03  0.43434715918E+03  0.25500000920E-02 0. -1.
</event>
<event>
 5   0  0.2332791E-04  0.8998898E+03  0.7818609E-02  0.9425719E-01
        1   -1    0    0  501    0  0.00000000000E+00  0.00000000000E+00  0.11460215325E+04  0.11460215325E+04  0.50400001928E-02 0. -1.
       -1   -1    0    0    0  501  0.00000000000E+00  0.00000000000E+00 -0.17665499439E+03  0.17665499446E+03  0.50400001928E-02 0.  1.
    10030    2    1    2    0    0  0.00000000000E+00  0.00000000000E+00  0.96936653813E+03  0.13226765270E+04  0.89988983204E+03 0.  0.
        2    1    3    3  502    0 -0.23723815496E+03 -0.13027865463E+03 -0.43626649184E+02  0.27414914654E+03  0.25500000920E-02 0.  1.
       -2    1    3    3    0  502  0.23723815496E+03  0.13027865463E+03  0.10129931873E+04  0.10485273805E+04  0.25500000920E-02 0. -1.
</event>
<event>
 5   0  0.3959804E-04  0.8984021E+03  0.7818609E-02  0.9427581E-01
       -2   -1    0    0    0  501  0.00000000000E+00  0.00000000000E+00  0.12863665396E+03  0.12863665398E+03  0.25500000920E-02 0. -1.
        2   -1    0    0  501    0  0.00000000000E+00  0.00000000000E+00 -0.15686165157E+04  0.15686165157E+04  0.25500000920E-02 0.  1.
    10030    2    1    2    0    0  0.00000000000E+00  0.00000000000E+00 -0.14399798618E+04  0.16972531697E+04  0.89840209248E+03 0.  0.
        5    1    3    3  502    0  0.85437567675E+02 -0.36982933529E+03 -0.11737348178E+04  0.12335918400E+04  0.46999998093E+01 0.  1.
       -5    1    3    3    0  502 -0.85437567675E+02  0.36982933529E+03 -0.26624504393E+03  0.46366132967E+03  0.46999998093E+01 0. -1.
</event>
<event>
 5   0  0.2450427E-04  0.8994866E+03  0.7818609E-02  0.9426223E-01
       -1   -1    0    0    0  501  0.00000000000E+00  0.00000000000E+00  0.35772865518E+03  0.35772865522E+03  0.50400001928E-02 0. -1.
        1   -1    0    0  501    0  0.00000000000E+00  0.00000000000E+00 -0.56542589147E+03  0.56542589149E+03  0.50400001928E-02 0.  1.
    10030    2    1    2    0    0  0.00000000000E+00  0.00000000000E+00 -0.20769723629E+03  0.92315454671E+03  0.89948661755E+03 0.  0.
        3    1    3    3  502    0 -0.39993385651E+03  0.25995168538E+02  0.10559511584E+03  0.41445527752E+03  0.10100000352E+00 0. -1.
       -3    1    3    3    0  502  0.39993385651E+03 -0.25995168538E+02 -0.31329235212E+03  0.50869926919E+03  0.10100000352E+00 0.  1.
</event>
<event>
 5   0  0.2450427E-04  0.9012537E+03  0.7818609E-02  0.9424016E-01
       -1   -1    0    0    0  501  0.00000000000E+00  0.00000000000E+00  0.13673644503E+03  0.13673644512E+03  0.50400001928E-02 0. -1.
        1   -1    0    0  501    0  0.00000000000E+00  0.00000000000E+00 -0.14850800814E+04  0.14850800814E+04  0.50400001928E-02 0.  1.
    10030    2    1    2    0    0  0.00000000000E+00  0.00000000000E+00 -0.13483436364E+04  0.16218165265E+04  0.90125372897E+03 0.  0.
        3    1    3    3  502    0 -0.17826478313E+03  0.22546046043E+03 -0.49625121989E+02  0.29167347335E+03  0.10100000352E+00 0. -1.
       -3    1    3    3    0  502  0.17826478313E+03 -0.22546046043E+03 -0.12987185144E+04  0.13301430532E+04  0.10100000352E+00 0.  1.
</event>
<event>
 5   0  0.2351435E-04  0.8999961E+03  0.7818609E-02  0.9425586E-01
        1   -1    0    0  501    0  0.00000000000E+00  0.00000000000E+00  0.67827460758E+03  0.67827460760E+03  0.50400001928E-02 0.  1.
       -1   -1    0    0    0  501  0.00000000000E+00  0.00000000000E+00 -0.29854908196E+03  0.29854908200E+03  0.50400001928E-02 0. -1.
    10030    2    1    2    0    0  0.00000000000E+00  0.00000000000E+00  0.37972552563E+03  0.97682368960E+03  0.89999613652E+03 0.  0.
        4    1    3    3  502    0 -0.17610446784E+03  0.36026838259E+03  0.41147533241E+03  0.57456039993E+03  0.12699999809E+01 0.  1.
       -4    1    3    3    0  502  0.17610446784E+03 -0.36026838259E+03 -0.31749806780E+02  0.40226328967E+03  0.12699999809E+01 0. -1.
</event>
<event>
 5   0  0.4033144E-04  0.8998177E+03  0.7818609E-02  0.9425809E-01
        2   -1    0    0  501    0  0.00000000000E+00  0.00000000000E+00  0.12627423490E+04  0.12627423490E+04  0.25500000920E-02 0.  1.
       -2   -1    0    0    0  501  0.00000000000E+00  0.00000000000E+00 -0.16030029386E+03  0.16030029388E+03  0.25500000920E-02 0. -1.
    10030    2    1    2    0    0  0.00000000000E+00  0.00000000000E+00  0.11024420552E+04  0.14230426429E+04  0.89981769183E+03 0.  0.
        4    1    3    3  502    0 -0.28062086377E+03 -0.33955272528E+03  0.69592620618E+03  0.82362553371E+03  0.12699999809E+01 0.  1.
       -4    1    3    3    0  502  0.28062086377E+03  0.33955272528E+03  0.40651584898E+03  0.59941710920E+03  0.12699999809E+01 0. -1.
</event>
<event>
 5   0  0.4236284E-04  0.8995780E+03  0.7818609E-02  0.9426109E-01
        2   -1    0    0  501    0  0.00000000000E+00  0.00000000000E+00  0.55220970611E+03  0.55220970612E+03  0.25500000920E-02 0. -1.
       -2   -1    0    0    0  501  0.00000000000E+00  0.00000000000E+00 -0.36636468159E+03  0.36636468160E+03  0.25500000920E-02 0.  1.
    10030    2    1    2    0    0  0.00000000000E+00  0.00000000000E+00  0.18584502452E+03  0.91857438772E+03  0.89957797474E+03 0.  0.
        2    1    3    3  502    0 -0.17185817613E+03  0.39516660521E+03 -0.38711531281E+02  0.43265512968E+03  0.25500000920E-02 0.  1.
       -2    1    3    3    0  502  0.17185817613E+03 -0.39516660521E+03  0.22455655580E+03  0.48591925804E+03  0.25500000920E-02 0. -1.
</event>
<event>
 5   0  0.4033144E-04  0.9004018E+03  0.7818609E-02  0.9425079E-01
       -2   -1    0    0    0  501  0.00000000000E+00  0.00000000000E+00  0.38491523890E+03  0.38491523891E+03  0.25500000920E-02 0.  1.
        2   -1    0    0  501    0  0.00000000000E+00  0.00000000000E+00 -0.52655967071E+03  0.52655967072E+03  0.25500000920E-02 0. -1.
    10030    2    1    2    0    0  0.00000000000E+00  0.00000000000E+00 -0.14164443181E+03  0.91147490963E+03  0.90040178021E+03 0.  0.
        4    1    3    3  502    0 -0.10020224940E+03  0.18182267781E+03 -0.47520865680E+03  0.51857965381E+03  0.12699999809E+01 0. -1.
       -4    1    3    3    0  502  0.10020224940E+03 -0.18182267781E+03  0.33356422499E+03  0.39289525581E+03  0.12699999809E+01 0.  1.
</event>
<event>
 5   0  0.4243516E-04  0.8999955E+03  0.7818609E-02  0.9425587E-01
        2   -1    0    0  501    0  0.00000000000E+00  0.00000000000E+00  0.75445939825E+03  0.75445939825E+03  0.25500000920E-02 0. -1.
       -2   -1    0    0    0  501  0.00000000000E+00  0.00000000000E+00 -0.26840141474E+03  0.26840141475E+03  0.25500000920E-02 0.  1.
    10030    2    1    2    0    0  0.00000000000E+00  0.00000000000E+00  0.48605798351E+03  0.10228608130E+04  0.89999548857E+03 0.  0.
        1    1    3    3  502    0  0.39152165422E+03  0.22108422494E+03  0.22236656211E+03  0.50161173053E+03  0.50400001928E-02 0. -1.
       -1    1    3    3    0  502 -0.39152165422E+03 -0.22108422494E+03  0.26369142140E+03  0.52124908247E+03  0.50400001928E-02 0.  1.
</event>
<event>
 5   0  0.4110039E-04  0.9004438E+03  0.7818609E-02  0.9425027E-01
       -2   -1    0    0    0  501  0.00000000000E+00  0.00000000000E+00  0.36405241143E+03  0.36405241144E+03  0.25500000920E-02 0.  1.
        2   -1    0    0  501    0  0.00000000000E+00  0.00000000000E+00 -0.55678727763E+03  0.55678727764E+03  0.25500000920E-02 0. -1.
    10030    2    1    2    0    0  0.00000000000E+00  0.00000000000E+00 -0.19273486620E+03  0.92083968908E+03  0.90044378188E+03 0.  0.
        3    1    3    3  502    0 -0.37291931446E+03  0.23176168193E+03 -0.19820954689E+03  0.48173574394E+03  0.10100000352E+00 0. -1.
       -3    1    3    3    0  502  0.37291931446E+03 -0.23176168193E+03  0.54746806876E+01  0.43910394514E+03  0.10100000352E+00 0.  1.
</event>
<event>
 5   0  0.2308362E-04  0.9005943E+03  0.7818609E-02  0.9424839E-01
        1   -1    0    0  501    0  0.00000000000E+00  0.00000000000E+00  0.28391457009E+03  0.28391457014E+03  0.50400001928E-02 0.  1.
       -1   -1    0    0    0  501  0.00000000000E+00  0.00000000000E+00 -0.71418495332E+03  0.71418495333E+03  0.50400001928E-02 0. -1.
    10030    2    1    2    0    0  0.00000000000E+00  0.00000000000E+00 -0.43027038322E+03  0.99809952347E+03  0.90059427939E+03 0.  0.
        1    1    3    3  502    0 -0.23587666722E+03  0.12460214124E+03  0.18691404250E+03  0.32573049450E+03  0.50400001928E-02 0.  1.
       -1    1    3    3    0  502  0.23587666722E+03 -0.12460214124E+03 -0.61718442572E+03  0.67236902897E+03  0.50400001928E-02 0. -1.
</event>
<event>
 5   0  0.4236284E-04  0.8984055E+03  0.7818609E-02  0.9427577E-01
        2   -1    0    0  501    0  0.00000000000E+00  0.00000000000E+00  0.12011537990E+03  0.12011537993E+03  0.25500000920E-02 0. -1.
       -2   -1    0    0    0  501  0.00000000000E+00  0.00000000000E+00 -0.16799106042E+04  0.16799106042E+04  0.25500000920E-02 0.  1.
    10030    2    1    2    0    0  0.00000000000E+00  0.00000000000E+00 -0.15597952243E+04  0.18000259842E+04  0.89840547741E+03 0.  0.
        2    1    3    3  502    0 -0.34253788719E+03  0.27767551495E+03 -0.95163602821E+03  0.10488312667E+04  0.25500000920E-02 0. -1.
       -2    1    3    3    0  502  0.34253788719E+03 -0.27767551495E+03 -0.60815919612E+03  0.75119471750E+03  0.25500000920E-02 0.  1.
</event>
<event>
 5   0  0.2332791E-04  0.8997198E+03  0.7818609E-02  0.9425932E-01
        1   -1    0    0  501    0  0.00000000000E+00  0.00000000000E+00  0.65818235904E+03  0.65818235906E+03  0.50400001928E-02 0.  1.
       -1   -1    0    0    0  501  0.00000000000E+00  0.00000000000E+00 -0.30747393743E+03  0.30747393748E+03  0.50400001928E-02 0. -1.
    10030    2    1    2    0    0  0.00000000000E+00  0.00000000000E+00  0.35070842160E+03  0.96565629653E+03  0.89971978196E+03 0.  0.
        2    1    3    3  502    0 -0.12388295520E+03 -0.22025132330E+03  0.57480725204E+03  0.62790206960E+03  0.25500000920E-02 0.  1.
       -2    1    3    3    0  502  0.12388295520E+03  0.22025132330E+03 -0.22409883043E+03  0.33775422693E+03  0.25500000920E-02 0. -1.
</event>
<event>
 5   0  0.4033144E-04  0.8999670E+03  0.7818609E-02  0.9425623E-01
        2   -1    0    0  501    0  0.00000000000E+00  0.00000000000E+00  0.64318122431E+03  0.64318122431E+03  0.25500000920E-02 0.  1.
       -2   -1    0    0    0  501  0.00000000000E+00  0.00000000000E+00 -0.31481821603E+03  0.31481821604E+03  0.25500000920E-02 0. -1.
    10030    2    1    2    0    0  0.00000000000E+00  0.00000000000E+00  0.32836300828E+03  0.95799944035E+03  0.89996703412E+03 0.  0.
        4    1    3    3  502    0 -0.70951588711E+02 -0.59861746767E+02  0.63287559090E+03  0.63964887487E+03  0.12699999809E+01 0.  1.
       -4    1    3    3    0  502  0.70951588711E+02  0.59861746767E+02 -0.30451258262E+03  0.31835056548E+03  0.12699999809E+01 0. -1.
</event>
<event>
 5   0  0.4033144E-04  0.8992645E+03  0.7818609E-02  0.9426501E-01
        2   -1    0    0  501    0  0.00000000000E+00  0.00000000000E+00  0.62295362427E+03  0.62295362427E+03  0.25500000920E-02 0. -1.
       -2   -1    0    0    0  501  0.00000000000E+00  0.00000000000E+00 -0.32453323615E+03  0.32453323616E+03  0.25500000920E-02 0.  1.
    10030    2    1    2    0    0  0.00000000000E+00  0.00000000000E+00  0.29842038812E+03  0.94748686043E+03  0.89926448982E+03 0.  0.
        4    1    3    3  502    0 -0.41720045168E+03 -0.24100499171E+02 -0.25610458329E+02  0.41868193109E+03  0.12699999809E+01 0.  1.
       -4    1    3    3    0  502  0.41720045168E+03  0.24100499171E+02  0.32403084644E+03  0.52880492934E+03  0.12699999809E+01 0. -1.
</event>
<event>
 5   0  0.2351435E-04  0.8996850E+03  0.7818609E-02  0.9425975E-01
       -1   -1    0    0    0  501  0.00000000000E+00  0.00000000000E+00  0.13752694920E+04  0.13752694920E+04  0.50400001928E-02 0.  1.
        1   -1    0    0  501    0  0.00000000000E+00  0.00000000000E+00 -0.14714080331E+03  0.14714080340E+03  0.50400001928E-02 0. -1.
    10030    2    1    2    0    0  0.00000000000E+00  0.00000000000E+00  0.12281286887E+04  0.15224102954E+04  0.89968496240E+03 0.  0.
        4    1    3    3  502    0  0.28793252017E+03  0.98230772661E+02  0.11747853413E+04  0.12135388877E+04  0.12699999809E+01 0.  1.
       -4    1    3    3    0  502 -0.28793252017E+03 -0.98230772661E+02  0.53343347317E+02  0.30887140766E+03  0.12699999809E+01 0. -1.
</event>
<event>
 5   0  0.2450427E-04  0.8998321E+03  0.7818609E-02  0.9425791E-01
        1   -1    0    0  501    0  0.00000000000E+00  0.00000000000E+00  0.58397494513E+03  0.58397494515E+03  0.50400001928E-02 0. -1.
       -1   -1    0    0    0  501  0.00000000000E+00  0.00000000000E+00 -0.34663211480E+03  0.34663211484E+03  0.50400001928E-02 0.  1.
    10030    2    1    2    0    0  0.00000000000E+00  0.00000000000E+00  0.23734283033E+03  0.93060705998E+03  0.89983214045E+03 0.  0.
        3    1    3    3  502    0 -0.11652356781E+03 -0.41219226762E+03 -0.23674031911E+02  0.42899962392E+03  0.10100000352E+00 0. -1.
       -3    1    3    3    0  502  0.11652356781E+03  0.41219226762E+03  0.26101686224E+03  0.50160743606E+03  0.10100000352E+00 0.  1.
</event>
<event>
 5   0  0.4110039E-04  0.9001443E+03  0.7818609E-02  0.9425401E-01
        2   -1    0    0  501    0  0.00000000000E+00  0.00000000000E+00  0.12548176667E+04  0.12548176667E+04  0.25500000920E-02 0.  1.
       -2   -1    0    0    0  501  0.00000000000E+00  0.00000000000E+00 -0.16142979247E+03  0.16142979249E+03  0.25500000920E-02 0. -1.
    10030    2    1    2    0    0  0.00000000000E+00  0.00000000000E+00  0.10933878742E+04  0.14162474592E+04  0.90014433407E+03 0.  0.
        3    1    3    3  502    0  0.14177880517E+03 -0.40626300425E+03  0.33907003548E+03  0.54783150455E+03  0.10100000352E+00 0. -1.
       -3    1    3    3    0  502 -0.14177880517E+03  0.40626300425E+03  0.75431783876E+03  0.86841595465E+03  0.10100000352E+00 0.  1.
</event>
<event>
 5   0  0.2356918E-04  0.8997354E+03  0.7818609E-02  0.9425912E-01
       -1   -1    0    0    0  501  0.00000000000E+00  0.00000000000E+00  0.30661773789E+03  0.30661773793E+03  0.50400001928E-02 0.  1.
        1   -1    0    0  501    0  0.00000000000E+00  0.00000000000E+00 -0.66004320687E+03  0.66004320689E+03  0.50400001928E-02 0. -1.
    10030    2    1    2    0    0  0.00000000000E+00  0.00000000000E+00 -0.35342546898E+03  0.96666094482E+03  0.89973541673E+03 0.  0.
        5    1    3    3  502    0 -0.27645565830E+03  0.34335536851E+03 -0.27303782681E+03  0.51854834390E+03  0.46999998093E+01 0.  1.
       -5    1    3    3    0  502  0.27645565830E+03 -0.34335536851E+03 -0.80387642164E+02  0.44811260092E+03  0.46999998093E+01 0. -1.
</event>
<event>
 5   0  0.2351435E-04  0.8995815E+03  0.7818609E-02  0.9426105E-01
       -1   -1    0    0    0  501  0.00000000000E+00  0.00000000000E+00  0.33250956183E+03  0.33250956186E+03  0.50400001928E-02 0. -1.
        1   -1    0    0  501    0  0.00000000000E+00  0.00000000000E+00 -0.60843879805E+03  0.60843879807E+03  0.50400001928E-02 0.  1.
    10030    2    1    2    0    0  0.00000000000E+00  0.00000000000E+00 -0.27592923622E+03  0.94094835993E+03  0.89958149862E+03 0.  0.
        4    1    3    3  502    0  0.51200351608E+02 -0.15153267171E+03  0.30175524772E+03  0.34152813798E+03  0.12699999809E+01 0. -1.
       -4    1    3    3    0  502 -0.51200351608E+02  0.15153267171E+03 -0.57768448394E+03  0.59942022196E+03  0.12699999809E+01 0.  1.
</event>
<event>
 5   0  0.4033144E-04  0.9000743E+03  0.7818609E-02  0.9425489E-01
        2   -1    0    0  501    0  0.00000000000E+00  0.00000000000E+00  0.12968065362E+04  0.12968065362E+04  0.25500000920E-02 0.  1.
       -2   -1    0    0    0  501  0.00000000000E+00  0.00000000000E+00 -0.15617859749E+03  0.15617859751E+03  0.25500000920E-02 0. -1.
    10030    2    1    2    0    0  0.00000000000E+00  0.00000000000E+00  0.11406279387E+04  0.14529851337E+04  0.90007427706E+03 0.  0.
        4    1    3    3  502    0 -0.20698061436E+03 -0.24784906468E+03  0.64285545444E+02  0.32924820096E+03  0.12699999809E+01 0. -1.
       -4    1    3    3    0  502  0.20698061436E+03  0.24784906468E+03  0.10763423933E+04  0.11237369327E+04  0.12699999809E+01 0.  1.
</event>
<event>
 5   0  0.4243516E-04  0.8999331E+03  0.7818609E-02  0.9425665E-01
        2   -1    0    0  501    0  0.00000000000E+00  0.00000000000E+00  0.26628680551E+03  0.26628680552E+03  0.25500000920E-02 0. -1.
       -2   -1    0    0    0  501  0.00000000000E+00  0.00000000000E+00 -0.76034515681E+03  0.76034515682E+03  0.25500000920E-02 0.  1.
    10030    2    1    2    0    0  0.00000000000E+00  0.00000000000E+00 -0.49405835130E+03  0.10266319623E+04  0.89993307062E+03 0.  0.
        1    1    3    3  502    0  0.12373751403E+03 -0.35200559913E+03  0.39875852892E+02  0.37524525029E+03  0.50400001928E-02 0. -1.
       -1    1    3    3    0  502 -0.12373751403E+03  0.35200559913E+03 -0.53393420419E+03  0.65138671205E+03  0.50400001928E-02 0.  1.
</event>
<event>
 5   0  0.2332791E-04  0.9000172E+03  0.7818609E-02  0.9425560E-01
        1   -1    0    0  501    0  0.00000000000E+00  0.00000000000E+00  0.63539347732E+03  0.63539347734E+03  0.50400001928E-02 0.  1.
       -1   -1    0    0    0  501  0.00000000000E+00  0.00000000000E+00 -0.31871235863E+03  0.31871235867E+03  0.50400001928E-02 0. -1.
    10030    2    1    2    0    0  0.00000000000E+00  0.00000000000E+00  0.31668111869E+03  0.95410583601E+03  0.90001723060E+03 0.  0.
        2    1    3    3  502    0  0.40117833083E+02  0.34734663195E+03  0.45864692862E+03  0.57672881703E+03  0.25500000920E-02 0.  1.
       -2    1    3    3    0  502 -0.40117833083E+02 -0.34734663195E+03 -0.14196580993E+03  0.37737701898E+03  0.25500000920E-02 0. -1.
</event>
<event>
 5   0  0.4236284E-04  0.8998132E+03  0.7818609E-02  0.9425815E-01
        2   -1    0    0  501    0  0.00000000000E+00  0.00000000000E+00  0.20872863411E+03  0.20872863413E+03  0.25500000920E-02 0.  1.
       -2   -1    0    0    0  501  0.00000000000E+00  0.00000000000E+00 -0.96975655171E+03  0.96975655172E+03  0.25500000920E-02 0. -1.
    10030    2    1    2    0    0  0.00000000000E+00  0.00000000000E+00 -0.76102791760E+03  0.11784851858E+04  0.89981322611E+03 0.  0.
        2    1    3    3  502    0  0.11930421357E+03 -0.36559428080E+03 -0.74696151682E+02  0.39175526622E+03  0.25500000920E-02 0.  1.
       -2    1    3    3    0  502 -0.11930421357E+03  0.36559428080E+03 -0.68633176592E+03  0.78672991963E+03  0.25500000920E-02 0. -1.
</event>
<event>
 5   0  0.1596250E-04  0.8999605E+03  0.7818609E-02  0.9425631E-01
       -3   -1    0    0    0  501  0.00000000000E+00  0.00000000000E+00  0.10125740415E+04  0.10125740466E+04  0.10100000352E+00 0. -1.
        3   -1    0    0  501    0  0.00000000000E+00  0.00000000000E+00 -0.19996778260E+03  0.19996780810E+03  0.10100000352E+00 0.  1.
    10030    2    1    2    0    0  0.00000000000E+00  0.00000000000E+00  0.81260625893E+03  0.12125418547E+04  0.89996045317E+03 0.  0.
        3    1    3    3  502    0  0.13263314614E+03  0.38521220490E+03  0.66371752595E+03  0.77878171442E+03  0.10100000352E+00 0. -1.
       -3    1    3    3    0  502 -0.13263314614E+03 -0.38521220490E+03  0.14888873298E+03  0.43376014025E+03  0.10100000352E+00 0.  1.
</event>
<event>
 5   0  0.4243516E-04  0.8992662E+03  0.7818609E-02  0.9426499E-01
        2   -1    0    0  501    0  0.00000000000E+00  0.00000000000E+00  0.98412838178E+03  0.98412838178E+03  0.25500000920E-02 0.  1.
       -2   -1    0    0    0  501  0.00000000000E+00  0.00000000000E+00 -0.20543044202E+03  0.20543044203E+03  0.25500000920E-02 0. -1.
    10030    2    1    2    0    0  0.00000000000E+00  0.00000000000E+00  0.77869793976E+03  0.11895588238E+04  0.89926620859E+03 0.  0.
        1    1    3    3  502    0  0.30462329632E+03  0.15627651126E+03  0.77490281142E+03  0.84716708376E+03  0.50400001928E-02 0.  1.
       -1    1    3    3    0  502 -0.30462329632E+03 -0.15627651126E+03  0.37951283471E+01  0.34239174006E+03  0.50400001928E-02 0. -1.
</event>
<event>
 5   0  0.4110039E-04  0.9005760E+03  0.7818609E-02  0.9424862E-01
        2   -1    0    0  501    0  0.00000000000E+00  0.00000000000E+00  0.45940805051E+03  0.45940805052E+03  0.25500000920E-02 0. -1.
       -2   -1    0    0    0  501  0.00000000000E+00  0.00000000000E+00 -0.44134897449E+03  0.44134897450E+03  0.25500000920E-02 0.  1.
    10030    2    1    2    0    0  0.00000000000E+00  0.00000000000E+00  0.18059076023E+02  0.90075702502E+03  0.90057597564E+03 0.  0.
        3    1    3    3  502    0 -0.23968697895E+02  0.43284556951E+03 -0.11277128056E+03  0.44793655515E+03  0.10100000352E+00 0.  1.
       -3    1    3    3    0  502  0.23968697895E+02 -0.43284556951E+03  0.13083035659E+03  0.45282046986E+03  0.10100000352E+00 0. -1.
</event>
<event>
 5   0  0.4236284E-04  0.8988733E+03  0.7818609E-02  0.9426991E-01
       -2   -1    0    0    0  501  0.00000000000E+00  0.00000000000E+00  0.84318664280E+03  0.84318664281E+03  0.25500000920E-02 0.  1.
        2   -1    0    0  501    0  0.00000000000E+00  0.00000000000E+00 -0.23955941094E+03  0.23955941095E+03  0.25500000920E-02 0. -1.
    10030    2    1    2    0    0  0.00000000000E+00  0.00000000000E+00  0.60362723187E+03  0.10827460538E+04  0.89887328466E+03 0.  0.
        2    1    3    3  502    0  0.15029469573E+03  0.23481116871E+03  0.72644167712E+03  0.77810172264E+03  0.25500000920E-02 0.  1.
       -2    1    3    3    0  502 -0.15029469573E+03 -0.23481116871E+03 -0.12281444525E+03  0.30464433112E+03  0.25500000920E-02 0. -1.
</event>
<event>
 5   0  0.2356918E-04  0.8998482E+03  0.7818609E-02  0.9425771E-01
       -1   -1    0    0    0  501  0.00000000000E+00  0.00000000000E+00  0.48694848165E+03  0.48694848168E+03  0.50400001928E-02 0.  1.
        1   -1    0    0  501    0  0.00000000000E+00  0.00000000000E+00 -0.41571477518E+03  0.41571477521E+03  0.50400001928E-02 0. -1.
    10030    2    1    2    0    0  0.00000000000E+00  0.00000000000E+00  0.71233706476E+02  0.90266325689E+03  0.89984816186E+03 0.  0.
        5    1    3    3  502    0  0.11607319261E+03 -0.22217009459E+03  0.41038575066E+03  0.48090653075E+03  0.46999998093E+01 0.  1.
       -5    1    3    3    0  502 -0.11607319261E+03  0.22217009459E+03 -0.33915204418E+03  0.42175672614E+03  0.46999998093E+01 0. -1.
</event>
<event>
 5   0  0.4033144E-04  0.8998526E+03  0.7818609E-02  0.9425766E-01
       -2   -1    0    0    0  501  0.00000000000E+00  0.00000000000E+00  0.84594660031E+02  0.84594660070E+02  0.25500000920E-02 0.  1.
        2   -1    0    0  501    0  0.00000000000E+00  0.00000000000E+00 -0.23929843126E+04  0.23929843126E+04  0.25500000920E-02 0. -1.
    10030    2    1    2    0    0  0.00000000000E+00  0.00000000000E+00 -0.23083896525E+04  0.24775789726E+04  0.89985264223E+03 0.  0.
        4    1    3    3  502    0  0.37347707512E+03 -0.24830557389E+03 -0.12531342388E+04  0.13309725080E+04  0.12699999809E+01 0.  1.
       -4    1    3    3    0  502 -0.37347707512E+03  0.24830557389E+03 -0.10552554137E+04  0.11466064646E+04  0.12699999809E+01 0. -1.
</event>
<event>
 5   0  0.2450427E-04  0.9000670E+03  0.7818609E-02  0.9425498E-01
       -1   -1    0    0    0  501  0.00000000000E+00  0.00000000000E+00  0.35875928130E+03  0.35875928134E+03  0.50400001928E-02 0. -1.
        1   -1    0    0  501    0  0.00000000000E+00  0.00000000000E+00 -0.56452936835E+03  0.56452936837E+03  0.50400001928E-02 0.  1.
    10030    2    1    2    0    0  0.00000000000E+00  0.00000000000E+00 -0.20577008705E+03  0.92328864970E+03  0.90006699859E+03 0.  0.
        3    1    3    3  502    0  0.17273192915E+03  0.31231284020E+03 -0.38410114570E+03  0.52431796634E+03  0.10100000352E+00 0. -1.
       -3    1    3    3    0  502 -0.17273192915E+03 -0.31231284020E+03  0.17833105866E+03  0.39897068336E+03  0.10100000352E+00 0.  1.
</event>
<event>
 5   0  0.2308362E-04  0.9009638E+03  0.7818609E-02  0.9424377E-01
       -1   -1    0    0    0  501  0.00000000000E+00  0.00000000000E+00  0.27108311200E+03  0.27108311205E+03  0.50400001928E-02 0. -1.
        1   -1    0    0  501    0  0.00000000000E+00  0.00000000000E+00 -0.74860408771E+03  0.74860408773E+03  0.50400001928E-02 0.  1.
    10030    2    1    2    0    0  0.00000000000E+00  0.00000000000E+00 -0.47752097571E+03  0.10196871998E+04  0.90096376351E+03 0.  0.
        1    1    3    3  502    0 -0.91835164391E+02 -0.43576163034E+02  0.25793395704E+03  0.27724088015E+03  0.50400001928E-02 0. -1.
       -1    1    3    3    0  502  0.91835164391E+02  0.43576163034E+02 -0.73545493275E+03  0.74244631963E+03  0.50400001928E-02 0.  1.
</event>
<event>
 5   0  0.4110039E-04  0.9000607E+03  0.7818609E-02  0.9425506E-01
       -2   -1    0    0    0  501  0.00000000000E+00  0.00000000000E+00  0.17083704088E+03  0.17083704089E+03  0.25500000920E-02 0. -1.
        2   -1    0    0  501    0  0.00000000000E+00  0.00000000000E+00 -0.11855000742E+04  0.11855000742E+04  0.25500000920E-02 0.  1.
    10030    2    1    2    0    0  0.00000000000E+00  0.00000000000E+00 -0.10146630333E+04  0.13563371151E+04  0.90006071938E+03 0.  0.
        3    1    3    3  502    0 -0.33168096284E+01  0.38366363790E+03 -0.15290097542E+03  0.41302240467E+03  0.10100000352E+00 0. -1.
       -3    1    3    3    0  502  0.33168096284E+01 -0.38366363790E+03 -0.86176205787E+03  0.94331471040E+03  0.10100000352E+00 0.  1.
</event>
<event>
 5   0  0.2356918E-04  0.9003665E+03  0.7818609E-02  0.9425123E-01
        1   -1    0    0  501    0  0.00000000000E+00  0.00000000000E+00  0.28885660450E+03  0.28885660454E+03  0.50400001928E-02 0. -1.
       -1   -1    0    0    0  501  0.00000000000E+00  0.00000000000E+00 -0.70161088345E+03  0.70161088346E+03  0.50400001928E-02 0.  1.
    10030    2    1    2    0    0  0.00000000000E+00  0.00000000000E+00 -0.41275427895E+03  0.99046748801E+03  0.90036645318E+03 0.  0.
        5    1    3    3  502    0 -0.18893543029E+03  0.23999740693E+02 -0.65507993052E+03  0.68222019154E+03  0.46999998093E+01 0.  1.
       -5    1    3    3    0  502  0.18893543029E+03 -0.23999740693E+02  0.24232565157E+03  0.30824729647E+03  0.46999998093E+01 0. -1.
</event>
<event>
 5   0  0.2450427E-04  0.9000330E+03  0.7818609E-02  0.9425540E-01
       -1   -1    0    0    0  501  0.00000000000E+00  0.00000000000E+00  0.23943495794E+03  0.23943495799E+03  0.50400001928E-02 0. -1.
        1   -1    0    0  501    0  0.00000000000E+00  0.00000000000E+00 -0.84580318045E+03  0.84580318046E+03  0.50400001928E-02 0.  1.
    10030    2    1    2    0    0  0.00000000000E+00  0.00000000000E+00 -0.60636822251E+03  0.10852381385E+04  0.90003299711E+03 0.  0.
        3    1    3    3  502    0  0.30655061457E+03  0.27217116708E+02  0.92708670734E+02  0.32141710994E+03  0.10100000352E+00 0. -1.
       -3    1    3    3    0  502 -0.30655061457E+03 -0.27217116708E+02 -0.69907689324E+03  0.76382102851E+03  0.10100000352E+00 0.  1.
</event>
<event>
 5   0  0.2351435E-04  0.9013416E+03  0.7818609E-02  0.9423906E-01
        1   -1    0    0  501    0  0.00000000000E+00  0.00000000000E+00  0.88250413673E+03  0.88250413674E+03  0.50400001928E-02 0. -1.
       -1   -1    0    0    0  501  0.00000000000E+00  0.00000000000E+00 -0.23014529503E+03  0.23014529509E+03  0.50400001928E-02 0.  1.
    10030    2    1    2    0    0  0.00000000000E+00  0.00000000000E+00  0.65235884170E+03  0.11126494318E+04  0.90134161105E+03 0.  0.
        4    1    3    3  502    0  0.27031267162E+03 -0.96989471717E+02  0.75491604904E+03  0.80769780987E+03  0.12699999809E+01 0. -1.
       -4    1    3    3    0  502 -0.27031267162E+03  0.96989471717E+02 -0.10255720735E+03  0.30495162197E+03  0.12699999809E+01 0.  1.
</event>
<event>
 5   0  0.2356918E-04  0.8998382E+03  0.7818609E-02  0.9425784E-01
       -1   -1    0    0    0  501  0.00000000000E+00  0.00000000000E+00  0.47103597594E+03  0.47103597597E+03  0.50400001928E-02 0. -1.
        1   -1    0    0  501    0  0.00000000000E+00  0.00000000000E+00 -0.42974887192E+03  0.42974887195E+03  0.50400001928E-02 0.  1.
    10030    2    1    2    0    0  0.00000000000E+00  0.00000000000E+00  0.41287104018E+02  0.90078484792E+03  0.89983816172E+03 0.  0.
        5    1    3    3  502    0  0.19544058162E+03  0.10878343442E+03  0.41140564835E+03  0.46830284436E+03  0.46999998093E+01 0. -1.
       -5    1    3    3    0  502 -0.19544058162E+03 -0.10878343442E+03 -0.37011854433E+03  0.43248200356E+03  0.46999998093E+01 0.  1.
</event>
<event>
 5   0  0.2351435E-04  0.8993253E+03  0.7818609E-02  0.9426425E-01
        1   -1    0    0  501    0  0.00000000000E+00  0.00000000000E+00  0.35882684749E+03  0.35882684753E+03  0.50400001928E-02 0.  1.
       -1   -1    0    0    0  501  0.00000000000E+00  0.00000000000E+00 -0.56349322699E+03  0.56349322701E+03  0.50400001928E-02 0. -1.
    10030    2    1    2    0    0  0.00000000000E+00  0.00000000000E+00 -0.20466637949E+03  0.92232007454E+03  0.89932529877E+03 0.  0.
        4    1    3    3  502    0 -0.28058302223E+03  0.56691948860E+02 -0.45797658959E+03  0.54007867847E+03  0.12699999809E+01 0. -1.
       -4    1    3    3    0  502  0.28058302223E+03 -0.56691948860E+02  0.25331021010E+03  0.38224139607E+03  0.12699999809E+01 0.  1.
</event>
<event>
 5   0  0.4110039E-04  0.9003096E+03  0.7818609E-02  0.9425195E-01
       -2   -1    0    0    0  501  0.00000000000E+00  0.00000000000E+00  0.54878532860E+03  0.54878532861E+03  0.25500000920E-02 0.  1.
        2   -1    0    0  501    0  0.00000000000E+00  0.00000000000E+00 -0.36925064599E+03  0.36925064600E+03  0.25500000920E-02 0. -1.
    10030    2    1    2    0    0  0.00000000000E+00  0.00000000000E+00  0.17953468261E+03  0.91803597461E+03  0.90030958476E+03 0.  0.
        3    1    3    3  502    0 -0.66166963965E+02 -0.26421056492E+03  0.45522890274E+03  0.53048907041E+03  0.10100000352E+00 0.  1.
       -3    1    3    3    0  502  0.66166963965E+02  0.26421056492E+03 -0.27569422013E+03  0.38754690419E+03  0.10100000352E+00 0. -1.
</event>
<event>
 5   0  0.2351435E-04  0.9014129E+03  0.7818609E-02  0.9423817E-01
       -1   -1    0    0    0  501  0.00000000000E+00  0.00000000000E+00  0.74190525718E+03  0.74190525719E+03  0.50400001928E-02 0.  1.
        1   -1    0    0  501    0  0.00000000000E+00  0.00000000000E+00 -0.27380358080E+03  0.27380358084E+03  0.50400001928E-02 0. -1.
    10030    2    1    2    0    0  0.00000000000E+00  0.00000000000E+00  0.46810167638E+03  0.10157088380E+04  0.90141292660E+03 0.  0.
        4    1    3    3  502    0  0.15700405349E+03  0.41060695824E+03  0.34608838125E+03  0.55948827289E+03  0.12699999809E+01 0.  1.
       -4    1    3    3    0  502 -0.15700405349E+03 -0.41060695824E+03  0.12201329513E+03  0.45622056515E+03  0.12699999809E+01 0. -1.
</event>
<event>
 5   0  0.4110039E-04  0.8999718E+03  0.7818609E-02  0.9425617E-01
       -2   -1    0    0    0  501  0.00000000000E+00  0.00000000000E+00  0.92724659092E+02  0.92724659127E+02  0.25500000920E-02 0.  1.
        2   -1    0    0  501    0  0.00000000000E+00  0.00000000000E+00 -0.21837483367E+04  0.21837483367E+04  0.25500000920E-02 0. -1.
    10030    2    1    2    0    0  0.00000000000E+00  0.00000000000E+00 -0.20910236776E+04  0.22764729959E+04  0.89997182202E+03 0.  0.
        3    1    3    3  502    0 -0.39919953221E+03  0.18285425424E+03 -0.79649651787E+03  0.90950682130E+03  0.10100000352E+00 0.  1.
       -3    1    3    3    0  502  0.39919953221E+03 -0.18285425424E+03 -0.12945271598E+04  0.13669661746E+04  0.10100000352E+00 0. -1.
</event>
<event>
 5   0  0.4033144E-04  0.9000268E+03  0.7818609E-02  0.9425548E-01
       -2   -1    0    0    0  501  0.00000000000E+00  0.00000000000E+00  0.14960008053E+03  0.14960008055E+03  0.25500000920E-02 0. -1.
        2   -1    0    0  501    0  0.00000000000E+00  0.00000000000E+00 -0.13536894744E+04  0.13536894744E+04  0.25500000920E-02 0.  1.
    10030    2    1    2    0    0  0.00000000000E+00  0.00000000000E+00 -0.12040893939E+04  0.15032895550E+04  0.90002678716E+03 0.  0.
        4    1    3    3  502    0  0.39039626735E+03  0.20995554435E+03 -0.73163741317E+03  0.85544461739E+03  0.12699999809E+01 0. -1.
       -4    1    3    3    0  502 -0.39039626735E+03 -0.20995554435E+03 -0.47245198073E+03  0.64784493759E+03  0.12699999809E+01 0.  1.
</event>
<event>
 5   0  0.2351435E-04  0.8997107E+03  0.7818609E-02  0.9425943E-01
        1   -1    0    0  501    0  0.00000000000E+00  0.00000000000E+00  0.76930311002E+03  0.76930311004E+03  0.50400001928E-02 0. -1.
       -1   -1    0    0    0  501  0.00000000000E+00  0.00000000000E+00 -0.26305604252E+03  0.26305604257E+03  0.50400001928E-02 0.  1.
    10030    2    1    2    0    0  0.00000000000E+00  0.00000000000E+00  0.50624706750E+03  0.10323591526E+04  0.89971069051E+03 0.  0.
        4    1    3    3  502    0  0.27114829107E+03  0.15059550678E+02  0.66463528336E+03  0.71797622426E+03  0.12699999809E+01 0. -1.
       -4    1    3    3    0  502 -0.27114829107E+03 -0.15059550678E+02 -0.15838821586E+03  0.31438292835E+03  0.12699999809E+01 0.  1.
</event>
<event>
 5   0  0.2308362E-04  0.8998814E+03  0.7818609E-02  0.9425730E-01
       -1   -1    0    0    0  501  0.00000000000E+00  0.00000000000E+00  0.53239257799E+03  0.53239257802E+03  0.50400001928E-02 0.  1.
        1   -1    0    0  501    0  0.00000000000E+00  0.00000000000E+00 -0.38025819898E+03  0.38025819901E+03  0.50400001928E-02 0. -1.
    10030    2    1    2    0    0  0.00000000000E+00  0.00000000000E+00  0.15213437901E+03  0.91265077703E+03  0.89988142082E+03 0.  0.
        1    1    3    3  502    0 -0.20194718960E+03  0.29619879757E+03 -0.19969227270E+03  0.41035764752E+03  0.50400001928E-02 0. -1.
       -1    1    3    3    0  502  0.20194718960E+03 -0.29619879757E+03  0.35182665172E+03  0.50229312951E+03  0.50400001928E-02 0.  1.
</event>
<event>
 5   0  0.4236284E-04  0.9006604E+03  0.7818609E-02  0.9424756E-01
       -2   -1    0    0    0  501  0.00000000000E+00  0.00000000000E+00  0.19886242417E+03  0.19886242419E+03  0.25500000920E-02 0.  1.
        2   -1    0    0  501    0  0.00000000000E+00  0.00000000000E+00 -0.10197868292E+04  0.10197868292E+04  0.25500000920E-02 0. -1.
    10030    2    1    2    0    0  0.00000000000E+00  0.00000000000E+00 -0.82092440499E+03  0.12186492533E+04  0.90066038215E+03 0.  0.
        2    1    3    3  502    0 -0.16201002040E+03  0.22882391830E+03 -0.88728868355E+03  0.93053148268E+03  0.25500000920E-02 0. -1.
       -2    1    3    3    0  502  0.16201002040E+03 -0.22882391830E+03  0.66364278565E+02  0.28811777067E+03  0.25500000920E-02 0.  1.
</event>
<event>
 5   0  0.4110039E-04  0.9002484E+03  0.7818609E-02  0.9425271E-01
       -2   -1    0    0    0  501  0.00000000000E+00  0.00000000000E+00  0.33230901228E+03  0.33230901229E+03  0.25500000920E-02 0.  1.
        2   -1    0    0  501    0  0.00000000000E+00  0.00000000000E+00 -0.60970901472E+03  0.60970901473E+03  0.25500000920E-02 0. -1.
    10030    2    1    2    0    0  0.00000000000E+00  0.00000000000E+00 -0.27740000245E+03  0.94201802702E+03  0.90024841120E+03 0.  0.
        3    1    3    3  502    0 -0.12013927312E+03 -0.23356804387E+03  0.24380718160E+03  0.35837051785E+03  0.10100000352E+00 0.  1.
       -3    1    3    3    0  502  0.12013927312E+03  0.23356804387E+03 -0.52120718404E+03  0.58364750917E+03  0.10100000352E+00 0. -1.
</event>
<event>
 5   0  0.2351435E-04  0.9004051E+03  0.7818609E-02  0.9425075E-01
        1   -1    0    0  501    0  0.00000000000E+00  0.00000000000E+00  0.45959552591E+03  0.45959552594E+03  0.50400001928E-02 0.  1.
       -1   -1    0    0    0  501  0.00000000000E+00  0.00000000000E+00 -0.44100154503E+03  0.44100154506E+03  0.50400001928E-02 0. -1.
    10030    2    1    2    0    0  0.00000000000E+00  0.00000000000E+00  0.18593980886E+02  0.90059707100E+03  0.90040510225E+03 0.  0.
        4    1    3    3  502    0  0.14659495288E+03 -0.21554049090E+03 -0.35784112754E+03  0.44271849847E+03  0.12699999809E+01 0. -1.
       -4    1    3    3    0  502 -0.14659495288E+03  0.21554049090E+03  0.37643510842E+03  0.45787857253E+03  0.12699999809E+01 0.  1.
</event>
<event>
 5   0  0.2332791E-04  0.8998598E+03  0.7818609E-02  0.9425757E-01
       -1   -1    0    0    0  501  0.00000000000E+00  0.00000000000E+00  0.43427399104E+03  0.43427399107E+03  0.50400001928E-02 0.  1.
        1   -1    0    0  501    0  0.00000000000E+00  0.00000000000E+00 -0.46615026389E+03  0.46615026392E+03  0.50400001928E-02 0. -1.
    10030    2    1    2    0    0  0.00000000000E+00  0.00000000000E+00 -0.31876272855E+02  0.90042425499E+03  0.89985984587E+03 0.  0.
        2    1    3    3  502    0  0.10331908125E+03  0.13106300412E+03 -0.43403342000E+03  0.46501328291E+03  0.25500000920E-02 0. -1.
       -2    1    3    3    0  502 -0.10331908125E+03 -0.13106300412E+03  0.40215714715E+03  0.43541097208E+03  0.25500000920E-02 0.  1.
</event>
<event>
 5   0  0.2308362E-04  0.8993480E+03  0.7818609E-02  0.9426397E-01
        1   -1    0    0  501    0  0.00000000000E+00  0.00000000000E+00  0.57890466203E+03  0.57890466205E+03  0.50400001928E-02 0. -1.
       -1   -1    0    0    0  501  0.00000000000E+00  0.00000000000E+00 -0.34929191121E+03  0.34929191125E+03  0.50400001928E-02 0.  1.
    10030    2    1    2    0    0  0.00000000000E+00  0.00000000000E+00  0.22961275081E+03  0.92819657330E+03  0.89934802126E+03 0.  0.
        1    1    3    3  502    0 -0.25487353787E+03  0.19220504302E+03  0.44167259583E+03  0.54495686141E+03  0.50400001928E-02 0. -1.
       -1    1    3    3    0  502  0.25487353787E+03 -0.19220504302E+03 -0.21205984502E+03  0.38323971188E+03  0.50400001928E-02 0.  1.
</event>
<event>
 5   0  0.4236284E-04  0.8997849E+03  0.7818609E-02  0.9425850E-01
       -2   -1    0    0    0  501  0.00000000000E+00  0.00000000000E+00  0.33915543319E+03  0.33915543320E+03  0.25500000920E-02 0.  1.
        2   -1    0    0  501    0  0.00000000000E+00  0.00000000000E+00 -0.59678607054E+03  0.59678607055E+03  0.25500000920E-02 0. -1.
    10030    2    1    2    0    0  0.00000000000E+00  0.00000000000E+00 -0.25763063735E+03  0.93594150375E+03  0.89978494827E+03 0.  0.
        2    1    3    3  502    0 -0.42769043984E+03  0.67039219341E+01  0.16211723831E+02  0.42805008456E+03  0.25500000920E-02 0. -1.
       -2    1    3    3    0  502  0.42769043984E+03 -0.67039219341E+01 -0.27384236118E+03  0.50789141919E+03  0.25500000920E-02 0.  1.
</event>
<event>
 5   0  0.1596250E-04  0.8991839E+03  0.7818609E-02  0.9426602E-01
       -3   -1    0    0    0  501  0.00000000000E+00  0.00000000000E+00  0.82560162461E+03  0.82560163079E+03  0.10100000352E+00 0. -1.
        3   -1    0    0  501    0  0.00000000000E+00  0.00000000000E+00 -0.24483104796E+03  0.24483106879E+03  0.10100000352E+00 0.  1.
    10030    2    1    2    0    0  0.00000000000E+00  0.00000000000E+00  0.58077057665E+03  0.10704326996E+04  0.89918390868E+03 0.  0.
        5    1    3    3  502    0 -0.18091930438E+03 -0.56993357296E+02  0.77560218579E+03  0.79847409355E+03  0.46999998093E+01 0. -1.
       -5    1    3    3    0  502  0.18091930438E+03  0.56993357296E+02 -0.19483160914E+03  0.27195860602E+03  0.46999998093E+01 0.  1.
</event>
<event>
 5   0  0.2450427E-04  0.8999766E+03  0.7818609E-02  0.9425611E-01
       -1   -1    0    0    0  501  0.00000000000E+00  0.00000000000E+00  0.11353445119E+03  0.11353445131E+03  0.50400001928E-02 0. -1.
        1   -1    0    0  501    0  0.00000000000E+00  0.00000000000E+00 -0.17835066700E+04  0.17835066700E+04  0.50400001928E-02 0.  1.
    10030    2    1    2    0    0  0.00000000000E+00  0.00000000000E+00 -0.16699722188E+04  0.18970411213E+04  0.89997655768E+03 0.  0.
        3    1    3    3  502    0 -0.41141210317E+03  0.10108820952E+03 -0.11547360163E+04  0.12299975701E+04  0.10100000352E+00 0.  1.
       -3    1    3    3    0  502  0.41141210317E+03 -0.10108820952E+03 -0.51523620250E+03  0.66704355128E+03  0.10100000352E+00 0. -1.
</event>
<event>
 5   0  0.2450427E-04  0.8996527E+03  0.7818609E-02  0.9426016E-01
       -1   -1    0    0    0  501  0.00000000000E+00  0.00000000000E+00  0.54473045754E+03  0.54473045756E+03  0.50400001928E-02 0.  1.
        1   -1    0    0  501    0  0.00000000000E+00  0.00000000000E+00 -0.37145659835E+03  0.37145659838E+03  0.50400001928E-02 0. -1.
    10030    2    1    2    0    0  0.00000000000E+00  0.00000000000E+00  0.17327385919E+03  0.91618705594E+03  0.89965265030E+03 0.  0.
        3    1    3    3  502    0  0.50934925817E+02  0.68986816349E+02  0.53632942656E+03  0.54314161274E+03  0.10100000352E+00 0.  1.
       -3    1    3    3    0  502 -0.50934925817E+02 -0.68986816349E+02 -0.36305556737E+03  0.37304544320E+03  0.10100000352E+00 0. -1.
</event>
<event>
 5   0  0.4110039E-04  0.8997888E+03  0.7818609E-02  0.9425846E-01
       -2   -1    0    0    0  501  0.00000000000E+00  0.00000000000E+00  0.56544648584E+03  0.56544648585E+03  0.25500000920E-02 0.  1.
        2   -1    0    0  501    0  0.00000000000E+00  0.00000000000E+00 -0.35795597593E+03  0.35795597594E+03  0.25500000920E-02 0. -1.
    10030    2    1    2    0    0  0.00000000000E+00  0.00000000000E+00  0.20749050991E+03  0.92340246179E+03  0.89978875006E+03 0.  0.
        3    1    3    3  502    0 -0.38387467507E+02  0.40986262482E+03 -0.82522823050E+02  0.41984639502E+03  0.10100000352E+00 0.  1.
       -3    1    3    3    0  502  0.38387467507E+02 -0.40986262482E+03  0.29001333296E+03  0.50355606677E+03  0.10100000352E+00 0. -1.
</event>
<event>
 5   0  0.4110039E-04  0.8976980E+03  0.7818609E-02  0.9428464E-01
       -2   -1    0    0    0  501  0.00000000000E+00  0.00000000000E+00  0.12447756804E+03  0.12447756807E+03  0.25500000920E-02 0. -1.
        2   -1    0    0  501    0  0.00000000000E+00  0.00000000000E+00 -0.16184878525E+04  0.16184878525E+04  0.25500000920E-02 0.  1.
    10030    2    1    2    0    0  0.00000000000E+00  0.00000000000E+00 -0.14940102845E+04  0.17429654206E+04  0.89769801562E+03 0.  0.
        3    1    3    3  502    0 -0.14292093110E+03 -0.17496870706E+03  0.60356246817E+01  0.22600194681E+03  0.10100000352E+00 0. -1.
       -3    1    3    3    0  502  0.14292093110E+03  0.17496870706E+03 -0.15000459091E+04  0.15169634738E+04  0.10100000352E+00 0.  1.
</event>
<event>
 5   0  0.2308362E-04  0.9001989E+03  0.7818609E-02  0.9425333E-01
       -1   -1    0    0    0  501  0.00000000000E+00  0.00000000000E+00  0.58866055681E+03  0.58866055683E+03  0.50400001928E-02 0.  1.
        1   -1    0    0  501    0  0.00000000000E+00  0.00000000000E+00 -0.34415337821E+03  0.34415337825E+03  0.50400001928E-02 0. -1.
    10030    2    1    2    0    0  0.00000000000E+00  0.00000000000E+00  0.24450717860E+03  0.93281393508E+03  0.90019890974E+03 0.  0.
        1    1    3    3  502    0 -0.37289869112E+01  0.43100788175E+03 -0.12088541993E+02  0.43119349757E+03  0.50400001928E-02 0. -1.
       -1    1    3    3    0  502  0.37289869112E+01 -0.43100788175E+03  0.25659572059E+03  0.50162043751E+03  0.50400001928E-02 0.  1.
</event>
<event>
 5   0  0.4243516E-04  0.8998329E+03  0.7818609E-02  0.9425790E-01
        2   -1    0    0  501    0  0.00000000000E+00  0.00000000000E+00  0.18750148946E+04  0.18750148946E+04  0.25500000920E-02 0. -1.
       -2   -1    0    0    0  501  0.00000000000E+00  0.00000000000E+00 -0.10795903935E+03  0.10795903938E+03  0.25500000920E-02 0.  1.
    10030    2    1    2    0    0  0.00000000000E+00  0.00000000000E+00  0.17670558552E+04  0.19829739339E+04  0.89983288852E+03 0.  0.
        1    1    3    3  502    0 -0.15736897167E+03 -0.32760897560E+03  0.29909838679E+03  0.47069361494E+03  0.50400001928E-02 0.  1.
       -1    1    3    3    0  502  0.15736897167E+03  0.32760897560E+03  0.14679574684E+04  0.15122803190E+04  0.50400001928E-02 0. -1.
</event>
<event>
 5   0  0.2332791E-04  0.8999196E+03  0.7818609E-02  0.9425682E-01
        1   -1    0    0  501    0  0.00000000000E+00  0.00000000000E+00  0.66447958331E+03  0.66447958333E+03  0.50400001928E-02 0.  1.
       -1   -1    0    0    0  501  0.00000000000E+00  0.00000000000E+00 -0.30469531315E+03  0.30469531319E+03  0.50400001928E-02 0. -1.
    10030    2    1    2    0    0  0.00000000000E+00  0.00000000000E+00  0.35978427017E+03  0.96917489652E+03  0.89991958473E+03 0.  0.
        2    1    3    3  502    0 -0.12603647974E+03 -0.32882656855E+03  0.48153958326E+03  0.59656724404E+03  0.25500000920E-02 0.  1.
       -2    1    3    3    0  502  0.12603647974E+03  0.32882656855E+03 -0.12175531310E+03  0.37260765248E+03  0.25500000920E-02 0. -1.
</event>
<event>
 5   0  0.2308362E-04  0.9001388E+03  0.7818609E-02  0.9425408E-01
       -1   -1    0    0    0  501  0.00000000000E+00  0.00000000000E+00  0.17374203281E+03  0.17374203288E+03  0.50400001928E-02 0. -1.
        1   -1    0    0  501    0  0.00000000000E+00  0.00000000000E+00 -0.11658806646E+04  0.11658806646E+04  0.50400001928E-02 0.  1.
    10030    2    1    2    0    0  0.00000000000E+00  0.00000000000E+00 -0.99213863180E+03  0.13396226975E+04  0.90013882649E+03 0.  0.
        1    1    3    3  502    0  0.34235742677E+03  0.10972300389E+03 -0.93103109835E+02  0.37137034660E+03  0.50400001928E-02 0. -1.
       -1    1    3    3    0  502 -0.34235742677E+03 -0.10972300389E+03 -0.89903552197E+03  0.96825235091E+03  0.50400001928E-02 0.  1.
</event>
<event>
 5   0  0.1596250E-04  0.9018206E+03  0.7818609E-02  0.9423308E-01
        4   -1    0    0  501    0  0.00000000000E+00  0.00000000000E+00  0.79498506876E+03  0.79498608318E+03  0.12699999809E+01 0. -1.
       -4   -1    0    0    0  501  0.00000000000E+00  0.00000000000E+00 -0.25575058705E+03  0.25575374030E+03  0.12699999809E+01 0.  1.
    10030    2    1    2    0    0  0.00000000000E+00  0.00000000000E+00  0.53923448171E+03  0.10507398235E+04  0.90182057549E+03 0.  0.
        4    1    3    3  502    0  0.93391774045E+02 -0.94860110487E+02 -0.23233420697E+03  0.26777091076E+03  0.12699999809E+01 0.  1.
       -4    1    3    3    0  502 -0.93391774045E+02  0.94860110487E+02  0.77156868868E+03  0.78296891272E+03  0.12699999809E+01 0. -1.
</event>
<event>
 5   0  0.4110039E-04  0.9010999E+03  0.7818609E-02  0.9424208E-01
        2   -1    0    0  501    0  0.00000000000E+00  0.00000000000E+00  0.17941359225E+03  0.17941359227E+03  0.25500000920E-02 0.  1.
       -2   -1    0    0    0  501  0.00000000000E+00  0.00000000000E+00 -0.11314375084E+04  0.11314375084E+04  0.25500000920E-02 0. -1.
    10030    2    1    2    0    0  0.00000000000E+00  0.00000000000E+00 -0.95202391611E+03  0.13108511006E+04  0.90109992297E+03 0.  0.
        3    1    3    3  502    0  0.12972242463E+03  0.71234281978E+02  0.14304594857E+03  0.20582610132E+03  0.10100000352E+00 0.  1.
       -3    1    3    3    0  502 -0.12972242463E+03 -0.71234281978E+02 -0.10950698647E+04  0.11050249993E+04  0.10100000352E+00 0. -1.
</event>
<event>
 5   0  0.2332791E-04  0.8999821E+03  0.7818609E-02  0.9425604E-01
        1   -1    0    0  501    0  0.00000000000E+00  0.00000000000E+00  0.75074394300E+03  0.75074394302E+03  0.50400001928E-02 0.  1.
       -1   -1    0    0    0  501  0.00000000000E+00  0.00000000000E+00 -0.26972170780E+03  0.26972170785E+03  0.50400001928E-02 0. -1.
    10030    2    1    2    0    0  0.00000000000E+00  0.00000000000E+00  0.48102223520E+03  0.10204656509E+04  0.89998208529E+03 0.  0.
        2    1    3    3  502    0 -0.24091574105E+03 -0.34744642351E+03  0.41518843661E+03  0.59257138760E+03  0.25500000920E-02 0.  1.
       -2    1    3    3    0  502  0.24091574105E+03  0.34744642351E+03  0.65833798583E+02  0.42789426327E+03  0.25500000920E-02 0. -1.
</event>
<event>
 5   0  0.2332791E-04  0.8996535E+03  0.7818609E-02  0.9426015E-01
        1   -1    0    0  501    0  0.00000000000E+00  0.00000000000E+00  0.10814350161E+04  0.10814350161E+04  0.50400001928E-02 0. -1.
       -1   -1    0    0    0  501  0.00000000000E+00  0.00000000000E+00 -0.18710703359E+03  0.18710703366E+03  0.50400001928E-02 0.  1.
    10030    2    1    2    0    0  0.00000000000E+00  0.00000000000E+00  0.89432798252E+03  0.12685420498E+04  0.89965348427E+03 0.  0.
        2    1    3    3  502    0 -0.38276694980E+03  0.18300345359E+03  0.23639669638E+03  0.48567911212E+03  0.25500000920E-02 0. -1.
       -2    1    3    3    0  502  0.38276694980E+03 -0.18300345359E+03  0.65793128614E+03  0.78286293766E+03  0.25500000920E-02 0.  1.
</event>
<event>
 5   0  0.4236284E-04  0.9001798E+03  0.7818609E-02  0.9425357E-01
       -2   -1    0    0    0  501  0.00000000000E+00  0.00000000000E+00  0.62857975825E+03  0.62857975826E+03  0.25500000920E-02 0. -1.
        2   -1    0    0  501    0  0.00000000000E+00  0.00000000000E+00 -0.32228358148E+03  0.32228358149E+03  0.25500000920E-02 0.  1.
    10030    2    1    2    0    0  0.00000000000E+00  0.00000000000E+00  0.30629617678E+03  0.95086333975E+03  0.90017983924E+03 0.  0.
        2    1    3    3  502    0 -0.12680802888E+03 -0.33358984732E+02  0.60795749773E+03  0.62193682726E+03  0.25500000920E-02 0. -1.
       -2    1    3    3    0  502  0.12680802888E+03  0.33358984732E+02 -0.30166132095E+03  0.32892651249E+03  0.25500000920E-02 0.  1.
</event>
<event>
 5   0  0.1596250E-04  0.8999775E+03  0.7818609E-02  0.9425610E-01
       -3   -1    0    0    0  501  0.00000000000E+00  0.00000000000E+00  0.14311013697E+04  0.14311013733E+04  0.10100000352E+00 0. -1.
        3   -1    0    0  501    0  0.00000000000E+00  0.00000000000E+00 -0.14149231555E+03  0.14149235160E+03  0.10100000352E+00 0.  1.
    10030    2    1    2    0    0  0.00000000000E+00  0.00000000000E+00  0.12896090542E+04  0.15725937249E+04  0.89997750581E+03 0.  0.
        4    1    3    3  502    0  0.10363088864E+03 -0.92743784054E+02 -0.10299532387E+03  0.17306189702E+03  0.12699999809E+01 0.  1.
       -4    1    3    3    0  502 -0.10363088864E+03  0.92743784054E+02  0.13926043781E+04  0.13995318279E+04  0.12699999809E+01 0. -1.
</event>
<event>
 5   0  0.2450427E-04  0.9000016E+03  0.7818609E-02  0.9425579E-01
        1   -1    0    0  501    0  0.00000000000E+00  0.00000000000E+00  0.45921670764E+03  0.45921670767E+03  0.50400001928E-02 0.  1.
       -1   -1    0    0    0  501  0.00000000000E+00  0.00000000000E+00 -0.44096988927E+03  0.44096988930E+03  0.50400001928E-02 0. -1.
    10030    2    1    2    0    0  0.00000000000E+00  0.00000000000E+00  0.18246818365E+02  0.90018659697E+03  0.90000164610E+03 0.  0.
        3    1    3    3  502    0 -0.74255807161E+02 -0.19969057820E+03 -0.38732968748E+03  0.44205717834E+03  0.10100000352E+00 0. -1.
       -3    1    3    3    0  502  0.74255807161E+02  0.19969057820E+03  0.40557650585E+03  0.45812941863E+03  0.10100000352E+00 0.  1.
</event>
<event>
 5   0  0.3959804E-04  0.8996516E+03  0.7818609E-02  0.9426017E-01
       -2   -1    0    0    0  501  0.00000000000E+00  0.00000000000E+00  0.17098617970E+03  0.17098617972E+03  0.25500000920E-02 0.  1.
        2   -1    0    0  501    0  0.00000000000E+00  0.00000000000E+00 -0.11833895338E+04  0.11833895338E+04  0.25500000920E-02 0. -1.
    10030    2    1    2    0    0  0.00000000000E+00  0.00000000000E+00 -0.10124033541E+04  0.13543757135E+04  0.89965161146E+03 0.  0.
        5    1    3    3  502    0 -0.14296652529E+02 -0.42929007810E+03 -0.70720419240E+03  0.82743835128E+03  0.46999998093E+01 0. -1.
       -5    1    3    3    0  502  0.14296652529E+02  0.42929007810E+03 -0.30519916168E+03  0.52693736223E+03  0.46999998093E+01 0.  1.
</event>
<event>
 5   0  0.2450427E-04  0.9000014E+03  0.7818609E-02  0.9425580E-01
        1   -1    0    0  501    0  0.00000000000E+00  0.00000000000E+00  0.53133752124E+03  0.53133752126E+03  0.50400001928E-02 0.  1.
       -1   -1    0    0    0  501  0.00000000000E+00  0.00000000000E+00 -0.38111489909E+03  0.38111489912E+03  0.50400001928E-02 0. -1.
    10030    2    1    2    0    0  0.00000000000E+00  0.00000000000E+00  0.15022262215E+03  0.91245242039E+03  0.90000143514E+03 0.  0.
        3    1    3    3  502    0 -0.22678272897E+02  0.30364747627E+03  0.41103267286E+03  0.51153099834E+03  0.10100000352E+00 0.  1.
       -3    1    3    3    0  502  0.22678272897E+02 -0.30364747627E+03 -0.26081005071E+03  0.40092142205E+03  0.10100000352E+00 0. -1.
</event>
<event>
 5   0  0.4236284E-04  0.8998038E+03  0.7818609E-02  0.9425827E-01
       -2   -1    0    0    0  501  0.00000000000E+00  0.00000000000E+00  0.23691463014E+03  0.23691463016E+03  0.25500000920E-02 0. -1.
        2   -1    0    0  501    0  0.00000000000E+00  0.00000000000E+00 -0.85436566990E+03  0.85436566991E+03  0.25500000920E-02 0.  1.
    10030    2    1    2    0    0  0.00000000000E+00  0.00000000000E+00 -0.61745103976E+03  0.10912803001E+04  0.89980381573E+03 0.  0.
        2    1    3    3  502    0  0.22902435588E+03  0.34353963743E+03 -0.91976798983E+02  0.42300280097E+03  0.25500000920E-02 0. -1.
       -2    1    3    3    0  502 -0.22902435588E+03 -0.34353963743E+03 -0.52547424077E+03  0.66827749909E+03  0.25500000920E-02 0.  1.
</event>
<event>
 5   0  0.4236284E-04  0.8999447E+03  0.7818609E-02  0.9425651E-01
        2   -1    0    0  501    0  0.00000000000E+00  0.00000000000E+00  0.47534967618E+03  0.47534967618E+03  0.25500000920E-02 0. -1.
       -2   -1    0    0    0  501  0.00000000000E+00  0.00000000000E+00 -0.42594979311E+03  0.42594979312E+03  0.25500000920E-02 0.  1.
    10030    2    1    2    0    0  0.00000000000E+00  0.00000000000E+00  0.49399883068E+02  0.90129946930E+03  0.89994465659E+03 0.  0.
        2    1    3    3  502    0 -0.79320699385E+02 -0.43908703118E+03  0.82976044186E+02  0.45384382580E+03  0.25500000920E-02 0.  1.
       -2    1    3    3    0  502  0.79320699385E+02  0.43908703118E+03 -0.33576161118E+02  0.44745564350E+03  0.25500000920E-02 0. -1.
</event>
<event>
 5   0  0.2308362E-04  0.9001151E+03  0.7818609E-02  0.9425438E-01
        1   -1    0    0  501    0  0.00000000000E+00  0.00000000000E+00  0.42192452560E+03  0.42192452563E+03  0.50400001928E-02 0. -1.
       -1   -1    0    0    0  501  0.00000000000E+00  0.00000000000E+00 -0.48006640815E+03  0.48006640817E+03  0.50400001928E-02 0.  1.
    10030    2    1    2    0    0  0.00000000000E+00  0.00000000000E+00 -0.58141882548E+02  0.90199093380E+03  0.90011508495E+03 0.  0.
        1    1    3    3  502    0 -0.19203924886E+03 -0.63147416079E+01  0.37875735938E+03  0.42470705948E+03  0.50400001928E-02 0. -1.
       -1    1    3    3    0  502  0.19203924886E+03  0.63147416079E+01 -0.43689924192E+03  0.47728387432E+03  0.50400001928E-02 0.  1.
</event>
<event>
 5   0  0.4110039E-04  0.8999975E+03  0.7818609E-02  0.9425585E-01
       -2   -1    0    0    0  501  0.00000000000E+00  0.00000000000E+00  0.21868794816E+03  0.21868794818E+03  0.25500000920E-02 0. -1.
        2   -1    0    0  501    0  0.00000000000E+00  0.00000000000E+00 -0.92597186393E+03  0.92597186394E+03  0.25500000920E-02 0.  1.
    10030    2    1    2    0    0  0.00000000000E+00  0.00000000000E+00 -0.70728391577E+03  0.11446598121E+04  0.89999752664E+03 0.  0.
        3    1    3    3  502    0  0.59592768471E+02  0.38453045512E+03 -0.64110179542E+03  0.74995099257E+03  0.10100000352E+00 0.  1.
       -3    1    3    3    0  502 -0.59592768471E+02 -0.38453045512E+03 -0.66182120350E+02  0.39470881954E+03  0.10100000352E+00 0. -1.
</event>
<event>
 5   0  0.4236284E-04  0.8998659E+03  0.7818609E-02  0.9425749E-01
        2   -1    0    0  501    0  0.00000000000E+00  0.00000000000E+00  0.65097880404E+03  0.65097880405E+03  0.25500000920E-02 0. -1.
       -2   -1    0    0    0  501  0.00000000000E+00  0.00000000000E+00 -0.31097733928E+03  0.31097733929E+03  0.25500000920E-02 0.  1.
    10030    2    1    2    0    0  0.00000000000E+00  0.00000000000E+00  0.34000146476E+03  0.96195614333E+03  0.89986589315E+03 0.  0.
        2    1    3    3  502    0  0.56318640177E+02 -0.21506986502E+03  0.58815967716E+03  0.62877550995E+03  0.25500000920E-02 0.  1.
       -2    1    3    3    0  502 -0.56318640177E+02  0.21506986502E+03 -0.24815821240E+03  0.33318063338E+03  0.25500000920E-02 0. -1.
</event>
<event>
 5   0  0.2450427E-04  0.8998764E+03  0.7818609E-02  0.9425736E-01
       -1   -1    0    0    0  501  0.00000000000E+00  0.00000000000E+00  0.22837366583E+03  0.22837366588E+03  0.50400001928E-02 0. -1.
        1   -1    0    0  501    0  0.00000000000E+00  0.00000000000E+00 -0.88646121697E+03  0.88646121699E+03  0.50400001928E-02 0.  1.
    10030    2    1    2    0    0  0.00000000000E+00  0.00000000000E+00 -0.65808755115E+03  0.11148348829E+04  0.89987643101E+03 0.  0.
        3    1    3    3  502    0 -0.39954148906E+03  0.20164904963E+03 -0.38646999093E+03  0.59131616313E+03  0.10100000352E+00 0.  1.
       -3    1    3    3    0  502  0.39954148906E+03 -0.20164904963E+03 -0.27161756022E+03  0.52351871974E+03  0.10100000352E+00 0. -1.
</event>
<event>
 5   0  0.2450427E-04  0.9000652E+03  0.7818609E-02  0.9425500E-01
        1   -1    0    0  501    0  0.00000000000E+00  0.00000000000E+00  0.92952445461E+03  0.92952445462E+03  0.50400001928E-02 0. -1.
       -1   -1    0    0    0  501  0.00000000000E+00  0.00000000000E+00 -0.21788492011E+03  0.21788492017E+03  0.50400001928E-02 0.  1.
    10030    2    1    2    0    0  0.00000000000E+00  0.00000000000E+00  0.71163953450E+03  0.11474093748E+04  0.90006524559E+03 0.  0.
        3    1    3    3  502    0  0.22285009093E+03  0.38466599769E+03  0.26659003661E+03  0.51836314551E+03  0.10100000352E+00 0.  1.
       -3    1    3    3    0  502 -0.22285009093E+03 -0.38466599769E+03  0.44504949789E+03  0.62904622928E+03  0.10100000352E+00 0. -1.
</event>
<event>
 5   0  0.2351435E-04  0.8999227E+03  0.7818609E-02  0.9425678E-01
       -1   -1    0    0    0  501  0.00000000000E+00  0.00000000000E+00  0.20802509543E+03  0.20802509549E+03  0.50400001928E-02 0. -1.
        1   -1    0    0  501    0  0.00000000000E+00  0.00000000000E+00 -0.97327312890E+03  0.97327312891E+03  0.50400001928E-02 0.  1.
    10030    2    1    2    0    0  0.00000000000E+00  0.00000000000E+00 -0.76524803346E+03  0.11812982244E+04  0.89992274238E+03 0.  0.
        4    1    3    3  502    0  0.44059980566E+03 -0.76677166262E+02 -0.44767780330E+03  0.63279112276E+03  0.12699999809E+01 0. -1.
       -4    1    3    3    0  502 -0.44059980566E+03  0.76677166262E+02 -0.31757023016E+03  0.54850710165E+03  0.12699999809E+01 0.  1.
</event>
<event>
 5   0  0.4110039E-04  0.9002367E+03  0.7818609E-02  0.9425286E-01
        2   -1    0    0  501    0  0.00000000000E+00  0.00000000000E+00  0.26186793513E+03  0.26186793515E+03  0.25500000920E-02 0. -1.
       -2   -1    0    0    0  501  0.00000000000E+00  0.00000000000E+00 -0.77369743250E+03  0.77369743250E+03  0.25500000920E-02 0.  1.
    10030    2    1    2    0    0  0.00000000000E+00  0.00000000000E+00 -0.51182949736E+03  0.10355653676E+04  0.90023674459E+03 0.  0.
        3    1    3    3  502    0 -0.43699973199E+03 -0.10763054935E+03 -0.24750572219E+03  0.51362651181E+03  0.10100000352E+00 0. -1.
       -3    1    3    3    0  502  0.43699973199E+03  0.10763054935E+03 -0.26432377517E+03  0.52193885584E+03  0.10100000352E+00 0.  1.
</event>
<event>
 5   0  0.4236284E-04  0.9002776E+03  0.7818609E-02  0.9425234E-01
        2   -1    0    0  501    0  0.00000000000E+00  0.00000000000E+00  0.12834965103E+04  0.12834965103E+04  0.25500000920E-02 0.  1.
       -2   -1    0    0    0  501  0.00000000000E+00  0.00000000000E+00 -0.15786949992E+03  0.15786949994E+03  0.25500000920E-02 0. -1.
    10030    2    1    2    0    0  0.00000000000E+00  0.00000000000E+00  0.11256270104E+04  0.14413660102E+04  0.90027762883E+03 0.  0.
        2    1    3    3  502    0 -0.13824055617E+03 -0.10134870450E+03 -0.10357207658E+03  0.20027277980E+03  0.25500000920E-02 0. -1.
       -2    1    3    3    0  502  0.13824055617E+03  0.10134870450E+03  0.12291990869E+04  0.12410932304E+04  0.25500000920E-02 0.  1.
</event>
<event>
 5   0  0.4033144E-04  0.9000271E+03  0.7818609E-02  0.9425547E-01
        2   -1    0    0  501    0  0.00000000000E+00  0.00000000000E+00  0.96091419173E+03  0.96091419174E+03  0.25500000920E-02 0.  1.
       -2   -1    0    0    0  501  0.00000000000E+00  0.00000000000E+00 -0.21074953207E+03  0.21074953208E+03  0.25500000920E-02 0. -1.
    10030    2    1    2    0    0  0.00000000000E+00  0.00000000000E+00  0.75016465967E+03  0.11716637238E+04  0.90002714688E+03 0.  0.
        4    1    3    3  502    0  0.33871863899E+03 -0.20515721441E+03  0.96815284498E+02  0.40766973304E+03  0.12699999809E+01 0. -1.
       -4    1    3    3    0  502 -0.33871863899E+03  0.20515721441E+03  0.65334937517E+03  0.76399399078E+03  0.12699999809E+01 0.  1.
</event>
<event>
 5   0  0.2332791E-04  0.9004078E+03  0.7818609E-02  0.9425072E-01
       -1   -1    0    0    0  501  0.00000000000E+00  0.00000000000E+00  0.33236824203E+03  0.33236824207E+03  0.50400001928E-02 0. -1.
        1   -1    0    0  501    0  0.00000000000E+00  0.00000000000E+00 -0.60981618682E+03  0.60981618684E+03  0.50400001928E-02 0.  1.
    10030    2    1    2    0    0  0.00000000000E+00  0.00000000000E+00 -0.27744794479E+03  0.94218442891E+03  0.90040776097E+03 0.  0.
        2    1    3    3  502    0  0.30250690173E+03 -0.19543475578E+03 -0.42140310915E+03  0.55433360873E+03  0.25500000920E-02 0.  1.
       -2    1    3    3    0  502 -0.30250690173E+03  0.19543475578E+03  0.14395516436E+03  0.38785082018E+03  0.25500000920E-02 0. -1.
</event>
<event>
 5   0  0.2356918E-04  0.8980886E+03  0.7818609E-02  0.9427974E-01
        1   -1    0    0  501    0  0.00000000000E+00  0.00000000000E+00  0.35211179116E+03  0.35211179120E+03  0.50400001928E-02 0.  1.
       -1   -1    0    0    0  501  0.00000000000E+00  0.00000000000E+00 -0.57266130112E+03  0.57266130114E+03  0.50400001928E-02 0. -1.
    10030    2    1    2    0    0  0.00000000000E+00  0.00000000000E+00 -0.22054950996E+03  0.92477309234E+03  0.89808862924E+03 0.  0.
        5    1    3    3  502    0 -0.52963245683E+01 -0.43043440704E+03  0.21258177474E+02  0.43101720375E+03  0.46999998093E+01 0. -1.
       -5    1    3    3    0  502  0.52963245683E+01  0.43043440704E+03 -0.24180768743E+03  0.49375588859E+03  0.46999998093E+01 0.  1.
</event>
<event>
 5   0  0.4110039E-04  0.9011829E+03  0.7818609E-02  0.9424104E-01
       -2   -1    0    0    0  501  0.00000000000E+00  0.00000000000E+00  0.36797769887E+03  0.36797769888E+03  0.25500000920E-02 0.  1.
        2   -1    0    0  501    0  0.00000000000E+00  0.00000000000E+00 -0.55175260056E+03  0.55175260056E+03  0.25500000920E-02 0. -1.
    10030    2    1    2    0    0  0.00000000000E+00  0.00000000000E+00 -0.18377490169E+03  0.91973029944E+03  0.90118289444E+03 0.  0.
        3    1    3    3  502    0 -0.81045715992E+02  0.37793516724E+03 -0.32823352309E+03  0.50709038109E+03  0.10100000352E+00 0. -1.
       -3    1    3    3    0  502  0.81045715992E+02 -0.37793516724E+03  0.14445862140E+03  0.41263991835E+03  0.10100000352E+00 0.  1.
</event>
<event>
 5   0  0.4236284E-04  0.9000619E+03  0.7818609E-02  0.9425504E-01
        2   -1    0    0  501    0  0.00000000000E+00  0.00000000000E+00  0.41939714144E+03  0.41939714145E+03  0.25500000920E-02 0. -1.
       -2   -1    0    0    0  501  0.00000000000E+00  0.00000000000E+00 -0.48290233518E+03  0.48290233519E+03  0.25500000920E-02 0.  1.
    10030    2    1    2    0    0  0.00000000000E+00  0.00000000000E+00 -0.63505193742E+02  0.90229947663E+03  0.90006190671E+03 0.  0.
        2    1    3    3  502    0  0.28703064878E+03  0.31395598789E+03 -0.17899490692E+03  0.46151287347E+03  0.25500000920E-02 0.  1.
       -2    1    3    3    0  502 -0.28703064878E+03 -0.31395598789E+03  0.11548971317E+03  0.44078660316E+03  0.25500000920E-02 0. -1.
</event>
<event>
 5   0  0.2308362E-04  0.9008489E+03  0.7818609E-02  0.9424521E-01
        1   -1    0    0  501    0  0.00000000000E+00  0.00000000000E+00  0.18617995158E+04  0.18617995158E+04  0.50400001928E-02 0. -1.
       -1   -1    0    0    0  501  0.00000000000E+00  0.00000000000E+00 -0.10897102082E+03  0.10897102094E+03  0.50400001928E-02 0.  1.
    10030    2    1    2    0    0  0.00000000000E+00  0.00000000000E+00  0.17528284950E+04  0.19707705368E+04  0.90084891947E+03 0.  0.
        1    1    3    3  502    0  0.11545667127E+02  0.30236251932E+03  0.16063455832E+04  0.16345955243E+04  0.50400001928E-02 0. -1.
       -1    1    3    3    0  502 -0.11545667127E+02 -0.30236251932E+03  0.14648291185E+03  0.33617501247E+03  0.50400001928E-02 0.  1.
</event>
<event>
 5   0  0.2450427E-04  0.9002074E+03  0.7818609E-02  0.9425322E-01
        1   -1    0    0  501    0  0.00000000000E+00  0.00000000000E+00  0.97439515785E+03  0.97439515786E+03  0.50400001928E-02 0.  1.
       -1   -1    0    0    0  501  0.00000000000E+00  0.00000000000E+00 -0.20791703914E+03  0.20791703921E+03  0.50400001928E-02 0. -1.
    10030    2    1    2    0    0  0.00000000000E+00  0.00000000000E+00  0.76647811871E+03  0.11823121971E+04  0.90020743436E+03 0.  0.
        3    1    3    3  502    0  0.21615496651E+03  0.16879079844E+03 -0.85509849690E+02  0.28727207971E+03  0.10100000352E+00 0. -1.
       -3    1    3    3    0  502 -0.21615496651E+03 -0.16879079844E+03  0.85198796840E+03  0.89504011736E+03  0.10100000352E+00 0.  1.
</event>
<event>
 5   0  0.2351435E-04  0.9001270E+03  0.7818609E-02  0.9425423E-01
        1   -1    0    0  501    0  0.00000000000E+00  0.00000000000E+00  0.35549311846E+03  0.35549311850E+03  0.50400001928E-02 0. -1.
       -1   -1    0    0    0  501  0.00000000000E+00  0.00000000000E+00 -0.56979200055E+03  0.56979200057E+03  0.50400001928E-02 0.  1.
    10030    2    1    2    0    0  0.00000000000E+00  0.00000000000E+00 -0.21429888209E+03  0.92528511907E+03  0.90012695810E+03 0.  0.
        4    1    3    3  502    0  0.11713471424E+02 -0.44714960340E+03 -0.15829495846E+03  0.47448801882E+03  0.12699999809E+01 0. -1.
       -4    1    3    3    0  502 -0.11713471424E+02  0.44714960340E+03 -0.56003923633E+02  0.45079710025E+03  0.12699999809E+01 0.  1.
</event>
<event>
 5   0  0.1596250E-04  0.8997357E+03  0.7818609E-02  0.9425912E-01
       -3   -1    0    0    0  501  0.00000000000E+00  0.00000000000E+00  0.53359015689E+03  0.53359016645E+03  0.10100000352E+00 0.  1.
        3   -1    0    0  501    0  0.00000000000E+00  0.00000000000E+00 -0.37928186469E+03  0.37928187814E+03  0.10100000352E+00 0. -1.
    10030    2    1    2    0    0  0.00000000000E+00  0.00000000000E+00  0.15430829220E+03  0.91287204459E+03  0.89973569494E+03 0.  0.
        4    1    3    3  502    0 -0.41760774870E+03  0.15279098217E+03  0.80558382186E+01  0.44475591669E+03  0.12699999809E+01 0. -1.
       -4    1    3    3    0  502  0.41760774870E+03 -0.15279098217E+03  0.14625245398E+03  0.46811612790E+03  0.12699999809E+01 0.  1.
</event>
<event>
 5   0  0.2308362E-04  0.9000567E+03  0.7818609E-02  0.9425511E-01
       -1   -1    0    0    0  501  0.00000000000E+00  0.00000000000E+00  0.10342789970E+03  0.10342789982E+03  0.50400001928E-02 0. -1.
        1   -1    0    0  501    0  0.00000000000E+00  0.00000000000E+00 -0.19581322416E+04  0.19581322416E+04  0.50400001928E-02 0.  1.
    10030    2    1    2    0    0  0.00000000000E+00  0.00000000000E+00 -0.18547043419E+04  0.20615601414E+04  0.90005667646E+03 0.  0.
        1    1    3    3  502    0 -0.78079379361E+01  0.16133357441E+03  0.34746857791E+02  0.16521752413E+03  0.50400001928E-02 0. -1.
       -1    1    3    3    0  502  0.78079379361E+01 -0.16133357441E+03 -0.18894511997E+04  0.18963426173E+04  0.50400001928E-02 0.  1.
</event>
<event>
 5   0  0.4110039E-04  0.9000399E+03  0.7818609E-02  0.9425532E-01
        2   -1    0    0  501    0  0.00000000000E+00  0.00000000000E+00  0.36168988863E+03  0.36168988864E+03  0.25500000920E-02 0.  1.
       -2   -1    0    0    0  501  0.00000000000E+00  0.00000000000E+00 -0.55992149743E+03  0.55992149743E+03  0.25500000920E-02 0. -1.
    10030    2    1    2    0    0  0.00000000000E+00  0.00000000000E+00 -0.19823160880E+03  0.92161138607E+03  0.90003987479E+03 0.  0.
        3    1    3    3  502    0  0.21322608209E+03  0.15245101234E+03 -0.47368530512E+03  0.54137274750E+03  0.10100000352E+00 0. -1.
       -3    1    3    3    0  502 -0.21322608209E+03 -0.15245101234E+03  0.27545369632E+03  0.38023863858E+03  0.10100000352E+00 0.  1.
</event>
<event>
 5   0  0.2332791E-04  0.8999223E+03  0.7818609E-02  0.9425679E-01
        1   -1    0    0  501    0  0.00000000000E+00  0.00000000000E+00  0.56242996515E+03  0.56242996517E+03  0.50400001928E-02 0. -1.
       -1   -1    0    0    0  501  0.00000000000E+00  0.00000000000E+00 -0.35998264524E+03  0.35998264528E+03  0.50400001928E-02 0.  1.
    10030    2    1    2    0    0  0.00000000000E+00  0.00000000000E+00  0.20244731991E+03  0.92241261045E+03  0.89992227808E+03 0.  0.
        2    1    3    3  502    0 -0.40626532306E+01  0.40475464794E+03 -0.10021309326E+03  0.41699579644E+03  0.25500000920E-02 0.  1.
       -2    1    3    3    0  502  0.40626532306E+01 -0.40475464794E+03  0.30266041316E+03  0.50541681401E+03  0.25500000920E-02 0. -1.
</event>
<event>
 5   0  0.4243516E-04  0.9003119E+03  0.7818609E-02  0.9425192E-01
        2   -1    0    0  501    0  0.00000000000E+00  0.00000000000E+00  0.13493009509E+04  0.13493009509E+04  0.25500000920E-02 0.  1.
       -2   -1    0    0    0  501  0.00000000000E+00  0.00000000000E+00 -0.15018174176E+03  0.15018174178E+03  0.25500000920E-02 0. -1.
    10030    2    1    2    0    0  0.00000000000E+00  0.00000000000E+00  0.11991192091E+04  0.14994826926E+04  0.90031187257E+03 0.  0.
        1    1    3    3  502    0  0.16440632091E+03  0.40276690174E+03  0.79228313280E+03  0.90386015403E+03  0.50400001928E-02 0.  1.
       -1    1    3    3    0  502 -0.16440632091E+03 -0.40276690174E+03  0.40683607631E+03  0.59562253861E+03  0.50400001928E-02 0. -1.
</event>
<event>
 5   0  0.2332791E-04  0.8997583E+03  0.7818609E-02  0.9425884E-01
       -1   -1    0    0    0  501  0.00000000000E+00  0.00000000000E+00  0.22637382287E+03  0.22637382293E+03  0.50400001928E-02 0. -1.
        1   -1    0    0  501    0  0.00000000000E+00  0.00000000000E+00 -0.89405764349E+03  0.89405764351E+03  0.50400001928E-02 0.  1.
    10030    2    1    2    0    0  0.00000000000E+00  0.00000000000E+00 -0.66768382062E+03  0.11204314664E+04  0.89975829346E+03 0.  0.
        2    1    3    3  502    0  0.18987278843E+02 -0.14166664629E+03 -0.86503075222E+03  0.87676003428E+03  0.25500000920E-02 0.  1.
       -2    1    3    3    0  502 -0.18987278843E+02  0.14166664629E+03  0.19734693160E+03  0.24367143215E+03  0.25500000920E-02 0. -1.
</event>
<event>
 5   0  0.2450427E-04  0.9000507E+03  0.7818609E-02  0.9425518E-01
        1   -1    0    0  501    0  0.00000000000E+00  0.00000000000E+00  0.16127829114E+04  0.16127829114E+04  0.50400001928E-02 0.  1.
       -1   -1    0    0    0  501  0.00000000000E+00  0.00000000000E+00 -0.12557351048E+03  0.12557351058E+03  0.50400001928E-02 0. -1.
    10030    2    1    2    0    0  0.00000000000E+00  0.00000000000E+00  0.14872094009E+04  0.17383564219E+04  0.90005069171E+03 0.  0.
        3    1    3    3  502    0  0.27036025670E+03  0.10443061187E+03  0.14085287472E+04  0.14380381298E+04  0.10100000352E+00 0.  1.
       -3    1    3    3    0  502 -0.27036025670E+03 -0.10443061187E+03  0.78680653717E+02  0.30031829210E+03  0.10100000352E+00 0. -1.
</event>
<event>
 5   0  0.4243516E-04  0.8991972E+03  0.7818609E-02  0.9426586E-01
        2   -1    0    0  501    0  0.00000000000E+00  0.00000000000E+00  0.68911702829E+03  0.68911702830E+03  0.25500000920E-02 0. -1.
       -2   -1    0    0    0  501  0.00000000000E+00  0.00000000000E+00 -0.29333026568E+03  0.29333026569E+03  0.25500000920E-02 0.  1.
    10030    2    1    2    0    0  0.00000000000E+00  0.00000000000E+00  0.39578676262E+03  0.98244729399E+03  0.89919715525E+03 0.  0.
        1    1    3    3  502    0  0.64480750700E+02 -0.46979424256E+02 -0.28553472478E+03  0.29647076179E+03  0.50400001928E-02 0.  1.
       -1    1    3    3    0  502 -0.64480750700E+02  0.46979424256E+02  0.68132148740E+03  0.68597653220E+03  0.50400001928E-02 0. -1.
</event>
<event>
 5   0  0.2351435E-04  0.9001902E+03  0.7818609E-02  0.9425344E-01
        1   -1    0    0  501    0  0.00000000000E+00  0.00000000000E+00  0.29852454796E+03  0.29852454800E+03  0.50400001928E-02 0.  1.
       -1   -1    0    0    0  501  0.00000000000E+00  0.00000000000E+00 -0.67862297839E+03  0.67862297841E+03  0.50400001928E-02 0. -1.
    10030    2    1    2    0    0  0.00000000000E+00  0.00000000000E+00 -0.38009843043E+03  0.97714752641E+03  0.90019024187E+03 0.  0.
        4    1    3    3  502    0  0.26181690299E+03 -0.22316363676E+03 -0.50509183104E+03  0.61112148559E+03  0.12699999809E+01 0.  1.
       -4    1    3    3    0  502 -0.26181690299E+03  0.22316363676E+03  0.12499340061E+03  0.36602604082E+03  0.12699999809E+01 0. -1.
</event>
<event>
 5   0  0.4236284E-04  0.9000068E+03  0.7818609E-02  0.9425573E-01
        2   -1    0    0  501    0  0.00000000000E+00  0.00000000000E+00  0.10175736300E+04  0.10175736300E+04  0.25500000920E-02 0.  1.
       -2   -1    0    0    0  501  0.00000000000E+00  0.00000000000E+00 -0.19900580912E+03  0.19900580913E+03  0.25500000920E-02 0. -1.
    10030    2    1    2    0    0  0.00000000000E+00  0.00000000000E+00  0.81856782090E+03  0.12165794392E+04  0.90000680795E+03 0.  0.
        2    1    3    3  502    0 -0.27881762274E+03  0.92850574956E+02 -0.51386575727E+02  0.29833048150E+03  0.25500000920E-02 0. -1.
       -2    1    3    3    0  502  0.27881762274E+03 -0.92850574956E+02  0.86995439663E+03  0.91824895766E+03  0.25500000920E-02 0.  1.
</event>
<event>
 5   0  0.2450427E-04  0.8998862E+03  0.7818609E-02  0.9425724E-01
       -1   -1    0    0    0  501  0.00000000000E+00  0.00000000000E+00  0.56884224144E+03  0.56884224146E+03  0.50400001928E-02 0. -1.
        1   -1    0    0  501    0  0.00000000000E+00  0.00000000000E+00 -0.35589616260E+03  0.35589616264E+03  0.50400001928E-02 0.  1.
    10030    2    1    2    0    0  0.00000000000E+00  0.00000000000E+00  0.21294607884E+03  0.92473840410E+03  0.89988615031E+03 0.  0.
        3    1    3    3  502    0  0.29561076348E+03  0.16587463142E+03 -0.19758468284E+03  0.39235167125E+03  0.10100000352E+00 0.  1.
       -3    1    3    3    0  502 -0.29561076348E+03 -0.16587463142E+03  0.41053076168E+03  0.53238673285E+03  0.10100000352E+00 0. -1.
</event>
<event>
 5   0  0.4110039E-04  0.9000249E+03  0.7818609E-02  0.9425550E-01
       -2   -1    0    0    0  501  0.00000000000E+00  0.00000000000E+00  0.15624725361E+03  0.15624725364E+03  0.25500000920E-02 0. -1.
        2   -1    0    0  501    0  0.00000000000E+00  0.00000000000E+00 -0.12960944400E+04  0.12960944400E+04  0.25500000920E-02 0.  1.
    10030    2    1    2    0    0  0.00000000000E+00  0.00000000000E+00 -0.11398471863E+04  0.14523416936E+04  0.90002488118E+03 0.  0.
        3    1    3    3  502    0  0.12172469044E+03 -0.40223808888E+03 -0.31023422999E+03  0.52235779698E+03  0.10100000352E+00 0.  1.
       -3    1    3    3    0  502 -0.12172469044E+03  0.40223808888E+03 -0.82961295635E+03  0.92998389661E+03  0.10100000352E+00 0. -1.
</event>
<event>
 5   0  0.2332791E-04  0.9001217E+03  0.7818609E-02  0.9425429E-01
       -1   -1    0    0    0  501  0.00000000000E+00  0.00000000000E+00  0.39449259052E+03  0.39449259055E+03  0.50400001928E-02 0.  1.
        1   -1    0    0  501    0  0.00000000000E+00  0.00000000000E+00 -0.51345642909E+03  0.51345642912E+03  0.50400001928E-02 0. -1.
    10030    2    1    2    0    0  0.00000000000E+00  0.00000000000E+00 -0.11896383857E+03  0.90794901967E+03  0.90012167368E+03 0.  0.
        2    1    3    3  502    0 -0.28760888166E+03 -0.34443511613E+03 -0.94429101993E+02  0.45855345745E+03  0.25500000920E-02 0. -1.
       -2    1    3    3    0  502  0.28760888166E+03  0.34443511613E+03 -0.24534736580E+02  0.44939556221E+03  0.25500000920E-02 0.  1.
</event>
<event>
 5   0  0.4236284E-04  0.8997059E+03  0.7818609E-02  0.9425949E-01
       -2   -1    0    0    0  501  0.00000000000E+00  0.00000000000E+00  0.25375478186E+03  0.25375478188E+03  0.25500000920E-02 0. -1.
        2   -1    0    0  501    0  0.00000000000E+00  0.00000000000E+00 -0.79749310140E+03  0.79749310140E+03  0.25500000920E-02 0.  1.
    10030    2    1    2    0    0  0.00000000000E+00  0.00000000000E+00 -0.54373831953E+03  0.10512478833E+04  0.89970592527E+03 0.  0.
        2    1    3    3  502    0 -0.40002943622E+02  0.39947832710E+03 -0.34747322676E+02  0.40297710327E+03  0.25500000920E-02 0. -1.
       -2    1    3    3    0  502  0.40002943622E+02 -0.39947832710E+03 -0.50899099686E+03  0.64827078000E+03  0.25500000920E-02 0.  1.
</event>
<event>
 5   0  0.4243516E-04  0.8999963E+03  0.7818609E-02  0.9425586E-01
       -2   -1    0    0    0  501  0.00000000000E+00  0.00000000000E+00  0.44333147926E+03  0.44333147927E+03  0.25500000920E-02 0. -1.
        2   -1    0    0  501    0  0.00000000000E+00  0.00000000000E+00 -0.45676509283E+03  0.45676509283E+03  0.25500000920E-02 0.  1.
    10030    2    1    2    0    0  0.00000000000E+00  0.00000000000E+00 -0.13433613564E+02  0.90009657210E+03  0.89999632062E+03 0.  0.
        1    1    3    3  502    0  0.12683782567E+03  0.40798943667E+03 -0.14799516922E+03  0.45215681416E+03  0.50400001928E-02 0.  1.
       -1    1    3    3    0  502 -0.12683782567E+03 -0.40798943667E+03  0.13456155565E+03  0.44793975794E+03  0.50400001928E-02 0. -1.
</event>
<event>
 5   0  0.2308362E-04  0.9001396E+03  0.7818609E-02  0.9425407E-01
        1   -1    0    0  501    0  0.00000000000E+00  0.00000000000E+00  0.53476635367E+03  0.53476635370E+03  0.50400001928E-02 0. -1.
       -1   -1    0    0    0  501  0.00000000000E+00  0.00000000000E+00 -0.37878749009E+03  0.37878749012E+03  0.50400001928E-02 0.  1.
    10030    2    1    2    0    0  0.00000000000E+00  0.00000000000E+00  0.15597886358E+03  0.91355384382E+03  0.90013955567E+03 0.  0.
        1    1    3    3  502    0 -0.13089994316E+03 -0.31864532830E+03 -0.21597012972E+03  0.40658669103E+03  0.50400001928E-02 0.  1.
       -1    1    3    3    0  502  0.13089994316E+03  0.31864532830E+03  0.37194899330E+03  0.50696715279E+03  0.50400001928E-02 0. -1.
</event>
<event>
 5   0  0.2332791E-04  0.9002412E+03  0.7818609E-02  0.9425280E-01
        1   -1    0    0  501    0  0.00000000000E+00  0.00000000000E+00  0.44674656412E+03  0.44674656415E+03  0.50400001928E-02 0. -1.
       -1   -1    0    0    0  501  0.00000000000E+00  0.00000000000E+00 -0.45352015009E+03  0.45352015012E+03  0.50400001928E-02 0.  1.
    10030    2    1    2    0    0  0.00000000000E+00  0.00000000000E+00 -0.67735859653E+01  0.90026671427E+03  0.90024123176E+03 0.  0.
        2    1    3    3  502    0  0.79206967130E+02  0.15879991893E+02 -0.44621153479E+03  0.45346516026E+03  0.25500000920E-02 0.  1.
       -2    1    3    3    0  502 -0.79206967130E+02 -0.15879991893E+02  0.43943794883E+03  0.44680155400E+03  0.25500000920E-02 0. -1.
</event>
<event>
 5   0  0.4236284E-04  0.9000757E+03  0.7818609E-02  0.9425487E-01
       -2   -1    0    0    0  501  0.00000000000E+00  0.00000000000E+00  0.29079492634E+03  0.29079492636E+03  0.25500000920E-02 0. -1.
        2   -1    0    0  501    0  0.00000000000E+00  0.00000000000E+00 -0.69648415492E+03  0.69648415492E+03  0.25500000920E-02 0.  1.
    10030    2    1    2    0    0  0.00000000000E+00  0.00000000000E+00 -0.40568922857E+03  0.98727908128E+03  0.90007568246E+03 0.  0.
        2    1    3    3  502    0  0.54813474642E+02  0.34935951574E+03  0.10247072407E+03  0.36818044155E+03  0.25500000920E-02 0.  1.
       -2    1    3    3    0  502 -0.54813474642E+02 -0.34935951574E+03 -0.50815995264E+03  0.61909863973E+03  0.25500000920E-02 0. -1.
</event>
<event>
 5   0  0.4033144E-04  0.8999463E+03  0.7818609E-02  0.9425649E-01
        2   -1    0    0  501    0  0.00000000000E+00  0.00000000000E+00  0.36100352400E+03  0.36100352401E+03  0.25500000920E-02 0.  1.
       -2   -1    0    0    0  501  0.00000000000E+00  0.00000000000E+00 -0.56086944940E+03  0.56086944941E+03  0.25500000920E-02 0. -1.
    10030    2    1    2    0    0  0.00000000000E+00  0.00000000000E+00 -0.19986592540E+03  0.92187297341E+03  0.89994632672E+03 0.  0.
        4    1    3    3  502    0 -0.11809417170E+02 -0.51746664432E+02 -0.55764971203E+03  0.56017139685E+03  0.12699999809E+01 0. -1.
       -4    1    3    3    0  502  0.11809417170E+02  0.51746664432E+02  0.35778378663E+03  0.36170157656E+03  0.12699999809E+01 0.  1.
</event>
<event>
 5   0  0.4110039E-04  0.8981229E+03  0.7818609E-02  0.9427931E-01
        2   -1    0    0  501    0  0.00000000000E+00  0.00000000000E+00  0.84300988785E+03  0.84300988785E+03  0.25500000920E-02 0. -1.
       -2   -1    0    0    0  501  0.00000000000E+00  0.00000000000E+00 -0.23920974539E+03  0.23920974541E+03  0.25500000920E-02 0.  1.
    10030    2    1    2    0    0  0.00000000000E+00  0.00000000000E+00  0.60380014245E+03  0.10822196333E+04  0.89812288835E+03 0.  0.
        3    1    3    3  502    0  0.30715902945E+03  0.32754359978E+03  0.29591248556E+03  0.53776917766E+03  0.10100000352E+00 0.  1.
       -3    1    3    3    0  502 -0.30715902945E+03 -0.32754359978E+03  0.30788765689E+03  0.54445045560E+03  0.10100000352E+00 0. -1.
</event>
<event>
 5   0  0.3959804E-04  0.9002190E+03  0.7818609E-02  0.9425308E-01
        2   -1    0    0  501    0  0.00000000000E+00  0.00000000000E+00  0.17951091714E+04  0.17951091714E+04  0.25500000920E-02 0.  1.
       -2   -1    0    0    0  501  0.00000000000E+00  0.00000000000E+00 -0.11286142730E+03  0.11286142733E+03  0.25500000920E-02 0. -1.
    10030    2    1    2    0    0  0.00000000000E+00  0.00000000000E+00  0.16822477441E+04  0.19079705988E+04  0.90021904729E+03 0.  0.
        5    1    3    3  502    0 -0.15783559893E+03  0.12079698395E+03 -0.14758048428E+02  0.19935866576E+03  0.46999998093E+01 0. -1.
       -5    1    3    3    0  502  0.15783559893E+03 -0.12079698395E+03  0.16970057926E+04  0.17086119330E+04  0.46999998093E+01 0.  1.
</event>
<event>
 5   0  0.2351435E-04  0.8999473E+03  0.7818609E-02  0.9425647E-01
       -1   -1    0    0    0  501  0.00000000000E+00  0.00000000000E+00  0.91258759531E+03  0.91258759533E+03  0.50400001928E-02 0.  1.
        1   -1    0    0  501    0  0.00000000000E+00  0.00000000000E+00 -0.22187050994E+03  0.22187051000E+03  0.50400001928E-02 0. -1.
    10030    2    1    2    0    0  0.00000000000E+00  0.00000000000E+00  0.69071708537E+03  0.11344581053E+04  0.89994727663E+03 0.  0.
        4    1    3    3  502    0  0.10932167790E+03  0.20706830211E+03 -0.13901728348E+03  0.27231586256E+03  0.12699999809E+01 0. -1.
       -4    1    3    3    0  502 -0.10932167790E+03 -0.20706830211E+03  0.82973436886E+03  0.86214224276E+03  0.12699999809E+01 0.  1.
</event>
<event>
 5   0  0.2450427E-04  0.9001997E+03  0.7818609E-02  0.9425332E-01
        1   -1    0    0  501    0  0.00000000000E+00  0.00000000000E+00  0.54131544275E+03  0.54131544277E+03  0.50400001928E-02 0.  1.
       -1   -1    0    0    0  501  0.00000000000E+00  0.00000000000E+00 -0.37425473283E+03  0.37425473286E+03  0.50400001928E-02 0. -1.
    10030    2    1    2    0    0  0.00000000000E+00  0.00000000000E+00  0.16706070992E+03  0.91557017563E+03  0.90019968102E+03 0.  0.
        3    1    3    3  502    0 -0.25856957795E+03  0.93195782079E+02 -0.27899098868E+03  0.39163715657E+03  0.10100000352E+00 0. -1.
       -3    1    3    3    0  502  0.25856957795E+03 -0.93195782079E+02  0.44605169860E+03  0.52393301906E+03  0.10100000352E+00 0.  1.
</event>
<event>
 5   0  0.2308362E-04  0.9002145E+03  0.7818609E-02  0.9425313E-01
        1   -1    0    0  501    0  0.00000000000E+00  0.00000000000E+00  0.60252362779E+03  0.60252362781E+03  0.50400001928E-02 0.  1.
       -1   -1    0    0    0  501  0.00000000000E+00  0.00000000000E+00 -0.33624665333E+03  0.33624665337E+03  0.50400001928E-02 0. -1.
    10030    2    1    2    0    0  0.00000000000E+00  0.00000000000E+00  0.26627697446E+03  0.93877028118E+03  0.90021453760E+03 0.  0.
        1    1    3    3  502    0 -0.32600759307E+03 -0.11094777897E+03  0.43539033351E+03  0.55511719748E+03  0.50400001928E-02 0.  1.
       -1    1    3    3    0  502  0.32600759307E+03  0.11094777897E+03 -0.16911335906E+03  0.38365308370E+03  0.50400001928E-02 0. -1.
</event>
<event>
 5   0  0.4033144E-04  0.9008828E+03  0.7818609E-02  0.9424479E-01
        2   -1    0    0  501    0  0.00000000000E+00  0.00000000000E+00  0.58863741171E+03  0.58863741172E+03  0.25500000920E-02 0.  1.
       -2   -1    0    0    0  501  0.00000000000E+00  0.00000000000E+00 -0.34469006054E+03  0.34469006055E+03  0.25500000920E-02 0. -1.
    10030    2    1    2    0    0  0.00000000000E+00  0.00000000000E+00  0.24394735117E+03  0.93332747227E+03  0.90088282276E+03 0.  0.
        4    1    3    3  502    0  0.15788091051E+03 -0.39058688912E+03 -0.43176725198E+02  0.42349774776E+03  0.12699999809E+01 0. -1.
       -4    1    3    3    0  502 -0.15788091051E+03  0.39058688912E+03  0.28712407637E+03  0.50982972451E+03  0.12699999809E+01 0.  1.
</event>
<event>
 5   0  0.4033144E-04  0.8999992E+03  0.7818609E-02  0.9425582E-01
        2   -1    0    0  501    0  0.00000000000E+00  0.00000000000E+00  0.89956785694E+03  0.89956785695E+03  0.25500000920E-02 0. -1.
       -2   -1    0    0    0  501  0.00000000000E+00  0.00000000000E+00 -0.22510769063E+03  0.22510769064E+03  0.25500000920E-02 0.  1.
    10030    2    1    2    0    0  0.00000000000E+00  0.00000000000E+00  0.67446016632E+03  0.11246755476E+04  0.89999920633E+03 0.  0.
        4    1    3    3  502    0  0.33441693653E+03 -0.23548827569E+03  0.10274803748E+03  0.42172050878E+03  0.12699999809E+01 0. -1.
       -4    1    3    3    0  502 -0.33441693653E+03  0.23548827569E+03  0.57171212884E+03  0.70295503881E+03  0.12699999809E+01 0.  1.
</event>
<event>
 5   0  0.2356918E-04  0.9002142E+03  0.7818609E-02  0.9425314E-01
        1   -1    0    0  501    0  0.00000000000E+00  0.00000000000E+00  0.17196335524E+03  0.17196335531E+03  0.50400001928E-02 0. -1.
       -1   -1    0    0    0  501  0.00000000000E+00  0.00000000000E+00 -0.11781371418E+04  0.11781371418E+04  0.50400001928E-02 0.  1.
    10030    2    1    2    0    0  0.00000000000E+00  0.00000000000E+00 -0.10061737865E+04  0.13501004971E+04  0.90021423203E+03 0.  0.
        5    1    3    3  502    0 -0.37158988395E+03 -0.12595623335E+03 -0.17235677407E+03  0.42857083678E+03  0.46999998093E+01 0.  1.
       -5    1    3    3    0  502  0.37158988395E+03  0.12595623335E+03 -0.83381701245E+03  0.92152966030E+03  0.46999998093E+01 0. -1.
</event>
<event>
 5   0  0.4236284E-04  0.8992792E+03  0.7818609E-02  0.9426483E-01
        2   -1    0    0  501    0  0.00000000000E+00  0.00000000000E+00  0.37494041151E+03  0.37494041152E+03  0.25500000920E-02 0. -1.
       -2   -1    0    0    0  501  0.00000000000E+00  0.00000000000E+00 -0.53922102292E+03  0.53922102292E+03  0.25500000920E-02 0.  1.
    10030    2    1    2    0    0  0.00000000000E+00  0.00000000000E+00 -0.16428061141E+03  0.91416143444E+03  0.89927916073E+03 0.  0.
        2    1    3    3  502    0  0.15636726685E+03  0.32086495443E+03  0.19582725876E+03  0.40712818179E+03  0.25500000920E-02 0. -1.
       -2    1    3    3    0  502 -0.15636726685E+03 -0.32086495443E+03 -0.36010787017E+03  0.50703325265E+03  0.25500000920E-02 0.  1.
</event>
<event>
 5   0  0.2332791E-04  0.8998803E+03  0.7818609E-02  0.9425731E-01
       -1   -1    0    0    0  501  0.00000000000E+00  0.00000000000E+00  0.31405541042E+03  0.31405541046E+03  0.50400001928E-02 0. -1.
        1   -1    0    0  501    0  0.00000000000E+00  0.00000000000E+00 -0.64461924155E+03  0.64461924157E+03  0.50400001928E-02 0.  1.
    10030    2    1    2    0    0  0.00000000000E+00  0.00000000000E+00 -0.33056383113E+03  0.95867465202E+03  0.89988034870E+03 0.  0.
        2    1    3    3  502    0  0.10897066079E+03  0.30028351930E+03  0.17228220704E+03  0.36294070555E+03  0.25500000920E-02 0. -1.
       -2    1    3    3    0  502 -0.10897066079E+03 -0.30028351930E+03 -0.50284603817E+03  0.59573394648E+03  0.25500000920E-02 0.  1.
</event>
<event>
 5   0  0.2450427E-04  0.9001167E+03  0.7818609E-02  0.9425436E-01
        1   -1    0    0  501    0  0.00000000000E+00  0.00000000000E+00  0.45307893804E+03  0.45307893807E+03  0.50400001928E-02 0. -1.
       -1   -1    0    0    0  501  0.00000000000E+00  0.00000000000E+00 -0.44705787789E+03  0.44705787792E+03  0.50400001928E-02 0.  1.
    10030    2    1    2    0    0  0.00000000000E+00  0.00000000000E+00  0.60210601428E+01  0.90013681599E+03  0.90011667818E+03 0.  0.
        3    1    3    3  502    0  0.13035203347E+03  0.41025016260E+02 -0.42580880424E+03  0.44720001404E+03  0.10100000352E+00 0.  1.
       -3    1    3    3    0  502 -0.13035203347E+03 -0.41025016260E+02  0.43182986438E+03  0.45293680195E+03  0.10100000352E+00 0. -1.
</event>
<event>
 5   0  0.3959804E-04  0.8998981E+03  0.7818609E-02  0.9425709E-01
        2   -1    0    0  501    0  0.00000000000E+00  0.00000000000E+00  0.12762414233E+04  0.12762414233E+04  0.25500000920E-02 0.  1.
       -2   -1    0    0    0  501  0.00000000000E+00  0.00000000000E+00 -0.15863309619E+03  0.15863309621E+03  0.25500000920E-02 0. -1.
    10030    2    1    2    0    0  0.00000000000E+00  0.00000000000E+00  0.11176083271E+04  0.14348745195E+04  0.89989805750E+03 0.  0.
        5    1    3    3  502    0 -0.46490792648E+02  0.29634406341E+03  0.24114285792E+02  0.30097306606E+03  0.46999998093E+01 0. -1.
       -5    1    3    3    0  502  0.46490792648E+02 -0.29634406341E+03  0.10934940413E+04  0.11339014534E+04  0.46999998093E+01 0.  1.
</event>
<event>
 5   0  0.4243516E-04  0.8998941E+03  0.7818609E-02  0.9425714E-01
       -2   -1    0    0    0  501  0.00000000000E+00  0.00000000000E+00  0.96175547967E+02  0.96175548001E+02  0.25500000920E-02 0.  1.
        2   -1    0    0  501    0  0.00000000000E+00  0.00000000000E+00 -0.21050291971E+04  0.21050291971E+04  0.25500000920E-02 0. -1.
    10030    2    1    2    0    0  0.00000000000E+00  0.00000000000E+00 -0.20088536491E+04  0.22012047451E+04  0.89989407501E+03 0.  0.
        1    1    3    3  502    0 -0.14886295270E+03 -0.60604198848E+02  0.23561338494E+02  0.16244440373E+03  0.50400001928E-02 0.  1.
       -1    1    3    3    0  502  0.14886295270E+03  0.60604198848E+02 -0.20324149876E+04  0.20387603414E+04  0.50400001928E-02 0. -1.
</event>
<event>
 5   0  0.2351435E-04  0.9000979E+03  0.7818609E-02  0.9425459E-01
        1   -1    0    0  501    0  0.00000000000E+00  0.00000000000E+00  0.66755027375E+03  0.66755027377E+03  0.50400001928E-02 0. -1.
       -1   -1    0    0    0  501  0.00000000000E+00  0.00000000000E+00 -0.30341394566E+03  0.30341394570E+03  0.50400001928E-02 0.  1.
    10030    2    1    2    0    0  0.00000000000E+00  0.00000000000E+00  0.36413632809E+03  0.97096421947E+03  0.90009791137E+03 0.  0.
        4    1    3    3  502    0 -0.50152595063E+02  0.30691740414E+03 -0.16885784687E+03  0.35387591202E+03  0.12699999809E+01 0.  1.
       -4    1    3    3    0  502  0.50152595063E+02 -0.30691740414E+03  0.53299417496E+03  0.61708830745E+03  0.12699999809E+01 0. -1.
</event>
<event>
 5   0  0.2351435E-04  0.8998912E+03  0.7818609E-02  0.9425717E-01
        1   -1    0    0  501    0  0.00000000000E+00  0.00000000000E+00  0.82221675452E+03  0.82221675453E+03  0.50400001928E-02 0. -1.
       -1   -1    0    0    0  501  0.00000000000E+00  0.00000000000E+00 -0.24622587674E+03  0.24622587680E+03  0.50400001928E-02 0.  1.
    10030    2    1    2    0    0  0.00000000000E+00  0.00000000000E+00  0.57599087777E+03  0.10684426313E+04  0.89989119629E+03 0.  0.
        4    1    3    3  502    0 -0.22872932764E+03  0.38597369996E+03  0.32837463623E+03  0.55598949361E+03  0.12699999809E+01 0.  1.
       -4    1    3    3    0  502  0.22872932764E+03 -0.38597369996E+03  0.24761624154E+03  0.51245313772E+03  0.12699999809E+01 0. -1.
</event>
<event>
 5   0  0.2450427E-04  0.8999218E+03  0.7818609E-02  0.9425679E-01
       -1   -1    0    0    0  501  0.00000000000E+00  0.00000000000E+00  0.27383040260E+03  0.27383040264E+03  0.50400001928E-02 0.  1.
        1   -1    0    0  501    0  0.00000000000E+00  0.00000000000E+00 -0.73938024644E+03  0.73938024646E+03  0.50400001928E-02 0. -1.
    10030    2    1    2    0    0  0.00000000000E+00  0.00000000000E+00 -0.46554984384E+03  0.10132106491E+04  0.89992175346E+03 0.  0.
        3    1    3    3  502    0  0.21211206849E+03 -0.38190200314E+03 -0.35416267313E+03  0.56238054629E+03  0.10100000352E+00 0. -1.
       -3    1    3    3    0  502 -0.21211206849E+03  0.38190200314E+03 -0.11138717071E+03  0.45083010281E+03  0.10100000352E+00 0.  1.
</event>
<event>
 5   0  0.4033144E-04  0.8998912E+03  0.7818609E-02  0.9425717E-01
       -2   -1    0    0    0  501  0.00000000000E+00  0.00000000000E+00  0.91058273475E+03  0.91058273475E+03  0.25500000920E-02 0. -1.
        2   -1    0    0  501    0  0.00000000000E+00  0.00000000000E+00 -0.22233130929E+03  0.22233130931E+03  0.25500000920E-02 0.  1.
    10030    2    1    2    0    0  0.00000000000E+00  0.00000000000E+00  0.68825142546E+03  0.11329140441E+04  0.89989121930E+03 0.  0.
        4    1    3    3  502    0  0.37495894537E+02  0.10591533004E+03  0.89263521215E+03  0.89967951744E+03  0.12699999809E+01 0. -1.
       -4    1    3    3    0  502 -0.37495894537E+02 -0.10591533004E+03 -0.20438378669E+03  0.23323452661E+03  0.12699999809E+01 0.  1.
</event>
<event>
 5   0  0.2356918E-04  0.8988552E+03  0.7818609E-02  0.9427014E-01
       -1   -1    0    0    0  501  0.00000000000E+00  0.00000000000E+00  0.81019958134E+03  0.81019958135E+03  0.50400001928E-02 0.  1.
        1   -1    0    0  501    0  0.00000000000E+00  0.00000000000E+00 -0.24930297454E+03  0.24930297459E+03  0.50400001928E-02 0. -1.
    10030    2    1    2    0    0  0.00000000000E+00  0.00000000000E+00  0.56089660679E+03  0.10595025559E+04  0.89885519554E+03 0.  0.
        5    1    3    3  502    0  0.25111528888E+03  0.38085542707E+02  0.71745738223E+03  0.76110221534E+03  0.46999998093E+01 0.  1.
       -5    1    3    3    0  502 -0.25111528888E+03 -0.38085542707E+02 -0.15656077544E+03  0.29840034061E+03  0.46999998093E+01 0. -1.
</event>
<event>
 5   0  0.4110039E-04  0.8997829E+03  0.7818609E-02  0.9425853E-01
        2   -1    0    0  501    0  0.00000000000E+00  0.00000000000E+00  0.49651577527E+03  0.49651577528E+03  0.25500000920E-02 0.  1.
       -2   -1    0    0    0  501  0.00000000000E+00  0.00000000000E+00 -0.40764524973E+03  0.40764524974E+03  0.25500000920E-02 0. -1.
    10030    2    1    2    0    0  0.00000000000E+00  0.00000000000E+00  0.88870525544E+02  0.90416102502E+03  0.89978285650E+03 0.  0.
        3    1    3    3  502    0 -0.28640946033E+03  0.19168495374E+03 -0.24615828396E+03  0.42351789976E+03  0.10100000352E+00 0. -1.
       -3    1    3    3    0  502  0.28640946033E+03 -0.19168495374E+03  0.33502880950E+03  0.48064312525E+03  0.10100000352E+00 0.  1.
</event>
<event>
 5   0  0.4110039E-04  0.8999897E+03  0.7818609E-02  0.9425594E-01
        2   -1    0    0  501    0  0.00000000000E+00  0.00000000000E+00  0.11750895257E+04  0.11750895257E+04  0.25500000920E-02 0.  1.
       -2   -1    0    0    0  501  0.00000000000E+00  0.00000000000E+00 -0.17232336140E+03  0.17232336141E+03  0.25500000920E-02 0. -1.
    10030    2    1    2    0    0  0.00000000000E+00  0.00000000000E+00  0.10027661643E+04  0.13474128871E+04  0.89998972665E+03 0.  0.
        3    1    3    3  502    0  0.13998202055E+03  0.92844503326E+02 -0.12362738826E+03  0.20856368141E+03  0.10100000352E+00 0. -1.
       -3    1    3    3    0  502 -0.13998202055E+03 -0.92844503326E+02  0.11263935525E+04  0.11388492057E+04  0.10100000352E+00 0.  1.
</event>
<event>
 5   0  0.2356918E-04  0.9003071E+03  0.7818609E-02  0.9425198E-01
       -1   -1    0    0    0  501  0.00000000000E+00  0.00000000000E+00  0.41862559550E+03  0.41862559553E+03  0.50400001928E-02 0. -1.
        1   -1    0    0  501    0  0.00000000000E+00  0.00000000000E+00 -0.48405596934E+03  0.48405596937E+03  0.50400001928E-02 0.  1.
    10030    2    1    2    0    0  0.00000000000E+00  0.00000000000E+00 -0.65430373841E+02  0.90268156489E+03  0.90030709971E+03 0.  0.
        5    1    3    3  502    0 -0.44324478377E+03 -0.31658596345E+02 -0.10465344801E+03  0.45655518750E+03  0.46999998093E+01 0.  1.
       -5    1    3    3    0  502  0.44324478377E+03  0.31658596345E+02  0.39223074170E+02  0.44612637739E+03  0.46999998093E+01 0. -1.
</event>
<event>
 5   0  0.1596250E-04  0.8966253E+03  0.7818609E-02  0.9429810E-01
       -3   -1    0    0    0  501  0.00000000000E+00  0.00000000000E+00  0.92468352829E+03  0.92468353380E+03  0.10100000352E+00 0.  1.
        3   -1    0    0  501    0  0.00000000000E+00  0.00000000000E+00 -0.21735458337E+03  0.21735460683E+03  0.10100000352E+00 0. -1.
    10030    2    1    2    0    0  0.00000000000E+00  0.00000000000E+00  0.70732894492E+03  0.11420381406E+04  0.89662527198E+03 0.  0.
        3    1    3    3  502    0  0.46420571329E+02 -0.86504146093E+02  0.91082424135E+03  0.91609969193E+03  0.10100000352E+00 0.  1.
       -3    1    3    3    0  502 -0.46420571329E+02  0.86504146093E+02 -0.20349529643E+03  0.22593844870E+03  0.10100000352E+00 0. -1.
</event>
<event>
 5   0  0.2356918E-04  0.9000055E+03  0.7818609E-02  0.9425575E-01
       -1   -1    0    0    0  501  0.00000000000E+00  0.00000000000E+00  0.35534066956E+03  0.35534066959E+03  0.50400001928E-02 0. -1.
        1   -1    0    0  501    0  0.00000000000E+00  0.00000000000E+00 -0.56988256768E+03  0.56988256770E+03  0.50400001928E-02 0.  1.
    10030    2    1    2    0    0  0.00000000000E+00  0.00000000000E+00 -0.21454189813E+03  0.92522323730E+03  0.90000545153E+03 0.  0.
        5    1    3    3  502    0 -0.14698591212E+03 -0.49698678903E+02 -0.54148669408E+03  0.56329809774E+03  0.46999998093E+01 0.  1.
       -5    1    3    3    0  502  0.14698591212E+03  0.49698678903E+02  0.32694479596E+03  0.36192513956E+03  0.46999998093E+01 0. -1.
</event>
<event>
 5   0  0.4110039E-04  0.9002668E+03  0.7818609E-02  0.9425248E-01
        2   -1    0    0  501    0  0.00000000000E+00  0.00000000000E+00  0.13848813733E+04  0.13848813733E+04  0.25500000920E-02 0. -1.
       -2   -1    0    0    0  501  0.00000000000E+00  0.00000000000E+00 -0.14630862339E+03  0.14630862341E+03  0.25500000920E-02 0.  1.
    10030    2    1    2    0    0  0.00000000000E+00  0.00000000000E+00  0.12385727499E+04  0.15311899967E+04  0.90026682112E+03 0.  0.
        3    1    3    3  502    0  0.13184632806E+03 -0.40531359040E+03  0.37306387021E+03  0.56642671392E+03  0.10100000352E+00 0. -1.
       -3    1    3    3    0  502 -0.13184632806E+03  0.40531359040E+03  0.86550887967E+03  0.96476328277E+03  0.10100000352E+00 0.  1.
</event>
<event>
 5   0  0.1596250E-04  0.8995231E+03  0.7818609E-02  0.9426178E-01
        3   -1    0    0  501    0  0.00000000000E+00  0.00000000000E+00  0.72408718849E+03  0.72408719553E+03  0.10100000352E+00 0.  1.
       -3   -1    0    0    0  501  0.00000000000E+00  0.00000000000E+00 -0.27936612604E+03  0.27936614430E+03  0.10100000352E+00 0. -1.
    10030    2    1    2    0    0  0.00000000000E+00  0.00000000000E+00  0.44472106245E+03  0.10034533398E+04  0.89952308577E+03 0.  0.
        2    1    3    3  502    0  0.40309326670E+02 -0.18671735846E+03  0.67658811758E+03  0.70303605500E+03  0.25500000920E-02 0.  1.
       -2    1    3    3    0  502 -0.40309326670E+02  0.18671735846E+03 -0.23186705513E+03  0.30041728484E+03  0.25500000920E-02 0. -1.
</event>
<event>
 5   0  0.4236284E-04  0.9001289E+03  0.7818609E-02  0.9425420E-01
       -2   -1    0    0    0  501  0.00000000000E+00  0.00000000000E+00  0.18909600055E+03  0.18909600056E+03  0.25500000920E-02 0.  1.
        2   -1    0    0  501    0  0.00000000000E+00  0.00000000000E+00 -0.10711913549E+04  0.10711913549E+04  0.25500000920E-02 0. -1.
    10030    2    1    2    0    0  0.00000000000E+00  0.00000000000E+00 -0.88209535438E+03  0.12602873555E+04  0.90012888199E+03 0.  0.
        2    1    3    3  502    0 -0.29971691620E+03 -0.33383072063E+03 -0.49123409763E+03  0.66526995917E+03  0.25500000920E-02 0.  1.
       -2    1    3    3    0  502  0.29971691620E+03  0.33383072063E+03 -0.39086125675E+03  0.59501739632E+03  0.25500000920E-02 0. -1.
</event>
<event>
 5   0  0.4243516E-04  0.9001453E+03  0.7818609E-02  0.9425400E-01
        2   -1    0    0  501    0  0.00000000000E+00  0.00000000000E+00  0.30051032589E+03  0.30051032590E+03  0.25500000920E-02 0.  1.
       -2   -1    0    0    0  501  0.00000000000E+00  0.00000000000E+00 -0.67407136317E+03  0.67407136318E+03  0.25500000920E-02 0. -1.
    10030    2    1    2    0    0  0.00000000000E+00  0.00000000000E+00 -0.37356103728E+03  0.97458168908E+03  0.90014533278E+03 0.  0.
        1    1    3    3  502    0  0.39561024665E+03  0.17421758503E+02  0.44810728239E+02  0.39852099859E+03  0.50400001928E-02 0.  1.
       -1    1    3    3    0  502 -0.39561024665E+03 -0.17421758503E+02 -0.41837176552E+03  0.57606069049E+03  0.50400001928E-02 0. -1.
</event>
<event>
 5   0  0.2308362E-04  0.9012365E+03  0.7818609E-02  0.9424037E-01
        1   -1    0    0  501    0  0.00000000000E+00  0.00000000000E+00  0.10886549218E+04  0.10886549218E+04  0.50400001928E-02 0.  1.
       -1   -1    0    0    0  501  0.00000000000E+00  0.00000000000E+00 -0.18652081138E+03  0.18652081145E+03  0.50400001928E-02 0. -1.
    10030    2    1    2    0    0  0.00000000000E+00  0.00000000000E+00  0.90213411038E+03  0.12751757332E+04  0.90123648255E+03 0.  0.
        1    1    3    3  502    0 -0.32227640195E+03 -0.17768604725E+03  0.83127457248E+02  0.37728581316E+03  0.50400001928E-02 0. -1.
       -1    1    3    3    0  502  0.32227640195E+03  0.17768604725E+03  0.81900665313E+03  0.89788992005E+03  0.50400001928E-02 0.  1.
</event>
<event>
 5   0  0.4033144E-04  0.9001254E+03  0.7818609E-02  0.9425425E-01
       -2   -1    0    0    0  501  0.00000000000E+00  0.00000000000E+00  0.63499992187E+03  0.63499992187E+03  0.25500000920E-02 0.  1.
        2   -1    0    0  501    0  0.00000000000E+00  0.00000000000E+00 -0.31898654650E+03  0.31898654651E+03  0.25500000920E-02 0. -1.
    10030    2    1    2    0    0  0.00000000000E+00  0.00000000000E+00  0.31601337537E+03  0.95398646839E+03  0.90012539596E+03 0.  0.
        4    1    3    3  502    0 -0.39920471303E+02  0.20390717368E+03  0.58112347091E+03  0.61715304492E+03  0.12699999809E+01 0.  1.
       -4    1    3    3    0  502  0.39920471303E+02 -0.20390717368E+03 -0.26511009555E+03  0.33683342347E+03  0.12699999809E+01 0. -1.
</event>
<event>
 5   0  0.4033144E-04  0.9000255E+03  0.7818609E-02  0.9425550E-01
        2   -1    0    0  501    0  0.00000000000E+00  0.00000000000E+00  0.25552556936E+03  0.25552556937E+03  0.25500000920E-02 0. -1.
       -2   -1    0    0    0  501  0.00000000000E+00  0.00000000000E+00 -0.79252918487E+03  0.79252918488E+03  0.25500000920E-02 0.  1.
    10030    2    1    2    0    0  0.00000000000E+00  0.00000000000E+00 -0.53700361551E+03  0.10480547543E+04  0.90002549121E+03 0.  0.
        4    1    3    3  502    0  0.76651822723E+02 -0.17524500610E+03  0.20583100673E+03  0.28098813199E+03  0.12699999809E+01 0. -1.
       -4    1    3    3    0  502 -0.76651822723E+02  0.17524500610E+03 -0.74283462224E+03  0.76706662226E+03  0.12699999809E+01 0.  1.
</event>
<event>
 5   0  0.3959804E-04  0.8999046E+03  0.7818609E-02  0.9425701E-01
        2   -1    0    0  501    0  0.00000000000E+00  0.00000000000E+00  0.69142727368E+03  0.69142727368E+03  0.25500000920E-02 0. -1.
       -2   -1    0    0    0  501  0.00000000000E+00  0.00000000000E+00 -0.29281039580E+03  0.29281039581E+03  0.25500000920E-02 0.  1.
    10030    2    1    2    0    0  0.00000000000E+00  0.00000000000E+00  0.39861687787E+03  0.98423766949E+03  0.89990464757E+03 0.  0.
        5    1    3    3  502    0 -0.29793164925E+03  0.30681121182E+03  0.46428538679E+02  0.43020237857E+03  0.46999998093E+01 0.  1.
       -5    1    3    3    0  502  0.29793164925E+03 -0.30681121182E+03  0.35218833919E+03  0.55403529092E+03  0.46999998093E+01 0. -1.
</event>
<event>
 5   0  0.2351435E-04  0.8994747E+03  0.7818609E-02  0.9426238E-01
        1   -1    0    0  501    0  0.00000000000E+00  0.00000000000E+00  0.78170174538E+03  0.78170174539E+03  0.50400001928E-02 0. -1.
       -1   -1    0    0    0  501  0.00000000000E+00  0.00000000000E+00 -0.25874787976E+03  0.25874787981E+03  0.50400001928E-02 0.  1.
    10030    2    1    2    0    0  0.00000000000E+00  0.00000000000E+00  0.52295386561E+03  0.10404496252E+04  0.89947466725E+03 0.  0.
        4    1    3    3  502    0  0.26491488658E+03 -0.10538824421E+03  0.66380542872E+03  0.72244435028E+03  0.12699999809E+01 0. -1.
       -4    1    3    3    0  502 -0.26491488658E+03  0.10538824421E+03 -0.14085156311E+03  0.31800527493E+03  0.12699999809E+01 0.  1.
</event>
<event>
 5   0  0.2332791E-04  0.8955437E+03  0.7818609E-02  0.9431169E-01
       -1   -1    0    0    0  501  0.00000000000E+00  0.00000000000E+00  0.18264284581E+03  0.18264284588E+03  0.50400001928E-02 0. -1.
        1   -1    0    0  501    0  0.00000000000E+00  0.00000000000E+00 -0.10977689566E+04  0.10977689566E+04  0.50400001928E-02 0.  1.
    10030    2    1    2    0    0  0.00000000000E+00  0.00000000000E+00 -0.91512611080E+03  0.12804118025E+04  0.89554373723E+03 0.  0.
        2    1    3    3  502    0 -0.11176127642E+03  0.34781563493E+03 -0.82773910926E+03  0.90477529355E+03  0.25500000920E-02 0.  1.
       -2    1    3    3    0  502  0.11176127642E+03 -0.34781563493E+03 -0.87387001540E+02  0.37563650895E+03  0.25500000920E-02 0. -1.
</event>
<event>
 5   0  0.4110039E-04  0.9000484E+03  0.7818609E-02  0.9425521E-01
       -2   -1    0    0    0  501  0.00000000000E+00  0.00000000000E+00  0.33092493632E+03  0.33092493633E+03  0.25500000920E-02 0.  1.
        2   -1    0    0  501    0  0.00000000000E+00  0.00000000000E+00 -0.61198702996E+03  0.61198702997E+03  0.25500000920E-02 0. -1.
    10030    2    1    2    0    0  0.00000000000E+00  0.00000000000E+00 -0.28106209365E+03  0.94291196629E+03  0.90004837409E+03 0.  0.
        3    1    3    3  502    0 -0.12785509429E+03  0.16952336926E+03 -0.55621018659E+03  0.59536113388E+03  0.10100000352E+00 0. -1.
       -3    1    3    3    0  502  0.12785509429E+03 -0.16952336926E+03  0.27514809295E+03  0.34755083242E+03  0.10100000352E+00 0.  1.
</event>
<event>
 5   0  0.4243516E-04  0.9001921E+03  0.7818609E-02  0.9425341E-01
        2   -1    0    0  501    0  0.00000000000E+00  0.00000000000E+00  0.22153399880E+04  0.22153399880E+04  0.25500000920E-02 0. -1.
       -2   -1    0    0    0  501  0.00000000000E+00  0.00000000000E+00 -0.91447117827E+02  0.91447117863E+02  0.25500000920E-02 0.  1.
    10030    2    1    2    0    0  0.00000000000E+00  0.00000000000E+00  0.21238928702E+04  0.23067871059E+04  0.90019210606E+03 0.  0.
        1    1    3    3  502    0 -0.37422521739E+03 -0.16312160038E+03  0.15477053599E+04  0.16006389508E+04  0.50400001928E-02 0.  1.
       -1    1    3    3    0  502  0.37422521739E+03  0.16312160038E+03  0.57618751030E+03  0.70614815506E+03  0.50400001928E-02 0. -1.
</event>
<event>
 5   0  0.4033144E-04  0.8994054E+03  0.7818609E-02  0.9426325E-01
        2   -1    0    0  501    0  0.00000000000E+00  0.00000000000E+00  0.20500800716E+03  0.20500800718E+03  0.25500000920E-02 0. -1.
       -2   -1    0    0    0  501  0.00000000000E+00  0.00000000000E+00 -0.98646155687E+03  0.98646155687E+03  0.25500000920E-02 0.  1.
    10030    2    1    2    0    0  0.00000000000E+00  0.00000000000E+00 -0.78145354971E+03  0.11914695640E+04  0.89940539897E+03 0.  0.
        4    1    3    3  502    0 -0.30466097926E+03  0.18750684222E+03 -0.75170976406E+03  0.83249403028E+03  0.12699999809E+01 0.  1.
       -4    1    3    3    0  502  0.30466097926E+03 -0.18750684222E+03 -0.29743785648E+02  0.35897553377E+03  0.12699999809E+01 0. -1.
</event>
<event>
 5   0  0.2450427E-04  0.8998195E+03  0.7818609E-02  0.9425807E-01
       -1   -1    0    0    0  501  0.00000000000E+00  0.00000000000E+00  0.41432664999E+03  0.41432665003E+03  0.50400001928E-02 0. -1.
        1   -1    0    0  501    0  0.00000000000E+00  0.00000000000E+00 -0.48854879616E+03  0.48854879619E+03  0.50400001928E-02 0.  1.
    10030    2    1    2    0    0  0.00000000000E+00  0.00000000000E+00 -0.74222146169E+02  0.90287544622E+03  0.89981950657E+03 0.  0.
        3    1    3    3  502    0 -0.46293628200E+02 -0.34057700510E+03  0.25419019740E+03  0.42749089238E+03  0.10100000352E+00 0. -1.
       -3    1    3    3    0  502  0.46293628200E+02  0.34057700510E+03 -0.32841234357E+03  0.47538455383E+03  0.10100000352E+00 0.  1.
</event>
<event>
 5   0  0.2308362E-04  0.8987750E+03  0.7818609E-02  0.9427114E-01
        1   -1    0    0  501    0  0.00000000000E+00  0.00000000000E+00  0.79623266404E+03  0.79623266406E+03  0.50400001928E-02 0.  1.
       -1   -1    0    0    0  501  0.00000000000E+00  0.00000000000E+00 -0.25363078871E+03  0.25363078876E+03  0.50400001928E-02 0. -1.
    10030    2    1    2    0    0  0.00000000000E+00  0.00000000000E+00  0.54260187533E+03  0.10498634528E+04  0.89877498544E+03 0.  0.
        1    1    3    3  502    0 -0.17656512323E+03 -0.18192872548E+03 -0.16212077951E+03  0.30092598936E+03  0.50400001928E-02 0. -1.
       -1    1    3    3    0  502  0.17656512323E+03  0.18192872548E+03  0.70472265484E+03  0.74893746346E+03  0.50400001928E-02 0.  1.
</event>
<event>
 5   0  0.2332791E-04  0.8994184E+03  0.7818609E-02  0.9426309E-01
       -1   -1    0    0    0  501  0.00000000000E+00  0.00000000000E+00  0.35656130492E+03  0.35656130496E+03  0.50400001928E-02 0.  1.
        1   -1    0    0  501    0  0.00000000000E+00  0.00000000000E+00 -0.56719100003E+03  0.56719100005E+03  0.50400001928E-02 0. -1.
    10030    2    1    2    0    0  0.00000000000E+00  0.00000000000E+00 -0.21062969511E+03  0.92375230501E+03  0.89941839683E+03 0.  0.
        2    1    3    3  502    0  0.41980741438E+03  0.16112768400E+03 -0.11164332552E+03  0.46331914255E+03  0.25500000920E-02 0. -1.
       -2    1    3    3    0  502 -0.41980741438E+03 -0.16112768400E+03 -0.98986369595E+02  0.46043316246E+03  0.25500000920E-02 0.  1.
</event>
<event>
 5   0  0.4243516E-04  0.9000661E+03  0.7818609E-02  0.9425499E-01
       -2   -1    0    0    0  501  0.00000000000E+00  0.00000000000E+00  0.16094132669E+03  0.16094132671E+03  0.25500000920E-02 0.  1.
        2   -1    0    0  501    0  0.00000000000E+00  0.00000000000E+00 -0.12584072537E+04  0.12584072537E+04  0.25500000920E-02 0. -1.
    10030    2    1    2    0    0  0.00000000000E+00  0.00000000000E+00 -0.10974659270E+04  0.14193485804E+04  0.90006607078E+03 0.  0.
        1    1    3    3  502    0  0.16590446978E+03  0.33939524868E+03 -0.16305531720E+03  0.41146137657E+03  0.50400001928E-02 0.  1.
       -1    1    3    3    0  502 -0.16590446978E+03 -0.33939524868E+03 -0.93441060981E+03  0.10078872038E+04  0.50400001928E-02 0. -1.
</event>
<event>
 5   0  0.4033144E-04  0.8995553E+03  0.7818609E-02  0.9426137E-01
       -2   -1    0    0    0  501  0.00000000000E+00  0.00000000000E+00  0.90992292811E+02  0.90992292847E+02  0.25500000920E-02 0. -1.
        2   -1    0    0  501    0  0.00000000000E+00  0.00000000000E+00 -0.22232644727E+04  0.22232644727E+04  0.25500000920E-02 0.  1.
    10030    2    1    2    0    0  0.00000000000E+00  0.00000000000E+00 -0.21322721799E+04  0.23142567655E+04  0.89955529444E+03 0.  0.
        4    1    3    3  502    0  0.28840353144E+03  0.33007115558E+03 -0.80663114111E+03  0.91802994254E+03  0.12699999809E+01 0.  1.
       -4    1    3    3    0  502 -0.28840353144E+03 -0.33007115558E+03 -0.13256410388E+04  0.13962268230E+04  0.12699999809E+01 0. -1.
</event>
<event>
 5   0  0.2356918E-04  0.9000507E+03  0.7818609E-02  0.9425518E-01
       -1   -1    0    0    0  501  0.00000000000E+00  0.00000000000E+00  0.10504009143E+04  0.10504009144E+04  0.50400001928E-02 0. -1.
        1   -1    0    0  501    0  0.00000000000E+00  0.00000000000E+00 -0.19280524526E+03  0.19280524533E+03  0.50400001928E-02 0.  1.
    10030    2    1    2    0    0  0.00000000000E+00  0.00000000000E+00  0.85759566908E+03  0.12432061597E+04  0.90005067849E+03 0.  0.
        5    1    3    3  502    0 -0.33721426943E+03  0.15563628547E+03  0.77825068030E+02  0.37949301453E+03  0.46999998093E+01 0.  1.
       -5    1    3    3    0  502  0.33721426943E+03 -0.15563628547E+03  0.77977060105E+03  0.86371314516E+03  0.46999998093E+01 0. -1.
</event>
<event>
 5   0  0.4243516E-04  0.9006359E+03  0.7818609E-02  0.9424787E-01
        2   -1    0    0  501    0  0.00000000000E+00  0.00000000000E+00  0.79510602300E+03  0.79510602301E+03  0.25500000920E-02 0.  1.
       -2   -1    0    0    0  501  0.00000000000E+00  0.00000000000E+00 -0.25504301843E+03  0.25504301845E+03  0.25500000920E-02 0. -1.
    10030    2    1    2    0    0  0.00000000000E+00  0.00000000000E+00  0.54006300457E+03  0.10501490415E+04  0.90063586446E+03 0.  0.
        1    1    3    3  502    0  0.33952121760E+03 -0.14004269323E+03  0.57386482091E+03  0.68132770810E+03  0.50400001928E-02 0.  1.
       -1    1    3    3    0  502 -0.33952121760E+03  0.14004269323E+03 -0.33801816336E+02  0.36882133335E+03  0.50400001928E-02 0. -1.
</event>
<event>
 5   0  0.2308362E-04  0.8992483E+03  0.7818609E-02  0.9426522E-01
       -1   -1    0    0    0  501  0.00000000000E+00  0.00000000000E+00  0.34331514636E+03  0.34331514639E+03  0.50400001928E-02 0. -1.
        1   -1    0    0  501    0  0.00000000000E+00  0.00000000000E+00 -0.58885215755E+03  0.58885215757E+03  0.50400001928E-02 0.  1.
    10030    2    1    2    0    0  0.00000000000E+00  0.00000000000E+00 -0.24553701119E+03  0.93216730396E+03  0.89924827423E+03 0.  0.
        1    1    3    3  502    0 -0.14707105156E+03 -0.34259137002E+03 -0.38329149472E+03  0.53470656530E+03  0.50400001928E-02 0.  1.
       -1    1    3    3    0  502  0.14707105156E+03  0.34259137002E+03  0.13775448353E+03  0.39746073867E+03  0.50400001928E-02 0. -1.
</event>
<event>
 5   0  0.2356918E-04  0.9006323E+03  0.7818609E-02  0.9424791E-01
       -1   -1    0    0    0  501  0.00000000000E+00  0.00000000000E+00  0.55387774286E+03  0.55387774289E+03  0.50400001928E-02 0.  1.
        1   -1    0    0  501    0  0.00000000000E+00  0.00000000000E+00 -0.36611800949E+03  0.36611800953E+03  0.50400001928E-02 0. -1.
    10030    2    1    2    0    0  0.00000000000E+00  0.00000000000E+00  0.18775973337E+03  0.91999575241E+03  0.90063225957E+03 0.  0.
        5    1    3    3  502    0 -0.36754374560E+03  0.25232722825E+03  0.15852629796E+03  0.47319141179E+03  0.46999998093E+01 0. -1.
       -5    1    3    3    0  502  0.36754374560E+03 -0.25232722825E+03  0.29233435414E+02  0.44680434062E+03  0.46999998093E+01 0.  1.
</event>
<event>
 5   0  0.2356918E-04  0.8997671E+03  0.7818609E-02  0.9425873E-01
       -1   -1    0    0    0  501  0.00000000000E+00  0.00000000000E+00  0.34951106304E+03  0.34951106307E+03  0.50400001928E-02 0. -1.
        1   -1    0    0  501    0  0.00000000000E+00  0.00000000000E+00 -0.57908094000E+03  0.57908094002E+03  0.50400001928E-02 0.  1.
    10030    2    1    2    0    0  0.00000000000E+00  0.00000000000E+00 -0.22956987696E+03  0.92859200309E+03  0.89976706975E+03 0.  0.
        5    1    3    3  502    0 -0.28990395797E+03  0.10708784892E+03 -0.45215337380E+03  0.54770144756E+03  0.46999998093E+01 0.  1.
       -5    1    3    3    0  502  0.28990395797E+03 -0.10708784892E+03  0.22258349683E+03  0.38089055553E+03  0.46999998093E+01 0. -1.
</event>
<event>
 5   0  0.1596250E-04  0.9003088E+03  0.7818609E-02  0.9425195E-01
        4   -1    0    0  501    0  0.00000000000E+00  0.00000000000E+00  0.27485192303E+03  0.27485485714E+03  0.12699999809E+01 0.  1.
       -4   -1    0    0    0  501  0.00000000000E+00  0.00000000000E+00 -0.73725864428E+03  0.73725973813E+03  0.12699999809E+01 0. -1.
    10030    2    1    2    0    0  0.00000000000E+00  0.00000000000E+00 -0.46240672125E+03  0.10121145953E+04  0.90030882374E+03 0.  0.
        2    1    3    3  502    0 -0.76991721013E+02  0.32395938787E+03 -0.57174375370E+03  0.66164063508E+03  0.25500000920E-02 0. -1.
       -2    1    3    3    0  502  0.76991721013E+02 -0.32395938787E+03  0.10933703245E+03  0.35047396018E+03  0.25500000920E-02 0.  1.
</event>
<event>
 5   0  0.3959804E-04  0.8984759E+03  0.7818609E-02  0.9427489E-01
        2   -1    0    0  501    0  0.00000000000E+00  0.00000000000E+00  0.10704411921E+04  0.10704411921E+04  0.25500000920E-02 0.  1.
       -2   -1    0    0    0  501  0.00000000000E+00  0.00000000000E+00 -0.18853416782E+03  0.18853416784E+03  0.25500000920E-02 0. -1.
    10030    2    1    2    0    0  0.00000000000E+00  0.00000000000E+00  0.88190702431E+03  0.12589753600E+04  0.89847590812E+03 0.  0.
        5    1    3    3  502    0  0.31948890178E+03  0.76497588606E+02  0.11645816053E+02  0.32875941729E+03  0.46999998093E+01 0. -1.
       -5    1    3    3    0  502 -0.31948890178E+03 -0.76497588606E+02  0.87026120825E+03  0.93021594268E+03  0.46999998093E+01 0.  1.
</event>
<event>
 5   0  0.4033144E-04  0.9008715E+03  0.7818609E-02  0.9424493E-01
        2   -1    0    0  501    0  0.00000000000E+00  0.00000000000E+00  0.34427755328E+03  0.34427755329E+03  0.25500000920E-02 0.  1.
       -2   -1    0    0    0  501  0.00000000000E+00  0.00000000000E+00 -0.58932792994E+03  0.58932792995E+03  0.25500000920E-02 0. -1.
    10030    2    1    2    0    0  0.00000000000E+00  0.00000000000E+00 -0.24505037667E+03  0.93360548323E+03  0.90087152870E+03 0.  0.
        4    1    3    3  502    0 -0.68018066498E+02  0.29681449438E+03  0.22144694905E+03  0.37651781577E+03  0.12699999809E+01 0.  1.
       -4    1    3    3    0  502  0.68018066498E+02 -0.29681449438E+03 -0.46649732572E+03  0.55708766747E+03  0.12699999809E+01 0. -1.
</event>
<event>
 5   0  0.2308362E-04  0.9001960E+03  0.7818609E-02  0.9425336E-01
        1   -1    0    0  501    0  0.00000000000E+00  0.00000000000E+00  0.36763127734E+03  0.36763127738E+03  0.50400001928E-02 0.  1.
       -1   -1    0    0    0  501  0.00000000000E+00  0.00000000000E+00 -0.55106363906E+03  0.55106363908E+03  0.50400001928E-02 0. -1.
    10030    2    1    2    0    0  0.00000000000E+00  0.00000000000E+00 -0.18343236172E+03  0.91869491646E+03  0.90019604431E+03 0.  0.
        1    1    3    3  502    0  0.46169298694E+02 -0.54111183081E+02 -0.54529128779E+03  0.54991109539E+03  0.50400001928E-02 0. -1.
       -1    1    3    3    0  502 -0.46169298694E+02  0.54111183081E+02  0.36185892607E+03  0.36878382106E+03  0.50400001928E-02 0.  1.
</event>
<event>
 5   0  0.3959804E-04  0.8998842E+03  0.7818609E-02  0.9425726E-01
        2   -1    0    0  501    0  0.00000000000E+00  0.00000000000E+00  0.95501748944E+03  0.95501748944E+03  0.25500000920E-02 0.  1.
       -2   -1    0    0    0  501  0.00000000000E+00  0.00000000000E+00 -0.21198344496E+03  0.21198344497E+03  0.25500000920E-02 0. -1.
    10030    2    1    2    0    0  0.00000000000E+00  0.00000000000E+00  0.74303404448E+03  0.11670009344E+04  0.89988420903E+03 0.  0.
        5    1    3    3  502    0  0.80594941624E+02 -0.26707283382E+03 -0.86253385126E+02  0.29203626422E+03  0.46999998093E+01 0. -1.
       -5    1    3    3    0  502 -0.80594941624E+02  0.26707283382E+03  0.82928742961E+03  0.87496467019E+03  0.46999998093E+01 0.  1.
</event>
<event>
 5   0  0.2356918E-04  0.8993004E+03  0.7818609E-02  0.9426456E-01
       -1   -1    0    0    0  501  0.00000000000E+00  0.00000000000E+00  0.63080105858E+03  0.63080105860E+03  0.50400001928E-02 0. -1.
        1   -1    0    0  501    0  0.00000000000E+00  0.00000000000E+00 -0.32052149508E+03  0.32052149512E+03  0.50400001928E-02 0.  1.
    10030    2    1    2    0    0  0.00000000000E+00  0.00000000000E+00  0.31027956350E+03  0.95132255372E+03  0.89930039124E+03 0.  0.
        5    1    3    3  502    0  0.23057848922E+03  0.21394574217E+03 -0.18473060667E+03  0.36481050879E+03  0.46999998093E+01 0.  1.
       -5    1    3    3    0  502 -0.23057848922E+03 -0.21394574217E+03  0.49501017016E+03  0.58651204493E+03  0.46999998093E+01 0. -1.
</event>
<event>
 5   0  0.4110039E-04  0.8994928E+03  0.7818609E-02  0.9426216E-01
        2   -1    0    0  501    0  0.00000000000E+00  0.00000000000E+00  0.16295057808E+04  0.16295057808E+04  0.25500000920E-02 0. -1.
       -2   -1    0    0    0  501  0.00000000000E+00  0.00000000000E+00 -0.12413079211E+03  0.12413079214E+03  0.25500000920E-02 0.  1.
    10030    2    1    2    0    0  0.00000000000E+00  0.00000000000E+00  0.15053749887E+04  0.17536365729E+04  0.89949284231E+03 0.  0.
        3    1    3    3  502    0  0.55363247785E+02  0.48752326949E+02 -0.11225548641E+03  0.13432491585E+03  0.10100000352E+00 0.  1.
       -3    1    3    3    0  502 -0.55363247785E+02 -0.48752326949E+02  0.16176304751E+04  0.16193116571E+04  0.10100000352E+00 0. -1.
</event>
<event>
 5   0  0.3959804E-04  0.9000420E+03  0.7818609E-02  0.9425529E-01
        2   -1    0    0  501    0  0.00000000000E+00  0.00000000000E+00  0.11311929372E+04  0.11311929372E+04  0.25500000920E-02 0. -1.
       -2   -1    0    0    0  501  0.00000000000E+00  0.00000000000E+00 -0.17903125164E+03  0.17903125165E+03  0.25500000920E-02 0.  1.
    10030    2    1    2    0    0  0.00000000000E+00  0.00000000000E+00  0.95216168560E+03  0.13102241889E+04  0.90004197104E+03 0.  0.
        5    1    3    3  502    0  0.23406584261E+03  0.13168308659E+03 -0.49537996894E+02  0.27313615122E+03  0.46999998093E+01 0.  1.
       -5    1    3    3    0  502 -0.23406584261E+03 -0.13168308659E+03  0.10016996825E+04  0.10370880377E+04  0.46999998093E+01 0. -1.
</event>
<event>
 5   0  0.2351435E-04  0.9001442E+03  0.7818609E-02  0.9425401E-01
        1   -1    0    0  501    0  0.00000000000E+00  0.00000000000E+00  0.87441224457E+03  0.87441224458E+03  0.50400001928E-02 0.  1.
       -1   -1    0    0    0  501  0.00000000000E+00  0.00000000000E+00 -0.23165836093E+03  0.23165836098E+03  0.50400001928E-02 0. -1.
    10030    2    1    2    0    0  0.00000000000E+00  0.00000000000E+00  0.64275388364E+03  0.11060706056E+04  0.90014422709E+03 0.  0.
        4    1    3    3  502    0 -0.17409209903E+03 -0.35067009438E+03  0.48585145892E+02  0.39451198124E+03  0.12699999809E+01 0. -1.
       -4    1    3    3    0  502  0.17409209903E+03  0.35067009438E+03  0.59416873775E+03  0.71155862433E+03  0.12699999809E+01 0.  1.
</event>
<event>
 5   0  0.4110039E-04  0.9000114E+03  0.7818609E-02  0.9425567E-01
       -2   -1    0    0    0  501  0.00000000000E+00  0.00000000000E+00  0.12555598287E+04  0.12555598287E+04  0.25500000920E-02 0.  1.
        2   -1    0    0  501    0  0.00000000000E+00  0.00000000000E+00 -0.16128671185E+03  0.16128671187E+03  0.25500000920E-02 0. -1.
    10030    2    1    2    0    0  0.00000000000E+00  0.00000000000E+00  0.10942731168E+04  0.14168465405E+04  0.90001136950E+03 0.  0.
        3    1    3    3  502    0 -0.34824224717E+03 -0.15383359219E+03  0.92485147989E+03  0.10001438431E+04  0.10100000352E+00 0.  1.
       -3    1    3    3    0  502  0.34824224717E+03  0.15383359219E+03  0.16942163691E+03  0.41670269744E+03  0.10100000352E+00 0. -1.
</event>
<event>
 5   0  0.4236284E-04  0.9006442E+03  0.7818609E-02  0.9424777E-01
        2   -1    0    0  501    0  0.00000000000E+00  0.00000000000E+00  0.13648094590E+04  0.13648094590E+04  0.25500000920E-02 0. -1.
       -2   -1    0    0    0  501  0.00000000000E+00  0.00000000000E+00 -0.14858482408E+03  0.14858482411E+03  0.25500000920E-02 0.  1.
    10030    2    1    2    0    0  0.00000000000E+00  0.00000000000E+00  0.12162246349E+04  0.15133942831E+04  0.90064415480E+03 0.  0.
        2    1    3    3  502    0  0.30600128326E+03  0.16162156503E+02  0.11626062357E+04  0.12023108001E+04  0.25500000920E-02 0. -1.
       -2    1    3    3    0  502 -0.30600128326E+03 -0.16162156503E+02  0.53618399172E+02  0.31108348300E+03  0.25500000920E-02 0.  1.
</event>
<event>
 5   0  0.4033144E-04  0.9001857E+03  0.7818609E-02  0.9425349E-01
       -2   -1    0    0    0  501  0.00000000000E+00  0.00000000000E+00  0.22533439595E+03  0.22533439597E+03  0.25500000920E-02 0.  1.
        2   -1    0    0  501    0  0.00000000000E+00  0.00000000000E+00 -0.89903519533E+03  0.89903519534E+03  0.25500000920E-02 0. -1.
    10030    2    1    2    0    0  0.00000000000E+00  0.00000000000E+00 -0.67370079938E+03  0.11243695913E+04  0.90018565350E+03 0.  0.
        4    1    3    3  502    0 -0.44370053567E+03  0.22405595489E+02 -0.24669618842E+03  0.50816611294E+03  0.12699999809E+01 0.  1.
       -4    1    3    3    0  502  0.44370053567E+03 -0.22405595489E+02 -0.42700461096E+03  0.61620347836E+03  0.12699999809E+01 0. -1.
</event>
<event>
 5   0  0.3959804E-04  0.9000803E+03  0.7818609E-02  0.9425481E-01
        2   -1    0    0  501    0  0.00000000000E+00  0.00000000000E+00  0.49945781624E+03  0.49945781625E+03  0.25500000920E-02 0. -1.
       -2   -1    0    0    0  501  0.00000000000E+00  0.00000000000E+00 -0.40551201595E+03  0.40551201596E+03  0.25500000920E-02 0.  1.
    10030    2    1    2    0    0  0.00000000000E+00  0.00000000000E+00  0.93945800293E+02  0.90496983221E+03  0.90008032076E+03 0.  0.
        5    1    3    3  502    0  0.17577730333E+03  0.84254305122E+02  0.45478398685E+03  0.49482018248E+03  0.46999998093E+01 0. -1.
       -5    1    3    3    0  502 -0.17577730333E+03 -0.84254305122E+02 -0.36083818656E+03  0.41014964973E+03  0.46999998093E+01 0.  1.
</event>
<event>
 5   0  0.4243516E-04  0.8997077E+03  0.7818609E-02  0.9425947E-01
       -2   -1    0    0    0  501  0.00000000000E+00  0.00000000000E+00  0.13360080846E+03  0.13360080849E+03  0.25500000920E-02 0. -1.
        2   -1    0    0  501    0  0.00000000000E+00  0.00000000000E+00 -0.15147249018E+04  0.15147249018E+04  0.25500000920E-02 0.  1.
    10030    2    1    2    0    0  0.00000000000E+00  0.00000000000E+00 -0.13811240933E+04  0.16483257103E+04  0.89970766697E+03 0.  0.
        1    1    3    3  502    0 -0.34112007264E+03 -0.20422720988E+03 -0.30497018575E+03  0.50107731084E+03  0.50400001928E-02 0. -1.
       -1    1    3    3    0  502  0.34112007264E+03  0.20422720988E+03 -0.10761539076E+04  0.11472483994E+04  0.50400001928E-02 0.  1.
</event>
<event>
 5   0  0.4243516E-04  0.8997097E+03  0.7818609E-02  0.9425944E-01
        2   -1    0    0  501    0  0.00000000000E+00  0.00000000000E+00  0.62536392805E+03  0.62536392805E+03  0.25500000920E-02 0.  1.
       -2   -1    0    0    0  501  0.00000000000E+00  0.00000000000E+00 -0.32360261907E+03  0.32360261908E+03  0.25500000920E-02 0. -1.
    10030    2    1    2    0    0  0.00000000000E+00  0.00000000000E+00  0.30176130898E+03  0.94896654713E+03  0.89970974207E+03 0.  0.
        1    1    3    3  502    0  0.44977710368E+03  0.73620459483E+01  0.15506818132E+03  0.47581486273E+03  0.50400001928E-02 0.  1.
       -1    1    3    3    0  502 -0.44977710368E+03 -0.73620459483E+01  0.14669312766E+03  0.47315168439E+03  0.50400001928E-02 0. -1.
</event>
<event>
 5   0  0.2308362E-04  0.8989380E+03  0.7818609E-02  0.9426910E-01
        1   -1    0    0  501    0  0.00000000000E+00  0.00000000000E+00  0.88973577396E+03  0.88973577397E+03  0.50400001928E-02 0.  1.
       -1   -1    0    0    0  501  0.00000000000E+00  0.00000000000E+00 -0.22705886314E+03  0.22705886320E+03  0.50400001928E-02 0. -1.
    10030    2    1    2    0    0  0.00000000000E+00  0.00000000000E+00  0.66267691082E+03  0.11167946372E+04  0.89893802538E+03 0.  0.
        1    1    3    3  502    0  0.36939417935E+03 -0.16545702098E+03  0.88541693680E+02  0.41432803076E+03  0.50400001928E-02 0.  1.
       -1    1    3    3    0  502 -0.36939417935E+03  0.16545702098E+03  0.57413521714E+03  0.70246660641E+03  0.50400001928E-02 0. -1.
</event>
<event>
 5   0  0.2332791E-04  0.9009692E+03  0.7818609E-02  0.9424371E-01
       -1   -1    0    0    0  501  0.00000000000E+00  0.00000000000E+00  0.26210792297E+03  0.26210792302E+03  0.50400001928E-02 0. -1.
        1   -1    0    0  501    0  0.00000000000E+00  0.00000000000E+00 -0.77424730806E+03  0.77424730808E+03  0.50400001928E-02 0.  1.
    10030    2    1    2    0    0  0.00000000000E+00  0.00000000000E+00 -0.51213938509E+03  0.10363552311E+04  0.90096915334E+03 0.  0.
        2    1    3    3  502    0 -0.18460203615E+03  0.39282049274E+03 -0.39482120259E+03  0.58674494739E+03  0.25500000920E-02 0.  1.
       -2    1    3    3    0  502  0.18460203615E+03 -0.39282049274E+03 -0.11731818251E+03  0.44961028371E+03  0.25500000920E-02 0. -1.
</event>
<event>
 5   0  0.4243516E-04  0.9032809E+03  0.7818609E-02  0.9421489E-01
        2   -1    0    0  501    0  0.00000000000E+00  0.00000000000E+00  0.11238303144E+04  0.11238303144E+04  0.25500000920E-02 0.  1.
       -2   -1    0    0    0  501  0.00000000000E+00  0.00000000000E+00 -0.18150346369E+03  0.18150346371E+03  0.25500000920E-02 0. -1.
    10030    2    1    2    0    0  0.00000000000E+00  0.00000000000E+00  0.94232685072E+03  0.13053337781E+04  0.90328089690E+03 0.  0.
        1    1    3    3  502    0  0.37261236943E+03  0.25189704401E+03  0.53051821623E+03  0.69551540343E+03  0.50400001928E-02 0. -1.
       -1    1    3    3    0  502 -0.37261236943E+03 -0.25189704401E+03  0.41180863450E+03  0.60981837469E+03  0.50400001928E-02 0.  1.
</event>
<event>
 5   0  0.2450427E-04  0.8997316E+03  0.7818609E-02  0.9425917E-01
       -1   -1    0    0    0  501  0.00000000000E+00  0.00000000000E+00  0.36812488800E+03  0.36812488804E+03  0.50400001928E-02 0.  1.
        1   -1    0    0  501    0  0.00000000000E+00  0.00000000000E+00 -0.54975697947E+03  0.54975697949E+03  0.50400001928E-02 0. -1.
    10030    2    1    2    0    0  0.00000000000E+00  0.00000000000E+00 -0.18163209147E+03  0.91788186753E+03  0.89973157446E+03 0.  0.
        3    1    3    3  502    0 -0.35945423927E+03 -0.12660833247E+03 -0.33468262903E+03  0.50719768567E+03  0.10100000352E+00 0. -1.
       -3    1    3    3    0  502  0.35945423927E+03  0.12660833247E+03  0.15305053756E+03  0.41068418186E+03  0.10100000352E+00 0.  1.
</event>
<event>
 5   0  0.3959804E-04  0.8998496E+03  0.7818609E-02  0.9425769E-01
        2   -1    0    0  501    0  0.00000000000E+00  0.00000000000E+00  0.99133224318E+03  0.99133224319E+03  0.25500000920E-02 0.  1.
       -2   -1    0    0    0  501  0.00000000000E+00  0.00000000000E+00 -0.20420230657E+03  0.20420230658E+03  0.25500000920E-02 0. -1.
    10030    2    1    2    0    0  0.00000000000E+00  0.00000000000E+00  0.78712993662E+03  0.11955345498E+04  0.89984961109E+03 0.  0.
        5    1    3    3  502    0 -0.98794689528E+02 -0.18447779914E+03  0.92270198877E+03  0.94614665837E+03  0.46999998093E+01 0.  1.
       -5    1    3    3    0  502  0.98794689528E+02  0.18447779914E+03 -0.13557205216E+03  0.24938789140E+03  0.46999998093E+01 0. -1.
</event>
<event>
 5   0  0.2450427E-04  0.8999224E+03  0.7818609E-02  0.9425678E-01
        1   -1    0    0  501    0  0.00000000000E+00  0.00000000000E+00  0.13845826815E+04  0.13845826815E+04  0.50400001928E-02 0.  1.
       -1   -1    0    0    0  501  0.00000000000E+00  0.00000000000E+00 -0.14622822603E+03  0.14622822612E+03  0.50400001928E-02 0. -1.
    10030    2    1    2    0    0  0.00000000000E+00  0.00000000000E+00  0.12383544554E+04  0.15308109076E+04  0.89992237305E+03 0.  0.
        3    1    3    3  502    0  0.11276642088E+03  0.10312762586E+03  0.13390912665E+04  0.13477822536E+04  0.10100000352E+00 0.  1.
       -3    1    3    3    0  502 -0.11276642088E+03 -0.10312762586E+03 -0.10073681104E+03  0.18302865402E+03  0.10100000352E+00 0. -1.
</event>
<event>
 5   0  0.4236284E-04  0.9000990E+03  0.7818609E-02  0.9425458E-01
        2   -1    0    0  501    0  0.00000000000E+00  0.00000000000E+00  0.66235615862E+03  0.66235615863E+03  0.25500000920E-02 0.  1.
       -2   -1    0    0    0  501  0.00000000000E+00  0.00000000000E+00 -0.30579401737E+03  0.30579401738E+03  0.25500000920E-02 0. -1.
    10030    2    1    2    0    0  0.00000000000E+00  0.00000000000E+00  0.35656214125E+03  0.96815017601E+03  0.90009899608E+03 0.  0.
        2    1    3    3  502    0  0.40426814727E+03  0.61172103516E+02  0.38056840390E+03  0.55857593146E+03  0.25500000920E-02 0.  1.
       -2    1    3    3    0  502 -0.40426814727E+03 -0.61172103516E+02 -0.24006262653E+02  0.40957424455E+03  0.25500000920E-02 0. -1.
</event>
<event>
 5   0  0.2351435E-04  0.8999732E+03  0.7818609E-02  0.9425615E-01
        1   -1    0    0  501    0  0.00000000000E+00  0.00000000000E+00  0.73342337951E+03  0.73342337953E+03  0.50400001928E-02 0.  1.
       -1   -1    0    0    0  501  0.00000000000E+00  0.00000000000E+00 -0.27608601399E+03  0.27608601404E+03  0.50400001928E-02 0. -1.
    10030    2    1    2    0    0  0.00000000000E+00  0.00000000000E+00  0.45733736552E+03  0.10095093936E+04  0.89997319393E+03 0.  0.
        4    1    3    3  502    0 -0.19648029216E+03  0.17245152014E+03  0.63950010464E+03  0.69087338112E+03  0.12699999809E+01 0.  1.
       -4    1    3    3    0  502  0.19648029216E+03 -0.17245152014E+03 -0.18216273912E+03  0.31863601245E+03  0.12699999809E+01 0. -1.
</event>
<event>
 5   0  0.2356918E-04  0.8992788E+03  0.7818609E-02  0.9426483E-01
        1   -1    0    0  501    0  0.00000000000E+00  0.00000000000E+00  0.21353524522E+04  0.21353524522E+04  0.50400001928E-02 0.  1.
       -1   -1    0    0    0  501  0.00000000000E+00  0.00000000000E+00 -0.94680197652E+02  0.94680197786E+02  0.50400001928E-02 0. -1.
    10030    2    1    2    0    0  0.00000000000E+00  0.00000000000E+00  0.20406722546E+04  0.22300326500E+04  0.89927880524E+03 0.  0.
        5    1    3    3  502    0 -0.51719979134E+02  0.32431995023E+03  0.17818213212E+04  0.18118409690E+04  0.46999998093E+01 0.  1.
       -5    1    3    3    0  502  0.51719979134E+02 -0.32431995023E+03  0.25885093341E+03  0.41819168103E+03  0.46999998093E+01 0. -1.
</event>
<event>
 5   0  0.2308362E-04  0.8999371E+03  0.7818609E-02  0.9425660E-01
       -1   -1    0    0    0  501  0.00000000000E+00  0.00000000000E+00  0.51281433427E+03  0.51281433429E+03  0.50400001928E-02 0. -1.
        1   -1    0    0  501    0  0.00000000000E+00  0.00000000000E+00 -0.39482455007E+03  0.39482455011E+03  0.50400001928E-02 0.  1.
    10030    2    1    2    0    0  0.00000000000E+00  0.00000000000E+00  0.11798978419E+03  0.90763888440E+03  0.89993708408E+03 0.  0.
        1    1    3    3  502    0  0.27646047460E+03  0.24535068218E+01 -0.29905784814E+03  0.40727387625E+03  0.50400001928E-02 0.  1.
       -1    1    3    3    0  502 -0.27646047460E+03 -0.24535068218E+01  0.41704763234E+03  0.50036500815E+03  0.50400001928E-02 0. -1.
</event>
<event>
 5   0  0.2332791E-04  0.9002292E+03  0.7818609E-02  0.9425295E-01
       -1   -1    0    0    0  501  0.00000000000E+00  0.00000000000E+00  0.43863117842E+03  0.43863117845E+03  0.50400001928E-02 0.  1.
        1   -1    0    0  501    0  0.00000000000E+00  0.00000000000E+00 -0.46189866606E+03  0.46189866609E+03  0.50400001928E-02 0. -1.
    10030    2    1    2    0    0  0.00000000000E+00  0.00000000000E+00 -0.23267487639E+02  0.90052984454E+03  0.90022920688E+03 0.  0.
        2    1    3    3  502    0 -0.27860380033E+03  0.10931696354E+03 -0.34794965030E+03  0.45895450235E+03  0.25500000920E-02 0. -1.
       -2    1    3    3    0  502  0.27860380033E+03 -0.10931696354E+03  0.32468216266E+03  0.44157534219E+03  0.25500000920E-02 0.  1.
</event>
<event>
 5   0  0.4110039E-04  0.8999768E+03  0.7818609E-02  0.9425610E-01
        2   -1    0    0  501    0  0.00000000000E+00  0.00000000000E+00  0.30766723309E+03  0.30766723310E+03  0.25500000920E-02 0.  1.
       -2   -1    0    0    0  501  0.00000000000E+00  0.00000000000E+00 -0.65814469414E+03  0.65814469415E+03  0.25500000920E-02 0. -1.
    10030    2    1    2    0    0  0.00000000000E+00  0.00000000000E+00 -0.35047746105E+03  0.96581192725E+03  0.89997679310E+03 0.  0.
        3    1    3    3  502    0 -0.32990338836E+03  0.15297010368E+03 -0.45968161711E+03  0.58612566706E+03  0.10100000352E+00 0.  1.
       -3    1    3    3    0  502  0.32990338836E+03 -0.15297010368E+03  0.10920415606E+03  0.37968626019E+03  0.10100000352E+00 0. -1.
</event>
<event>
 5   0  0.4243516E-04  0.9001141E+03  0.7818609E-02  0.9425439E-01
        2   -1    0    0  501    0  0.00000000000E+00  0.00000000000E+00  0.11274465951E+04  0.11274465952E+04  0.25500000920E-02 0.  1.
       -2   -1    0    0    0  501  0.00000000000E+00  0.00000000000E+00 -0.17965494073E+03  0.17965494075E+03  0.25500000920E-02 0. -1.
    10030    2    1    2    0    0  0.00000000000E+00  0.00000000000E+00  0.94779165442E+03  0.13071015359E+04  0.90011410663E+03 0.  0.
        1    1    3    3  502    0  0.20109917887E+03 -0.18131264489E+03 -0.48144244367E+02  0.27501458730E+03  0.50400001928E-02 0. -1.
       -1    1    3    3    0  502 -0.20109917887E+03  0.18131264489E+03  0.99593589879E+03  0.10320869486E+04  0.50400001928E-02 0.  1.
</event>
<event>
 5   0  0.2332791E-04  0.8999389E+03  0.7818609E-02  0.9425658E-01
        1   -1    0    0  501    0  0.00000000000E+00  0.00000000000E+00  0.97463184832E+03  0.97463184833E+03  0.50400001928E-02 0.  1.
       -1   -1    0    0    0  501  0.00000000000E+00  0.00000000000E+00 -0.20774255844E+03  0.20774255850E+03  0.50400001928E-02 0. -1.
    10030    2    1    2    0    0  0.00000000000E+00  0.00000000000E+00  0.76688928987E+03  0.11823744068E+04  0.89993891738E+03 0.  0.
        2    1    3    3  502    0  0.40725312082E+02  0.29172194706E+03  0.83036660123E+03  0.88106125660E+03  0.25500000920E-02 0.  1.
       -2    1    3    3    0  502 -0.40725312082E+02 -0.29172194706E+03 -0.63477311352E+02  0.30131315023E+03  0.25500000920E-02 0. -1.
</event>
<event>
 5   0  0.2351435E-04  0.9000063E+03  0.7818609E-02  0.9425574E-01
       -1   -1    0    0    0  501  0.00000000000E+00  0.00000000000E+00  0.72396055858E+03  0.72396055860E+03  0.50400001928E-02 0.  1.
        1   -1    0    0  501    0  0.00000000000E+00  0.00000000000E+00 -0.27971527445E+03  0.27971527449E+03  0.50400001928E-02 0. -1.
    10030    2    1    2    0    0  0.00000000000E+00  0.00000000000E+00  0.44424528413E+03  0.10036758331E+04  0.90000628078E+03 0.  0.
        4    1    3    3  502    0  0.36106178972E+03  0.43097546763E+01  0.52160195200E+03  0.63439293754E+03  0.12699999809E+01 0.  1.
       -4    1    3    3    0  502 -0.36106178972E+03 -0.43097546763E+01 -0.77356667863E+02  0.36928289554E+03  0.12699999809E+01 0. -1.
</event>
<event>
 5   0  0.2450427E-04  0.8996780E+03  0.7818609E-02  0.9425984E-01
       -1   -1    0    0    0  501  0.00000000000E+00  0.00000000000E+00  0.26943953010E+03  0.26943953015E+03  0.50400001928E-02 0. -1.
        1   -1    0    0  501    0  0.00000000000E+00  0.00000000000E+00 -0.75102236159E+03  0.75102236161E+03  0.50400001928E-02 0.  1.
    10030    2    1    2    0    0  0.00000000000E+00  0.00000000000E+00 -0.48158283148E+03  0.10204618918E+04  0.89967796958E+03 0.  0.
        3    1    3    3  502    0 -0.38321611834E+03  0.14268715257E+03 -0.28165570330E+02  0.40988721182E+03  0.10100000352E+00 0. -1.
       -3    1    3    3    0  502  0.38321611834E+03 -0.14268715257E+03 -0.45341726115E+03  0.61057467993E+03  0.10100000352E+00 0.  1.
</event>
<event>
 5   0  0.2351435E-04  0.9030320E+03  0.7818609E-02  0.9421799E-01
        1   -1    0    0  501    0  0.00000000000E+00  0.00000000000E+00  0.66919743011E+03  0.66919743013E+03  0.50400001928E-02 0. -1.
       -1   -1    0    0    0  501  0.00000000000E+00  0.00000000000E+00 -0.30464357871E+03  0.30464357875E+03  0.50400001928E-02 0.  1.
    10030    2    1    2    0    0  0.00000000000E+00  0.00000000000E+00  0.36455385141E+03  0.97384100888E+03  0.90303200386E+03 0.  0.
        4    1    3    3  502    0 -0.20344049125E+03 -0.45114330515E+02 -0.24968315437E+03  0.32521781436E+03  0.12699999809E+01 0.  1.
       -4    1    3    3    0  502  0.20344049125E+03  0.45114330515E+02  0.61423700578E+03  0.64862319452E+03  0.12699999809E+01 0. -1.
</event>
<event>
 5   0  0.4236284E-04  0.9000715E+03  0.7818609E-02  0.9425492E-01
        2   -1    0    0  501    0  0.00000000000E+00  0.00000000000E+00  0.25235454105E+04  0.25235454105E+04  0.25500000920E-02 0. -1.
       -2   -1    0    0    0  501  0.00000000000E+00  0.00000000000E+00 -0.80256996169E+02  0.80256996209E+02  0.25500000920E-02 0.  1.
    10030    2    1    2    0    0  0.00000000000E+00  0.00000000000E+00  0.24432884144E+04  0.26038024067E+04  0.90007149582E+03 0.  0.
        2    1    3    3  502    0 -0.10896791614E+03 -0.24192731416E+03  0.22731959618E+04  0.22886290029E+04  0.25500000920E-02 0. -1.
       -2    1    3    3    0  502  0.10896791614E+03  0.24192731416E+03  0.17009245259E+03  0.31517340389E+03  0.25500000920E-02 0.  1.
</event>
<event>
 5   0  0.4243516E-04  0.9001956E+03  0.7818609E-02  0.9425337E-01
        2   -1    0    0  501    0  0.00000000000E+00  0.00000000000E+00  0.71911501181E+03  0.71911501181E+03  0.25500000920E-02 0.  1.
       -2   -1    0    0    0  501  0.00000000000E+00  0.00000000000E+00 -0.28171851783E+03  0.28171851784E+03  0.25500000920E-02 0. -1.
    10030    2    1    2    0    0  0.00000000000E+00  0.00000000000E+00  0.43739649398E+03  0.10008335297E+04  0.90019556827E+03 0.  0.
        1    1    3    3  502    0 -0.39388768638E+03 -0.19810925791E+03  0.11806245042E+03  0.45643567978E+03  0.50400001928E-02 0. -1.
       -1    1    3    3    0  502  0.39388768638E+03  0.19810925791E+03  0.31933404356E+03  0.54439784988E+03  0.50400001928E-02 0.  1.
</event>
<event>
 5   0  0.1596250E-04  0.8935070E+03  0.7818609E-02  0.9433735E-01
        3   -1    0    0  501    0  0.00000000000E+00  0.00000000000E+00  0.62618100895E+03  0.62618101710E+03  0.10100000352E+00 0. -1.
       -3   -1    0    0    0  501  0.00000000000E+00  0.00000000000E+00 -0.31873960850E+03  0.31873962450E+03  0.10100000352E+00 0.  1.
    10030    2    1    2    0    0  0.00000000000E+00  0.00000000000E+00  0.30744140045E+03  0.94492064160E+03  0.89350702527E+03 0.  0.
        1    1    3    3  502    0  0.26526112070E+03  0.24997895405E+03  0.42691817109E+03  0.56134843409E+03  0.50400001928E-02 0. -1.
       -1    1    3    3    0  502 -0.26526112070E+03 -0.24997895405E+03 -0.11947677064E+03  0.38357220751E+03  0.50400001928E-02 0.  1.
</event>
<event>
 5   0  0.2308362E-04  0.8998957E+03  0.7818609E-02  0.9425712E-01
       -1   -1    0    0    0  501  0.00000000000E+00  0.00000000000E+00  0.33351015147E+03  0.33351015150E+03  0.50400001928E-02 0.  1.
        1   -1    0    0  501    0  0.00000000000E+00  0.00000000000E+00 -0.60703726465E+03  0.60703726467E+03  0.50400001928E-02 0. -1.
    10030    2    1    2    0    0  0.00000000000E+00  0.00000000000E+00 -0.27352711319E+03  0.94054741618E+03  0.89989574976E+03 0.  0.
        1    1    3    3  502    0  0.12390939199E+03 -0.34825028883E+03 -0.40490978049E+03  0.54825517003E+03  0.50400001928E-02 0. -1.
       -1    1    3    3    0  502 -0.12390939199E+03  0.34825028883E+03  0.13138266731E+03  0.39229224615E+03  0.50400001928E-02 0.  1.
</event>
<event>
 5   0  0.4236284E-04  0.9011619E+03  0.7818609E-02  0.9424130E-01
        2   -1    0    0  501    0  0.00000000000E+00  0.00000000000E+00  0.11643447484E+04  0.11643447484E+04  0.25500000920E-02 0.  1.
       -2   -1    0    0    0  501  0.00000000000E+00  0.00000000000E+00 -0.17436692290E+03  0.17436692292E+03  0.25500000920E-02 0. -1.
    10030    2    1    2    0    0  0.00000000000E+00  0.00000000000E+00  0.98997782555E+03  0.13387116714E+04  0.90116194104E+03 0.  0.
        2    1    3    3  502    0 -0.23890798025E+03 -0.34930722109E+03  0.26518284850E+03  0.49941415767E+03  0.25500000920E-02 0. -1.
       -2    1    3    3    0  502  0.23890798025E+03  0.34930722109E+03  0.72479497705E+03  0.83929751370E+03  0.25500000920E-02 0.  1.
</event>
<event>
 5   0  0.2308362E-04  0.8997296E+03  0.7818609E-02  0.9425919E-01
        1   -1    0    0  501    0  0.00000000000E+00  0.00000000000E+00  0.89916116803E+03  0.89916116804E+03  0.50400001928E-02 0. -1.
       -1   -1    0    0    0  501  0.00000000000E+00  0.00000000000E+00 -0.22507461986E+03  0.22507461992E+03  0.50400001928E-02 0.  1.
    10030    2    1    2    0    0  0.00000000000E+00  0.00000000000E+00  0.67408654816E+03  0.11242357880E+04  0.89972964413E+03 0.  0.
        1    1    3    3  502    0  0.11713959097E+03  0.38721761993E+03  0.58291495101E+03  0.70954140759E+03  0.50400001928E-02 0. -1.
       -1    1    3    3    0  502 -0.11713959097E+03 -0.38721761993E+03  0.91171597151E+02  0.41469438037E+03  0.50400001928E-02 0.  1.
</event>
<event>
 5   0  0.4243516E-04  0.8998379E+03  0.7818609E-02  0.9425784E-01
        2   -1    0    0  501    0  0.00000000000E+00  0.00000000000E+00  0.11162891399E+04  0.11162891399E+04  0.25500000920E-02 0. -1.
       -2   -1    0    0    0  501  0.00000000000E+00  0.00000000000E+00 -0.18133926942E+03  0.18133926944E+03  0.25500000920E-02 0.  1.
    10030    2    1    2    0    0  0.00000000000E+00  0.00000000000E+00  0.93494987044E+03  0.12976284093E+04  0.89983789007E+03 0.  0.
        1    1    3    3  502    0 -0.42855962013E+03  0.13043735610E+03  0.40715221455E+03  0.60535128456E+03  0.50400001928E-02 0.  1.
       -1    1    3    3    0  502  0.42855962013E+03 -0.13043735610E+03  0.52779765588E+03  0.69227712475E+03  0.50400001928E-02 0. -1.
</event>
<event>
 5   0  0.2450427E-04  0.8996237E+03  0.7818609E-02  0.9426052E-01
        1   -1    0    0  501    0  0.00000000000E+00  0.00000000000E+00  0.11800144423E+04  0.11800144424E+04  0.50400001928E-02 0. -1.
       -1   -1    0    0    0  501  0.00000000000E+00  0.00000000000E+00 -0.17146458586E+03  0.17146458594E+03  0.50400001928E-02 0.  1.
    10030    2    1    2    0    0  0.00000000000E+00  0.00000000000E+00  0.10085498565E+04  0.13514790283E+04  0.89962367183E+03 0.  0.
        3    1    3    3  502    0 -0.12352721230E+03  0.98815485145E+02  0.11368493520E+04  0.11478022180E+04  0.10100000352E+00 0. -1.
       -3    1    3    3    0  502  0.12352721230E+03 -0.98815485145E+02 -0.12829949555E+03  0.20367681027E+03  0.10100000352E+00 0.  1.
</event>
<event>
 5   0  0.3959804E-04  0.8985842E+03  0.7818609E-02  0.9427353E-01
       -2   -1    0    0    0  501  0.00000000000E+00  0.00000000000E+00  0.26431611997E+03  0.26431611998E+03  0.25500000920E-02 0.  1.
        2   -1    0    0  501    0  0.00000000000E+00  0.00000000000E+00 -0.76371957231E+03  0.76371957231E+03  0.25500000920E-02 0. -1.
    10030    2    1    2    0    0  0.00000000000E+00  0.00000000000E+00 -0.49940345234E+03  0.10280356923E+04  0.89858420664E+03 0.  0.
        5    1    3    3  502    0 -0.96171060803E+02 -0.42892212575E+03 -0.35591009390E+03  0.56561218855E+03  0.46999998093E+01 0.  1.
       -5    1    3    3    0  502  0.96171060803E+02  0.42892212575E+03 -0.14349335844E+03  0.46242350374E+03  0.46999998093E+01 0. -1.
</event>
<event>
 5   0  0.4243516E-04  0.8984079E+03  0.7818609E-02  0.9427574E-01
       -2   -1    0    0    0  501  0.00000000000E+00  0.00000000000E+00  0.24650153658E+03  0.24650153659E+03  0.25500000920E-02 0. -1.
        2   -1    0    0  501    0  0.00000000000E+00  0.00000000000E+00 -0.81859200536E+03  0.81859200537E+03  0.25500000920E-02 0.  1.
    10030    2    1    2    0    0  0.00000000000E+00  0.00000000000E+00 -0.57209046878E+03  0.10650935420E+04  0.89840789659E+03 0.  0.
        1    1    3    3  502    0  0.36454343909E+03  0.14130431897E+02  0.24674734834E+02  0.36565069486E+03  0.50400001928E-02 0. -1.
       -1    1    3    3    0  502 -0.36454343909E+03 -0.14130431897E+02 -0.59676520361E+03  0.69944284710E+03  0.50400001928E-02 0.  1.
</event>
<event>
 5   0  0.2332791E-04  0.9003044E+03  0.7818609E-02  0.9425201E-01
        1   -1    0    0  501    0  0.00000000000E+00  0.00000000000E+00  0.91484170643E+03  0.91484170644E+03  0.50400001928E-02 0.  1.
       -1   -1    0    0    0  501  0.00000000000E+00  0.00000000000E+00 -0.22149952817E+03  0.22149952822E+03  0.50400001928E-02 0. -1.
    10030    2    1    2    0    0  0.00000000000E+00  0.00000000000E+00  0.69334217826E+03  0.11363412347E+04  0.90030440710E+03 0.  0.
        2    1    3    3  502    0  0.28205047852E+03 -0.30330617698E+02  0.78782695351E+03  0.83734325547E+03  0.25500000920E-02 0.  1.
       -2    1    3    3    0  502 -0.28205047852E+03  0.30330617698E+02 -0.94484775243E+02  0.29899797919E+03  0.25500000920E-02 0. -1.
</event>
<event>
 5   0  0.4236284E-04  0.9017813E+03  0.7818609E-02  0.9423357E-01
        2   -1    0    0  501    0  0.00000000000E+00  0.00000000000E+00  0.15281005453E+04  0.15281005453E+04  0.25500000920E-02 0.  1.
       -2   -1    0    0    0  501  0.00000000000E+00  0.00000000000E+00 -0.13304254702E+03  0.13304254705E+03  0.25500000920E-02 0. -1.
    10030    2    1    2    0    0  0.00000000000E+00  0.00000000000E+00  0.13950579983E+04  0.16611430923E+04  0.90178132310E+03 0.  0.
        2    1    3    3  502    0  0.25146301542E+03  0.32037250699E+03  0.34114609179E+03  0.53127473807E+03  0.25500000920E-02 0.  1.
       -2    1    3    3    0  502 -0.25146301542E+03 -0.32037250699E+03  0.10539119065E+04  0.11298683543E+04  0.25500000920E-02 0. -1.
</event>
<event>
 5   0  0.4243516E-04  0.9005091E+03  0.7818609E-02  0.9424945E-01
        2   -1    0    0  501    0  0.00000000000E+00  0.00000000000E+00  0.86947291369E+03  0.86947291369E+03  0.25500000920E-02 0.  1.
       -2   -1    0    0    0  501  0.00000000000E+00  0.00000000000E+00 -0.23316330195E+03  0.23316330196E+03  0.25500000920E-02 0. -1.
    10030    2    1    2    0    0  0.00000000000E+00  0.00000000000E+00  0.63630961174E+03  0.11026362157E+04  0.90050913492E+03 0.  0.
        1    1    3    3  502    0  0.21629645717E+03 -0.48221125260E+02  0.79807347482E+03  0.82826970580E+03  0.50400001928E-02 0.  1.
       -1    1    3    3    0  502 -0.21629645717E+03  0.48221125260E+02 -0.16176386308E+03  0.27436650986E+03  0.50400001928E-02 0. -1.
</event>
<event>
 5   0  0.2332791E-04  0.9000015E+03  0.7818609E-02  0.9425580E-01
        1   -1    0    0  501    0  0.00000000000E+00  0.00000000000E+00  0.39654744850E+03  0.39654744853E+03  0.50400001928E-02 0.  1.
       -1   -1    0    0    0  501  0.00000000000E+00  0.00000000000E+00 -0.51065940613E+03  0.51065940616E+03  0.50400001928E-02 0. -1.
    10030    2    1    2    0    0  0.00000000000E+00  0.00000000000E+00 -0.11411195763E+03  0.90720685469E+03  0.90000152129E+03 0.  0.
        2    1    3    3  502    0 -0.38532046550E+03 -0.59019279886E+02 -0.28367926580E+03  0.48210897356E+03  0.25500000920E-02 0. -1.
       -2    1    3    3    0  502  0.38532046550E+03  0.59019279886E+02  0.16956730817E+03  0.42509788113E+03  0.25500000920E-02 0.  1.
</event>
<event>
 5   0  0.2351435E-04  0.9000342E+03  0.7818609E-02  0.9425539E-01
       -1   -1    0    0    0  501  0.00000000000E+00  0.00000000000E+00  0.37866037341E+03  0.37866037344E+03  0.50400001928E-02 0. -1.
        1   -1    0    0  501    0  0.00000000000E+00  0.00000000000E+00 -0.53482067636E+03  0.53482067639E+03  0.50400001928E-02 0.  1.
    10030    2    1    2    0    0  0.00000000000E+00  0.00000000000E+00 -0.15616030296E+03  0.91348104983E+03  0.90003421500E+03 0.  0.
        4    1    3    3  502    0 -0.24324529337E+03  0.28784089454E+03 -0.32770829896E+03  0.49941465279E+03  0.12699999809E+01 0.  1.
       -4    1    3    3    0  502  0.24324529337E+03 -0.28784089454E+03  0.17154799600E+03  0.41406639703E+03  0.12699999809E+01 0. -1.
</event>
<event>
 5   0  0.3959804E-04  0.9001659E+03  0.7818609E-02  0.9425374E-01
       -2   -1    0    0    0  501  0.00000000000E+00  0.00000000000E+00  0.30949934595E+03  0.30949934596E+03  0.25500000920E-02 0.  1.
        2   -1    0    0  501    0  0.00000000000E+00  0.00000000000E+00 -0.65452364323E+03  0.65452364324E+03  0.25500000920E-02 0. -1.
    10030    2    1    2    0    0  0.00000000000E+00  0.00000000000E+00 -0.34502429728E+03  0.96402298919E+03  0.90016585026E+03 0.  0.
        5    1    3    3  502    0  0.41001223681E+03 -0.16433838990E+03 -0.26485797717E+03  0.51506211160E+03  0.46999998093E+01 0. -1.
       -5    1    3    3    0  502 -0.41001223681E+03  0.16433838990E+03 -0.80166320110E+02  0.44896087759E+03  0.46999998093E+01 0.  1.
</event>
<event>
 5   0  0.2450427E-04  0.8999179E+03  0.7818609E-02  0.9425684E-01
       -1   -1    0    0    0  501  0.00000000000E+00  0.00000000000E+00  0.22363718518E+03  0.22363718524E+03  0.50400001928E-02 0.  1.
        1   -1    0    0  501    0  0.00000000000E+00  0.00000000000E+00 -0.90531927367E+03  0.90531927369E+03  0.50400001928E-02 0. -1.
    10030    2    1    2    0    0  0.00000000000E+00  0.00000000000E+00 -0.68168208849E+03  0.11289564589E+04  0.89991789424E+03 0.  0.
        3    1    3    3  502    0 -0.41235343840E+02  0.87330949850E+02  0.21048170896E+03  0.23158067361E+03  0.10100000352E+00 0.  1.
       -3    1    3    3    0  502  0.41235343840E+02 -0.87330949850E+02 -0.89216379745E+03  0.89737578531E+03  0.10100000352E+00 0. -1.
</event>
<event>
 5   0  0.2308362E-04  0.8998860E+03  0.7818609E-02  0.9425724E-01
       -1   -1    0    0    0  501  0.00000000000E+00  0.00000000000E+00  0.10229187047E+03  0.10229187059E+03  0.50400001928E-02 0.  1.
        1   -1    0    0  501    0  0.00000000000E+00  0.00000000000E+00 -0.19791278606E+04  0.19791278606E+04  0.50400001928E-02 0. -1.
    10030    2    1    2    0    0  0.00000000000E+00  0.00000000000E+00 -0.18768359901E+04  0.20814197312E+04  0.89988597253E+03 0.  0.
        1    1    3    3  502    0 -0.83813323096E+01  0.74993640228E+02 -0.19643873990E+04  0.19658362461E+04  0.50400001928E-02 0. -1.
       -1    1    3    3    0  502  0.83813323096E+01 -0.74993640228E+02  0.87551408914E+02  0.11558348513E+03  0.50400001928E-02 0.  1.
</event>
<event>
 5   0  0.4110039E-04  0.8999749E+03  0.7818609E-02  0.9425613E-01
        2   -1    0    0  501    0  0.00000000000E+00  0.00000000000E+00  0.95280514768E+03  0.95280514769E+03  0.25500000920E-02 0.  1.
       -2   -1    0    0    0  501  0.00000000000E+00  0.00000000000E+00 -0.21251847206E+03  0.21251847207E+03  0.25500000920E-02 0. -1.
    10030    2    1    2    0    0  0.00000000000E+00  0.00000000000E+00  0.74028667563E+03  0.11653236198E+04  0.89997487557E+03 0.  0.
        3    1    3    3  502    0 -0.39370547760E+03 -0.47600670402E+02  0.94799124218E+02  0.40774589032E+03  0.10100000352E+00 0. -1.
       -3    1    3    3    0  502  0.39370547760E+03  0.47600670402E+02  0.64548755141E+03  0.75757772944E+03  0.10100000352E+00 0.  1.
</event>
<event>
 5   0  0.3959804E-04  0.8999888E+03  0.7818609E-02  0.9425595E-01
       -2   -1    0    0    0  501  0.00000000000E+00  0.00000000000E+00  0.46321853475E+03  0.46321853475E+03  0.25500000920E-02 0.  1.
        2   -1    0    0  501    0  0.00000000000E+00  0.00000000000E+00 -0.43714781980E+03  0.43714781980E+03  0.25500000920E-02 0. -1.
    10030    2    1    2    0    0  0.00000000000E+00  0.00000000000E+00  0.26070714951E+02  0.90036635456E+03  0.89998882784E+03 0.  0.
        5    1    3    3  502    0  0.15068753974E+03 -0.94810892718E+02 -0.40038978385E+03  0.43821217352E+03  0.46999998093E+01 0.  1.
       -5    1    3    3    0  502 -0.15068753974E+03  0.94810892718E+02  0.42646049880E+03  0.46215418104E+03  0.46999998093E+01 0. -1.
</event>
<event>
 5   0  0.2356918E-04  0.9000676E+03  0.7818609E-02  0.9425497E-01
       -1   -1    0    0    0  501  0.00000000000E+00  0.00000000000E+00  0.11984431988E+03  0.11984431999E+03  0.50400001928E-02 0. -1.
        1   -1    0    0  501    0  0.00000000000E+00  0.00000000000E+00 -0.16899458628E+04  0.16899458628E+04  0.50400001928E-02 0.  1.
    10030    2    1    2    0    0  0.00000000000E+00  0.00000000000E+00 -0.15701015429E+04  0.18097901828E+04  0.90006758116E+03 0.  0.
        5    1    3    3  502    0  0.26115222856E+03 -0.36445642867E+03 -0.86238793704E+03  0.97198972157E+03  0.46999998093E+01 0.  1.
       -5    1    3    3    0  502 -0.26115222856E+03  0.36445642867E+03 -0.70771360585E+03  0.83780046120E+03  0.46999998093E+01 0. -1.
</event>
<event>
 5   0  0.2332791E-04  0.8997860E+03  0.7818609E-02  0.9425849E-01
        1   -1    0    0  501    0  0.00000000000E+00  0.00000000000E+00  0.28518416780E+03  0.28518416785E+03  0.50400001928E-02 0. -1.
       -1   -1    0    0    0  501  0.00000000000E+00  0.00000000000E+00 -0.70972983868E+03  0.70972983870E+03  0.50400001928E-02 0.  1.
    10030    2    1    2    0    0  0.00000000000E+00  0.00000000000E+00 -0.42454567088E+03  0.99491400654E+03  0.89978600442E+03 0.  0.
        2    1    3    3  502    0  0.10534585838E+03 -0.17611487407E+03  0.23041630476E+03  0.30855448830E+03  0.25500000920E-02 0. -1.
       -2    1    3    3    0  502 -0.10534585838E+03  0.17611487407E+03 -0.65496197564E+03  0.68635951824E+03  0.25500000920E-02 0.  1.
</event>
<event>
 5   0  0.4033144E-04  0.8997444E+03  0.7818609E-02  0.9425901E-01
       -2   -1    0    0    0  501  0.00000000000E+00  0.00000000000E+00  0.69410746526E+03  0.69410746527E+03  0.25500000920E-02 0.  1.
        2   -1    0    0  501    0  0.00000000000E+00  0.00000000000E+00 -0.29157588537E+03  0.29157588538E+03  0.25500000920E-02 0. -1.
    10030    2    1    2    0    0  0.00000000000E+00  0.00000000000E+00  0.40253157990E+03  0.98568335065E+03  0.89974440533E+03 0.  0.
        4    1    3    3  502    0  0.23707643428E+03 -0.63078149577E+02 -0.21184543052E+03  0.32413606399E+03  0.12699999809E+01 0. -1.
       -4    1    3    3    0  502 -0.23707643428E+03  0.63078149577E+02  0.61437701042E+03  0.66154728666E+03  0.12699999809E+01 0.  1.
</event>
<event>
 5   0  0.3959804E-04  0.8989760E+03  0.7818609E-02  0.9426862E-01
       -2   -1    0    0    0  501  0.00000000000E+00  0.00000000000E+00  0.10924379389E+03  0.10924379392E+03  0.25500000920E-02 0. -1.
        2   -1    0    0  501    0  0.00000000000E+00  0.00000000000E+00 -0.18494367116E+04  0.18494367116E+04  0.25500000920E-02 0.  1.
    10030    2    1    2    0    0  0.00000000000E+00  0.00000000000E+00 -0.17401929177E+04  0.19586805055E+04  0.89897604631E+03 0.  0.
        5    1    3    3  502    0  0.53067779531E+02  0.51920824347E+02 -0.18359310616E+04  0.18374375946E+04  0.46999998093E+01 0.  1.
       -5    1    3    3    0  502 -0.53067779531E+02 -0.51920824347E+02  0.95738143940E+02  0.12124291084E+03  0.46999998093E+01 0. -1.
</event>
<event>
 5   0  0.2308362E-04  0.8999188E+03  0.7818609E-02  0.9425683E-01
        1   -1    0    0  501    0  0.00000000000E+00  0.00000000000E+00  0.38503925276E+03  0.38503925279E+03  0.50400001928E-02 0. -1.
       -1   -1    0    0    0  501  0.00000000000E+00  0.00000000000E+00 -0.52582549239E+03  0.52582549242E+03  0.50400001928E-02 0.  1.
    10030    2    1    2    0    0  0.00000000000E+00  0.00000000000E+00 -0.14078623963E+03  0.91086474521E+03  0.89991878456E+03 0.  0.
        1    1    3    3  502    0  0.16295812503E+03 -0.36616677582E+03  0.13661838854E+03  0.42343599556E+03  0.50400001928E-02 0. -1.
       -1    1    3    3    0  502 -0.16295812503E+03  0.36616677582E+03 -0.27740462817E+03  0.48742874965E+03  0.50400001928E-02 0.  1.
</event>
<event>
 5   0  0.4236284E-04  0.9002230E+03  0.7818609E-02  0.9425303E-01
        2   -1    0    0  501    0  0.00000000000E+00  0.00000000000E+00  0.97202798573E+03  0.97202798573E+03  0.25500000920E-02 0.  1.
       -2   -1    0    0    0  501  0.00000000000E+00  0.00000000000E+00 -0.20843060227E+03  0.20843060228E+03  0.25500000920E-02 0. -1.
    10030    2    1    2    0    0  0.00000000000E+00  0.00000000000E+00  0.76359738346E+03  0.11804585880E+04  0.90022303569E+03 0.  0.
        2    1    3    3  502    0 -0.16934772627E+03  0.33779612334E+03  0.70250501408E+03  0.79768299979E+03  0.25500000920E-02 0.  1.
       -2    1    3    3    0  502  0.16934772627E+03 -0.33779612334E+03  0.61092369385E+02  0.38277558823E+03  0.25500000920E-02 0. -1.
</event>
<event>
 5   0  0.1596250E-04  0.9000968E+03  0.7818609E-02  0.9425460E-01
       -3   -1    0    0    0  501  0.00000000000E+00  0.00000000000E+00  0.22891289236E+03  0.22891291464E+03  0.10100000352E+00 0. -1.
        3   -1    0    0  501    0  0.00000000000E+00  0.00000000000E+00 -0.88480612344E+03  0.88480612921E+03  0.10100000352E+00 0.  1.
    10030    2    1    2    0    0  0.00000000000E+00  0.00000000000E+00 -0.65589323108E+03  0.11137190439E+04  0.90009676039E+03 0.  0.
        5    1    3    3  502    0  0.21378221640E+03 -0.38952489221E+03 -0.23967894132E+03  0.50487677963E+03  0.46999998093E+01 0.  1.
       -5    1    3    3    0  502 -0.21378221640E+03  0.38952489221E+03 -0.41621428976E+03  0.60884226422E+03  0.46999998093E+01 0. -1.
</event>
<event>
 5   0  0.2332791E-04  0.8981393E+03  0.7818609E-02  0.9427910E-01
        1   -1    0    0  501    0  0.00000000000E+00  0.00000000000E+00  0.28321880251E+03  0.28321880256E+03  0.50400001928E-02 0.  1.
       -1   -1    0    0    0  501  0.00000000000E+00  0.00000000000E+00 -0.71204159133E+03  0.71204159135E+03  0.50400001928E-02 0. -1.
    10030    2    1    2    0    0  0.00000000000E+00  0.00000000000E+00 -0.42882278882E+03  0.99526039391E+03  0.89813933634E+03 0.  0.
        2    1    3    3  502    0  0.14529962306E+03  0.24296924131E+03 -0.60070051606E+03  0.66406862799E+03  0.25500000920E-02 0. -1.
       -2    1    3    3    0  502 -0.14529962306E+03 -0.24296924131E+03  0.17187772724E+03  0.33119176592E+03  0.25500000920E-02 0.  1.
</event>
<event>
 5   0  0.4243516E-04  0.8975301E+03  0.7818609E-02  0.9428674E-01
        2   -1    0    0  501    0  0.00000000000E+00  0.00000000000E+00  0.27598696607E+03  0.27598696608E+03  0.25500000920E-02 0.  1.
       -2   -1    0    0    0  501  0.00000000000E+00  0.00000000000E+00 -0.72970862445E+03  0.72970862445E+03  0.25500000920E-02 0. -1.
    10030    2    1    2    0    0  0.00000000000E+00  0.00000000000E+00 -0.45372165838E+03  0.10056955905E+04  0.89753009840E+03 0.  0.
        1    1    3    3  502    0  0.24354697634E+03 -0.37202170264E+03 -0.29478649934E+03  0.53349260270E+03  0.50400001928E-02 0.  1.
       -1    1    3    3    0  502 -0.24354697634E+03  0.37202170264E+03 -0.15893515904E+03  0.47220298784E+03  0.50400001928E-02 0. -1.
</event>
<event>
 5   0  0.2308362E-04  0.8976892E+03  0.7818609E-02  0.9428475E-01
       -1   -1    0    0    0  501  0.00000000000E+00  0.00000000000E+00  0.73641799177E+03  0.73641799178E+03  0.50400001928E-02 0.  1.
        1   -1    0    0  501    0  0.00000000000E+00  0.00000000000E+00 -0.27356945105E+03  0.27356945109E+03  0.50400001928E-02 0. -1.
    10030    2    1    2    0    0  0.00000000000E+00  0.00000000000E+00  0.46284854072E+03  0.10099874429E+04  0.89768917957E+03 0.  0.
        1    1    3    3  502    0  0.28247271293E+03 -0.24477336803E+03 -0.48172261543E+02  0.37686257714E+03  0.50400001928E-02 0. -1.
       -1    1    3    3    0  502 -0.28247271293E+03  0.24477336803E+03  0.51102080226E+03  0.63312486573E+03  0.50400001928E-02 0.  1.
</event>
<event>
 5   0  0.2450427E-04  0.9001531E+03  0.7818609E-02  0.9425390E-01
        1   -1    0    0  501    0  0.00000000000E+00  0.00000000000E+00  0.45711209091E+03  0.45711209094E+03  0.50400001928E-02 0.  1.
       -1   -1    0    0    0  501  0.00000000000E+00  0.00000000000E+00 -0.44314934033E+03  0.44314934036E+03  0.50400001928E-02 0. -1.
    10030    2    1    2    0    0  0.00000000000E+00  0.00000000000E+00  0.13962750585E+02  0.90026143130E+03  0.90015314602E+03 0.  0.
        3    1    3    3  502    0 -0.54939844775E+02 -0.14543317311E+03  0.42940609201E+03  0.45668238026E+03  0.10100000352E+00 0.  1.
       -3    1    3    3    0  502  0.54939844775E+02  0.14543317311E+03 -0.41544334143E+03  0.44357905104E+03  0.10100000352E+00 0. -1.
</event>
<event>
 5   0  0.4033144E-04  0.8993588E+03  0.7818609E-02  0.9426383E-01
       -2   -1    0    0    0  501  0.00000000000E+00  0.00000000000E+00  0.10066609798E+03  0.10066609801E+03  0.25500000920E-02 0.  1.
        2   -1    0    0  501    0  0.00000000000E+00  0.00000000000E+00 -0.20087356320E+04  0.20087356320E+04  0.25500000920E-02 0. -1.
    10030    2    1    2    0    0  0.00000000000E+00  0.00000000000E+00 -0.19080695340E+04  0.21094017300E+04  0.89935883379E+03 0.  0.
        4    1    3    3  502    0 -0.34969197359E+03  0.73994264642E+02 -0.31406474861E+03  0.47581289055E+03  0.12699999809E+01 0.  1.
       -4    1    3    3    0  502  0.34969197359E+03 -0.73994264642E+02 -0.15940047854E+04  0.16335888395E+04  0.12699999809E+01 0. -1.
</event>
<event>
 5   0  0.4243516E-04  0.9005020E+03  0.7818609E-02  0.9424954E-01
       -2   -1    0    0    0  501  0.00000000000E+00  0.00000000000E+00  0.64367345009E+03  0.64367345010E+03  0.25500000920E-02 0. -1.
        2   -1    0    0  501    0  0.00000000000E+00  0.00000000000E+00 -0.31495159216E+03  0.31495159217E+03  0.25500000920E-02 0.  1.
    10030    2    1    2    0    0  0.00000000000E+00  0.00000000000E+00  0.32872185793E+03  0.95862504227E+03  0.90050203319E+03 0.  0.
        1    1    3    3  502    0  0.26673039652E+03  0.29322746340E+03 -0.62960032742E+02  0.40136195070E+03  0.50400001928E-02 0.  1.
       -1    1    3    3    0  502 -0.26673039652E+03 -0.29322746340E+03  0.39168189067E+03  0.55726309157E+03  0.50400001928E-02 0. -1.
</event>
<event>
 5   0  0.1596250E-04  0.8999966E+03  0.7818609E-02  0.9425586E-01
       -4   -1    0    0    0  501  0.00000000000E+00  0.00000000000E+00  0.39245856821E+03  0.39246062307E+03  0.12699999809E+01 0. -1.
        4   -1    0    0  501    0  0.00000000000E+00  0.00000000000E+00 -0.51596992544E+03  0.51597148842E+03  0.12699999809E+01 0.  1.
    10030    2    1    2    0    0  0.00000000000E+00  0.00000000000E+00 -0.12351135723E+03  0.90843211149E+03  0.89999658100E+03 0.  0.
        4    1    3    3  502    0 -0.99447995924E+02  0.22919836690E+03  0.31601827901E+03  0.40285352282E+03  0.12699999809E+01 0. -1.
       -4    1    3    3    0  502  0.99447995924E+02 -0.22919836690E+03 -0.43952963624E+03  0.50557858866E+03  0.12699999809E+01 0.  1.
</event>
<event>
 5   0  0.2351435E-04  0.8996123E+03  0.7818609E-02  0.9426066E-01
       -1   -1    0    0    0  501  0.00000000000E+00  0.00000000000E+00  0.67793907380E+03  0.67793907382E+03  0.50400001928E-02 0.  1.
        1   -1    0    0  501    0  0.00000000000E+00  0.00000000000E+00 -0.29844212690E+03  0.29844212694E+03  0.50400001928E-02 0. -1.
    10030    2    1    2    0    0  0.00000000000E+00  0.00000000000E+00  0.37949694690E+03  0.97638120076E+03  0.89961231454E+03 0.  0.
        4    1    3    3  502    0  0.42861878963E+03 -0.79240044559E+02  0.31026917876E+03  0.53503423037E+03  0.12699999809E+01 0.  1.
       -4    1    3    3    0  502 -0.42861878963E+03  0.79240044559E+02  0.69227768143E+02  0.44134697038E+03  0.12699999809E+01 0. -1.
</event>
<event>
 5   0  0.2356918E-04  0.8999250E+03  0.7818609E-02  0.9425675E-01
        1   -1    0    0  501    0  0.00000000000E+00  0.00000000000E+00  0.95096537054E+03  0.95096537055E+03  0.50400001928E-02 0. -1.
       -1   -1    0    0    0  501  0.00000000000E+00  0.00000000000E+00 -0.21290604274E+03  0.21290604280E+03  0.50400001928E-02 0.  1.
    10030    2    1    2    0    0  0.00000000000E+00  0.00000000000E+00  0.73805932780E+03  0.11638714133E+04  0.89992504991E+03 0.  0.
        5    1    3    3  502    0 -0.71544413644E+02 -0.31852127312E+03 -0.31412246231E+02  0.32799881672E+03  0.46999998093E+01 0.  1.
       -5    1    3    3    0  502  0.71544413644E+02  0.31852127312E+03  0.76947157403E+03  0.83587259663E+03  0.46999998093E+01 0. -1.
</event>
<event>
 5   0  0.4236284E-04  0.8998390E+03  0.7818609E-02  0.9425783E-01
        2   -1    0    0  501    0  0.00000000000E+00  0.00000000000E+00  0.54389107958E+03  0.54389107959E+03  0.25500000920E-02 0. -1.
       -2   -1    0    0    0  501  0.00000000000E+00  0.00000000000E+00 -0.37218398294E+03  0.37218398295E+03  0.25500000920E-02 0.  1.
    10030    2    1    2    0    0  0.00000000000E+00  0.00000000000E+00  0.17170709664E+03  0.91607506254E+03  0.89983898180E+03 0.  0.
        2    1    3    3  502    0  0.42110914225E+03 -0.85999120203E+02 -0.49583676066E+02  0.43265147556E+03  0.25500000920E-02 0.  1.
       -2    1    3    3    0  502 -0.42110914225E+03  0.85999120203E+02  0.22129077270E+03  0.48342358699E+03  0.25500000920E-02 0. -1.
</event>
<event>
 5   0  0.2351435E-04  0.8998462E+03  0.7818609E-02  0.9425774E-01
       -1   -1    0    0    0  501  0.00000000000E+00  0.00000000000E+00  0.66597614327E+03  0.66597614329E+03  0.50400001928E-02 0.  1.
        1   -1    0    0  501    0  0.00000000000E+00  0.00000000000E+00 -0.30396101382E+03  0.30396101386E+03  0.50400001928E-02 0. -1.
    10030    2    1    2    0    0  0.00000000000E+00  0.00000000000E+00  0.36201512945E+03  0.96993715715E+03  0.89984617290E+03 0.  0.
        4    1    3    3  502    0 -0.99176086863E+02 -0.17891416268E+03  0.61294923423E+03  0.64618461020E+03  0.12699999809E+01 0.  1.
       -4    1    3    3    0  502  0.99176086863E+02  0.17891416268E+03 -0.25093410478E+03  0.32375254695E+03  0.12699999809E+01 0. -1.
</event>
<event>
 5   0  0.3959804E-04  0.9009818E+03  0.7818609E-02  0.9424355E-01
        2   -1    0    0  501    0  0.00000000000E+00  0.00000000000E+00  0.21837254933E+03  0.21837254935E+03  0.25500000920E-02 0.  1.
       -2   -1    0    0    0  501  0.00000000000E+00  0.00000000000E+00 -0.92933874922E+03  0.92933874922E+03  0.25500000920E-02 0. -1.
    10030    2    1    2    0    0  0.00000000000E+00  0.00000000000E+00 -0.71096619989E+03  0.11477112986E+04  0.90098184636E+03 0.  0.
        5    1    3    3  502    0  0.99288356817E+02  0.86880769801E+02  0.19317831361E+03  0.23397947946E+03  0.46999998093E+01 0.  1.
       -5    1    3    3    0  502 -0.99288356817E+02 -0.86880769801E+02 -0.90414451350E+03  0.91373181911E+03  0.46999998093E+01 0. -1.
</event>
<event>
 5   0  0.2356918E-04  0.8999619E+03  0.7818609E-02  0.9425629E-01
       -1   -1    0    0    0  501  0.00000000000E+00  0.00000000000E+00  0.21466317653E+03  0.21466317659E+03  0.50400001928E-02 0.  1.
        1   -1    0    0  501    0  0.00000000000E+00  0.00000000000E+00 -0.94325847070E+03  0.94325847071E+03  0.50400001928E-02 0. -1.
    10030    2    1    2    0    0  0.00000000000E+00  0.00000000000E+00 -0.72859529417E+03  0.11579216473E+04  0.89996190952E+03 0.  0.
        5    1    3    3  502    0  0.28968424175E+03  0.31154525404E+03 -0.17571306127E+03  0.46029835447E+03  0.46999998093E+01 0. -1.
       -5    1    3    3    0  502 -0.28968424175E+03 -0.31154525404E+03 -0.55288223290E+03  0.69762329282E+03  0.46999998093E+01 0.  1.
</event>
<event>
 5   0  0.2308362E-04  0.8994779E+03  0.7818609E-02  0.9426234E-01
        1   -1    0    0  501    0  0.00000000000E+00  0.00000000000E+00  0.12106203643E+04  0.12106203643E+04  0.50400001928E-02 0. -1.
       -1   -1    0    0    0  501  0.00000000000E+00  0.00000000000E+00 -0.16707560084E+03  0.16707560091E+03  0.50400001928E-02 0.  1.
    10030    2    1    2    0    0  0.00000000000E+00  0.00000000000E+00  0.10435447635E+04  0.13776959653E+04  0.89947790371E+03 0.  0.
        1    1    3    3  502    0  0.23887265720E+03 -0.21256827552E+03  0.10061741008E+04  0.10557612132E+04  0.50400001928E-02 0. -1.
       -1    1    3    3    0  502 -0.23887265720E+03  0.21256827552E+03  0.37370662658E+02  0.32193475204E+03  0.50400001928E-02 0.  1.
</event>
<event>
 5   0  0.4236284E-04  0.9000891E+03  0.7818609E-02  0.9425470E-01
       -2   -1    0    0    0  501  0.00000000000E+00  0.00000000000E+00  0.28889130516E+03  0.28889130517E+03  0.25500000920E-02 0. -1.
        2   -1    0    0  501    0  0.00000000000E+00  0.00000000000E+00 -0.70109439750E+03  0.70109439750E+03  0.25500000920E-02 0.  1.
    10030    2    1    2    0    0  0.00000000000E+00  0.00000000000E+00 -0.41220309234E+03  0.98998570267E+03  0.90008905235E+03 0.  0.
        2    1    3    3  502    0  0.92689899320E+00  0.44534835158E+03 -0.13478701915E+03  0.46529942396E+03  0.25500000920E-02 0.  1.
       -2    1    3    3    0  502 -0.92689899320E+00 -0.44534835158E+03 -0.27741607319E+03  0.52468627871E+03  0.25500000920E-02 0. -1.
</event>
<event>
 5   0  0.2356918E-04  0.9000288E+03  0.7818609E-02  0.9425545E-01
        1   -1    0    0  501    0  0.00000000000E+00  0.00000000000E+00  0.23977517395E+03  0.23977517400E+03  0.50400001928E-02 0. -1.
       -1   -1    0    0    0  501  0.00000000000E+00  0.00000000000E+00 -0.84459524005E+03  0.84459524006E+03  0.50400001928E-02 0.  1.
    10030    2    1    2    0    0  0.00000000000E+00  0.00000000000E+00 -0.60482006610E+03  0.10843704141E+04  0.90002882317E+03 0.  0.
        5    1    3    3  502    0 -0.25276884450E+02 -0.23596049992E+03  0.15822525210E+03  0.28526058054E+03  0.46999998093E+01 0. -1.
       -5    1    3    3    0  502  0.25276884450E+02  0.23596049992E+03 -0.76304531820E+03  0.79910983352E+03  0.46999998093E+01 0.  1.
</event>
<event>
 5   0  0.4243516E-04  0.8995616E+03  0.7818609E-02  0.9426130E-01
       -2   -1    0    0    0  501  0.00000000000E+00  0.00000000000E+00  0.20815656973E+03  0.20815656974E+03  0.25500000920E-02 0. -1.
        2   -1    0    0  501    0  0.00000000000E+00  0.00000000000E+00 -0.97187792243E+03  0.97187792243E+03  0.25500000920E-02 0.  1.
    10030    2    1    2    0    0  0.00000000000E+00  0.00000000000E+00 -0.76372135270E+03  0.11800344922E+04  0.89956161442E+03 0.  0.
        1    1    3    3  502    0 -0.35809298723E+03 -0.39067969606E+02 -0.28539095021E+02  0.36134661161E+03  0.50400001928E-02 0. -1.
       -1    1    3    3    0  502  0.35809298723E+03  0.39067969606E+02 -0.73518225768E+03  0.81868788056E+03  0.50400001928E-02 0.  1.
</event>
<event>
 5   0  0.2308362E-04  0.9000643E+03  0.7818609E-02  0.9425501E-01
        1   -1    0    0  501    0  0.00000000000E+00  0.00000000000E+00  0.99978659298E+03  0.99978659299E+03  0.50400001928E-02 0.  1.
       -1   -1    0    0    0  501  0.00000000000E+00  0.00000000000E+00 -0.20257214523E+03  0.20257214529E+03  0.50400001928E-02 0. -1.
    10030    2    1    2    0    0  0.00000000000E+00  0.00000000000E+00  0.79721444775E+03  0.12023587383E+04  0.90006425316E+03 0.  0.
        1    1    3    3  502    0  0.13996960879E+02 -0.35024744150E+02 -0.20045695681E+03  0.20397460424E+03  0.50400001928E-02 0. -1.
       -1    1    3    3    0  502 -0.13996960879E+02  0.35024744150E+02  0.99767140456E+03  0.99838413404E+03  0.50400001928E-02 0.  1.
</event>
<event>
 5   0  0.2332791E-04  0.9002740E+03  0.7818609E-02  0.9425239E-01
        1   -1    0    0  501    0  0.00000000000E+00  0.00000000000E+00  0.11901314433E+04  0.11901314434E+04  0.50400001928E-02 0.  1.
       -1   -1    0    0    0  501  0.00000000000E+00  0.00000000000E+00 -0.17025289994E+03  0.17025290001E+03  0.50400001928E-02 0. -1.
    10030    2    1    2    0    0  0.00000000000E+00  0.00000000000E+00  0.10198785434E+04  0.13603843434E+04  0.90027402405E+03 0.  0.
        2    1    3    3  502    0  0.40077084814E+03  0.51969966134E+02  0.80951856882E+03  0.90478641865E+03  0.25500000920E-02 0.  1.
       -2    1    3    3    0  502 -0.40077084814E+03 -0.51969966134E+02  0.21035997459E+03  0.45559792472E+03  0.25500000920E-02 0. -1.
</event>
<event>
 5   0  0.4033144E-04  0.9001139E+03  0.7818609E-02  0.9425439E-01
        2   -1    0    0  501    0  0.00000000000E+00  0.00000000000E+00  0.14549706328E+04  0.14549706328E+04  0.25500000920E-02 0.  1.
       -2   -1    0    0    0  501  0.00000000000E+00  0.00000000000E+00 -0.13921329719E+03  0.13921329721E+03  0.25500000920E-02 0. -1.
    10030    2    1    2    0    0  0.00000000000E+00  0.00000000000E+00  0.13157573356E+04  0.15941839300E+04  0.90011390195E+03 0.  0.
        4    1    3    3  502    0 -0.41772084353E+02  0.16800320983E+03 -0.77880636881E+02  0.18983411718E+03  0.12699999809E+01 0. -1.
       -4    1    3    3    0  502  0.41772084353E+02 -0.16800320983E+03  0.13936379725E+04  0.14043498128E+04  0.12699999809E+01 0.  1.
</event>
<event>
 5   0  0.4236284E-04  0.8998517E+03  0.7818609E-02  0.9425767E-01
       -2   -1    0    0    0  501  0.00000000000E+00  0.00000000000E+00  0.43753091998E+03  0.43753091999E+03  0.25500000920E-02 0.  1.
        2   -1    0    0  501    0  0.00000000000E+00  0.00000000000E+00 -0.46267194766E+03  0.46267194767E+03  0.25500000920E-02 0. -1.
    10030    2    1    2    0    0  0.00000000000E+00  0.00000000000E+00 -0.25141027679E+02  0.90020286766E+03  0.89985172760E+03 0.  0.
        2    1    3    3  502    0 -0.35750280573E+03  0.19989818213E+03  0.17368952856E+03  0.44489952985E+03  0.25500000920E-02 0.  1.
       -2    1    3    3    0  502  0.35750280573E+03 -0.19989818213E+03 -0.19883055623E+03  0.45530333781E+03  0.25500000920E-02 0. -1.
</event>
<event>
 5   0  0.4033144E-04  0.9000763E+03  0.7818609E-02  0.9425486E-01
        2   -1    0    0  501    0  0.00000000000E+00  0.00000000000E+00  0.18883171551E+03  0.18883171553E+03  0.25500000920E-02 0. -1.
       -2   -1    0    0    0  501  0.00000000000E+00  0.00000000000E+00 -0.10725653186E+04  0.10725653186E+04  0.25500000920E-02 0.  1.
    10030    2    1    2    0    0  0.00000000000E+00  0.00000000000E+00 -0.88373360305E+03  0.12613970341E+04  0.90007632813E+03 0.  0.
        4    1    3    3  502    0  0.36028313130E+03 -0.16741593016E+03 -0.73816544672E+03  0.83828507562E+03  0.12699999809E+01 0.  1.
       -4    1    3    3    0  502 -0.36028313130E+03  0.16741593016E+03 -0.14556815633E+03  0.42311195848E+03  0.12699999809E+01 0. -1.
</event>
<event>
 5   0  0.2332791E-04  0.8999950E+03  0.7818609E-02  0.9425588E-01
       -1   -1    0    0    0  501  0.00000000000E+00  0.00000000000E+00  0.10268381947E+03  0.10268381959E+03  0.50400001928E-02 0. -1.
        1   -1    0    0  501    0  0.00000000000E+00  0.00000000000E+00 -0.19720511219E+04  0.19720511219E+04  0.50400001928E-02 0.  1.
    10030    2    1    2    0    0  0.00000000000E+00  0.00000000000E+00 -0.18693673024E+04  0.20747349415E+04  0.89999498114E+03 0.  0.
        2    1    3    3  502    0 -0.24759674048E+03 -0.58660655188E+02 -0.17902866829E+04  0.18082786360E+04  0.25500000920E-02 0.  1.
       -2    1    3    3    0  502  0.24759674048E+03  0.58660655188E+02 -0.79080619544E+02  0.26645630553E+03  0.25500000920E-02 0. -1.
</event>
<event>
 5   0  0.4243516E-04  0.9000052E+03  0.7818609E-02  0.9425575E-01
        2   -1    0    0  501    0  0.00000000000E+00  0.00000000000E+00  0.11836012678E+04  0.11836012678E+04  0.25500000920E-02 0.  1.
       -2   -1    0    0    0  501  0.00000000000E+00  0.00000000000E+00 -0.17108999292E+03  0.17108999294E+03  0.25500000920E-02 0. -1.
    10030    2    1    2    0    0  0.00000000000E+00  0.00000000000E+00  0.10125112749E+04  0.13546912608E+04  0.90000518343E+03 0.  0.
        1    1    3    3  502    0  0.41486415395E+03  0.13331077766E+03  0.67533702062E+03  0.80371893166E+03  0.50400001928E-02 0.  1.
       -1    1    3    3    0  502 -0.41486415395E+03 -0.13331077766E+03  0.33717425431E+03  0.55097232913E+03  0.50400001928E-02 0. -1.
</event>
<event>
 5   0  0.2351435E-04  0.9000348E+03  0.7818609E-02  0.9425538E-01
       -1   -1    0    0    0  501  0.00000000000E+00  0.00000000000E+00  0.16639677658E+03  0.16639677665E+03  0.50400001928E-02 0.  1.
        1   -1    0    0  501    0  0.00000000000E+00  0.00000000000E+00 -0.12170648773E+04  0.12170648773E+04  0.50400001928E-02 0. -1.
    10030    2    1    2    0    0  0.00000000000E+00  0.00000000000E+00 -0.10506681007E+04  0.13834616540E+04  0.90003482717E+03 0.  0.
        4    1    3    3  502    0 -0.21272262079E+02 -0.17442217521E+03 -0.11621517268E+04  0.11753611587E+04  0.12699999809E+01 0. -1.
       -4    1    3    3    0  502  0.21272262079E+02  0.17442217521E+03  0.11148362610E+03  0.20810049526E+03  0.12699999809E+01 0.  1.
</event>
<event>
 5   0  0.2332791E-04  0.9000056E+03  0.7818609E-02  0.9425574E-01
        1   -1    0    0  501    0  0.00000000000E+00  0.00000000000E+00  0.34782642162E+03  0.34782642166E+03  0.50400001928E-02 0.  1.
       -1   -1    0    0    0  501  0.00000000000E+00  0.00000000000E+00 -0.58219423067E+03  0.58219423069E+03  0.50400001928E-02 0. -1.
    10030    2    1    2    0    0  0.00000000000E+00  0.00000000000E+00 -0.23436780905E+03  0.93002065235E+03  0.90000563547E+03 0.  0.
        2    1    3    3  502    0  0.25394570870E+03  0.74486910336E+02 -0.49328038463E+03  0.55978769247E+03  0.25500000920E-02 0. -1.
       -2    1    3    3    0  502 -0.25394570870E+03 -0.74486910336E+02  0.25891257558E+03  0.37023295988E+03  0.25500000920E-02 0.  1.
</event>
<event>
 5   0  0.2308362E-04  0.8999214E+03  0.7818609E-02  0.9425680E-01
       -1   -1    0    0    0  501  0.00000000000E+00  0.00000000000E+00  0.33759466404E+03  0.33759466408E+03  0.50400001928E-02 0.  1.
        1   -1    0    0  501    0  0.00000000000E+00  0.00000000000E+00 -0.59972692557E+03  0.59972692559E+03  0.50400001928E-02 0. -1.
    10030    2    1    2    0    0  0.00000000000E+00  0.00000000000E+00 -0.26213226152E+03  0.93732158967E+03  0.89992135208E+03 0.  0.
        1    1    3    3  502    0 -0.27150205487E+03  0.32189295494E+03  0.34066771628E+02  0.42247956778E+03  0.50400001928E-02 0.  1.
       -1    1    3    3    0  502  0.27150205487E+03 -0.32189295494E+03 -0.29619903315E+03  0.51484202189E+03  0.50400001928E-02 0. -1.
</event>
<event>
 5   0  0.4243516E-04  0.9012341E+03  0.7818609E-02  0.9424040E-01
        2   -1    0    0  501    0  0.00000000000E+00  0.00000000000E+00  0.39495893347E+03  0.39495893348E+03  0.25500000920E-02 0.  1.
       -2   -1    0    0    0  501  0.00000000000E+00  0.00000000000E+00 -0.51411854356E+03  0.51411854357E+03  0.25500000920E-02 0. -1.
    10030    2    1    2    0    0  0.00000000000E+00  0.00000000000E+00 -0.11915961009E+03  0.90907747705E+03  0.90123406871E+03 0.  0.
        1    1    3    3  502    0  0.10986738858E+03  0.79425973317E+02  0.37390010811E+03  0.39771927183E+03  0.50400001928E-02 0.  1.
       -1    1    3    3    0  502 -0.10986738858E+03 -0.79425973317E+02 -0.49305971820E+03  0.51135820522E+03  0.50400001928E-02 0. -1.
</event>
<event>
 5   0  0.2308362E-04  0.8999554E+03  0.7818609E-02  0.9425637E-01
       -1   -1    0    0    0  501  0.00000000000E+00  0.00000000000E+00  0.28983749511E+03  0.28983749516E+03  0.50400001928E-02 0.  1.
        1   -1    0    0  501    0  0.00000000000E+00  0.00000000000E+00 -0.69859811575E+03  0.69859811577E+03  0.50400001928E-02 0. -1.
    10030    2    1    2    0    0  0.00000000000E+00  0.00000000000E+00 -0.40876062064E+03  0.98843561093E+03  0.89995539443E+03 0.  0.
        1    1    3    3  502    0  0.50176514636E+02  0.13363876411E+03  0.26430987712E+03  0.30039426270E+03  0.50400001928E-02 0.  1.
       -1    1    3    3    0  502 -0.50176514636E+02 -0.13363876411E+03 -0.67307049776E+03  0.68804134823E+03  0.50400001928E-02 0. -1.
</event>
<event>
 5   0  0.2356918E-04  0.9003467E+03  0.7818609E-02  0.9425148E-01
       -1   -1    0    0    0  501  0.00000000000E+00  0.00000000000E+00  0.11303860332E+03  0.11303860344E+03  0.50400001928E-02 0.  1.
        1   -1    0    0  501    0  0.00000000000E+00  0.00000000000E+00 -0.17928038370E+04  0.17928038370E+04  0.50400001928E-02 0. -1.
    10030    2    1    2    0    0  0.00000000000E+00  0.00000000000E+00 -0.16797652337E+04  0.19058424405E+04  0.90034669297E+03 0.  0.
        5    1    3    3  502    0 -0.16301118830E+03 -0.34546171193E+03 -0.33576044552E+03  0.50859965464E+03  0.46999998093E+01 0.  1.
       -5    1    3    3    0  502  0.16301118830E+03  0.34546171193E+03 -0.13440047882E+04  0.13972427858E+04  0.46999998093E+01 0. -1.
</event>
<event>
 5   0  0.2450427E-04  0.8997662E+03  0.7818609E-02  0.9425874E-01
       -1   -1    0    0    0  501  0.00000000000E+00  0.00000000000E+00  0.26864973544E+03  0.26864973549E+03  0.50400001928E-02 0.  1.
        1   -1    0    0  501    0  0.00000000000E+00  0.00000000000E+00 -0.75337793072E+03  0.75337793073E+03  0.50400001928E-02 0. -1.
    10030    2    1    2    0    0  0.00000000000E+00  0.00000000000E+00 -0.48472819527E+03  0.10220276662E+04  0.89976615142E+03 0.  0.
        3    1    3    3  502    0  0.31808424805E+02 -0.21378047998E+02  0.26679210992E+03  0.26953077179E+03  0.10100000352E+00 0.  1.
       -3    1    3    3    0  502 -0.31808424805E+02  0.21378047998E+02 -0.75152030519E+03  0.75249689444E+03  0.10100000352E+00 0. -1.
</event>
<event>
 5   0  0.4236284E-04  0.8998375E+03  0.7818609E-02  0.9425785E-01
        2   -1    0    0  501    0  0.00000000000E+00  0.00000000000E+00  0.93561711459E+03  0.93561711459E+03  0.25500000920E-02 0. -1.
       -2   -1    0    0    0  501  0.00000000000E+00  0.00000000000E+00 -0.21635655843E+03  0.21635655844E+03  0.25500000920E-02 0.  1.
    10030    2    1    2    0    0  0.00000000000E+00  0.00000000000E+00  0.71926055616E+03  0.11519736730E+04  0.89983753852E+03 0.  0.
        2    1    3    3  502    0 -0.35144337876E+02 -0.33714420000E+03 -0.19113845608E+02  0.33950946258E+03  0.25500000920E-02 0. -1.
       -2    1    3    3    0  502  0.35144337876E+02  0.33714420000E+03  0.73837440177E+03  0.81246421046E+03  0.25500000920E-02 0.  1.
</event>
<event>
 5   0  0.4033144E-04  0.9021611E+03  0.7818609E-02  0.9422884E-01
        2   -1    0    0  501    0  0.00000000000E+00  0.00000000000E+00  0.66005909741E+03  0.66005909742E+03  0.25500000920E-02 0.  1.
       -2   -1    0    0    0  501  0.00000000000E+00  0.00000000000E+00 -0.30826583693E+03  0.30826583695E+03  0.25500000920E-02 0. -1.
    10030    2    1    2    0    0  0.00000000000E+00  0.00000000000E+00  0.35179326048E+03  0.96832493436E+03  0.90216111665E+03 0.  0.
        4    1    3    3  502    0  0.64420149194E+02  0.13545220861E+03 -0.28071404806E+03  0.31827542494E+03  0.12699999809E+01 0. -1.
       -4    1    3    3    0  502 -0.64420149194E+02 -0.13545220861E+03  0.63250730854E+03  0.65004950942E+03  0.12699999809E+01 0.  1.
</event>
<event>
 5   0  0.1596250E-04  0.9001516E+03  0.7818609E-02  0.9425392E-01
       -3   -1    0    0    0  501  0.00000000000E+00  0.00000000000E+00  0.57610576507E+03  0.57610577393E+03  0.10100000352E+00 0. -1.
        3   -1    0    0  501    0  0.00000000000E+00  0.00000000000E+00 -0.35161633929E+03  0.35161635380E+03  0.10100000352E+00 0.  1.
    10030    2    1    2    0    0  0.00000000000E+00  0.00000000000E+00  0.22448942578E+03  0.92772212772E+03  0.90015156722E+03 0.  0.
        5    1    3    3  502    0  0.18664257774E+03  0.12925399904E+03 -0.28824983117E+03  0.36694972852E+03  0.46999998093E+01 0.  1.
       -5    1    3    3    0  502 -0.18664257774E+03 -0.12925399904E+03  0.51273925695E+03  0.56077239920E+03  0.46999998093E+01 0. -1.
</event>
<event>
 5   0  0.4033144E-04  0.8999869E+03  0.7818609E-02  0.9425598E-01
        2   -1    0    0  501    0  0.00000000000E+00  0.00000000000E+00  0.57003617018E+03  0.57003617019E+03  0.25500000920E-02 0. -1.
       -2   -1    0    0    0  501  0.00000000000E+00  0.00000000000E+00 -0.35523023584E+03  0.35523023585E+03  0.25500000920E-02 0.  1.
    10030    2    1    2    0    0  0.00000000000E+00  0.00000000000E+00  0.21480593434E+03  0.92526640604E+03  0.89998685141E+03 0.  0.
        4    1    3    3  502    0  0.31907698771E+03  0.31468035051E+03  0.14927311526E+03  0.47235359946E+03  0.12699999809E+01 0.  1.
       -4    1    3    3    0  502 -0.31907698771E+03 -0.31468035051E+03  0.65532819079E+02  0.45291280658E+03  0.12699999809E+01 0. -1.
</event>
<event>
 5   0  0.1596250E-04  0.9003789E+03  0.7818609E-02  0.9425108E-01
        3   -1    0    0  501    0  0.00000000000E+00  0.00000000000E+00  0.39419801329E+03  0.39419802623E+03  0.10100000352E+00 0. -1.
       -3   -1    0    0    0  501  0.00000000000E+00  0.00000000000E+00 -0.51413383594E+03  0.51413384586E+03  0.10100000352E+00 0.  1.
    10030    2    1    2    0    0  0.00000000000E+00  0.00000000000E+00 -0.11993582264E+03  0.90833187209E+03  0.90037891374E+03 0.  0.
        5    1    3    3  502    0  0.31415268285E+03  0.53692407061E+02 -0.38069693680E+03  0.49651488437E+03  0.46999998093E+01 0.  1.
       -5    1    3    3    0  502 -0.31415268285E+03 -0.53692407061E+02  0.26076111416E+03  0.41181698772E+03  0.46999998093E+01 0. -1.
</event>
<event>
 5   0  0.2356918E-04  0.9001437E+03  0.7818609E-02  0.9425402E-01
       -1   -1    0    0    0  501  0.00000000000E+00  0.00000000000E+00  0.16243861379E+03  0.16243861387E+03  0.50400001928E-02 0.  1.
        1   -1    0    0  501    0  0.00000000000E+00  0.00000000000E+00 -0.12470229192E+04  0.12470229192E+04  0.50400001928E-02 0. -1.
    10030    2    1    2    0    0  0.00000000000E+00  0.00000000000E+00 -0.10845843054E+04  0.14094615331E+04  0.90014370948E+03 0.  0.
        5    1    3    3  502    0  0.38215341573E+03 -0.12251596194E+03 -0.86123974210E+03  0.95016176384E+03  0.46999998093E+01 0. -1.
       -5    1    3    3    0  502 -0.38215341573E+03  0.12251596194E+03 -0.22334456332E+03  0.45929976927E+03  0.46999998093E+01 0.  1.
</event>
<event>
 5   0  0.2308362E-04  0.9011099E+03  0.7818609E-02  0.9424195E-01
       -1   -1    0    0    0  501  0.00000000000E+00  0.00000000000E+00  0.82542766846E+03  0.82542766847E+03  0.50400001928E-02 0. -1.
        1   -1    0    0  501    0  0.00000000000E+00  0.00000000000E+00 -0.24593280931E+03  0.24593280936E+03  0.50400001928E-02 0.  1.
    10030    2    1    2    0    0  0.00000000000E+00  0.00000000000E+00  0.57949485915E+03  0.10713604778E+04  0.90110986106E+03 0.  0.
        1    1    3    3  502    0 -0.21819269764E+03  0.39339319023E+03  0.25982287096E+03  0.51949415754E+03  0.50400001928E-02 0. -1.
       -1    1    3    3    0  502  0.21819269764E+03 -0.39339319023E+03  0.31967198818E+03  0.55186632029E+03  0.50400001928E-02 0.  1.
</event>
<event>
 5   0  0.2351435E-04  0.9001739E+03  0.7818609E-02  0.9425364E-01
        1   -1    0    0  501    0  0.00000000000E+00  0.00000000000E+00  0.12503559155E+04  0.12503559155E+04  0.50400001928E-02 0.  1.
       -1   -1    0    0    0  501  0.00000000000E+00  0.00000000000E+00 -0.16201648133E+03  0.16201648140E+03  0.50400001928E-02 0. -1.
    10030    2    1    2    0    0  0.00000000000E+00  0.00000000000E+00  0.10883394341E+04  0.14123723969E+04  0.90017390740E+03 0.  0.
        4    1    3    3  502    0  0.35331246241E+03 -0.27655073593E+03  0.48832904191E+03  0.66315674747E+03  0.12699999809E+01 0. -1.
       -4    1    3    3    0  502 -0.35331246241E+03  0.27655073593E+03  0.60001039222E+03  0.74921564940E+03  0.12699999809E+01 0.  1.
</event>
<event>
 5   0  0.3959804E-04  0.9003250E+03  0.7818609E-02  0.9425175E-01
       -2   -1    0    0    0  501  0.00000000000E+00  0.00000000000E+00  0.10328024702E+03  0.10328024705E+03  0.25500000920E-02 0. -1.
        2   -1    0    0  501    0  0.00000000000E+00  0.00000000000E+00 -0.19621010709E+04  0.19621010709E+04  0.25500000920E-02 0.  1.
    10030    2    1    2    0    0  0.00000000000E+00  0.00000000000E+00 -0.18588208238E+04  0.20653813179E+04  0.90032501534E+03 0.  0.
        5    1    3    3  502    0  0.96708335349E+02 -0.34308136879E+03 -0.29879202172E+03  0.46514093561E+03  0.46999998093E+01 0. -1.
       -5    1    3    3    0  502 -0.96708335349E+02  0.34308136879E+03 -0.15600288021E+04  0.16002403823E+04  0.46999998093E+01 0.  1.
</event>
<event>
 5   0  0.2450427E-04  0.8994641E+03  0.7818609E-02  0.9426252E-01
        1   -1    0    0  501    0  0.00000000000E+00  0.00000000000E+00  0.14786611514E+04  0.14786611514E+04  0.50400001928E-02 0. -1.
       -1   -1    0    0    0  501  0.00000000000E+00  0.00000000000E+00 -0.13678515953E+03  0.13678515963E+03  0.50400001928E-02 0.  1.
    10030    2    1    2    0    0  0.00000000000E+00  0.00000000000E+00  0.13418759919E+04  0.16154463110E+04  0.89946406615E+03 0.  0.
        3    1    3    3  502    0  0.19729534800E+02 -0.23289942297E+03  0.13610067087E+04  0.13809310870E+04  0.10100000352E+00 0. -1.
       -3    1    3    3    0  502 -0.19729534800E+02  0.23289942297E+03 -0.19130716848E+02  0.23451522400E+03  0.10100000352E+00 0.  1.
</event>
<event>
 5   0  0.2332791E-04  0.9003674E+03  0.7818609E-02  0.9425122E-01
        1   -1    0    0  501    0  0.00000000000E+00  0.00000000000E+00  0.12858076193E+03  0.12858076203E+03  0.50400001928E-02 0.  1.
       -1   -1    0    0    0  501  0.00000000000E+00  0.00000000000E+00 -0.15761715915E+04  0.15761715915E+04  0.50400001928E-02 0. -1.
    10030    2    1    2    0    0  0.00000000000E+00  0.00000000000E+00 -0.14475908295E+04  0.17047523535E+04  0.90036735671E+03 0.  0.
        2    1    3    3  502    0  0.21140310352E+03  0.23896361020E+03 -0.12245060177E+03  0.34174409879E+03  0.25500000920E-02 0.  1.
       -2    1    3    3    0  502 -0.21140310352E+03 -0.23896361020E+03 -0.13251402278E+04  0.13630082547E+04  0.25500000920E-02 0. -1.
</event>
<event>
 5   0  0.3959804E-04  0.9000539E+03  0.7818609E-02  0.9425514E-01
       -2   -1    0    0    0  501  0.00000000000E+00  0.00000000000E+00  0.86889379792E+02  0.86889379830E+02  0.25500000920E-02 0. -1.
        2   -1    0    0  501    0  0.00000000000E+00  0.00000000000E+00 -0.23308285876E+04  0.23308285876E+04  0.25500000920E-02 0.  1.
    10030    2    1    2    0    0  0.00000000000E+00  0.00000000000E+00 -0.22439392078E+04  0.24177179675E+04  0.90005388823E+03 0.  0.
        5    1    3    3  502    0  0.21755461272E+03  0.23659577812E+03 -0.19679905510E+04  0.19940703274E+04  0.46999998093E+01 0.  1.
       -5    1    3    3    0  502 -0.21755461272E+03 -0.23659577812E+03 -0.27594865687E+03  0.42364764010E+03  0.46999998093E+01 0. -1.
</event>
<event>
 5   0  0.2450427E-04  0.9001040E+03  0.7818609E-02  0.9425451E-01
        1   -1    0    0  501    0  0.00000000000E+00  0.00000000000E+00  0.54994126572E+03  0.54994126574E+03  0.50400001928E-02 0. -1.
       -1   -1    0    0    0  501  0.00000000000E+00  0.00000000000E+00 -0.36830627122E+03  0.36830627126E+03  0.50400001928E-02 0.  1.
    10030    2    1    2    0    0  0.00000000000E+00  0.00000000000E+00  0.18163499449E+03  0.91824753700E+03  0.90010403175E+03 0.  0.
        3    1    3    3  502    0  0.25371897886E+03  0.27600939890E+03  0.34481879403E+03  0.50936678281E+03  0.10100000352E+00 0. -1.
       -3    1    3    3    0  502 -0.25371897886E+03 -0.27600939890E+03 -0.16318379954E+03  0.40888075419E+03  0.10100000352E+00 0.  1.
</event>
<event>
 5   0  0.2450427E-04  0.8996893E+03  0.7818609E-02  0.9425970E-01
       -1   -1    0    0    0  501  0.00000000000E+00  0.00000000000E+00  0.19889587200E+03  0.19889587207E+03  0.50400001928E-02 0. -1.
        1   -1    0    0  501    0  0.00000000000E+00  0.00000000000E+00 -0.10174179189E+04  0.10174179189E+04  0.50400001928E-02 0.  1.
    10030    2    1    2    0    0  0.00000000000E+00  0.00000000000E+00 -0.81852204693E+03  0.12163137910E+04  0.89968933355E+03 0.  0.
        3    1    3    3  502    0  0.21551788832E+03 -0.19586074462E+03 -0.87277826737E+03  0.92008222766E+03  0.10100000352E+00 0.  1.
       -3    1    3    3    0  502 -0.21551788832E+03  0.19586074462E+03  0.54256220441E+02  0.29623156335E+03  0.10100000352E+00 0. -1.
</event>
<event>
 5   0  0.2308362E-04  0.9002787E+03  0.7818609E-02  0.9425233E-01
        1   -1    0    0  501    0  0.00000000000E+00  0.00000000000E+00  0.37336771621E+03  0.37336771625E+03  0.50400001928E-02 0.  1.
       -1   -1    0    0    0  501  0.00000000000E+00  0.00000000000E+00 -0.54269675063E+03  0.54269675066E+03  0.50400001928E-02 0. -1.
    10030    2    1    2    0    0  0.00000000000E+00  0.00000000000E+00 -0.16932903442E+03  0.91606446690E+03  0.90027872663E+03 0.  0.
        1    1    3    3  502    0  0.14114057862E+03 -0.90731816133E+02 -0.50968764976E+03  0.53659521591E+03  0.50400001928E-02 0. -1.
       -1    1    3    3    0  502 -0.14114057862E+03  0.90731816133E+02  0.34035861534E+03  0.37946925100E+03  0.50400001928E-02 0.  1.
</event>
<event>
 5   0  0.1596250E-04  0.9003999E+03  0.7818609E-02  0.9425082E-01
        4   -1    0    0  501    0  0.00000000000E+00  0.00000000000E+00  0.21963143666E+03  0.21963510846E+03  0.12699999809E+01 0. -1.
       -4   -1    0    0    0  501  0.00000000000E+00  0.00000000000E+00 -0.92280692222E+03  0.92280779613E+03  0.12699999809E+01 0.  1.
    10030    2    1    2    0    0  0.00000000000E+00  0.00000000000E+00 -0.70317548556E+03  0.11424429046E+04  0.90039992600E+03 0.  0.
        1    1    3    3  502    0 -0.38893069670E+03 -0.39375876493E+02 -0.63491340030E+03  0.74560886019E+03  0.50400001928E-02 0.  1.
       -1    1    3    3    0  502  0.38893069670E+03  0.39375876493E+02 -0.68262085262E+02  0.39683404440E+03  0.50400001928E-02 0. -1.
</event>
<event>
 5   0  0.2351435E-04  0.8995710E+03  0.7818609E-02  0.9426118E-01
        1   -1    0    0  501    0  0.00000000000E+00  0.00000000000E+00  0.38569590773E+03  0.38569590776E+03  0.50400001928E-02 0. -1.
       -1   -1    0    0    0  501  0.00000000000E+00  0.00000000000E+00 -0.52452463084E+03  0.52452463087E+03  0.50400001928E-02 0.  1.
    10030    2    1    2    0    0  0.00000000000E+00  0.00000000000E+00 -0.13882872312E+03  0.91022053863E+03  0.89957101697E+03 0.  0.
        4    1    3    3  502    0  0.23529464170E+03  0.10971218631E+03 -0.44105679375E+03  0.51179394335E+03  0.12699999809E+01 0.  1.
       -4    1    3    3    0  502 -0.23529464170E+03 -0.10971218631E+03  0.30222807064E+03  0.39842659527E+03  0.12699999809E+01 0. -1.
</event>
<event>
 5   0  0.2332791E-04  0.9000634E+03  0.7818609E-02  0.9425502E-01
       -1   -1    0    0    0  501  0.00000000000E+00  0.00000000000E+00  0.29773180519E+03  0.29773180524E+03  0.50400001928E-02 0. -1.
        1   -1    0    0  501    0  0.00000000000E+00  0.00000000000E+00 -0.68023819766E+03  0.68023819768E+03  0.50400001928E-02 0.  1.
    10030    2    1    2    0    0  0.00000000000E+00  0.00000000000E+00 -0.38250639246E+03  0.97797000291E+03  0.90006343461E+03 0.  0.
        2    1    3    3  502    0  0.27032281313E+02  0.79712343185E+02 -0.67160928812E+03  0.67686323418E+03  0.25500000920E-02 0.  1.
       -2    1    3    3    0  502 -0.27032281313E+02 -0.79712343185E+02  0.28910289566E+03  0.30110676873E+03  0.25500000920E-02 0. -1.
</event>
<event>
 5   0  0.4110039E-04  0.9003108E+03  0.7818609E-02  0.9425193E-01
       -2   -1    0    0    0  501  0.00000000000E+00  0.00000000000E+00  0.72957078398E+03  0.72957078398E+03  0.25500000920E-02 0. -1.
        2   -1    0    0  501    0  0.00000000000E+00  0.00000000000E+00 -0.27775219638E+03  0.27775219639E+03  0.25500000920E-02 0.  1.
    10030    2    1    2    0    0  0.00000000000E+00  0.00000000000E+00  0.45181858759E+03  0.10073229804E+04  0.90031080783E+03 0.  0.
        3    1    3    3  502    0 -0.36671574259E+03 -0.74333598832E+02 -0.54105647455E+02  0.37806527355E+03  0.10100000352E+00 0.  1.
       -3    1    3    3    0  502  0.36671574259E+03  0.74333598832E+02  0.50592423505E+03  0.62925770682E+03  0.10100000352E+00 0. -1.
</event>
<event>
 5   0  0.4033144E-04  0.9002065E+03  0.7818609E-02  0.9425323E-01
        2   -1    0    0  501    0  0.00000000000E+00  0.00000000000E+00  0.22196998005E+03  0.22196998007E+03  0.25500000920E-02 0. -1.
       -2   -1    0    0    0  501  0.00000000000E+00  0.00000000000E+00 -0.91270427636E+03  0.91270427637E+03  0.25500000920E-02 0.  1.
    10030    2    1    2    0    0  0.00000000000E+00  0.00000000000E+00 -0.69073429631E+03  0.11346742564E+04  0.90020653192E+03 0.  0.
        4    1    3    3  502    0 -0.36805599121E+03 -0.15238554590E+03 -0.81257118281E+02  0.40655983500E+03  0.12699999809E+01 0. -1.
       -4    1    3    3    0  502  0.36805599121E+03  0.15238554590E+03 -0.60947717803E+03  0.72811442144E+03  0.12699999809E+01 0.  1.
</event>
<event>
 5   0  0.4033144E-04  0.8999010E+03  0.7818609E-02  0.9425705E-01
       -2   -1    0    0    0  501  0.00000000000E+00  0.00000000000E+00  0.31149330690E+03  0.31149330691E+03  0.25500000920E-02 0.  1.
        2   -1    0    0  501    0  0.00000000000E+00  0.00000000000E+00 -0.64995120218E+03  0.64995120218E+03  0.25500000920E-02 0. -1.
    10030    2    1    2    0    0  0.00000000000E+00  0.00000000000E+00 -0.33845789527E+03  0.96144450909E+03  0.89990099299E+03 0.  0.
        4    1    3    3  502    0  0.10036938727E+03 -0.35459788647E+03  0.10657311677E+03  0.38363148607E+03  0.12699999809E+01 0.  1.
       -4    1    3    3    0  502 -0.10036938727E+03  0.35459788647E+03 -0.44503101204E+03  0.57781302302E+03  0.12699999809E+01 0. -1.
</event>
<event>
 5   0  0.2356918E-04  0.8981269E+03  0.7818609E-02  0.9427926E-01
        1   -1    0    0  501    0  0.00000000000E+00  0.00000000000E+00  0.14363066163E+04  0.14363066163E+04  0.50400001928E-02 0. -1.
       -1   -1    0    0    0  501  0.00000000000E+00  0.00000000000E+00 -0.14040037279E+03  0.14040037288E+03  0.50400001928E-02 0.  1.
    10030    2    1    2    0    0  0.00000000000E+00  0.00000000000E+00  0.12959062435E+04  0.15767069892E+04  0.89812690517E+03 0.  0.
        5    1    3    3  502    0 -0.27460791990E+03 -0.22485110263E+03  0.16503837779E+03  0.39144256816E+03  0.46999998093E+01 0.  1.
       -5    1    3    3    0  502  0.27460791990E+03  0.22485110263E+03  0.11308678657E+04  0.11852644210E+04  0.46999998093E+01 0. -1.
</event>
<event>
 5   0  0.2450427E-04  0.8995185E+03  0.7818609E-02  0.9426183E-01
       -1   -1    0    0    0  501  0.00000000000E+00  0.00000000000E+00  0.40917910193E+03  0.40917910196E+03  0.50400001928E-02 0.  1.
        1   -1    0    0  501    0  0.00000000000E+00  0.00000000000E+00 -0.49436395943E+03  0.49436395945E+03  0.50400001928E-02 0. -1.
    10030    2    1    2    0    0  0.00000000000E+00  0.00000000000E+00 -0.85184857501E+02  0.90354306141E+03  0.89951854004E+03 0.  0.
        3    1    3    3  502    0 -0.38847840694E+03 -0.12871845827E+03  0.14478837272E+03  0.43410551394E+03  0.10100000352E+00 0. -1.
       -3    1    3    3    0  502  0.38847840694E+03  0.12871845827E+03 -0.22997323022E+03  0.46943754747E+03  0.10100000352E+00 0.  1.
</event>
<event>
 5   0  0.4033144E-04  0.8999314E+03  0.7818609E-02  0.9425667E-01
        2   -1    0    0  501    0  0.00000000000E+00  0.00000000000E+00  0.13421430868E+03  0.13421430870E+03  0.25500000920E-02 0. -1.
       -2   -1    0    0    0  501  0.00000000000E+00  0.00000000000E+00 -0.15085508825E+04  0.15085508825E+04  0.25500000920E-02 0.  1.
    10030    2    1    2    0    0  0.00000000000E+00  0.00000000000E+00 -0.13743365738E+04  0.16427651912E+04  0.89993136144E+03 0.  0.
        4    1    3    3  502    0  0.12548813098E+03  0.16228128090E+03  0.43883260760E+02  0.20978522022E+03  0.12699999809E+01 0. -1.
       -4    1    3    3    0  502 -0.12548813098E+03 -0.16228128090E+03 -0.14182198346E+04  0.14329799710E+04  0.12699999809E+01 0.  1.
</event>
<event>
 5   0  0.1596250E-04  0.9001464E+03  0.7818609E-02  0.9425398E-01
       -3   -1    0    0    0  501  0.00000000000E+00  0.00000000000E+00  0.82675511664E+03  0.82675512281E+03  0.10100000352E+00 0.  1.
        3   -1    0    0  501    0  0.00000000000E+00  0.00000000000E+00 -0.24501312348E+03  0.24501314430E+03  0.10100000352E+00 0. -1.
    10030    2    1    2    0    0  0.00000000000E+00  0.00000000000E+00  0.58174199316E+03  0.10717682671E+04  0.90014636131E+03 0.  0.
        5    1    3    3  502    0 -0.43888321074E+03  0.98712646583E+02  0.30689493936E+03  0.54458172304E+03  0.46999998093E+01 0.  1.
       -5    1    3    3    0  502  0.43888321074E+03 -0.98712646583E+02  0.27484705380E+03  0.52718654407E+03  0.46999998093E+01 0. -1.
</event>
<event>
 5   0  0.3959804E-04  0.8985306E+03  0.7818609E-02  0.9427420E-01
        2   -1    0    0  501    0  0.00000000000E+00  0.00000000000E+00  0.90847091774E+03  0.90847091775E+03  0.25500000920E-02 0. -1.
       -2   -1    0    0    0  501  0.00000000000E+00  0.00000000000E+00 -0.22217474683E+03  0.22217474684E+03  0.25500000920E-02 0.  1.
    10030    2    1    2    0    0  0.00000000000E+00  0.00000000000E+00  0.68629617091E+03  0.11306456646E+04  0.89853056967E+03 0.  0.
        5    1    3    3  502    0 -0.85318378725E+02  0.40721088245E+03  0.55638642790E+03  0.69475742219E+03  0.46999998093E+01 0. -1.
       -5    1    3    3    0  502  0.85318378725E+02 -0.40721088245E+03  0.12990974302E+03  0.43588824240E+03  0.46999998093E+01 0.  1.
</event>
<event>
 5   0  0.2356918E-04  0.9000113E+03  0.7818609E-02  0.9425567E-01
       -1   -1    0    0    0  501  0.00000000000E+00  0.00000000000E+00  0.51410871176E+03  0.51410871178E+03  0.50400001928E-02 0. -1.
        1   -1    0    0  501    0  0.00000000000E+00  0.00000000000E+00 -0.39389548734E+03  0.39389548738E+03  0.50400001928E-02 0.  1.
    10030    2    1    2    0    0  0.00000000000E+00  0.00000000000E+00  0.12021322442E+03  0.90800419916E+03  0.90001133680E+03 0.  0.
        5    1    3    3  502    0 -0.16384614547E+03 -0.19957628052E+03 -0.31168584253E+03  0.40477945299E+03  0.46999998093E+01 0.  1.
       -5    1    3    3    0  502  0.16384614547E+03  0.19957628052E+03  0.43189906695E+03  0.50322474617E+03  0.46999998093E+01 0. -1.
</event>
<event>
 5   0  0.2450427E-04  0.8994994E+03  0.7818609E-02  0.9426207E-01
        1   -1    0    0  501    0  0.00000000000E+00  0.00000000000E+00  0.98827667511E+03  0.98827667513E+03  0.50400001928E-02 0. -1.
       -1   -1    0    0    0  501  0.00000000000E+00  0.00000000000E+00 -0.20467427681E+03  0.20467427688E+03  0.50400001928E-02 0.  1.
    10030    2    1    2    0    0  0.00000000000E+00  0.00000000000E+00  0.78360239830E+03  0.11929509520E+04  0.89949944706E+03 0.  0.
        3    1    3    3  502    0  0.30018627988E+02  0.43892158809E+03  0.26794495541E+03  0.51511919771E+03  0.10100000352E+00 0. -1.
       -3    1    3    3    0  502 -0.30018627988E+02 -0.43892158809E+03  0.51565744289E+03  0.67783175429E+03  0.10100000352E+00 0.  1.
</event>
<event>
 5   0  0.4236284E-04  0.9003129E+03  0.7818609E-02  0.9425190E-01
        2   -1    0    0  501    0  0.00000000000E+00  0.00000000000E+00  0.27059438148E+03  0.27059438149E+03  0.25500000920E-02 0. -1.
       -2   -1    0    0    0  501  0.00000000000E+00  0.00000000000E+00 -0.74887293848E+03  0.74887293848E+03  0.25500000920E-02 0.  1.
    10030    2    1    2    0    0  0.00000000000E+00  0.00000000000E+00 -0.47827855700E+03  0.10194673200E+04  0.90031285586E+03 0.  0.
        2    1    3    3  502    0  0.39990687655E+03  0.19593058362E+03 -0.16465776099E+03  0.47479098746E+03  0.25500000920E-02 0. -1.
       -2    1    3    3    0  502 -0.39990687655E+03 -0.19593058362E+03 -0.31362079601E+03  0.54467633252E+03  0.25500000920E-02 0.  1.
</event>
<event>
 5   0  0.3959804E-04  0.8994061E+03  0.7818609E-02  0.9426324E-01
        2   -1    0    0  501    0  0.00000000000E+00  0.00000000000E+00  0.34982078599E+03  0.34982078600E+03  0.25500000920E-02 0.  1.
       -2   -1    0    0    0  501  0.00000000000E+00  0.00000000000E+00 -0.57810405127E+03  0.57810405128E+03  0.25500000920E-02 0. -1.
    10030    2    1    2    0    0  0.00000000000E+00  0.00000000000E+00 -0.22828326528E+03  0.92792483728E+03  0.89940605648E+03 0.  0.
        5    1    3    3  502    0  0.10236533176E+03 -0.29728565715E+03  0.21753827722E+03  0.38236424408E+03  0.46999998093E+01 0.  1.
       -5    1    3    3    0  502 -0.10236533176E+03  0.29728565715E+03 -0.44582154251E+03  0.54556059320E+03  0.46999998093E+01 0. -1.
</event>
<event>
 5   0  0.4243516E-04  0.8991806E+03  0.7818609E-02  0.9426606E-01
        2   -1    0    0  501    0  0.00000000000E+00  0.00000000000E+00  0.13703513263E+04  0.13703513263E+04  0.25500000920E-02 0.  1.
       -2   -1    0    0    0  501  0.00000000000E+00  0.00000000000E+00 -0.14750337034E+03  0.14750337036E+03  0.25500000920E-02 0. -1.
    10030    2    1    2    0    0  0.00000000000E+00  0.00000000000E+00  0.12228479559E+04  0.15178546966E+04  0.89918060297E+03 0.  0.
        1    1    3    3  502    0 -0.18654759831E+03  0.13752513782E+03  0.12617437381E+04  0.12828524586E+04  0.50400001928E-02 0.  1.
       -1    1    3    3    0  502  0.18654759831E+03 -0.13752513782E+03 -0.38895782171E+02  0.23500223799E+03  0.50400001928E-02 0. -1.
</event>
<event>
 5   0  0.4033144E-04  0.9060899E+03  0.7818609E-02  0.9418001E-01
        2   -1    0    0  501    0  0.00000000000E+00  0.00000000000E+00  0.92933707696E+03  0.92933707696E+03  0.25500000920E-02 0. -1.
       -2   -1    0    0    0  501  0.00000000000E+00  0.00000000000E+00 -0.22085606436E+03  0.22085606438E+03  0.25500000920E-02 0.  1.
    10030    2    1    2    0    0  0.00000000000E+00  0.00000000000E+00  0.70848101259E+03  0.11501931413E+04  0.90608990568E+03 0.  0.
        4    1    3    3  502    0 -0.11419926080E+03 -0.38345577672E+03  0.84456366685E+02  0.40891844498E+03  0.12699999809E+01 0.  1.
       -4    1    3    3    0  502  0.11419926080E+03  0.38345577672E+03  0.62402464591E+03  0.74127469636E+03  0.12699999809E+01 0. -1.
</event>
<event>
 5   0  0.3959804E-04  0.8997855E+03  0.7818609E-02  0.9425850E-01
        2   -1    0    0  501    0  0.00000000000E+00  0.00000000000E+00  0.10433091678E+04  0.10433091678E+04  0.25500000920E-02 0.  1.
       -2   -1    0    0    0  501  0.00000000000E+00  0.00000000000E+00 -0.19400144073E+03  0.19400144075E+03  0.25500000920E-02 0. -1.
    10030    2    1    2    0    0  0.00000000000E+00  0.00000000000E+00  0.84930772706E+03  0.12373106085E+04  0.89978548930E+03 0.  0.
        5    1    3    3  502    0 -0.17501165498E+02 -0.12770537034E+03  0.10173381045E+04  0.10254822579E+04  0.46999998093E+01 0.  1.
       -5    1    3    3    0  502  0.17501165498E+02  0.12770537034E+03 -0.16803037742E+03  0.21182835066E+03  0.46999998093E+01 0. -1.
</event>
<event>
 5   0  0.4110039E-04  0.8997427E+03  0.7818609E-02  0.9425903E-01
       -2   -1    0    0    0  501  0.00000000000E+00  0.00000000000E+00  0.19045292345E+03  0.19045292346E+03  0.25500000920E-02 0. -1.
        2   -1    0    0  501    0  0.00000000000E+00  0.00000000000E+00 -0.10626470918E+04  0.10626470918E+04  0.25500000920E-02 0.  1.
    10030    2    1    2    0    0  0.00000000000E+00  0.00000000000E+00 -0.87219416838E+03  0.12531000153E+04  0.89974273043E+03 0.  0.
        3    1    3    3  502    0  0.18769983197E+02  0.28141895642E+03  0.52025580259E+02  0.28680239278E+03  0.10100000352E+00 0. -1.
       -3    1    3    3    0  502 -0.18769983197E+02 -0.28141895642E+03 -0.92421974864E+03  0.96629762252E+03  0.10100000352E+00 0.  1.
</event>
<event>
 5   0  0.2332791E-04  0.8999928E+03  0.7818609E-02  0.9425590E-01
        1   -1    0    0  501    0  0.00000000000E+00  0.00000000000E+00  0.14882541082E+04  0.14882541082E+04  0.50400001928E-02 0.  1.
       -1   -1    0    0    0  501  0.00000000000E+00  0.00000000000E+00 -0.13606328182E+03  0.13606328191E+03  0.50400001928E-02 0. -1.
    10030    2    1    2    0    0  0.00000000000E+00  0.00000000000E+00  0.13521908264E+04  0.16243173901E+04  0.89999275158E+03 0.  0.
        2    1    3    3  502    0  0.24408697666E+03  0.18995682933E+03  0.86182331045E+02  0.32107544810E+03  0.25500000920E-02 0. -1.
       -2    1    3    3    0  502 -0.24408697666E+03 -0.18995682933E+03  0.12660084953E+04  0.13032419420E+04  0.25500000920E-02 0.  1.
</event>
<event>
 5   0  0.3959804E-04  0.9044521E+03  0.7818609E-02  0.9420033E-01
       -2   -1    0    0    0  501  0.00000000000E+00  0.00000000000E+00  0.14553497884E+03  0.14553497886E+03  0.25500000920E-02 0.  1.
        2   -1    0    0  501    0  0.00000000000E+00  0.00000000000E+00 -0.14052181301E+04  0.14052181301E+04  0.25500000920E-02 0. -1.
    10030    2    1    2    0    0  0.00000000000E+00  0.00000000000E+00 -0.12596831512E+04  0.15507531089E+04  0.90445207910E+03 0.  0.
        5    1    3    3  502    0  0.32461076138E+03  0.79967685953E+02 -0.11519277908E+04  0.11994693420E+04  0.46999998093E+01 0. -1.
       -5    1    3    3    0  502 -0.32461076138E+03 -0.79967685953E+02 -0.10775536042E+03  0.35128376692E+03  0.46999998093E+01 0.  1.
</event>
<event>
 5   0  0.2356918E-04  0.8997324E+03  0.7818609E-02  0.9425916E-01
       -1   -1    0    0    0  501  0.00000000000E+00  0.00000000000E+00  0.47960833386E+03  0.47960833388E+03  0.50400001928E-02 0. -1.
        1   -1    0    0  501    0  0.00000000000E+00  0.00000000000E+00 -0.42196846839E+03  0.42196846842E+03  0.50400001928E-02 0.  1.
    10030    2    1    2    0    0  0.00000000000E+00  0.00000000000E+00  0.57639865468E+02  0.90157680231E+03  0.89973239153E+03 0.  0.
        5    1    3    3  502    0 -0.18102809000E+03  0.39759191473E+03  0.13631053744E+03  0.45766052117E+03  0.46999998093E+01 0.  1.
       -5    1    3    3    0  502  0.18102809000E+03 -0.39759191473E+03 -0.78670671968E+02  0.44391628113E+03  0.46999998093E+01 0. -1.
</event>
<event>
 5   0  0.2356918E-04  0.9001456E+03  0.7818609E-02  0.9425399E-01
       -1   -1    0    0    0  501  0.00000000000E+00  0.00000000000E+00  0.19916015616E+03  0.19916015623E+03  0.50400001928E-02 0. -1.
        1   -1    0    0  501    0  0.00000000000E+00  0.00000000000E+00 -0.10170987146E+04  0.10170987146E+04  0.50400001928E-02 0.  1.
    10030    2    1    2    0    0  0.00000000000E+00  0.00000000000E+00 -0.81793855846E+03  0.12162588709E+04  0.90014563018E+03 0.  0.
        5    1    3    3  502    0 -0.27666363229E+03 -0.26914276675E+03 -0.72168167757E+03  0.81842967203E+03  0.46999998093E+01 0.  1.
       -5    1    3    3    0  502  0.27666363229E+03  0.26914276675E+03 -0.96256880893E+02  0.39782919883E+03  0.46999998093E+01 0. -1.
</event>
<event>
 5   0  0.2356918E-04  0.8994400E+03  0.7818609E-02  0.9426282E-01
       -1   -1    0    0    0  501  0.00000000000E+00  0.00000000000E+00  0.25166870973E+03  0.25166870978E+03  0.50400001928E-02 0. -1.
        1   -1    0    0  501    0  0.00000000000E+00  0.00000000000E+00 -0.80362816886E+03  0.80362816888E+03  0.50400001928E-02 0.  1.
    10030    2    1    2    0    0  0.00000000000E+00  0.00000000000E+00 -0.55195945913E+03  0.10552968787E+04  0.89943996886E+03 0.  0.
        5    1    3    3  502    0  0.28358532547E+03 -0.50683057334E+02 -0.68112166606E+03  0.73955271827E+03  0.46999998093E+01 0.  1.
       -5    1    3    3    0  502 -0.28358532547E+03  0.50683057334E+02  0.12916220693E+03  0.31574416039E+03  0.46999998093E+01 0. -1.
</event>
<event>
 5   0  0.2351435E-04  0.8999594E+03  0.7818609E-02  0.9425632E-01
       -1   -1    0    0    0  501  0.00000000000E+00  0.00000000000E+00  0.16713229111E+03  0.16713229119E+03  0.50400001928E-02 0. -1.
        1   -1    0    0  501    0  0.00000000000E+00  0.00000000000E+00 -0.12115057590E+04  0.12115057590E+04  0.50400001928E-02 0.  1.
    10030    2    1    2    0    0  0.00000000000E+00  0.00000000000E+00 -0.10443734679E+04  0.13786380502E+04  0.89995940633E+03 0.  0.
        4    1    3    3  502    0 -0.42512406177E+03 -0.13761766613E+03 -0.60340619705E+03  0.75084601715E+03  0.12699999809E+01 0.  1.
       -4    1    3    3    0  502  0.42512406177E+03  0.13761766613E+03 -0.44096727087E+03  0.62779203308E+03  0.12699999809E+01 0. -1.
</event>
<event>
 5   0  0.4110039E-04  0.8999936E+03  0.7818609E-02  0.9425589E-01
       -2   -1    0    0    0  501  0.00000000000E+00  0.00000000000E+00  0.51736174335E+03  0.51736174336E+03  0.25500000920E-02 0.  1.
        2   -1    0    0  501    0  0.00000000000E+00  0.00000000000E+00 -0.39140337659E+03  0.39140337659E+03  0.25500000920E-02 0. -1.
    10030    2    1    2    0    0  0.00000000000E+00  0.00000000000E+00  0.12595836677E+03  0.90876511996E+03  0.89999362947E+03 0.  0.
        3    1    3    3  502    0 -0.10699840643E+02 -0.28711768271E+03  0.41268691234E+03  0.50285340620E+03  0.10100000352E+00 0.  1.
       -3    1    3    3    0  502  0.10699840643E+02  0.28711768271E+03 -0.28672854557E+03  0.40591171375E+03  0.10100000352E+00 0. -1.
</event>
<event>
 5   0  0.1596250E-04  0.8999008E+03  0.7818609E-02  0.9425705E-01
       -4   -1    0    0    0  501  0.00000000000E+00  0.00000000000E+00  0.18835318561E+04  0.18835322843E+04  0.12699999809E+01 0.  1.
        4   -1    0    0  501    0  0.00000000000E+00  0.00000000000E+00 -0.10748289462E+03  0.10749039741E+03  0.12699999809E+01 0. -1.
    10030    2    1    2    0    0  0.00000000000E+00  0.00000000000E+00  0.17760489615E+04  0.19910226817E+04  0.89990077528E+03 0.  0.
        4    1    3    3  502    0 -0.26668098243E+03 -0.36006234968E+03  0.79706723116E+03  0.91437488260E+03  0.12699999809E+01 0. -1.
       -4    1    3    3    0  502  0.26668098243E+03  0.36006234968E+03  0.97898173034E+03  0.10766477991E+04  0.12699999809E+01 0.  1.
</event>
<event>
 5   0  0.2351435E-04  0.8994033E+03  0.7818609E-02  0.9426328E-01
        1   -1    0    0  501    0  0.00000000000E+00  0.00000000000E+00  0.27426646815E+03  0.27426646820E+03  0.50400001928E-02 0. -1.
       -1   -1    0    0    0  501  0.00000000000E+00  0.00000000000E+00 -0.73735434423E+03  0.73735434424E+03  0.50400001928E-02 0.  1.
    10030    2    1    2    0    0  0.00000000000E+00  0.00000000000E+00 -0.46308787607E+03  0.10116208124E+04  0.89940329508E+03 0.  0.
        4    1    3    3  502    0 -0.21491546313E+03 -0.10559317615E+02  0.21260420126E+03  0.30249349542E+03  0.12699999809E+01 0. -1.
       -4    1    3    3    0  502  0.21491546313E+03  0.10559317615E+02 -0.67569207733E+03  0.70912731702E+03  0.12699999809E+01 0.  1.
</event>
<event>
 5   0  0.4033144E-04  0.9000279E+03  0.7818609E-02  0.9425547E-01
        2   -1    0    0  501    0  0.00000000000E+00  0.00000000000E+00  0.19096907266E+03  0.19096907268E+03  0.25500000920E-02 0.  1.
       -2   -1    0    0    0  501  0.00000000000E+00  0.00000000000E+00 -0.10604468240E+04  0.10604468240E+04  0.25500000920E-02 0. -1.
    10030    2    1    2    0    0  0.00000000000E+00  0.00000000000E+00 -0.86947775135E+03  0.12514158967E+04  0.90002788090E+03 0.  0.
        4    1    3    3  502    0 -0.10776978244E+03 -0.19014405134E+03  0.11221360087E+03  0.24568799602E+03  0.12699999809E+01 0.  1.
       -4    1    3    3    0  502  0.10776978244E+03  0.19014405134E+03 -0.98169135223E+03  0.10057279007E+04  0.12699999809E+01 0. -1.
</event>
<event>
 5   0  0.4236284E-04  0.8982996E+03  0.7818609E-02  0.9427710E-01
        2   -1    0    0  501    0  0.00000000000E+00  0.00000000000E+00  0.19183464215E+04  0.19183464215E+04  0.25500000920E-02 0.  1.
       -2   -1    0    0    0  501  0.00000000000E+00  0.00000000000E+00 -0.10516115402E+03  0.10516115405E+03  0.25500000920E-02 0. -1.
    10030    2    1    2    0    0  0.00000000000E+00  0.00000000000E+00  0.18131852674E+04  0.20235075755E+04  0.89829955700E+03 0.  0.
        2    1    3    3  502    0 -0.42570936744E+03 -0.60412494663E+02  0.11990609310E+04  0.12738230848E+04  0.25500000920E-02 0. -1.
       -2    1    3    3    0  502  0.42570936744E+03  0.60412494663E+02  0.61412433640E+03  0.74968449071E+03  0.25500000920E-02 0.  1.
</event>
<event>
 5   0  0.2351435E-04  0.9004353E+03  0.7818609E-02  0.9425037E-01
       -1   -1    0    0    0  501  0.00000000000E+00  0.00000000000E+00  0.10440869145E+04  0.10440869145E+04  0.50400001928E-02 0. -1.
        1   -1    0    0  501    0  0.00000000000E+00  0.00000000000E+00 -0.19413701593E+03  0.19413701600E+03  0.50400001928E-02 0.  1.
    10030    2    1    2    0    0  0.00000000000E+00  0.00000000000E+00  0.84994989855E+03  0.12382239305E+04  0.90043526809E+03 0.  0.
        4    1    3    3  502    0 -0.45571642083E+02  0.42552748251E+03  0.23273120122E+03  0.48715073422E+03  0.12699999809E+01 0.  1.
       -4    1    3    3    0  502  0.45571642083E+02 -0.42552748251E+03  0.61721869734E+03  0.75107319628E+03  0.12699999809E+01 0. -1.
</event>
<event>
 5   0  0.3959804E-04  0.8988799E+03  0.7818609E-02  0.9426983E-01
        2   -1    0    0  501    0  0.00000000000E+00  0.00000000000E+00  0.62487042977E+03  0.62487042978E+03  0.25500000920E-02 0.  1.
       -2   -1    0    0    0  501  0.00000000000E+00  0.00000000000E+00 -0.32326106325E+03  0.32326106326E+03  0.25500000920E-02 0. -1.
    10030    2    1    2    0    0  0.00000000000E+00  0.00000000000E+00  0.30160936653E+03  0.94813149303E+03  0.89887992418E+03 0.  0.
        5    1    3    3  502    0 -0.37941597922E+03  0.17801638501E+03  0.32195383906E+03  0.52850987040E+03  0.46999998093E+01 0.  1.
       -5    1    3    3    0  502  0.37941597922E+03 -0.17801638501E+03 -0.20344472531E+02  0.41962162264E+03  0.46999998093E+01 0. -1.
</event>
<event>
 5   0  0.2450427E-04  0.8992809E+03  0.7818609E-02  0.9426481E-01
        1   -1    0    0  501    0  0.00000000000E+00  0.00000000000E+00  0.63960698754E+03  0.63960698756E+03  0.50400001928E-02 0. -1.
       -1   -1    0    0    0  501  0.00000000000E+00  0.00000000000E+00 -0.31609491480E+03  0.31609491484E+03  0.50400001928E-02 0.  1.
    10030    2    1    2    0    0  0.00000000000E+00  0.00000000000E+00  0.32351207274E+03  0.95570190240E+03  0.89928085993E+03 0.  0.
        3    1    3    3  502    0  0.31786487637E+03  0.31390825120E+03  0.21594574334E+03  0.49619456271E+03  0.10100000352E+00 0.  1.
       -3    1    3    3    0  502 -0.31786487637E+03 -0.31390825120E+03  0.10756632940E+03  0.45950733968E+03  0.10100000352E+00 0. -1.
</event>
<event>
 5   0  0.4033144E-04  0.9000893E+03  0.7818609E-02  0.9425470E-01
       -2   -1    0    0    0  501  0.00000000000E+00  0.00000000000E+00  0.47352560314E+03  0.47352560315E+03  0.25500000920E-02 0. -1.
        2   -1    0    0  501    0  0.00000000000E+00  0.00000000000E+00 -0.42772808277E+03  0.42772808277E+03  0.25500000920E-02 0.  1.
    10030    2    1    2    0    0  0.00000000000E+00  0.00000000000E+00  0.45797520374E+02  0.90125368592E+03  0.90008932530E+03 0.  0.
        4    1    3    3  502    0  0.34459383825E+03 -0.28873985404E+03  0.43491570230E+02  0.45167327378E+03  0.12699999809E+01 0.  1.
       -4    1    3    3    0  502 -0.34459383825E+03  0.28873985404E+03  0.23059501443E+01  0.44958041214E+03  0.12699999809E+01 0. -1.
</event>
<event>
 5   0  0.1596250E-04  0.9031940E+03  0.7818609E-02  0.9421598E-01
       -3   -1    0    0    0  501  0.00000000000E+00  0.00000000000E+00  0.61491330303E+03  0.61491331133E+03  0.10100000352E+00 0. -1.
        3   -1    0    0  501    0  0.00000000000E+00  0.00000000000E+00 -0.33165628021E+03  0.33165629559E+03  0.10100000352E+00 0.  1.
    10030    2    1    2    0    0  0.00000000000E+00  0.00000000000E+00  0.28325702282E+03  0.94656960692E+03  0.90319404325E+03 0.  0.
        2    1    3    3  502    0  0.13319192970E+02  0.74165686837E+02 -0.32502135391E+03  0.33364176973E+03  0.25500000920E-02 0.  1.
       -2    1    3    3    0  502 -0.13319192970E+02 -0.74165686837E+02  0.60827837672E+03  0.61292783719E+03  0.25500000920E-02 0. -1.
</event>
<event>
 5   0  0.1596250E-04  0.9004950E+03  0.7818609E-02  0.9424963E-01
       -4   -1    0    0    0  501  0.00000000000E+00  0.00000000000E+00  0.64232259105E+03  0.64232384657E+03  0.12699999809E+01 0.  1.
        4   -1    0    0  501    0  0.00000000000E+00  0.00000000000E+00 -0.31560618082E+03  0.31560873605E+03  0.12699999809E+01 0. -1.
    10030    2    1    2    0    0  0.00000000000E+00  0.00000000000E+00  0.32671641023E+03  0.95793258262E+03  0.90049498617E+03 0.  0.
        4    1    3    3  502    0 -0.43913270522E+03 -0.39843576320E+02  0.66465314652E+02  0.44591960522E+03  0.12699999809E+01 0. -1.
       -4    1    3    3    0  502  0.43913270522E+03  0.39843576320E+02  0.26025109558E+03  0.51201297739E+03  0.12699999809E+01 0.  1.
</event>
<event>
 5   0  0.2308362E-04  0.9001043E+03  0.7818609E-02  0.9425451E-01
        1   -1    0    0  501    0  0.00000000000E+00  0.00000000000E+00  0.70410291057E+03  0.70410291059E+03  0.50400001928E-02 0.  1.
       -1   -1    0    0    0  501  0.00000000000E+00  0.00000000000E+00 -0.28766668481E+03  0.28766668486E+03  0.50400001928E-02 0. -1.
    10030    2    1    2    0    0  0.00000000000E+00  0.00000000000E+00  0.41643622576E+03  0.99176959545E+03  0.90010432747E+03 0.  0.
        1    1    3    3  502    0  0.24970471201E+03 -0.28994137526E+03  0.46925968766E+03  0.60549409475E+03  0.50400001928E-02 0.  1.
       -1    1    3    3    0  502 -0.24970471201E+03  0.28994137526E+03 -0.52823461899E+02  0.38627550070E+03  0.50400001928E-02 0. -1.
</event>
<event>
 5   0  0.2308362E-04  0.9001729E+03  0.7818609E-02  0.9425365E-01
        1   -1    0    0  501    0  0.00000000000E+00  0.00000000000E+00  0.31641086777E+04  0.31641086777E+04  0.50400001928E-02 0.  1.
       -1   -1    0    0    0  501  0.00000000000E+00  0.00000000000E+00 -0.64023657076E+02  0.64023657275E+02  0.50400001928E-02 0. -1.
    10030    2    1    2    0    0  0.00000000000E+00  0.00000000000E+00  0.31000850206E+04  0.32281323350E+04  0.90017289286E+03 0.  0.
        1    1    3    3  502    0  0.41045653438E+03  0.18444380765E+03  0.15828559329E+04  0.16455780107E+04  0.50400001928E-02 0. -1.
       -1    1    3    3    0  502 -0.41045653438E+03 -0.18444380765E+03  0.15172290877E+04  0.15825543243E+04  0.50400001928E-02 0.  1.
</event>
<event>
 5   0  0.2450427E-04  0.9001448E+03  0.7818609E-02  0.9425400E-01
        1   -1    0    0  501    0  0.00000000000E+00  0.00000000000E+00  0.24901260512E+03  0.24901260517E+03  0.50400001928E-02 0.  1.
       -1   -1    0    0    0  501  0.00000000000E+00  0.00000000000E+00 -0.81347355756E+03  0.81347355757E+03  0.50400001928E-02 0. -1.
    10030    2    1    2    0    0  0.00000000000E+00  0.00000000000E+00 -0.56446095243E+03  0.10624861627E+04  0.90014481013E+03 0.  0.
        3    1    3    3  502    0 -0.14320662551E+03  0.21469666104E+03 -0.71746191331E+03  0.76246599996E+03  0.10100000352E+00 0. -1.
       -3    1    3    3    0  502  0.14320662551E+03 -0.21469666104E+03  0.15300096087E+03  0.30002016279E+03  0.10100000352E+00 0.  1.
</event>
<event>
 5   0  0.4033144E-04  0.9002848E+03  0.7818609E-02  0.9425225E-01
       -2   -1    0    0    0  501  0.00000000000E+00  0.00000000000E+00  0.16891955867E+03  0.16891955869E+03  0.25500000920E-02 0.  1.
        2   -1    0    0  501    0  0.00000000000E+00  0.00000000000E+00 -0.11995542560E+04  0.11995542560E+04  0.25500000920E-02 0. -1.
    10030    2    1    2    0    0  0.00000000000E+00  0.00000000000E+00 -0.10306346973E+04  0.13684738147E+04  0.90028478947E+03 0.  0.
        4    1    3    3  502    0  0.40983874085E+03 -0.89934776463E+02 -0.26754291943E+03  0.49763127329E+03  0.12699999809E+01 0.  1.
       -4    1    3    3    0  502 -0.40983874085E+03  0.89934776463E+02 -0.76309177787E+03  0.87084254138E+03  0.12699999809E+01 0. -1.
</event>
<event>
 5   0  0.4243516E-04  0.9006049E+03  0.7818609E-02  0.9424826E-01
        2   -1    0    0  501    0  0.00000000000E+00  0.00000000000E+00  0.47048267591E+03  0.47048267592E+03  0.25500000920E-02 0.  1.
       -2   -1    0    0    0  501  0.00000000000E+00  0.00000000000E+00 -0.43098785003E+03  0.43098785004E+03  0.25500000920E-02 0. -1.
    10030    2    1    2    0    0  0.00000000000E+00  0.00000000000E+00  0.39494825882E+02  0.90147052596E+03  0.90060494553E+03 0.  0.
        1    1    3    3  502    0 -0.25232466472E+03 -0.24615596097E+03  0.30021632909E+03  0.46302304244E+03  0.50400001928E-02 0.  1.
       -1    1    3    3    0  502  0.25232466472E+03  0.24615596097E+03 -0.26072150321E+03  0.43844748352E+03  0.50400001928E-02 0. -1.
</event>
<event>
 5   0  0.1596250E-04  0.8996152E+03  0.7818609E-02  0.9426063E-01
        4   -1    0    0  501    0  0.00000000000E+00  0.00000000000E+00  0.67843212606E+03  0.67843331475E+03  0.12699999809E+01 0. -1.
       -4   -1    0    0    0  501  0.00000000000E+00  0.00000000000E+00 -0.29822432988E+03  0.29822703404E+03  0.12699999809E+01 0.  1.
    10030    2    1    2    0    0  0.00000000000E+00  0.00000000000E+00  0.38020779618E+03  0.97666034880E+03  0.89961517808E+03 0.  0.
        4    1    3    3  502    0 -0.19177233427E+03 -0.38234330796E+03  0.34116907644E+03  0.54713890827E+03  0.12699999809E+01 0. -1.
       -4    1    3    3    0  502  0.19177233427E+03  0.38234330796E+03  0.39038719735E+02  0.42952144052E+03  0.12699999809E+01 0.  1.
</event>
<event>
 5   0  0.2332791E-04  0.8998158E+03  0.7818609E-02  0.9425812E-01
        1   -1    0    0  501    0  0.00000000000E+00  0.00000000000E+00  0.27760916578E+03  0.27760916583E+03  0.50400001928E-02 0. -1.
       -1   -1    0    0    0  501  0.00000000000E+00  0.00000000000E+00 -0.72914428012E+03  0.72914428013E+03  0.50400001928E-02 0.  1.
    10030    2    1    2    0    0  0.00000000000E+00  0.00000000000E+00 -0.45153511433E+03  0.10067534460E+04  0.89981583754E+03 0.  0.
        2    1    3    3  502    0 -0.44505852573E+03 -0.52406635639E+02 -0.27043155527E+03  0.52340880092E+03  0.25500000920E-02 0.  1.
       -2    1    3    3    0  502  0.44505852573E+03  0.52406635639E+02 -0.18110355907E+03  0.48334464505E+03  0.25500000920E-02 0. -1.
</event>
<event>
 5   0  0.1596250E-04  0.9004398E+03  0.7818609E-02  0.9425032E-01
       -3   -1    0    0    0  501  0.00000000000E+00  0.00000000000E+00  0.71141763711E+03  0.71141764428E+03  0.10100000352E+00 0. -1.
        3   -1    0    0  501    0  0.00000000000E+00  0.00000000000E+00 -0.28492116122E+03  0.28492117912E+03  0.10100000352E+00 0.  1.
    10030    2    1    2    0    0  0.00000000000E+00  0.00000000000E+00  0.42649647589E+03  0.99633882340E+03  0.90043978536E+03 0.  0.
        5    1    3    3  502    0 -0.27420897689E+03  0.47356426432E+02 -0.17833900258E+03  0.33054513152E+03  0.46999998093E+01 0.  1.
       -5    1    3    3    0  502  0.27420897689E+03 -0.47356426432E+02  0.60483547847E+03  0.66579369188E+03  0.46999998093E+01 0. -1.
</event>
<event>
 5   0  0.2356918E-04  0.9000622E+03  0.7818609E-02  0.9425504E-01
       -1   -1    0    0    0  501  0.00000000000E+00  0.00000000000E+00  0.41267449057E+03  0.41267449060E+03  0.50400001928E-02 0.  1.
        1   -1    0    0  501    0  0.00000000000E+00  0.00000000000E+00 -0.49076936960E+03  0.49076936962E+03  0.50400001928E-02 0. -1.
    10030    2    1    2    0    0  0.00000000000E+00  0.00000000000E+00 -0.78094879026E+02  0.90344386022E+03  0.90006221921E+03 0.  0.
        5    1    3    3  502    0 -0.39544939649E+03  0.62143592964E+01  0.17643811901E+03  0.43309507418E+03  0.46999998093E+01 0.  1.
       -5    1    3    3    0  502  0.39544939649E+03 -0.62143592964E+01 -0.25453299803E+03  0.47034878604E+03  0.46999998093E+01 0. -1.
</event>
<event>
 5   0  0.4033144E-04  0.8994290E+03  0.7818609E-02  0.9426296E-01
       -2   -1    0    0    0  501  0.00000000000E+00  0.00000000000E+00  0.13872139666E+03  0.13872139669E+03  0.25500000920E-02 0. -1.
        2   -1    0    0  501    0  0.00000000000E+00  0.00000000000E+00 -0.14579086292E+04  0.14579086292E+04  0.25500000920E-02 0.  1.
    10030    2    1    2    0    0  0.00000000000E+00  0.00000000000E+00 -0.13191872325E+04  0.15966300259E+04  0.89942897723E+03 0.  0.
        4    1    3    3  502    0 -0.22263343837E+03 -0.76465110563E+02  0.20616770998E+02  0.23630324831E+03  0.12699999809E+01 0. -1.
       -4    1    3    3    0  502  0.22263343837E+03  0.76465110563E+02 -0.13398040035E+04  0.13603267776E+04  0.12699999809E+01 0.  1.
</event>
<event>
 5   0  0.2450427E-04  0.9001679E+03  0.7818609E-02  0.9425372E-01
        1   -1    0    0  501    0  0.00000000000E+00  0.00000000000E+00  0.43127204314E+03  0.43127204317E+03  0.50400001928E-02 0. -1.
       -1   -1    0    0    0  501  0.00000000000E+00  0.00000000000E+00 -0.46971644001E+03  0.46971644004E+03  0.50400001928E-02 0.  1.
    10030    2    1    2    0    0  0.00000000000E+00  0.00000000000E+00 -0.38444396876E+02  0.90098848320E+03  0.90016791501E+03 0.  0.
        3    1    3    3  502    0 -0.59665857335E+02 -0.42310937767E+03 -0.16075123138E+03  0.45653316265E+03  0.10100000352E+00 0.  1.
       -3    1    3    3    0  502  0.59665857335E+02  0.42310937767E+03  0.12230683450E+03  0.44445532056E+03  0.10100000352E+00 0. -1.
</event>
<event>
 5   0  0.4033144E-04  0.9002780E+03  0.7818609E-02  0.9425234E-01
       -2   -1    0    0    0  501  0.00000000000E+00  0.00000000000E+00  0.23254120344E+03  0.23254120346E+03  0.25500000920E-02 0.  1.
        2   -1    0    0  501    0  0.00000000000E+00  0.00000000000E+00 -0.87135156437E+03  0.87135156437E+03  0.25500000920E-02 0. -1.
    10030    2    1    2    0    0  0.00000000000E+00  0.00000000000E+00 -0.63881036092E+03  0.11038927678E+04  0.90027804907E+03 0.  0.
        4    1    3    3  502    0  0.11988824275E+03 -0.37283486985E+03 -0.59150551918E+03  0.70940779742E+03  0.12699999809E+01 0. -1.
       -4    1    3    3    0  502 -0.11988824275E+03  0.37283486985E+03 -0.47304841745E+02  0.39448497041E+03  0.12699999809E+01 0.  1.
</event>
<event>
 5   0  0.2308362E-04  0.9006647E+03  0.7818609E-02  0.9424751E-01
        1   -1    0    0  501    0  0.00000000000E+00  0.00000000000E+00  0.13643731599E+04  0.13643731599E+04  0.50400001928E-02 0.  1.
       -1   -1    0    0    0  501  0.00000000000E+00  0.00000000000E+00 -0.14863912514E+03  0.14863912522E+03  0.50400001928E-02 0. -1.
    10030    2    1    2    0    0  0.00000000000E+00  0.00000000000E+00  0.12157340347E+04  0.15130122851E+04  0.90066471656E+03 0.  0.
        1    1    3    3  502    0 -0.40615137370E+03 -0.35938203795E+02  0.92902262508E+03  0.10145607576E+04  0.50400001928E-02 0.  1.
       -1    1    3    3    0  502  0.40615137370E+03  0.35938203795E+02  0.28671140964E+03  0.49845152753E+03  0.50400001928E-02 0. -1.
</event>
<event>
 5   0  0.2308362E-04  0.9000705E+03  0.7818609E-02  0.9425493E-01
        1   -1    0    0  501    0  0.00000000000E+00  0.00000000000E+00  0.13472942899E+04  0.13472942899E+04  0.50400001928E-02 0. -1.
       -1   -1    0    0    0  501  0.00000000000E+00  0.00000000000E+00 -0.15032477663E+03  0.15032477672E+03  0.50400001928E-02 0.  1.
    10030    2    1    2    0    0  0.00000000000E+00  0.00000000000E+00  0.11969695132E+04  0.14976190666E+04  0.90007047115E+03 0.  0.
        1    1    3    3  502    0 -0.16981389947E+03  0.86315992942E+02 -0.79935008951E+02  0.20658367983E+03  0.50400001928E-02 0.  1.
       -1    1    3    3    0  502  0.16981389947E+03 -0.86315992942E+02  0.12769045222E+04  0.12910353868E+04  0.50400001928E-02 0. -1.
</event>
<event>
 5   0  0.4033144E-04  0.9010471E+03  0.7818609E-02  0.9424273E-01
       -2   -1    0    0    0  501  0.00000000000E+00  0.00000000000E+00  0.29794790943E+03  0.29794790944E+03  0.25500000920E-02 0. -1.
        2   -1    0    0  501    0  0.00000000000E+00  0.00000000000E+00 -0.68123145997E+03  0.68123145997E+03  0.25500000920E-02 0.  1.
    10030    2    1    2    0    0  0.00000000000E+00  0.00000000000E+00 -0.38328355053E+03  0.97917936941E+03  0.90104714492E+03 0.  0.
        4    1    3    3  502    0 -0.12623000643E+03  0.42664191612E+03 -0.11470330456E+03  0.45947339432E+03  0.12699999809E+01 0. -1.
       -4    1    3    3    0  502  0.12623000643E+03 -0.42664191612E+03 -0.26858024598E+03  0.51970597509E+03  0.12699999809E+01 0.  1.
</event>
<event>
 5   0  0.4243516E-04  0.9001779E+03  0.7818609E-02  0.9425359E-01
       -2   -1    0    0    0  501  0.00000000000E+00  0.00000000000E+00  0.67868637740E+03  0.67868637741E+03  0.25500000920E-02 0.  1.
        2   -1    0    0  501    0  0.00000000000E+00  0.00000000000E+00 -0.29848848101E+03  0.29848848102E+03  0.25500000920E-02 0. -1.
    10030    2    1    2    0    0  0.00000000000E+00  0.00000000000E+00  0.38019789639E+03  0.97717485843E+03  0.90017790660E+03 0.  0.
        1    1    3    3  502    0 -0.35933237146E+03 -0.76303753308E+02 -0.92219640159E+02  0.37874328773E+03  0.50400001928E-02 0. -1.
       -1    1    3    3    0  502  0.35933237146E+03  0.76303753308E+02  0.47241753655E+03  0.59843157070E+03  0.50400001928E-02 0.  1.
</event>
<event>
 5   0  0.4033144E-04  0.8997679E+03  0.7818609E-02  0.9425872E-01
        2   -1    0    0  501    0  0.00000000000E+00  0.00000000000E+00  0.76292483050E+03  0.76292483050E+03  0.25500000920E-02 0.  1.
       -2   -1    0    0    0  501  0.00000000000E+00  0.00000000000E+00 -0.26528900150E+03  0.26528900151E+03  0.25500000920E-02 0. -1.
    10030    2    1    2    0    0  0.00000000000E+00  0.00000000000E+00  0.49763582900E+03  0.10282138320E+04  0.89976789565E+03 0.  0.
        4    1    3    3  502    0 -0.19641585175E+00  0.28414254574E+02 -0.26426047123E+03  0.26578679049E+03  0.12699999809E+01 0. -1.
       -4    1    3    3    0  502  0.19641585175E+00 -0.28414254574E+02  0.76189630023E+03  0.76242704153E+03  0.12699999809E+01 0.  1.
</event>
<event>
 5   0  0.4033144E-04  0.9003622E+03  0.7818609E-02  0.9425129E-01
        2   -1    0    0  501    0  0.00000000000E+00  0.00000000000E+00  0.10926717398E+04  0.10926717398E+04  0.25500000920E-02 0.  1.
       -2   -1    0    0    0  501  0.00000000000E+00  0.00000000000E+00 -0.18547476355E+03  0.18547476356E+03  0.25500000920E-02 0. -1.
    10030    2    1    2    0    0  0.00000000000E+00  0.00000000000E+00  0.90719697621E+03  0.12781465033E+04  0.90036222173E+03 0.  0.
        4    1    3    3  502    0  0.29806190505E+03  0.28261000405E+03  0.19202318848E+03  0.45341353249E+03  0.12699999809E+01 0. -1.
       -4    1    3    3    0  502 -0.29806190505E+03 -0.28261000405E+03  0.71517378773E+03  0.82473297084E+03  0.12699999809E+01 0.  1.
</event>
<event>
 5   0  0.2308362E-04  0.9000170E+03  0.7818609E-02  0.9425560E-01
        1   -1    0    0  501    0  0.00000000000E+00  0.00000000000E+00  0.40823072121E+03  0.40823072124E+03  0.50400001928E-02 0.  1.
       -1   -1    0    0    0  501  0.00000000000E+00  0.00000000000E+00 -0.49606178343E+03  0.49606178346E+03  0.50400001928E-02 0. -1.
    10030    2    1    2    0    0  0.00000000000E+00  0.00000000000E+00 -0.87831062222E+02  0.90429250470E+03  0.90001702127E+03 0.  0.
        1    1    3    3  502    0  0.36287315633E+03  0.24709053964E+03  0.55432886627E+02  0.44249685571E+03  0.50400001928E-02 0. -1.
       -1    1    3    3    0  502 -0.36287315633E+03 -0.24709053964E+03 -0.14326394885E+03  0.46179564900E+03  0.50400001928E-02 0.  1.
</event>
<event>
 5   0  0.2450427E-04  0.9001260E+03  0.7818609E-02  0.9425424E-01
       -1   -1    0    0    0  501  0.00000000000E+00  0.00000000000E+00  0.23989345993E+03  0.23989345998E+03  0.50400001928E-02 0. -1.
        1   -1    0    0  501    0  0.00000000000E+00  0.00000000000E+00 -0.84436118264E+03  0.84436118265E+03  0.50400001928E-02 0.  1.
    10030    2    1    2    0    0  0.00000000000E+00  0.00000000000E+00 -0.60446772271E+03  0.10842546426E+04  0.90012604800E+03 0.  0.
        3    1    3    3  502    0  0.38693182995E+03  0.23701693722E+02 -0.57765062295E+03  0.69567108874E+03  0.10100000352E+00 0.  1.
       -3    1    3    3    0  502 -0.38693182995E+03 -0.23701693722E+02 -0.26817099754E+02  0.38858355389E+03  0.10100000352E+00 0. -1.
</event>
<event>
 5   0  0.4236284E-04  0.9012658E+03  0.7818609E-02  0.9424001E-01
       -2   -1    0    0    0  501  0.00000000000E+00  0.00000000000E+00  0.17721918944E+03  0.17721918945E+03  0.25500000920E-02 0. -1.
        2   -1    0    0  501    0  0.00000000000E+00  0.00000000000E+00 -0.11458691137E+04  0.11458691137E+04  0.25500000920E-02 0.  1.
    10030    2    1    2    0    0  0.00000000000E+00  0.00000000000E+00 -0.96864992430E+03  0.13230883032E+04  0.90126576668E+03 0.  0.
        2    1    3    3  502    0  0.24204866079E+03 -0.11129142793E+03 -0.10178832524E+04  0.10521690224E+04  0.25500000920E-02 0.  1.
       -2    1    3    3    0  502 -0.24204866079E+03  0.11129142793E+03  0.49233328091E+02  0.27091928083E+03  0.25500000920E-02 0. -1.
</event>
<event>
 5   0  0.1596250E-04  0.8943411E+03  0.7818609E-02  0.9432683E-01
        3   -1    0    0  501    0  0.00000000000E+00  0.00000000000E+00  0.50181261717E+03  0.50181262734E+03  0.10100000352E+00 0. -1.
       -3   -1    0    0    0  501  0.00000000000E+00  0.00000000000E+00 -0.39847838611E+03  0.39847839891E+03  0.10100000352E+00 0.  1.
    10030    2    1    2    0    0  0.00000000000E+00  0.00000000000E+00  0.10333423107E+03  0.90029102625E+03  0.89434108070E+03 0.  0.
        3    1    3    3  502    0 -0.30828799494E+03  0.12001911514E+03 -0.25119223966E+03  0.41538371091E+03  0.10100000352E+00 0.  1.
       -3    1    3    3    0  502  0.30828799494E+03 -0.12001911514E+03  0.35452647073E+03  0.48490731534E+03  0.10100000352E+00 0. -1.
</event>
<event>
 5   0  0.2332791E-04  0.9001987E+03  0.7818609E-02  0.9425333E-01
       -1   -1    0    0    0  501  0.00000000000E+00  0.00000000000E+00  0.19357332939E+03  0.19357332946E+03  0.50400001928E-02 0. -1.
        1   -1    0    0  501    0  0.00000000000E+00  0.00000000000E+00 -0.10465770931E+04  0.10465770931E+04  0.50400001928E-02 0.  1.
    10030    2    1    2    0    0  0.00000000000E+00  0.00000000000E+00 -0.85300376367E+03  0.12401504225E+04  0.90019867233E+03 0.  0.
        2    1    3    3  502    0  0.89455299947E+02  0.15381856758E+03 -0.99606432635E+03  0.10118332593E+04  0.25500000920E-02 0.  1.
       -2    1    3    3    0  502 -0.89455299947E+02 -0.15381856758E+03  0.14306056268E+03  0.22831716322E+03  0.25500000920E-02 0. -1.
</event>
<event>
 5   0  0.2332791E-04  0.8999106E+03  0.7818609E-02  0.9425693E-01
        1   -1    0    0  501    0  0.00000000000E+00  0.00000000000E+00  0.35461229457E+03  0.35461229460E+03  0.50400001928E-02 0.  1.
       -1   -1    0    0    0  501  0.00000000000E+00  0.00000000000E+00 -0.57093272254E+03  0.57093272256E+03  0.50400001928E-02 0. -1.
    10030    2    1    2    0    0  0.00000000000E+00  0.00000000000E+00 -0.21632042797E+03  0.92554501716E+03  0.89991057958E+03 0.  0.
        2    1    3    3  502    0 -0.44219081530E+03 -0.83215872973E+02 -0.10664720366E+03  0.46241888446E+03  0.25500000920E-02 0.  1.
       -2    1    3    3    0  502  0.44219081530E+03  0.83215872973E+02 -0.10967322431E+03  0.46312613270E+03  0.25500000920E-02 0. -1.
</event>
<event>
 5   0  0.2351435E-04  0.9000591E+03  0.7818609E-02  0.9425507E-01
       -1   -1    0    0    0  501  0.00000000000E+00  0.00000000000E+00  0.15417369096E+03  0.15417369105E+03  0.50400001928E-02 0. -1.
        1   -1    0    0  501    0  0.00000000000E+00  0.00000000000E+00 -0.13136263179E+04  0.13136263179E+04  0.50400001928E-02 0.  1.
    10030    2    1    2    0    0  0.00000000000E+00  0.00000000000E+00 -0.11594526270E+04  0.14678000090E+04  0.90005914928E+03 0.  0.
        4    1    3    3  502    0  0.43151762776E+02  0.13805864091E+03 -0.12746818771E+04  0.12828631118E+04  0.12699999809E+01 0.  1.
       -4    1    3    3    0  502 -0.43151762776E+02 -0.13805864091E+03  0.11522925011E+03  0.18493689719E+03  0.12699999809E+01 0. -1.
</event>
<event>
 5   0  0.4236284E-04  0.9000482E+03  0.7818609E-02  0.9425521E-01
        2   -1    0    0  501    0  0.00000000000E+00  0.00000000000E+00  0.97642680492E+03  0.97642680492E+03  0.25500000920E-02 0. -1.
       -2   -1    0    0    0  501  0.00000000000E+00  0.00000000000E+00 -0.20741102884E+03  0.20741102886E+03  0.25500000920E-02 0.  1.
    10030    2    1    2    0    0  0.00000000000E+00  0.00000000000E+00  0.76901577608E+03  0.11838378338E+04  0.90004819472E+03 0.  0.
        2    1    3    3  502    0 -0.17731501351E+03 -0.21658191577E+03  0.84799818364E+03  0.89300014542E+03  0.25500000920E-02 0. -1.
       -2    1    3    3    0  502  0.17731501351E+03  0.21658191577E+03 -0.78982407568E+02  0.29083768835E+03  0.25500000920E-02 0.  1.
</event>
<event>
 5   0  0.2308362E-04  0.9016478E+03  0.7818609E-02  0.9423524E-01
        1   -1    0    0  501    0  0.00000000000E+00  0.00000000000E+00  0.98590960330E+03  0.98590960331E+03  0.50400001928E-02 0. -1.
       -1   -1    0    0    0  501  0.00000000000E+00  0.00000000000E+00 -0.20614686112E+03  0.20614686118E+03  0.50400001928E-02 0.  1.
    10030    2    1    2    0    0  0.00000000000E+00  0.00000000000E+00  0.77976274218E+03  0.11920564645E+04  0.90164775851E+03 0.  0.
        1    1    3    3  502    0  0.10088452151E+03 -0.11752577359E+03  0.94962883944E+03  0.96217718060E+03  0.50400001928E-02 0. -1.
       -1    1    3    3    0  502 -0.10088452151E+03  0.11752577359E+03 -0.16986609726E+03  0.22987928389E+03  0.50400001928E-02 0.  1.
</event>
<event>
 5   0  0.4236284E-04  0.9002285E+03  0.7818609E-02  0.9425296E-01
        2   -1    0    0  501    0  0.00000000000E+00  0.00000000000E+00  0.13897017481E+04  0.13897017481E+04  0.25500000920E-02 0. -1.
       -2   -1    0    0    0  501  0.00000000000E+00  0.00000000000E+00 -0.14578873264E+03  0.14578873266E+03  0.25500000920E-02 0.  1.
    10030    2    1    2    0    0  0.00000000000E+00  0.00000000000E+00  0.12439130154E+04  0.15354904807E+04  0.90022854125E+03 0.  0.
        2    1    3    3  502    0 -0.44623788094E+03  0.24429556762E+01  0.72241209608E+03  0.84912510916E+03  0.25500000920E-02 0. -1.
       -2    1    3    3    0  502  0.44623788094E+03 -0.24429556762E+01  0.52150091936E+03  0.68636537159E+03  0.25500000920E-02 0.  1.
</event>
<event>
 5   0  0.4236284E-04  0.9001176E+03  0.7818609E-02  0.9425434E-01
       -2   -1    0    0    0  501  0.00000000000E+00  0.00000000000E+00  0.30885179940E+03  0.30885179941E+03  0.25500000920E-02 0.  1.
        2   -1    0    0  501    0  0.00000000000E+00  0.00000000000E+00 -0.65582568491E+03  0.65582568492E+03  0.25500000920E-02 0. -1.
    10030    2    1    2    0    0  0.00000000000E+00  0.00000000000E+00 -0.34697388551E+03  0.96467748433E+03  0.90011764317E+03 0.  0.
        2    1    3    3  502    0 -0.21876975845E+03 -0.33707510893E+03  0.43713969023E+02  0.40421621363E+03  0.25500000920E-02 0. -1.
       -2    1    3    3    0  502  0.21876975845E+03  0.33707510893E+03 -0.39068785453E+03  0.56046127070E+03  0.25500000920E-02 0.  1.
</event>
<event>
 5   0  0.4236284E-04  0.8999038E+03  0.7818609E-02  0.9425702E-01
       -2   -1    0    0    0  501  0.00000000000E+00  0.00000000000E+00  0.81855546822E+03  0.81855546822E+03  0.25500000920E-02 0.  1.
        2   -1    0    0  501    0  0.00000000000E+00  0.00000000000E+00 -0.24733415841E+03  0.24733415843E+03  0.25500000920E-02 0. -1.
    10030    2    1    2    0    0  0.00000000000E+00  0.00000000000E+00  0.57122130981E+03  0.10658896267E+04  0.89990383454E+03 0.  0.
        2    1    3    3  502    0  0.35701657937E+01 -0.14267721475E+03  0.79103462540E+03  0.80380676302E+03  0.25500000920E-02 0.  1.
       -2    1    3    3    0  502 -0.35701657937E+01  0.14267721475E+03 -0.21981331559E+03  0.26208286363E+03  0.25500000920E-02 0. -1.
</event>
<event>
 5   0  0.4243516E-04  0.9002134E+03  0.7818609E-02  0.9425315E-01
        2   -1    0    0  501    0  0.00000000000E+00  0.00000000000E+00  0.24784822911E+04  0.24784822911E+04  0.25500000920E-02 0.  1.
       -2   -1    0    0    0  501  0.00000000000E+00  0.00000000000E+00 -0.81741981831E+02  0.81741981870E+02  0.25500000920E-02 0. -1.
    10030    2    1    2    0    0  0.00000000000E+00  0.00000000000E+00  0.23967403092E+04  0.25602242729E+04  0.90021342904E+03 0.  0.
        1    1    3    3  502    0  0.19119382974E+03 -0.56390637420E+02  0.50636371298E+02  0.20566727168E+03  0.50400001928E-02 0. -1.
       -1    1    3    3    0  502 -0.19119382974E+03  0.56390637420E+02  0.23461039379E+04  0.23545570012E+04  0.50400001928E-02 0.  1.
</event>
<event>
 5   0  0.2332791E-04  0.9001054E+03  0.7818609E-02  0.9425450E-01
       -1   -1    0    0    0  501  0.00000000000E+00  0.00000000000E+00  0.53083458468E+03  0.53083458471E+03  0.50400001928E-02 0.  1.
        1   -1    0    0  501    0  0.00000000000E+00  0.00000000000E+00 -0.38156411532E+03  0.38156411535E+03  0.50400001928E-02 0. -1.
    10030    2    1    2    0    0  0.00000000000E+00  0.00000000000E+00  0.14927046937E+03  0.91239870006E+03  0.90010539096E+03 0.  0.
        2    1    3    3  502    0 -0.25359897096E+03  0.67080036061E+02  0.44532812556E+03  0.51684553662E+03  0.25500000920E-02 0.  1.
       -2    1    3    3    0  502  0.25359897096E+03 -0.67080036061E+02 -0.29605765619E+03  0.39555316343E+03  0.25500000920E-02 0. -1.
</event>
<event>
 5   0  0.4033144E-04  0.8978974E+03  0.7818609E-02  0.9428214E-01
       -2   -1    0    0    0  501  0.00000000000E+00  0.00000000000E+00  0.22743783760E+03  0.22743783762E+03  0.25500000920E-02 0.  1.
        2   -1    0    0  501    0  0.00000000000E+00  0.00000000000E+00 -0.88619783953E+03  0.88619783953E+03  0.25500000920E-02 0. -1.
    10030    2    1    2    0    0  0.00000000000E+00  0.00000000000E+00 -0.65876000193E+03  0.11136356771E+04  0.89789736678E+03 0.  0.
        4    1    3    3  502    0 -0.12432289165E+03  0.14417420775E+03  0.17489473933E+03  0.25851917977E+03  0.12699999809E+01 0.  1.
       -4    1    3    3    0  502  0.12432289165E+03 -0.14417420775E+03 -0.83365474125E+03  0.85511649737E+03  0.12699999809E+01 0. -1.
</event>
<event>
 5   0  0.3959804E-04  0.9008883E+03  0.7818609E-02  0.9424472E-01
       -2   -1    0    0    0  501  0.00000000000E+00  0.00000000000E+00  0.17308638132E+03  0.17308638134E+03  0.25500000920E-02 0.  1.
        2   -1    0    0  501    0  0.00000000000E+00  0.00000000000E+00 -0.11722466395E+04  0.11722466395E+04  0.25500000920E-02 0. -1.
    10030    2    1    2    0    0  0.00000000000E+00  0.00000000000E+00 -0.99916025821E+03  0.13453330209E+04  0.90088829244E+03 0.  0.
        5    1    3    3  502    0  0.10152173176E+03 -0.10176143440E+03  0.13787828781E+03  0.19923494623E+03  0.46999998093E+01 0.  1.
       -5    1    3    3    0  502 -0.10152173176E+03  0.10176143440E+03 -0.11370385460E+04  0.11460980746E+04  0.46999998093E+01 0. -1.
</event>
<event>
 5   0  0.2450427E-04  0.8991140E+03  0.7818609E-02  0.9426690E-01
        1   -1    0    0  501    0  0.00000000000E+00  0.00000000000E+00  0.19061208802E+04  0.19061208803E+04  0.50400001928E-02 0.  1.
       -1   -1    0    0    0  501  0.00000000000E+00  0.00000000000E+00 -0.10602763220E+03  0.10602763232E+03  0.50400001928E-02 0. -1.
    10030    2    1    2    0    0  0.00000000000E+00  0.00000000000E+00  0.18000932480E+04  0.20121485126E+04  0.89911397220E+03 0.  0.
        3    1    3    3  502    0 -0.13472621063E+03 -0.41715273780E+03  0.11230983080E+04  0.12056190850E+04  0.10100000352E+00 0. -1.
       -3    1    3    3    0  502  0.13472621063E+03  0.41715273780E+03  0.67699493999E+03  0.80652942753E+03  0.10100000352E+00 0.  1.
</event>
<event>
 5   0  0.3959804E-04  0.9001016E+03  0.7818609E-02  0.9425454E-01
       -2   -1    0    0    0  501  0.00000000000E+00  0.00000000000E+00  0.39877510822E+03  0.39877510823E+03  0.25500000920E-02 0. -1.
        2   -1    0    0  501    0  0.00000000000E+00  0.00000000000E+00 -0.50791970451E+03  0.50791970452E+03  0.25500000920E-02 0.  1.
    10030    2    1    2    0    0  0.00000000000E+00  0.00000000000E+00 -0.10914459629E+03  0.90669481275E+03  0.90010162791E+03 0.  0.
        5    1    3    3  502    0 -0.52532940217E+02  0.20190045866E+03  0.34709672260E+03  0.40499596276E+03  0.46999998093E+01 0. -1.
       -5    1    3    3    0  502  0.52532940217E+02 -0.20190045866E+03 -0.45624131889E+03  0.50169884999E+03  0.46999998093E+01 0.  1.
</event>
<event>
 5   0  0.2356918E-04  0.8997716E+03  0.7818609E-02  0.9425867E-01
        1   -1    0    0  501    0  0.00000000000E+00  0.00000000000E+00  0.48316791030E+03  0.48316791033E+03  0.50400001928E-02 0. -1.
       -1   -1    0    0    0  501  0.00000000000E+00  0.00000000000E+00 -0.41889628717E+03  0.41889628720E+03  0.50400001928E-02 0.  1.
    10030    2    1    2    0    0  0.00000000000E+00  0.00000000000E+00  0.64271623131E+02  0.90206419753E+03  0.89977162376E+03 0.  0.
        5    1    3    3  502    0  0.17644884715E+03  0.39281139865E+03 -0.98350197414E+02  0.44173503585E+03  0.46999998093E+01 0. -1.
       -5    1    3    3    0  502 -0.17644884715E+03 -0.39281139865E+03  0.16262182055E+03  0.46032916167E+03  0.46999998093E+01 0.  1.
</event>
<event>
 5   0  0.3959804E-04  0.8998049E+03  0.7818609E-02  0.9425825E-01
       -2   -1    0    0    0  501  0.00000000000E+00  0.00000000000E+00  0.14695372087E+03  0.14695372089E+03  0.25500000920E-02 0.  1.
        2   -1    0    0  501    0  0.00000000000E+00  0.00000000000E+00 -0.13773873491E+04  0.13773873491E+04  0.25500000920E-02 0. -1.
    10030    2    1    2    0    0  0.00000000000E+00  0.00000000000E+00 -0.12304336283E+04  0.15243410700E+04  0.89980485895E+03 0.  0.
        5    1    3    3  502    0  0.34192479434E+03 -0.16410711054E+03 -0.10251224644E+04  0.10930424812E+04  0.46999998093E+01 0. -1.
       -5    1    3    3    0  502 -0.34192479434E+03  0.16410711054E+03 -0.20531116390E+03  0.43129858884E+03  0.46999998093E+01 0.  1.
</event>
<event>
 5   0  0.4236284E-04  0.8998943E+03  0.7818609E-02  0.9425714E-01
       -2   -1    0    0    0  501  0.00000000000E+00  0.00000000000E+00  0.12868217632E+03  0.12868217634E+03  0.25500000920E-02 0. -1.
        2   -1    0    0  501    0  0.00000000000E+00  0.00000000000E+00 -0.15732750630E+04  0.15732750630E+04  0.25500000920E-02 0.  1.
    10030    2    1    2    0    0  0.00000000000E+00  0.00000000000E+00 -0.14445928866E+04  0.17019572393E+04  0.89989434729E+03 0.  0.
        2    1    3    3  502    0 -0.48704566907E+02 -0.15177756780E+02  0.12319487679E+03  0.13333970456E+03  0.25500000920E-02 0. -1.
       -2    1    3    3    0  502  0.48704566907E+02  0.15177756780E+02 -0.15677877634E+04  0.15686175347E+04  0.25500000920E-02 0.  1.
</event>
<event>
 5   0  0.2308362E-04  0.9003775E+03  0.7818609E-02  0.9425110E-01
        1   -1    0    0  501    0  0.00000000000E+00  0.00000000000E+00  0.38444372814E+03  0.38444372817E+03  0.50400001928E-02 0.  1.
       -1   -1    0    0    0  501  0.00000000000E+00  0.00000000000E+00 -0.52717710420E+03  0.52717710422E+03  0.50400001928E-02 0. -1.
    10030    2    1    2    0    0  0.00000000000E+00  0.00000000000E+00 -0.14273337606E+03  0.91162083239E+03  0.90037754604E+03 0.  0.
        1    1    3    3  502    0 -0.35793654262E+03  0.62786308120E+02  0.19767548423E+03  0.41368621698E+03  0.50400001928E-02 0.  1.
       -1    1    3    3    0  502  0.35793654262E+03 -0.62786308120E+02 -0.34040886030E+03  0.49793461541E+03  0.50400001928E-02 0. -1.
</event>
<event>
 5   0  0.2308362E-04  0.9001875E+03  0.7818609E-02  0.9425347E-01
        1   -1    0    0  501    0  0.00000000000E+00  0.00000000000E+00  0.41246014092E+03  0.41246014096E+03  0.50400001928E-02 0.  1.
       -1   -1    0    0    0  501  0.00000000000E+00  0.00000000000E+00 -0.49116107939E+03  0.49116107942E+03  0.50400001928E-02 0. -1.
    10030    2    1    2    0    0  0.00000000000E+00  0.00000000000E+00 -0.78700938466E+02  0.90362122037E+03  0.90018746503E+03 0.  0.
        1    1    3    3  502    0  0.33064965102E+03 -0.10226494342E+02  0.26701955927E+03  0.42512729618E+03  0.50400001928E-02 0. -1.
       -1    1    3    3    0  502 -0.33064965102E+03  0.10226494342E+02 -0.34572049774E+03  0.47849392419E+03  0.50400001928E-02 0.  1.
</event>
<event>
 5   0  0.4033144E-04  0.9004690E+03  0.7818609E-02  0.9424995E-01
       -2   -1    0    0    0  501  0.00000000000E+00  0.00000000000E+00  0.41604586269E+03  0.41604586269E+03  0.25500000920E-02 0.  1.
        2   -1    0    0  501    0  0.00000000000E+00  0.00000000000E+00 -0.48723264713E+03  0.48723264714E+03  0.25500000920E-02 0. -1.
    10030    2    1    2    0    0  0.00000000000E+00  0.00000000000E+00 -0.71186784445E+02  0.90327850983E+03  0.90046904891E+03 0.  0.
        4    1    3    3  502    0 -0.14932246508E+03  0.31370095178E+03  0.25166351601E+03  0.42900072717E+03  0.12699999809E+01 0.  1.
       -4    1    3    3    0  502  0.14932246508E+03 -0.31370095178E+03 -0.32285030045E+03  0.47427778266E+03  0.12699999809E+01 0. -1.
</event>
<event>
 5   0  0.4033144E-04  0.8992784E+03  0.7818609E-02  0.9426484E-01
        2   -1    0    0  501    0  0.00000000000E+00  0.00000000000E+00  0.15789630579E+04  0.15789630579E+04  0.25500000920E-02 0.  1.
       -2   -1    0    0    0  501  0.00000000000E+00  0.00000000000E+00 -0.12804316000E+03  0.12804316002E+03  0.25500000920E-02 0. -1.
    10030    2    1    2    0    0  0.00000000000E+00  0.00000000000E+00  0.14509198979E+04  0.17070062179E+04  0.89927842068E+03 0.  0.
        4    1    3    3  502    0 -0.91543976690E+02 -0.10990736817E+03 -0.83701118425E+02  0.16573297612E+03  0.12699999809E+01 0. -1.
       -4    1    3    3    0  502  0.91543976690E+02  0.10990736817E+03  0.15346210163E+04  0.15412732418E+04  0.12699999809E+01 0.  1.
</event>
<event>
 5   0  0.4243516E-04  0.9004216E+03  0.7818609E-02  0.9425055E-01
       -2   -1    0    0    0  501  0.00000000000E+00  0.00000000000E+00  0.40504245674E+03  0.40504245675E+03  0.25500000920E-02 0. -1.
        2   -1    0    0  501    0  0.00000000000E+00  0.00000000000E+00 -0.50041608923E+03  0.50041608924E+03  0.25500000920E-02 0.  1.
    10030    2    1    2    0    0  0.00000000000E+00  0.00000000000E+00 -0.95373632490E+02  0.90545854599E+03  0.90042159499E+03 0.  0.
        1    1    3    3  502    0  0.12388992418E+03  0.43280878883E+03 -0.51905658531E+02  0.45317365150E+03  0.50400001928E-02 0. -1.
       -1    1    3    3    0  502 -0.12388992418E+03 -0.43280878883E+03 -0.43467973959E+02  0.45228489449E+03  0.50400001928E-02 0.  1.
</event>
<event>
 5   0  0.1596250E-04  0.9000771E+03  0.7818609E-02  0.9425485E-01
        4   -1    0    0  501    0  0.00000000000E+00  0.00000000000E+00  0.24294341530E+03  0.24294673477E+03  0.12699999809E+01 0. -1.
       -4   -1    0    0    0  501  0.00000000000E+00  0.00000000000E+00 -0.83366067255E+03  0.83366163991E+03  0.12699999809E+01 0.  1.
    10030    2    1    2    0    0  0.00000000000E+00  0.00000000000E+00 -0.59071725726E+03  0.10766083747E+04  0.90007706027E+03 0.  0.
        2    1    3    3  502    0  0.29184514544E+03 -0.15015334192E+03  0.72954102401E+02  0.33621706690E+03  0.25500000920E-02 0. -1.
       -2    1    3    3    0  502 -0.29184514544E+03  0.15015334192E+03 -0.66367135966E+03  0.74039130779E+03  0.25500000920E-02 0.  1.
</event>
<event>
 5   0  0.2450427E-04  0.8986179E+03  0.7818609E-02  0.9427311E-01
       -1   -1    0    0    0  501  0.00000000000E+00  0.00000000000E+00  0.33426119373E+03  0.33426119377E+03  0.50400001928E-02 0. -1.
        1   -1    0    0  501    0  0.00000000000E+00  0.00000000000E+00 -0.60395442949E+03  0.60395442951E+03  0.50400001928E-02 0.  1.
    10030    2    1    2    0    0  0.00000000000E+00  0.00000000000E+00 -0.26969323575E+03  0.93821562328E+03  0.89861789118E+03 0.  0.
        3    1    3    3  502    0  0.33126897840E+03 -0.18197470400E+02 -0.45119703928E+03  0.56004380403E+03  0.10100000352E+00 0.  1.
       -3    1    3    3    0  502 -0.33126897840E+03  0.18197470400E+02  0.18150380353E+03  0.37817181925E+03  0.10100000352E+00 0. -1.
</event>
<event>
 5   0  0.2308362E-04  0.8988331E+03  0.7818609E-02  0.9427041E-01
        1   -1    0    0  501    0  0.00000000000E+00  0.00000000000E+00  0.89892740860E+03  0.89892740862E+03  0.50400001928E-02 0. -1.
       -1   -1    0    0    0  501  0.00000000000E+00  0.00000000000E+00 -0.22468468640E+03  0.22468468646E+03  0.50400001928E-02 0.  1.
    10030    2    1    2    0    0  0.00000000000E+00  0.00000000000E+00  0.67424272220E+03  0.11236120951E+04  0.89883307224E+03 0.  0.
        1    1    3    3  502    0 -0.37551428176E+02  0.35808351211E+03  0.67334678575E+03  0.76356388423E+03  0.50400001928E-02 0. -1.
       -1    1    3    3    0  502  0.37551428176E+02 -0.35808351211E+03  0.89593645424E+00  0.36004821084E+03  0.50400001928E-02 0.  1.
</event>
<event>
 5   0  0.4236284E-04  0.8992742E+03  0.7818609E-02  0.9426489E-01
       -2   -1    0    0    0  501  0.00000000000E+00  0.00000000000E+00  0.42331903882E+03  0.42331903883E+03  0.25500000920E-02 0.  1.
        2   -1    0    0  501    0  0.00000000000E+00  0.00000000000E+00 -0.47759138217E+03  0.47759138218E+03  0.25500000920E-02 0. -1.
    10030    2    1    2    0    0  0.00000000000E+00  0.00000000000E+00 -0.54272343347E+02  0.90091042101E+03  0.89927420703E+03 0.  0.
        2    1    3    3  502    0 -0.71140970201E+02 -0.44330968879E+03 -0.51449796726E+02  0.45191990375E+03  0.25500000920E-02 0.  1.
       -2    1    3    3    0  502  0.71140970201E+02  0.44330968879E+03 -0.28225466205E+01  0.44899051726E+03  0.25500000920E-02 0. -1.
</event>
<event>
 5   0  0.2356918E-04  0.9003091E+03  0.7818609E-02  0.9425195E-01
       -1   -1    0    0    0  501  0.00000000000E+00  0.00000000000E+00  0.37064913846E+03  0.37064913849E+03  0.50400001928E-02 0.  1.
        1   -1    0    0  501    0  0.00000000000E+00  0.00000000000E+00 -0.54671412494E+03  0.54671412497E+03  0.50400001928E-02 0. -1.
    10030    2    1    2    0    0  0.00000000000E+00  0.00000000000E+00 -0.17606498649E+03  0.91736326346E+03  0.90030910119E+03 0.  0.
        5    1    3    3  502    0 -0.43213100747E+03 -0.82874569445E+02  0.86953091650E+01  0.44011714381E+03  0.46999998093E+01 0.  1.
       -5    1    3    3    0  502  0.43213100747E+03  0.82874569445E+02 -0.18476029565E+03  0.47724611965E+03  0.46999998093E+01 0. -1.
</event>
<event>
 5   0  0.2308362E-04  0.8998660E+03  0.7818609E-02  0.9425749E-01
       -1   -1    0    0    0  501  0.00000000000E+00  0.00000000000E+00  0.37272405238E+03  0.37272405241E+03  0.50400001928E-02 0. -1.
        1   -1    0    0  501    0  0.00000000000E+00  0.00000000000E+00 -0.54313564531E+03  0.54313564533E+03  0.50400001928E-02 0.  1.
    10030    2    1    2    0    0  0.00000000000E+00  0.00000000000E+00 -0.17041159293E+03  0.91585969775E+03  0.89986603167E+03 0.  0.
        1    1    3    3  502    0  0.79170104822E+02  0.40668793321E+03 -0.26375683690E+03  0.49115236898E+03  0.50400001928E-02 0.  1.
       -1    1    3    3    0  502 -0.79170104822E+02 -0.40668793321E+03  0.93345243971E+02  0.42470732877E+03  0.50400001928E-02 0. -1.
</event>
<event>
 5   0  0.2332791E-04  0.8999637E+03  0.7818609E-02  0.9425627E-01
       -1   -1    0    0    0  501  0.00000000000E+00  0.00000000000E+00  0.57367413645E+03  0.57367413647E+03  0.50400001928E-02 0.  1.
        1   -1    0    0  501    0  0.00000000000E+00  0.00000000000E+00 -0.35295936175E+03  0.35295936179E+03  0.50400001928E-02 0. -1.
    10030    2    1    2    0    0  0.00000000000E+00  0.00000000000E+00  0.22071477470E+03  0.92663349826E+03  0.89996368168E+03 0.  0.
        2    1    3    3  502    0  0.96970329594E+02 -0.90606856751E+02  0.55306519791E+03  0.56876529470E+03  0.25500000920E-02 0.  1.
       -2    1    3    3    0  502 -0.96970329594E+02  0.90606856751E+02 -0.33235042321E+03  0.35786820357E+03  0.25500000920E-02 0. -1.
</event>
<event>
 5   0  0.4236284E-04  0.8934428E+03  0.7818609E-02  0.9433816E-01
       -2   -1    0    0    0  501  0.00000000000E+00  0.00000000000E+00  0.10460125437E+03  0.10460125440E+03  0.25500000920E-02 0. -1.
        2   -1    0    0  501    0  0.00000000000E+00  0.00000000000E+00 -0.19078164834E+04  0.19078164834E+04  0.25500000920E-02 0.  1.
    10030    2    1    2    0    0  0.00000000000E+00  0.00000000000E+00 -0.18032152291E+04  0.20124177378E+04  0.89344277332E+03 0.  0.
        2    1    3    3  502    0  0.38294407433E+03  0.41543175329E+02 -0.14112147116E+04  0.14628393493E+04  0.25500000920E-02 0.  1.
       -2    1    3    3    0  502 -0.38294407433E+03 -0.41543175329E+02 -0.39200051744E+03  0.54957838855E+03  0.25500000920E-02 0. -1.
</event>
<event>
 5   0  0.3959804E-04  0.8999037E+03  0.7818609E-02  0.9425702E-01
       -2   -1    0    0    0  501  0.00000000000E+00  0.00000000000E+00  0.37962009049E+03  0.37962009050E+03  0.25500000920E-02 0. -1.
        2   -1    0    0  501    0  0.00000000000E+00  0.00000000000E+00 -0.53331386745E+03  0.53331386746E+03  0.25500000920E-02 0.  1.
    10030    2    1    2    0    0  0.00000000000E+00  0.00000000000E+00 -0.15369377696E+03  0.91293395796E+03  0.89990368069E+03 0.  0.
        5    1    3    3  502    0 -0.32086905847E+02 -0.41712025791E+03  0.91127442587E+02  0.42818825285E+03  0.46999998093E+01 0. -1.
       -5    1    3    3    0  502  0.32086905847E+02  0.41712025791E+03 -0.24482121955E+03  0.48474570511E+03  0.46999998093E+01 0.  1.
</event>
<event>
 5   0  0.2356918E-04  0.9009806E+03  0.7818609E-02  0.9424356E-01
       -1   -1    0    0    0  501  0.00000000000E+00  0.00000000000E+00  0.32956262594E+03  0.32956262598E+03  0.50400001928E-02 0. -1.
        1   -1    0    0  501    0  0.00000000000E+00  0.00000000000E+00 -0.61579048380E+03  0.61579048382E+03  0.50400001928E-02 0.  1.
    10030    2    1    2    0    0  0.00000000000E+00  0.00000000000E+00 -0.28622785786E+03  0.94535310980E+03  0.90098064107E+03 0.  0.
        5    1    3    3  502    0 -0.25885099071E+03  0.32502610033E+02  0.24220368396E+03  0.35601259749E+03  0.46999998093E+01 0. -1.
       -5    1    3    3    0  502  0.25885099071E+03 -0.32502610033E+02 -0.52843154183E+03  0.58934051230E+03  0.46999998093E+01 0.  1.
</event>
<event>
 5   0  0.2308362E-04  0.8987621E+03  0.7818609E-02  0.9427130E-01
       -1   -1    0    0    0  501  0.00000000000E+00  0.00000000000E+00  0.56839749275E+03  0.56839749277E+03  0.50400001928E-02 0. -1.
        1   -1    0    0  501    0  0.00000000000E+00  0.00000000000E+00 -0.35528536738E+03  0.35528536741E+03  0.50400001928E-02 0.  1.
    10030    2    1    2    0    0  0.00000000000E+00  0.00000000000E+00  0.21311212537E+03  0.92368286018E+03  0.89876206430E+03 0.  0.
        1    1    3    3  502    0 -0.68857508432E+02 -0.42691125350E+03  0.23221124520E+03  0.49083259596E+03  0.50400001928E-02 0. -1.
       -1    1    3    3    0  502  0.68857508432E+02  0.42691125350E+03 -0.19099119828E+02  0.43285026422E+03  0.50400001928E-02 0.  1.
</event>
<event>
 5   0  0.2450427E-04  0.9004604E+03  0.7818609E-02  0.9425006E-01
        1   -1    0    0  501    0  0.00000000000E+00  0.00000000000E+00  0.10791223017E+04  0.10791223017E+04  0.50400001928E-02 0. -1.
       -1   -1    0    0    0  501  0.00000000000E+00  0.00000000000E+00 -0.18784454175E+03  0.18784454182E+03  0.50400001928E-02 0.  1.
    10030    2    1    2    0    0  0.00000000000E+00  0.00000000000E+00  0.89127775991E+03  0.12669668435E+04  0.90046040290E+03 0.  0.
        3    1    3    3  502    0  0.30317016222E+03 -0.82362558068E+02 -0.81368666932E+01  0.31426415168E+03  0.10100000352E+00 0.  1.
       -3    1    3    3    0  502 -0.30317016222E+03  0.82362558068E+02  0.89941462661E+03  0.95270269181E+03  0.10100000352E+00 0. -1.
</event>
<event>
 5   0  0.3959804E-04  0.9005555E+03  0.7818609E-02  0.9424887E-01
        2   -1    0    0  501    0  0.00000000000E+00  0.00000000000E+00  0.20427462917E+04  0.20427462917E+04  0.25500000920E-02 0.  1.
       -2   -1    0    0    0  501  0.00000000000E+00  0.00000000000E+00 -0.99253659356E+02  0.99253659388E+02  0.25500000920E-02 0. -1.
    10030    2    1    2    0    0  0.00000000000E+00  0.00000000000E+00  0.19434926324E+04  0.21419999511E+04  0.90055548330E+03 0.  0.
        5    1    3    3  502    0  0.47255880817E+02 -0.40005806407E+03  0.49338113936E+03  0.63696672721E+03  0.46999998093E+01 0. -1.
       -5    1    3    3    0  502 -0.47255880817E+02  0.40005806407E+03  0.14501114930E+04  0.15050332239E+04  0.46999998093E+01 0.  1.
</event>
<event>
 5   0  0.2356918E-04  0.9003831E+03  0.7818609E-02  0.9425103E-01
       -1   -1    0    0    0  501  0.00000000000E+00  0.00000000000E+00  0.11728392715E+03  0.11728392726E+03  0.50400001928E-02 0.  1.
        1   -1    0    0  501    0  0.00000000000E+00  0.00000000000E+00 -0.17280496212E+04  0.17280496212E+04  0.50400001928E-02 0. -1.
    10030    2    1    2    0    0  0.00000000000E+00  0.00000000000E+00 -0.16107656940E+04  0.18453335484E+04  0.90038313175E+03 0.  0.
        5    1    3    3  502    0  0.71908955061E+02 -0.11343724929E+03 -0.16859791186E+04  0.16913268713E+04  0.46999998093E+01 0. -1.
       -5    1    3    3    0  502 -0.71908955061E+02  0.11343724929E+03  0.75213424605E+02  0.15400667708E+03  0.46999998093E+01 0.  1.
</event>
<event>
 5   0  0.4236284E-04  0.8999352E+03  0.7818609E-02  0.9425662E-01
       -2   -1    0    0    0  501  0.00000000000E+00  0.00000000000E+00  0.42192847724E+03  0.42192847724E+03  0.25500000920E-02 0. -1.
        2   -1    0    0  501    0  0.00000000000E+00  0.00000000000E+00 -0.47987009161E+03  0.47987009162E+03  0.25500000920E-02 0.  1.
    10030    2    1    2    0    0  0.00000000000E+00  0.00000000000E+00 -0.57941614376E+02  0.90179856886E+03  0.89993523552E+03 0.  0.
        2    1    3    3  502    0  0.20141433586E+02  0.38388222337E+03 -0.26333455437E+03  0.46595742971E+03  0.25500000920E-02 0.  1.
       -2    1    3    3    0  502 -0.20141433586E+02 -0.38388222337E+03  0.20539294000E+03  0.43584113915E+03  0.25500000920E-02 0. -1.
</event>
<event>
 5   0  0.4236284E-04  0.9001538E+03  0.7818609E-02  0.9425389E-01
       -2   -1    0    0    0  501  0.00000000000E+00  0.00000000000E+00  0.12044818552E+03  0.12044818554E+03  0.25500000920E-02 0. -1.
        2   -1    0    0  501    0  0.00000000000E+00  0.00000000000E+00 -0.16817953976E+04  0.16817953976E+04  0.25500000920E-02 0.  1.
    10030    2    1    2    0    0  0.00000000000E+00  0.00000000000E+00 -0.15613472121E+04  0.18022435832E+04  0.90015377370E+03 0.  0.
        2    1    3    3  502    0 -0.43325314353E+01  0.44423722880E+03 -0.92510235492E+03  0.10262455132E+04  0.25500000920E-02 0.  1.
       -2    1    3    3    0  502  0.43325314353E+01 -0.44423722880E+03 -0.63624485717E+03  0.77599806995E+03  0.25500000920E-02 0. -1.
</event>
<event>
 5   0  0.3959804E-04  0.9069613E+03  0.7818609E-02  0.9416921E-01
        2   -1    0    0  501    0  0.00000000000E+00  0.00000000000E+00  0.43911601018E+03  0.43911601018E+03  0.25500000920E-02 0.  1.
       -2   -1    0    0    0  501  0.00000000000E+00  0.00000000000E+00 -0.46831518541E+03  0.46831518542E+03  0.25500000920E-02 0. -1.
    10030    2    1    2    0    0  0.00000000000E+00  0.00000000000E+00 -0.29199175232E+02  0.90743119560E+03  0.90696129075E+03 0.  0.
        5    1    3    3  502    0 -0.19246133559E+03 -0.41054601566E+03 -0.88338719506E+01  0.45353006953E+03  0.46999998093E+01 0.  1.
       -5    1    3    3    0  502  0.19246133559E+03  0.41054601566E+03 -0.20365303282E+02  0.45390112607E+03  0.46999998093E+01 0. -1.
</event>
<event>
 5   0  0.4243516E-04  0.8997696E+03  0.7818609E-02  0.9425869E-01
        2   -1    0    0  501    0  0.00000000000E+00  0.00000000000E+00  0.34323634872E+03  0.34323634873E+03  0.25500000920E-02 0.  1.
       -2   -1    0    0    0  501  0.00000000000E+00  0.00000000000E+00 -0.58967047472E+03  0.58967047473E+03  0.25500000920E-02 0. -1.
    10030    2    1    2    0    0  0.00000000000E+00  0.00000000000E+00 -0.24643412600E+03  0.93290682346E+03  0.89976961651E+03 0.  0.
        1    1    3    3  502    0  0.13115391099E+03 -0.38045867192E+03 -0.33173612443E+03  0.52153523916E+03  0.50400001928E-02 0.  1.
       -1    1    3    3    0  502 -0.13115391099E+03  0.38045867192E+03  0.85301998434E+02  0.41137158430E+03  0.50400001928E-02 0. -1.
</event>
<event>
 5   0  0.4236284E-04  0.9000221E+03  0.7818609E-02  0.9425554E-01
       -2   -1    0    0    0  501  0.00000000000E+00  0.00000000000E+00  0.30876727937E+03  0.30876727938E+03  0.25500000920E-02 0. -1.
        2   -1    0    0  501    0  0.00000000000E+00  0.00000000000E+00 -0.65586591156E+03  0.65586591156E+03  0.25500000920E-02 0.  1.
    10030    2    1    2    0    0  0.00000000000E+00  0.00000000000E+00 -0.34709863219E+03  0.96463319094E+03  0.90002207339E+03 0.  0.
        2    1    3    3  502    0 -0.90468514818E+02  0.27937650909E+03 -0.53901838056E+03  0.61382130998E+03  0.25500000920E-02 0.  1.
       -2    1    3    3    0  502  0.90468514818E+02 -0.27937650909E+03  0.19191974836E+03  0.35081188096E+03  0.25500000920E-02 0. -1.
</event>
<event>
 5   0  0.4243516E-04  0.9002825E+03  0.7818609E-02  0.9425228E-01
        2   -1    0    0  501    0  0.00000000000E+00  0.00000000000E+00  0.87513000059E+03  0.87513000059E+03  0.25500000920E-02 0. -1.
       -2   -1    0    0    0  501  0.00000000000E+00  0.00000000000E+00 -0.23153948820E+03  0.23153948821E+03  0.25500000920E-02 0.  1.
    10030    2    1    2    0    0  0.00000000000E+00  0.00000000000E+00  0.64359051239E+03  0.11066694888E+04  0.90028251667E+03 0.  0.
        1    1    3    3  502    0  0.39767395792E+03 -0.54045138920E+02  0.71192545464E+02  0.40759518202E+03  0.50400001928E-02 0. -1.
       -1    1    3    3    0  502 -0.39767395792E+03  0.54045138920E+02  0.57239796692E+03  0.69907430679E+03  0.50400001928E-02 0.  1.
</event>
<event>
 5   0  0.2351435E-04  0.8999322E+03  0.7818609E-02  0.9425666E-01
       -1   -1    0    0    0  501  0.00000000000E+00  0.00000000000E+00  0.28888214465E+03  0.28888214469E+03  0.50400001928E-02 0. -1.
        1   -1    0    0  501    0  0.00000000000E+00  0.00000000000E+00 -0.70087224370E+03  0.70087224371E+03  0.50400001928E-02 0.  1.
    10030    2    1    2    0    0  0.00000000000E+00  0.00000000000E+00 -0.41199009905E+03  0.98975438841E+03  0.89993216837E+03 0.  0.
        4    1    3    3  502    0  0.34948097386E+03  0.16748319516E+01  0.10571544815E+03  0.36512617687E+03  0.12699999809E+01 0. -1.
       -4    1    3    3    0  502 -0.34948097386E+03 -0.16748319516E+01 -0.51770554720E+03  0.62462821154E+03  0.12699999809E+01 0.  1.
</event>
<event>
 5   0  0.2351435E-04  0.8999866E+03  0.7818609E-02  0.9425598E-01
        1   -1    0    0  501    0  0.00000000000E+00  0.00000000000E+00  0.46065025278E+03  0.46065025280E+03  0.50400001928E-02 0.  1.
       -1   -1    0    0    0  501  0.00000000000E+00  0.00000000000E+00 -0.43958288741E+03  0.43958288744E+03  0.50400001928E-02 0. -1.
    10030    2    1    2    0    0  0.00000000000E+00  0.00000000000E+00  0.21067365364E+02  0.90023314025E+03  0.89998659596E+03 0.  0.
        4    1    3    3  502    0  0.30732310588E+03  0.21563382364E+03 -0.23762079186E+03  0.44430922895E+03  0.12699999809E+01 0. -1.
       -4    1    3    3    0  502 -0.30732310588E+03 -0.21563382364E+03  0.25868815722E+03  0.45592391130E+03  0.12699999809E+01 0.  1.
</event>
<event>
 5   0  0.2351435E-04  0.9001177E+03  0.7818609E-02  0.9425434E-01
       -1   -1    0    0    0  501  0.00000000000E+00  0.00000000000E+00  0.39259024100E+03  0.39259024104E+03  0.50400001928E-02 0.  1.
        1   -1    0    0  501    0  0.00000000000E+00  0.00000000000E+00 -0.51593994079E+03  0.51593994081E+03  0.50400001928E-02 0. -1.
    10030    2    1    2    0    0  0.00000000000E+00  0.00000000000E+00 -0.12334969978E+03  0.90853018185E+03  0.90011773835E+03 0.  0.
        4    1    3    3  502    0  0.19906726098E+03 -0.16262750131E+03 -0.43455392561E+03  0.50489029080E+03  0.12699999809E+01 0. -1.
       -4    1    3    3    0  502 -0.19906726098E+03  0.16262750131E+03  0.31120422583E+03  0.40363989105E+03  0.12699999809E+01 0.  1.
</event>
<event>
 5   0  0.4033144E-04  0.8995819E+03  0.7818609E-02  0.9426104E-01
        2   -1    0    0  501    0  0.00000000000E+00  0.00000000000E+00  0.93052246696E+03  0.93052246697E+03  0.25500000920E-02 0.  1.
       -2   -1    0    0    0  501  0.00000000000E+00  0.00000000000E+00 -0.21741750924E+03  0.21741750925E+03  0.25500000920E-02 0. -1.
    10030    2    1    2    0    0  0.00000000000E+00  0.00000000000E+00  0.71310495772E+03  0.11479399762E+04  0.89958185190E+03 0.  0.
        4    1    3    3  502    0 -0.38492732033E+03 -0.22665180296E+03  0.28938907767E+03  0.53224781155E+03  0.12699999809E+01 0.  1.
       -4    1    3    3    0  502  0.38492732033E+03  0.22665180296E+03  0.42371588005E+03  0.61569216467E+03  0.12699999809E+01 0. -1.
</event>
<event>
 5   0  0.2356918E-04  0.9008762E+03  0.7818609E-02  0.9424487E-01
        1   -1    0    0  501    0  0.00000000000E+00  0.00000000000E+00  0.68269829222E+03  0.68269829224E+03  0.50400001928E-02 0. -1.
       -1   -1    0    0    0  501  0.00000000000E+00  0.00000000000E+00 -0.29719496482E+03  0.29719496487E+03  0.50400001928E-02 0.  1.
    10030    2    1    2    0    0  0.00000000000E+00  0.00000000000E+00  0.38550332740E+03  0.97989325711E+03  0.90087622895E+03 0.  0.
        5    1    3    3  502    0 -0.33281460091E+03  0.19381037337E+03 -0.61280477371E+02  0.39000693110E+03  0.46999998093E+01 0.  1.
       -5    1    3    3    0  502  0.33281460091E+03 -0.19381037337E+03  0.44678380477E+03  0.58988632601E+03  0.46999998093E+01 0. -1.
</event>
<event>
 5   0  0.2332791E-04  0.8997811E+03  0.7818609E-02  0.9425855E-01
        1   -1    0    0  501    0  0.00000000000E+00  0.00000000000E+00  0.27162325838E+03  0.27162325842E+03  0.50400001928E-02 0.  1.
       -1   -1    0    0    0  501  0.00000000000E+00  0.00000000000E+00 -0.74515534853E+03  0.74515534855E+03  0.50400001928E-02 0. -1.
    10030    2    1    2    0    0  0.00000000000E+00  0.00000000000E+00 -0.47353209015E+03  0.10167786070E+04  0.89978113738E+03 0.  0.
        2    1    3    3  502    0  0.27070666559E+03 -0.29133604732E+03  0.92372281405E+00  0.39769290230E+03  0.25500000920E-02 0.  1.
       -2    1    3    3    0  502 -0.27070666559E+03  0.29133604732E+03 -0.47445581297E+03  0.61908570467E+03  0.25500000920E-02 0. -1.
</event>
<event>
 5   0  0.2351435E-04  0.9001644E+03  0.7818609E-02  0.9425376E-01
       -1   -1    0    0    0  501  0.00000000000E+00  0.00000000000E+00  0.43008514273E+03  0.43008514276E+03  0.50400001928E-02 0.  1.
        1   -1    0    0  501    0  0.00000000000E+00  0.00000000000E+00 -0.47100908243E+03  0.47100908245E+03  0.50400001928E-02 0. -1.
    10030    2    1    2    0    0  0.00000000000E+00  0.00000000000E+00 -0.40923939695E+02  0.90109422521E+03  0.90016444824E+03 0.  0.
        4    1    3    3  502    0 -0.41893014889E+03  0.55345980726E+02 -0.17556312052E+03  0.45759115968E+03  0.12699999809E+01 0.  1.
       -4    1    3    3    0  502  0.41893014889E+03 -0.55345980726E+02  0.13463918082E+03  0.44350306554E+03  0.12699999809E+01 0. -1.
</event>
<event>
 5   0  0.2351435E-04  0.8999281E+03  0.7818609E-02  0.9425671E-01
       -1   -1    0    0    0  501  0.00000000000E+00  0.00000000000E+00  0.34289394085E+03  0.34289394088E+03  0.50400001928E-02 0. -1.
        1   -1    0    0  501    0  0.00000000000E+00  0.00000000000E+00 -0.59046721954E+03  0.59046721956E+03  0.50400001928E-02 0.  1.
    10030    2    1    2    0    0  0.00000000000E+00  0.00000000000E+00 -0.24757327869E+03  0.93336116044E+03  0.89992806796E+03 0.  0.
        4    1    3    3  502    0 -0.17405875600E+03  0.26654323143E+02 -0.55324614220E+03  0.58059435947E+03  0.12699999809E+01 0.  1.
       -4    1    3    3    0  502  0.17405875600E+03 -0.26654323143E+02  0.30567286351E+03  0.35276680098E+03  0.12699999809E+01 0. -1.
</event>
<event>
 5   0  0.4110039E-04  0.8991457E+03  0.7818609E-02  0.9426650E-01
        2   -1    0    0  501    0  0.00000000000E+00  0.00000000000E+00  0.10992550324E+04  0.10992550324E+04  0.25500000920E-02 0.  1.
       -2   -1    0    0    0  501  0.00000000000E+00  0.00000000000E+00 -0.18386612915E+03  0.18386612916E+03  0.25500000920E-02 0. -1.
    10030    2    1    2    0    0  0.00000000000E+00  0.00000000000E+00  0.91538890323E+03  0.12831211615E+04  0.89914574516E+03 0.  0.
        3    1    3    3  502    0 -0.64946327007E+02 -0.34865265201E+03  0.85198010883E+03  0.92284712341E+03  0.10100000352E+00 0.  1.
       -3    1    3    3    0  502  0.64946327007E+02  0.34865265201E+03  0.63408794405E+02  0.36027403814E+03  0.10100000352E+00 0. -1.
</event>
<event>
 5   0  0.2332791E-04  0.9003134E+03  0.7818609E-02  0.9425190E-01
        1   -1    0    0  501    0  0.00000000000E+00  0.00000000000E+00  0.97786995505E+03  0.97786995506E+03  0.50400001928E-02 0. -1.
       -1   -1    0    0    0  501  0.00000000000E+00  0.00000000000E+00 -0.20722700789E+03  0.20722700795E+03  0.50400001928E-02 0.  1.
    10030    2    1    2    0    0  0.00000000000E+00  0.00000000000E+00  0.77064294716E+03  0.11850969630E+04  0.90031342306E+03 0.  0.
        2    1    3    3  502    0  0.49933162414E+02 -0.31292056838E+02  0.97277097870E+03  0.97455420092E+03  0.25500000920E-02 0. -1.
       -2    1    3    3    0  502 -0.49933162414E+02  0.31292056838E+02 -0.20212803154E+03  0.21054276209E+03  0.25500000920E-02 0.  1.
</event>
<event>
 5   0  0.4110039E-04  0.9003545E+03  0.7818609E-02  0.9425138E-01
        2   -1    0    0  501    0  0.00000000000E+00  0.00000000000E+00  0.65943552091E+03  0.65943552091E+03  0.25500000920E-02 0. -1.
       -2   -1    0    0    0  501  0.00000000000E+00  0.00000000000E+00 -0.30732276149E+03  0.30732276150E+03  0.25500000920E-02 0.  1.
    10030    2    1    2    0    0  0.00000000000E+00  0.00000000000E+00  0.35211275942E+03  0.96675828241E+03  0.90035447534E+03 0.  0.
        3    1    3    3  502    0  0.31790063820E+03 -0.70760287853E+02  0.50977026776E+03  0.60492443346E+03  0.10100000352E+00 0. -1.
       -3    1    3    3    0  502 -0.31790063820E+03  0.70760287853E+02 -0.15765750834E+03  0.36183384895E+03  0.10100000352E+00 0.  1.
</event>
<event>
 5   0  0.2356918E-04  0.9002414E+03  0.7818609E-02  0.9425280E-01
       -1   -1    0    0    0  501  0.00000000000E+00  0.00000000000E+00  0.29248662337E+03  0.29248662342E+03  0.50400001928E-02 0. -1.
        1   -1    0    0  501    0  0.00000000000E+00  0.00000000000E+00 -0.69271075337E+03  0.69271075339E+03  0.50400001928E-02 0.  1.
    10030    2    1    2    0    0  0.00000000000E+00  0.00000000000E+00 -0.40022413000E+03  0.98519737681E+03  0.90024136599E+03 0.  0.
        5    1    3    3  502    0 -0.19093607778E+03 -0.40043520094E+03 -0.28332453762E+03  0.52640271615E+03  0.46999998093E+01 0. -1.
       -5    1    3    3    0  502  0.19093607778E+03  0.40043520094E+03 -0.11689959238E+03  0.45879466066E+03  0.46999998093E+01 0.  1.
</event>
<event>
 5   0  0.4110039E-04  0.8999427E+03  0.7818609E-02  0.9425653E-01
        2   -1    0    0  501    0  0.00000000000E+00  0.00000000000E+00  0.52279203327E+03  0.52279203328E+03  0.25500000920E-02 0.  1.
       -2   -1    0    0    0  501  0.00000000000E+00  0.00000000000E+00 -0.38729403045E+03  0.38729403046E+03  0.25500000920E-02 0. -1.
    10030    2    1    2    0    0  0.00000000000E+00  0.00000000000E+00  0.13549800282E+03  0.91008606374E+03  0.89994273964E+03 0.  0.
        3    1    3    3  502    0  0.21431962998E+03  0.25080240191E+03 -0.24170569003E+03  0.40896992480E+03  0.10100000352E+00 0. -1.
       -3    1    3    3    0  502 -0.21431962998E+03 -0.25080240191E+03  0.37720369285E+03  0.50111613893E+03  0.10100000352E+00 0.  1.
</event>
<event>
 5   0  0.2308362E-04  0.8999888E+03  0.7818609E-02  0.9425595E-01
        1   -1    0    0  501    0  0.00000000000E+00  0.00000000000E+00  0.31541012254E+04  0.31541012254E+04  0.50400001928E-02 0. -1.
       -1   -1    0    0    0  501  0.00000000000E+00  0.00000000000E+00 -0.64200521692E+02  0.64200521890E+02  0.50400001928E-02 0.  1.
    10030    2    1    2    0    0  0.00000000000E+00  0.00000000000E+00  0.30899007037E+04  0.32183017473E+04  0.89998876540E+03 0.  0.
        1    1    3    3  502    0  0.43000507805E+03 -0.90307850920E+02  0.11976044164E+04  0.12756630485E+04  0.50400001928E-02 0. -1.
       -1    1    3    3    0  502 -0.43000507805E+03  0.90307850920E+02  0.18922962873E+04  0.19426386988E+04  0.50400001928E-02 0.  1.
</event>
<event>
 5   0  0.2356918E-04  0.8997068E+03  0.7818609E-02  0.9425948E-01
       -1   -1    0    0    0  501  0.00000000000E+00  0.00000000000E+00  0.45448857633E+03  0.45448857636E+03  0.50400001928E-02 0. -1.
        1   -1    0    0  501    0  0.00000000000E+00  0.00000000000E+00 -0.44526546973E+03  0.44526546975E+03  0.50400001928E-02 0.  1.
    10030    2    1    2    0    0  0.00000000000E+00  0.00000000000E+00  0.92231066087E+01  0.89975404612E+03  0.89970677324E+03 0.  0.
        5    1    3    3  502    0 -0.24095240899E+03  0.26664614319E+03 -0.26593500742E+03  0.44710373209E+03  0.46999998093E+01 0.  1.
       -5    1    3    3    0  502  0.24095240899E+03 -0.26664614319E+03  0.27515811403E+03  0.45265031403E+03  0.46999998093E+01 0. -1.
</event>
<event>
 5   0  0.3959804E-04  0.9000458E+03  0.7818609E-02  0.9425524E-01
       -2   -1    0    0    0  501  0.00000000000E+00  0.00000000000E+00  0.37474610354E+03  0.37474610355E+03  0.25500000920E-02 0. -1.
        2   -1    0    0  501    0  0.00000000000E+00  0.00000000000E+00 -0.54042087532E+03  0.54042087533E+03  0.25500000920E-02 0.  1.
    10030    2    1    2    0    0  0.00000000000E+00  0.00000000000E+00 -0.16567477178E+03  0.91516697888E+03  0.90004581507E+03 0.  0.
        5    1    3    3  502    0 -0.38188461632E+03  0.15307788262E+03  0.10251568155E+03  0.42402859962E+03  0.46999998093E+01 0.  1.
       -5    1    3    3    0  502  0.38188461632E+03 -0.15307788262E+03 -0.26819045333E+03  0.49113837926E+03  0.46999998093E+01 0. -1.
</event>
<event>
 5   0  0.2308362E-04  0.8998962E+03  0.7818609E-02  0.9425711E-01
       -1   -1    0    0    0  501  0.00000000000E+00  0.00000000000E+00  0.14490857886E+03  0.14490857895E+03  0.50400001928E-02 0.  1.
        1   -1    0    0  501    0  0.00000000000E+00  0.00000000000E+00 -0.13971105877E+04  0.13971105877E+04  0.50400001928E-02 0. -1.
    10030    2    1    2    0    0  0.00000000000E+00  0.00000000000E+00 -0.12522020088E+04  0.15420191667E+04  0.89989623814E+03 0.  0.
        1    1    3    3  502    0  0.25169304435E+02  0.59705781274E+02  0.13687248680E+03  0.15143431537E+03  0.50400001928E-02 0.  1.
       -1    1    3    3    0  502 -0.25169304435E+02 -0.59705781274E+02 -0.13890744956E+04  0.13905848513E+04  0.50400001928E-02 0. -1.
</event>
<event>
 5   0  0.2332791E-04  0.8999315E+03  0.7818609E-02  0.9425667E-01
       -1   -1    0    0    0  501  0.00000000000E+00  0.00000000000E+00  0.44148749459E+03  0.44148749462E+03  0.50400001928E-02 0.  1.
        1   -1    0    0  501    0  0.00000000000E+00  0.00000000000E+00 -0.45860679504E+03  0.45860679507E+03  0.50400001928E-02 0. -1.
    10030    2    1    2    0    0  0.00000000000E+00  0.00000000000E+00 -0.17119300450E+02  0.90009428969E+03  0.89993147510E+03 0.  0.
        2    1    3    3  502    0 -0.35282170110E+03  0.27891719310E+03 -0.22390079806E+02  0.45031019204E+03  0.25500000920E-02 0. -1.
       -2    1    3    3    0  502  0.35282170110E+03 -0.27891719310E+03  0.52707793559E+01  0.44978409765E+03  0.25500000920E-02 0.  1.
</event>
<event>
 5   0  0.4236284E-04  0.9025923E+03  0.7818609E-02  0.9422347E-01
       -2   -1    0    0    0  501  0.00000000000E+00  0.00000000000E+00  0.48312938073E+03  0.48312938073E+03  0.25500000920E-02 0. -1.
        2   -1    0    0  501    0  0.00000000000E+00  0.00000000000E+00 -0.42156044284E+03  0.42156044285E+03  0.25500000920E-02 0.  1.
    10030    2    1    2    0    0  0.00000000000E+00  0.00000000000E+00  0.61568937888E+02  0.90468982358E+03  0.90259234584E+03 0.  0.
        2    1    3    3  502    0 -0.95526614646E+02  0.25092491422E+02  0.47216362726E+03  0.48238310308E+03  0.25500000920E-02 0. -1.
       -2    1    3    3    0  502  0.95526614646E+02 -0.25092491422E+02 -0.41059468937E+03  0.42230672049E+03  0.25500000920E-02 0.  1.
</event>
<event>
 5   0  0.4236284E-04  0.9000857E+03  0.7818609E-02  0.9425474E-01
        2   -1    0    0  501    0  0.00000000000E+00  0.00000000000E+00  0.10123259742E+04  0.10123259742E+04  0.25500000920E-02 0. -1.
       -2   -1    0    0    0  501  0.00000000000E+00  0.00000000000E+00 -0.20007247067E+03  0.20007247069E+03  0.25500000920E-02 0.  1.
    10030    2    1    2    0    0  0.00000000000E+00  0.00000000000E+00  0.81225350353E+03  0.12123984449E+04  0.90008568213E+03 0.  0.
        2    1    3    3  502    0 -0.37442999241E+03  0.87809065727E+02  0.91295134713E+02  0.39527591992E+03  0.25500000920E-02 0.  1.
       -2    1    3    3    0  502  0.37442999241E+03 -0.87809065727E+02  0.72095836882E+03  0.81712252497E+03  0.25500000920E-02 0. -1.
</event>
<event>
 5   0  0.4033144E-04  0.8994969E+03  0.7818609E-02  0.9426211E-01
       -2   -1    0    0    0  501  0.00000000000E+00  0.00000000000E+00  0.16009663901E+03  0.16009663903E+03  0.25500000920E-02 0.  1.
        2   -1    0    0  501    0  0.00000000000E+00  0.00000000000E+00 -0.12634473002E+04  0.12634473002E+04  0.25500000920E-02 0. -1.
    10030    2    1    2    0    0  0.00000000000E+00  0.00000000000E+00 -0.11033506611E+04  0.14235439392E+04  0.89949689568E+03 0.  0.
        4    1    3    3  502    0  0.30317981558E+03  0.22381948273E+03 -0.16318360008E+03  0.41066246683E+03  0.12699999809E+01 0.  1.
       -4    1    3    3    0  502 -0.30317981558E+03 -0.22381948273E+03 -0.94016706106E+03  0.10128814724E+04  0.12699999809E+01 0. -1.
</event>
<event>
 5   0  0.4243516E-04  0.8971366E+03  0.7818609E-02  0.9429168E-01
        2   -1    0    0  501    0  0.00000000000E+00  0.00000000000E+00  0.37876204254E+03  0.37876204255E+03  0.25500000920E-02 0.  1.
       -2   -1    0    0    0  501  0.00000000000E+00  0.00000000000E+00 -0.53123994709E+03  0.53123994710E+03  0.25500000920E-02 0. -1.
    10030    2    1    2    0    0  0.00000000000E+00  0.00000000000E+00 -0.15247790455E+03  0.91000198964E+03  0.89713661712E+03 0.  0.
        1    1    3    3  502    0  0.42254865053E+02  0.38688241861E+03  0.15000683992E+03  0.41709175429E+03  0.50400001928E-02 0.  1.
       -1    1    3    3    0  502 -0.42254865053E+02 -0.38688241861E+03 -0.30248474448E+03  0.49291023535E+03  0.50400001928E-02 0. -1.
</event>
<event>
 5   0  0.1596250E-04  0.9010515E+03  0.7818609E-02  0.9424268E-01
        4   -1    0    0  501    0  0.00000000000E+00  0.00000000000E+00  0.85583515577E+03  0.85583609806E+03  0.12699999809E+01 0.  1.
       -4   -1    0    0    0  501  0.00000000000E+00  0.00000000000E+00 -0.23716143852E+03  0.23716483892E+03  0.12699999809E+01 0. -1.
    10030    2    1    2    0    0  0.00000000000E+00  0.00000000000E+00  0.61867371725E+03  0.10930009370E+04  0.90105154116E+03 0.  0.
        4    1    3    3  502    0 -0.19734971464E+02 -0.34656458125E+03  0.65770069160E+03  0.74368561281E+03  0.12699999809E+01 0.  1.
       -4    1    3    3    0  502  0.19734971464E+02  0.34656458125E+03 -0.39026974351E+02  0.34931532417E+03  0.12699999809E+01 0. -1.
</event>
<event>
 5   0  0.4033144E-04  0.8998300E+03  0.7818609E-02  0.9425794E-01
        2   -1    0    0  501    0  0.00000000000E+00  0.00000000000E+00  0.13123539018E+04  0.13123539018E+04  0.25500000920E-02 0. -1.
       -2   -1    0    0    0  501  0.00000000000E+00  0.00000000000E+00 -0.15424461861E+03  0.15424461863E+03  0.25500000920E-02 0.  1.
    10030    2    1    2    0    0  0.00000000000E+00  0.00000000000E+00  0.11581092831E+04  0.14665985204E+04  0.89983004411E+03 0.  0.
        4    1    3    3  502    0  0.43312917117E+03 -0.11572114845E+03  0.64068089677E+03  0.78196284278E+03  0.12699999809E+01 0. -1.
       -4    1    3    3    0  502 -0.43312917117E+03  0.11572114845E+03  0.51742838638E+03  0.68463567760E+03  0.12699999809E+01 0.  1.
</event>
<event>
 5   0  0.4110039E-04  0.9004913E+03  0.7818609E-02  0.9424967E-01
       -2   -1    0    0    0  501  0.00000000000E+00  0.00000000000E+00  0.47038388158E+03  0.47038388158E+03  0.25500000920E-02 0. -1.
        2   -1    0    0  501    0  0.00000000000E+00  0.00000000000E+00 -0.43096958706E+03  0.43096958706E+03  0.25500000920E-02 0.  1.
    10030    2    1    2    0    0  0.00000000000E+00  0.00000000000E+00  0.39414294521E+02  0.90135346865E+03  0.90049130414E+03 0.  0.
        3    1    3    3  502    0  0.38404409314E+03 -0.54230052798E+02  0.24859696881E+03  0.46068560560E+03  0.10100000352E+00 0. -1.
       -3    1    3    3    0  502 -0.38404409314E+03  0.54230052798E+02 -0.20918267429E+03  0.44066786305E+03  0.10100000352E+00 0.  1.
</event>
<event>
 5   0  0.2356918E-04  0.9000013E+03  0.7818609E-02  0.9425580E-01
        1   -1    0    0  501    0  0.00000000000E+00  0.00000000000E+00  0.13401177403E+04  0.13401177403E+04  0.50400001928E-02 0. -1.
       -1   -1    0    0    0  501  0.00000000000E+00  0.00000000000E+00 -0.15110656709E+03  0.15110656718E+03  0.50400001928E-02 0.  1.
    10030    2    1    2    0    0  0.00000000000E+00  0.00000000000E+00  0.11890111732E+04  0.14912243074E+04  0.90000131400E+03 0.  0.
        5    1    3    3  502    0 -0.30624270482E+03 -0.16944615526E+03  0.10630984925E+04  0.11192395135E+04  0.46999998093E+01 0. -1.
       -5    1    3    3    0  502  0.30624270482E+03  0.16944615526E+03  0.12591268067E+03  0.37198479396E+03  0.46999998093E+01 0.  1.
</event>
<event>
 5   0  0.2356918E-04  0.8989873E+03  0.7818609E-02  0.9426848E-01
        1   -1    0    0  501    0  0.00000000000E+00  0.00000000000E+00  0.74211603271E+03  0.74211603273E+03  0.50400001928E-02 0.  1.
       -1   -1    0    0    0  501  0.00000000000E+00  0.00000000000E+00 -0.27225466195E+03  0.27225466199E+03  0.50400001928E-02 0. -1.
    10030    2    1    2    0    0  0.00000000000E+00  0.00000000000E+00  0.46986137077E+03  0.10143706947E+04  0.89898731836E+03 0.  0.
        5    1    3    3  502    0 -0.30667861760E+03  0.32228168248E+03  0.16263532786E+03  0.47369779103E+03  0.46999998093E+01 0. -1.
       -5    1    3    3    0  502  0.30667861760E+03 -0.32228168248E+03  0.30722604291E+03  0.54067290370E+03  0.46999998093E+01 0.  1.
</event>
<event>
 5   0  0.2450427E-04  0.9010964E+03  0.7818609E-02  0.9424212E-01
       -1   -1    0    0    0  501  0.00000000000E+00  0.00000000000E+00  0.12278518668E+03  0.12278518678E+03  0.50400001928E-02 0. -1.
        1   -1    0    0  501    0  0.00000000000E+00  0.00000000000E+00 -0.16532424427E+04  0.16532424427E+04  0.50400001928E-02 0.  1.
    10030    2    1    2    0    0  0.00000000000E+00  0.00000000000E+00 -0.15304572560E+04  0.17760276295E+04  0.90109640339E+03 0.  0.
        3    1    3    3  502    0  0.27883441754E+03  0.87566944868E+02 -0.89395031136E+02  0.30562736139E+03  0.10100000352E+00 0. -1.
       -3    1    3    3    0  502 -0.27883441754E+03 -0.87566944868E+02 -0.14410622249E+04  0.14704002681E+04  0.10100000352E+00 0.  1.
</event>
<event>
 5   0  0.3959804E-04  0.8992581E+03  0.7818609E-02  0.9426509E-01
       -2   -1    0    0    0  501  0.00000000000E+00  0.00000000000E+00  0.41819769033E+03  0.41819769033E+03  0.25500000920E-02 0. -1.
        2   -1    0    0  501    0  0.00000000000E+00  0.00000000000E+00 -0.48342280266E+03  0.48342280267E+03  0.25500000920E-02 0.  1.
    10030    2    1    2    0    0  0.00000000000E+00  0.00000000000E+00 -0.65225112336E+02  0.90162049300E+03  0.89925813764E+03 0.  0.
        5    1    3    3  502    0  0.44141483646E+03  0.75039037155E+02 -0.73540063003E+02  0.45377102795E+03  0.46999998093E+01 0.  1.
       -5    1    3    3    0  502 -0.44141483646E+03 -0.75039037155E+02  0.83149506677E+01  0.44784946505E+03  0.46999998093E+01 0. -1.
</event>
<event>
 5   0  0.2351435E-04  0.9000329E+03  0.7818609E-02  0.9425540E-01
       -1   -1    0    0    0  501  0.00000000000E+00  0.00000000000E+00  0.38377086843E+03  0.38377086846E+03  0.50400001928E-02 0. -1.
        1   -1    0    0  501    0  0.00000000000E+00  0.00000000000E+00 -0.52769719621E+03  0.52769719623E+03  0.50400001928E-02 0.  1.
    10030    2    1    2    0    0  0.00000000000E+00  0.00000000000E+00 -0.14392632778E+03  0.91146806470E+03  0.90003291336E+03 0.  0.
        4    1    3    3  502    0 -0.25128115049E+03  0.28906079491E+03  0.16729011704E+03  0.41795449024E+03  0.12699999809E+01 0. -1.
       -4    1    3    3    0  502  0.25128115049E+03 -0.28906079491E+03 -0.31121644482E+03  0.49351357446E+03  0.12699999809E+01 0.  1.
</event>
<event>
 5   0  0.4243516E-04  0.9026339E+03  0.7818609E-02  0.9422295E-01
        2   -1    0    0  501    0  0.00000000000E+00  0.00000000000E+00  0.55683977427E+03  0.55683977428E+03  0.25500000920E-02 0. -1.
       -2   -1    0    0    0  501  0.00000000000E+00  0.00000000000E+00 -0.36579102195E+03  0.36579102196E+03  0.25500000920E-02 0.  1.
    10030    2    1    2    0    0  0.00000000000E+00  0.00000000000E+00  0.19104875232E+03  0.92263079624E+03  0.90263390165E+03 0.  0.
        1    1    3    3  502    0  0.37177317442E+03 -0.12699106129E+00 -0.16601859357E+03  0.40715781066E+03  0.50400001928E-02 0.  1.
       -1    1    3    3    0  502 -0.37177317442E+03  0.12699106129E+00  0.35706734589E+03  0.51547298558E+03  0.50400001928E-02 0. -1.
</event>
<event>
 5   0  0.1596250E-04  0.9001154E+03  0.7818609E-02  0.9425437E-01
       -3   -1    0    0    0  501  0.00000000000E+00  0.00000000000E+00  0.44765362094E+03  0.44765363233E+03  0.10100000352E+00 0.  1.
        3   -1    0    0  501    0  0.00000000000E+00  0.00000000000E+00 -0.45247471216E+03  0.45247472343E+03  0.10100000352E+00 0. -1.
    10030    2    1    2    0    0  0.00000000000E+00  0.00000000000E+00 -0.48210912243E+01  0.90012835577E+03  0.90011544478E+03 0.  0.
        4    1    3    3  502    0  0.43226311987E+03  0.16716452618E+02 -0.12658758995E+03  0.45072927065E+03  0.12699999809E+01 0. -1.
       -4    1    3    3    0  502 -0.43226311987E+03 -0.16716452618E+02  0.12176649873E+03  0.44939908512E+03  0.12699999809E+01 0.  1.
</event>
<event>
 5   0  0.4236284E-04  0.9002874E+03  0.7818609E-02  0.9425222E-01
       -2   -1    0    0    0  501  0.00000000000E+00  0.00000000000E+00  0.33949609934E+03  0.33949609935E+03  0.25500000920E-02 0.  1.
        2   -1    0    0  501    0  0.00000000000E+00  0.00000000000E+00 -0.59685328643E+03  0.59685328644E+03  0.25500000920E-02 0. -1.
    10030    2    1    2    0    0  0.00000000000E+00  0.00000000000E+00 -0.25735718709E+03  0.93634938579E+03  0.90028742661E+03 0.  0.
        2    1    3    3  502    0 -0.88010475369E+02  0.22259250312E+03  0.26782167950E+03  0.35919593293E+03  0.25500000920E-02 0.  1.
       -2    1    3    3    0  502  0.88010475369E+02 -0.22259250312E+03 -0.52517886659E+03  0.57715345285E+03  0.25500000920E-02 0. -1.
</event>
<event>
 5   0  0.2356918E-04  0.9002945E+03  0.7818609E-02  0.9425213E-01
       -1   -1    0    0    0  501  0.00000000000E+00  0.00000000000E+00  0.32474597020E+03  0.32474597024E+03  0.50400001928E-02 0.  1.
        1   -1    0    0  501    0  0.00000000000E+00  0.00000000000E+00 -0.62397251982E+03  0.62397251984E+03  0.50400001928E-02 0. -1.
    10030    2    1    2    0    0  0.00000000000E+00  0.00000000000E+00 -0.29922654962E+03  0.94871849008E+03  0.90029453260E+03 0.  0.
        5    1    3    3  502    0  0.14608919102E+03  0.35722363721E+03  0.94491819263E+02  0.39736830852E+03  0.46999998093E+01 0.  1.
       -5    1    3    3    0  502 -0.14608919102E+03 -0.35722363721E+03 -0.39371836888E+03  0.55135018156E+03  0.46999998093E+01 0. -1.
</event>
<event>
 5   0  0.4033144E-04  0.9018362E+03  0.7818609E-02  0.9423289E-01
       -2   -1    0    0    0  501  0.00000000000E+00  0.00000000000E+00  0.77026119811E+03  0.77026119811E+03  0.25500000920E-02 0. -1.
        2   -1    0    0  501    0  0.00000000000E+00  0.00000000000E+00 -0.26397166872E+03  0.26397166873E+03  0.25500000920E-02 0.  1.
    10030    2    1    2    0    0  0.00000000000E+00  0.00000000000E+00  0.50628952939E+03  0.10342328668E+04  0.90183620202E+03 0.  0.
        4    1    3    3  502    0 -0.63456703192E+02 -0.17615477251E+03  0.72357126319E+03  0.74740500592E+03  0.12699999809E+01 0. -1.
       -4    1    3    3    0  502  0.63456703192E+02  0.17615477251E+03 -0.21728173380E+03  0.28682786092E+03  0.12699999809E+01 0.  1.
</event>
<event>
 5   0  0.3959804E-04  0.9004464E+03  0.7818609E-02  0.9425024E-01
        2   -1    0    0  501    0  0.00000000000E+00  0.00000000000E+00  0.16227583899E+04  0.16227583899E+04  0.25500000920E-02 0. -1.
       -2   -1    0    0    0  501  0.00000000000E+00  0.00000000000E+00 -0.12491134342E+03  0.12491134344E+03  0.25500000920E-02 0.  1.
    10030    2    1    2    0    0  0.00000000000E+00  0.00000000000E+00  0.14978470465E+04  0.17476697334E+04  0.90044640163E+03 0.  0.
        5    1    3    3  502    0 -0.29504625938E+01 -0.15396147247E+03 -0.72158916868E+02  0.17012301290E+03  0.46999998093E+01 0.  1.
       -5    1    3    3    0  502  0.29504625938E+01  0.15396147247E+03  0.15700059634E+04  0.15775467205E+04  0.46999998093E+01 0. -1.
</event>
<event>
 5   0  0.2351435E-04  0.9002039E+03  0.7818609E-02  0.9425327E-01
        1   -1    0    0  501    0  0.00000000000E+00  0.00000000000E+00  0.15587171130E+04  0.15587171130E+04  0.50400001928E-02 0.  1.
       -1   -1    0    0    0  501  0.00000000000E+00  0.00000000000E+00 -0.12997340214E+03  0.12997340224E+03  0.50400001928E-02 0. -1.
    10030    2    1    2    0    0  0.00000000000E+00  0.00000000000E+00  0.14287437108E+04  0.16886905152E+04  0.90020390187E+03 0.  0.
        4    1    3    3  502    0 -0.25005554259E+03 -0.24158227433E+03  0.17817875522E+03  0.39069048025E+03  0.12699999809E+01 0. -1.
       -4    1    3    3    0  502  0.25005554259E+03  0.24158227433E+03  0.12505649556E+04  0.12980000350E+04  0.12699999809E+01 0.  1.
</event>
<event>
 5   0  0.4110039E-04  0.9000477E+03  0.7818609E-02  0.9425522E-01
       -2   -1    0    0    0  501  0.00000000000E+00  0.00000000000E+00  0.13646764433E+03  0.13646764436E+03  0.25500000920E-02 0. -1.
        2   -1    0    0  501    0  0.00000000000E+00  0.00000000000E+00 -0.14840253988E+04  0.14840253988E+04  0.25500000920E-02 0.  1.
    10030    2    1    2    0    0  0.00000000000E+00  0.00000000000E+00 -0.13475577545E+04  0.16204930432E+04  0.90004766613E+03 0.  0.
        3    1    3    3  502    0 -0.21983502336E+02 -0.32466798007E+03 -0.12334528461E+04  0.12756561078E+04  0.10100000352E+00 0.  1.
       -3    1    3    3    0  502  0.21983502336E+02  0.32466798007E+03 -0.11410490836E+03  0.34483693534E+03  0.10100000352E+00 0. -1.
</event>
<event>
 5   0  0.2356918E-04  0.9005644E+03  0.7818609E-02  0.9424876E-01
       -1   -1    0    0    0  501  0.00000000000E+00  0.00000000000E+00  0.21291601083E+03  0.21291601089E+03  0.50400001928E-02 0. -1.
        1   -1    0    0  501    0  0.00000000000E+00  0.00000000000E+00 -0.95227245534E+03  0.95227245535E+03  0.50400001928E-02 0.  1.
    10030    2    1    2    0    0  0.00000000000E+00  0.00000000000E+00 -0.73935644451E+03  0.11651884662E+04  0.90056438406E+03 0.  0.
        5    1    3    3  502    0  0.39094506831E+03 -0.18818845778E+03 -0.21399170640E+03  0.48380521130E+03  0.46999998093E+01 0.  1.
       -5    1    3    3    0  502 -0.39094506831E+03  0.18818845778E+03 -0.52536473811E+03  0.68138325495E+03  0.46999998093E+01 0. -1.
</event>
<event>
 5   0  0.2308362E-04  0.8999766E+03  0.7818609E-02  0.9425611E-01
       -1   -1    0    0    0  501  0.00000000000E+00  0.00000000000E+00  0.80267013634E+03  0.80267013635E+03  0.50400001928E-02 0. -1.
        1   -1    0    0  501    0  0.00000000000E+00  0.00000000000E+00 -0.25226984091E+03  0.25226984096E+03  0.50400001928E-02 0.  1.
    10030    2    1    2    0    0  0.00000000000E+00  0.00000000000E+00  0.55040029543E+03  0.10549399773E+04  0.89997659444E+03 0.  0.
        1    1    3    3  502    0 -0.58688749868E+01 -0.39342509760E+03  0.19266768895E+02  0.39394029945E+03  0.50400001928E-02 0.  1.
       -1    1    3    3    0  502  0.58688749868E+01  0.39342509760E+03  0.53113352653E+03  0.66099967787E+03  0.50400001928E-02 0. -1.
</event>
<event>
 5   0  0.2450427E-04  0.9000615E+03  0.7818609E-02  0.9425505E-01
       -1   -1    0    0    0  501  0.00000000000E+00  0.00000000000E+00  0.23149932722E+03  0.23149932728E+03  0.50400001928E-02 0.  1.
        1   -1    0    0  501    0  0.00000000000E+00  0.00000000000E+00 -0.87485210863E+03  0.87485210865E+03  0.50400001928E-02 0. -1.
    10030    2    1    2    0    0  0.00000000000E+00  0.00000000000E+00 -0.64335278141E+03  0.11063514359E+04  0.90006149702E+03 0.  0.
        3    1    3    3  502    0  0.19434794960E+03 -0.15305862016E+03  0.14042521906E+03  0.28445969674E+03  0.10100000352E+00 0.  1.
       -3    1    3    3    0  502 -0.19434794960E+03  0.15305862016E+03 -0.78377800047E+03  0.82189173918E+03  0.10100000352E+00 0. -1.
</event>
<event>
 5   0  0.2351435E-04  0.9002899E+03  0.7818609E-02  0.9425219E-01
        1   -1    0    0  501    0  0.00000000000E+00  0.00000000000E+00  0.26267831977E+03  0.26267831982E+03  0.50400001928E-02 0.  1.
       -1   -1    0    0    0  501  0.00000000000E+00  0.00000000000E+00 -0.77140152034E+03  0.77140152035E+03  0.50400001928E-02 0. -1.
    10030    2    1    2    0    0  0.00000000000E+00  0.00000000000E+00 -0.50872320056E+03  0.10340798402E+04  0.90028985391E+03 0.  0.
        4    1    3    3  502    0 -0.21742179219E+03 -0.35818205306E+03 -0.65408747168E+02  0.42408317105E+03  0.12699999809E+01 0.  1.
       -4    1    3    3    0  502  0.21742179219E+03  0.35818205306E+03 -0.44331445340E+03  0.60999666913E+03  0.12699999809E+01 0. -1.
</event>
<event>
 5   0  0.4110039E-04  0.8998666E+03  0.7818609E-02  0.9425748E-01
       -2   -1    0    0    0  501  0.00000000000E+00  0.00000000000E+00  0.26114429199E+03  0.26114429200E+03  0.25500000920E-02 0. -1.
        2   -1    0    0  501    0  0.00000000000E+00  0.00000000000E+00 -0.77520347024E+03  0.77520347025E+03  0.25500000920E-02 0.  1.
    10030    2    1    2    0    0  0.00000000000E+00  0.00000000000E+00 -0.51405917825E+03  0.10363477622E+04  0.89986657098E+03 0.  0.
        3    1    3    3  502    0  0.17950233616E+03  0.16006152381E+03  0.18090605774E+03  0.30094483219E+03  0.10100000352E+00 0. -1.
       -3    1    3    3    0  502 -0.17950233616E+03 -0.16006152381E+03 -0.69496523600E+03  0.73540293006E+03  0.10100000352E+00 0.  1.
</event>
<event>
 5   0  0.2356918E-04  0.9006698E+03  0.7818609E-02  0.9424744E-01
        1   -1    0    0  501    0  0.00000000000E+00  0.00000000000E+00  0.37257057045E+03  0.37257057049E+03  0.50400001928E-02 0. -1.
       -1   -1    0    0    0  501  0.00000000000E+00  0.00000000000E+00 -0.54433055211E+03  0.54433055214E+03  0.50400001928E-02 0.  1.
    10030    2    1    2    0    0  0.00000000000E+00  0.00000000000E+00 -0.17175998166E+03  0.91690112263E+03  0.90066984926E+03 0.  0.
        5    1    3    3  502    0  0.29250271907E+03 -0.18897954725E+03  0.20476170294E+03  0.40400563725E+03  0.46999998093E+01 0. -1.
       -5    1    3    3    0  502 -0.29250271907E+03  0.18897954725E+03 -0.37652168460E+03  0.51289548537E+03  0.46999998093E+01 0.  1.
</event>
<event>
 5   0  0.4110039E-04  0.9002083E+03  0.7818609E-02  0.9425321E-01
       -2   -1    0    0    0  501  0.00000000000E+00  0.00000000000E+00  0.43114201207E+03  0.43114201208E+03  0.25500000920E-02 0. -1.
        2   -1    0    0  501    0  0.00000000000E+00  0.00000000000E+00 -0.46990030729E+03  0.46990030729E+03  0.25500000920E-02 0.  1.
    10030    2    1    2    0    0  0.00000000000E+00  0.00000000000E+00 -0.38758295215E+02  0.90104231937E+03  0.90020834025E+03 0.  0.
        3    1    3    3  502    0  0.28101051133E+02  0.26502594622E+03  0.34367624393E+03  0.43490434820E+03  0.10100000352E+00 0. -1.
       -3    1    3    3    0  502 -0.28101051133E+02 -0.26502594622E+03 -0.38243453914E+03  0.46613797117E+03  0.10100000352E+00 0.  1.
</event>
<event>
 5   0  0.3959804E-04  0.9000560E+03  0.7818609E-02  0.9425511E-01
        2   -1    0    0  501    0  0.00000000000E+00  0.00000000000E+00  0.10951401175E+04  0.10951401175E+04  0.25500000920E-02 0. -1.
       -2   -1    0    0    0  501  0.00000000000E+00  0.00000000000E+00 -0.18493085586E+03  0.18493085588E+03  0.25500000920E-02 0.  1.
    10030    2    1    2    0    0  0.00000000000E+00  0.00000000000E+00  0.91020926161E+03  0.12800709733E+04  0.90005599653E+03 0.  0.
        5    1    3    3  502    0 -0.29080060020E+03  0.18772583009E+03  0.46117402383E+02  0.34922039053E+03  0.46999998093E+01 0.  1.
       -5    1    3    3    0  502  0.29080060020E+03 -0.18772583009E+03  0.86409185923E+03  0.93085058282E+03  0.46999998093E+01 0. -1.
</event>
<event>
 5   0  0.2332791E-04  0.8996617E+03  0.7818609E-02  0.9426004E-01
        1   -1    0    0  501    0  0.00000000000E+00  0.00000000000E+00  0.50269812583E+03  0.50269812586E+03  0.50400001928E-02 0. -1.
       -1   -1    0    0    0  501  0.00000000000E+00  0.00000000000E+00 -0.40252346075E+03  0.40252346078E+03  0.50400001928E-02 0.  1.
    10030    2    1    2    0    0  0.00000000000E+00  0.00000000000E+00  0.10017466508E+03  0.90522158664E+03  0.89966169053E+03 0.  0.
        2    1    3    3  502    0 -0.16802766203E+03  0.41707075364E+03  0.37104857776E+02  0.45117411187E+03  0.25500000920E-02 0.  1.
       -2    1    3    3    0  502  0.16802766203E+03 -0.41707075364E+03  0.63069807305E+02  0.45404747477E+03  0.25500000920E-02 0. -1.
</event>
<event>
 5   0  0.2351435E-04  0.9007536E+03  0.7818609E-02  0.9424640E-01
        1   -1    0    0  501    0  0.00000000000E+00  0.00000000000E+00  0.10722191812E+04  0.10722191812E+04  0.50400001928E-02 0. -1.
       -1   -1    0    0    0  501  0.00000000000E+00  0.00000000000E+00 -0.18917705223E+03  0.18917705229E+03  0.50400001928E-02 0.  1.
    10030    2    1    2    0    0  0.00000000000E+00  0.00000000000E+00  0.88304212897E+03  0.12613962335E+04  0.90075360469E+03 0.  0.
        4    1    3    3  502    0 -0.23953330983E+03  0.27591674115E+03  0.81025278132E+03  0.88882925081E+03  0.12699999809E+01 0. -1.
       -4    1    3    3    0  502  0.23953330983E+03 -0.27591674115E+03  0.72789347652E+02  0.37256698269E+03  0.12699999809E+01 0.  1.
</event>
<event>
 5   0  0.4236284E-04  0.8980727E+03  0.7818609E-02  0.9427994E-01
        2   -1    0    0  501    0  0.00000000000E+00  0.00000000000E+00  0.21309238046E+04  0.21309238046E+04  0.25500000920E-02 0.  1.
       -2   -1    0    0    0  501  0.00000000000E+00  0.00000000000E+00 -0.94622647430E+02  0.94622647464E+02  0.25500000920E-02 0. -1.
    10030    2    1    2    0    0  0.00000000000E+00  0.00000000000E+00  0.20363011572E+04  0.22255464521E+04  0.89807271845E+03 0.  0.
        2    1    3    3  502    0 -0.10871186296E+03  0.14849376516E+03  0.20331734312E+04  0.20414854564E+04  0.25500000920E-02 0.  1.
       -2    1    3    3    0  502  0.10871186296E+03 -0.14849376516E+03  0.31277259658E+01  0.18406099564E+03  0.25500000920E-02 0. -1.
</event>
<event>
 5   0  0.4110039E-04  0.9004482E+03  0.7818609E-02  0.9425021E-01
       -2   -1    0    0    0  501  0.00000000000E+00  0.00000000000E+00  0.53620610580E+03  0.53620610581E+03  0.25500000920E-02 0. -1.
        2   -1    0    0  501    0  0.00000000000E+00  0.00000000000E+00 -0.37802955822E+03  0.37802955823E+03  0.25500000920E-02 0.  1.
    10030    2    1    2    0    0  0.00000000000E+00  0.00000000000E+00  0.15817654758E+03  0.91423566404E+03  0.90044823793E+03 0.  0.
        3    1    3    3  502    0 -0.39994903395E+03 -0.10043961011E+03 -0.10438392862E+03  0.42537437604E+03  0.10100000352E+00 0.  1.
       -3    1    3    3    0  502  0.39994903395E+03  0.10043961011E+03  0.26256047620E+03  0.48886128800E+03  0.10100000352E+00 0. -1.
</event>
<event>
 5   0  0.2308362E-04  0.9000374E+03  0.7818609E-02  0.9425535E-01
       -1   -1    0    0    0  501  0.00000000000E+00  0.00000000000E+00  0.68157992462E+03  0.68157992464E+03  0.50400001928E-02 0. -1.
        1   -1    0    0  501    0  0.00000000000E+00  0.00000000000E+00 -0.29712850114E+03  0.29712850118E+03  0.50400001928E-02 0.  1.
    10030    2    1    2    0    0  0.00000000000E+00  0.00000000000E+00  0.38445142348E+03  0.97870842583E+03  0.90003738021E+03 0.  0.
        1    1    3    3  502    0 -0.11740525124E+02  0.15261330205E+03  0.65240410080E+03  0.67011922122E+03  0.50400001928E-02 0. -1.
       -1    1    3    3    0  502  0.11740525124E+02 -0.15261330205E+03 -0.26795267731E+03  0.30858920460E+03  0.50400001928E-02 0.  1.
</event>
<event>
 5   0  0.3959804E-04  0.9000626E+03  0.7818609E-02  0.9425503E-01
        2   -1    0    0  501    0  0.00000000000E+00  0.00000000000E+00  0.21514054796E+04  0.21514054796E+04  0.25500000920E-02 0. -1.
       -2   -1    0    0    0  501  0.00000000000E+00  0.00000000000E+00 -0.94137603454E+02  0.94137603488E+02  0.25500000920E-02 0.  1.
    10030    2    1    2    0    0  0.00000000000E+00  0.00000000000E+00  0.20572678761E+04  0.22455430831E+04  0.90006256659E+03 0.  0.
        5    1    3    3  502    0 -0.37285859714E+03 -0.39015899251E+02  0.40761417638E+03  0.55382053107E+03  0.46999998093E+01 0.  1.
       -5    1    3    3    0  502  0.37285859714E+03  0.39015899251E+02  0.16496536998E+04  0.16917225520E+04  0.46999998093E+01 0. -1.
</event>
<event>
 5   0  0.2351435E-04  0.8999648E+03  0.7818609E-02  0.9425625E-01
       -1   -1    0    0    0  501  0.00000000000E+00  0.00000000000E+00  0.12469825277E+04  0.12469825277E+04  0.50400001928E-02 0.  1.
        1   -1    0    0  501    0  0.00000000000E+00  0.00000000000E+00 -0.16237932244E+03  0.16237932252E+03  0.50400001928E-02 0. -1.
    10030    2    1    2    0    0  0.00000000000E+00  0.00000000000E+00  0.10846032052E+04  0.14093618502E+04  0.89996483932E+03 0.  0.
        4    1    3    3  502    0 -0.72771284301E+02 -0.43066923100E+03  0.37283174946E+03  0.57426193732E+03  0.12699999809E+01 0. -1.
       -4    1    3    3    0  502  0.72771284301E+02  0.43066923100E+03  0.71177145577E+03  0.83509991289E+03  0.12699999809E+01 0.  1.
</event>
<event>
 5   0  0.2356918E-04  0.9001455E+03  0.7818609E-02  0.9425400E-01
        1   -1    0    0  501    0  0.00000000000E+00  0.00000000000E+00  0.28414229644E+03  0.28414229648E+03  0.50400001928E-02 0.  1.
       -1   -1    0    0    0  501  0.00000000000E+00  0.00000000000E+00 -0.71290158364E+03  0.71290158365E+03  0.50400001928E-02 0. -1.
    10030    2    1    2    0    0  0.00000000000E+00  0.00000000000E+00 -0.42875928720E+03  0.99704388013E+03  0.90014552854E+03 0.  0.
        5    1    3    3  502    0  0.14955189753E+03 -0.20312220559E+03  0.19846092930E+03  0.32098789839E+03  0.46999998093E+01 0.  1.
       -5    1    3    3    0  502 -0.14955189753E+03  0.20312220559E+03 -0.62722021650E+03  0.67605598174E+03  0.46999998093E+01 0. -1.
</event>
<event>
 5   0  0.4236284E-04  0.8999901E+03  0.7818609E-02  0.9425594E-01
        2   -1    0    0  501    0  0.00000000000E+00  0.00000000000E+00  0.74055417990E+03  0.74055417990E+03  0.25500000920E-02 0.  1.
       -2   -1    0    0    0  501  0.00000000000E+00  0.00000000000E+00 -0.27343782483E+03  0.27343782484E+03  0.25500000920E-02 0. -1.
    10030    2    1    2    0    0  0.00000000000E+00  0.00000000000E+00  0.46711635507E+03  0.10139920047E+04  0.89999005356E+03 0.  0.
        2    1    3    3  502    0 -0.17442964880E+03 -0.41476123340E+03  0.24094117825E+03  0.51039713410E+03  0.25500000920E-02 0. -1.
       -2    1    3    3    0  502  0.17442964880E+03  0.41476123340E+03  0.22617517682E+03  0.50359487064E+03  0.25500000920E-02 0.  1.
</event>
<event>
 5   0  0.2308362E-04  0.8998736E+03  0.7818609E-02  0.9425739E-01
        1   -1    0    0  501    0  0.00000000000E+00  0.00000000000E+00  0.47295260942E+03  0.47295260945E+03  0.50400001928E-02 0.  1.
       -1   -1    0    0    0  501  0.00000000000E+00  0.00000000000E+00 -0.42804105428E+03  0.42804105431E+03  0.50400001928E-02 0. -1.
    10030    2    1    2    0    0  0.00000000000E+00  0.00000000000E+00  0.44911555141E+02  0.90099366376E+03  0.89987362132E+03 0.  0.
        1    1    3    3  502    0 -0.76664080285E+02 -0.39853621898E+03 -0.17204005023E+03  0.44080185793E+03  0.50400001928E-02 0. -1.
       -1    1    3    3    0  502  0.76664080285E+02  0.39853621898E+03  0.21695160537E+03  0.46019180582E+03  0.50400001928E-02 0.  1.
</event>
<event>
 5   0  0.2332791E-04  0.8998228E+03  0.7818609E-02  0.9425803E-01
        1   -1    0    0  501    0  0.00000000000E+00  0.00000000000E+00  0.44506283287E+03  0.44506283289E+03  0.50400001928E-02 0. -1.
       -1   -1    0    0    0  501  0.00000000000E+00  0.00000000000E+00 -0.45481280925E+03  0.45481280928E+03  0.50400001928E-02 0.  1.
    10030    2    1    2    0    0  0.00000000000E+00  0.00000000000E+00 -0.97499763820E+01  0.89987564217E+03  0.89982282108E+03 0.  0.
        2    1    3    3  502    0  0.10226239833E+03 -0.34126945653E+03 -0.27965981530E+03  0.45291506088E+03  0.25500000920E-02 0.  1.
       -2    1    3    3    0  502 -0.10226239833E+03  0.34126945653E+03  0.26990983892E+03  0.44696058129E+03  0.25500000920E-02 0. -1.
</event>
<event>
 5   0  0.3959804E-04  0.8997546E+03  0.7818609E-02  0.9425888E-01
       -2   -1    0    0    0  501  0.00000000000E+00  0.00000000000E+00  0.17098708985E+03  0.17098708987E+03  0.25500000920E-02 0.  1.
        2   -1    0    0  501    0  0.00000000000E+00  0.00000000000E+00 -0.11836541425E+04  0.11836541425E+04  0.25500000920E-02 0. -1.
    10030    2    1    2    0    0  0.00000000000E+00  0.00000000000E+00 -0.10126670526E+04  0.13546412324E+04  0.89975458261E+03 0.  0.
        5    1    3    3  502    0  0.82389497014E+02  0.19751005186E+03 -0.11020689726E+04  0.11226648476E+04  0.46999998093E+01 0. -1.
       -5    1    3    3    0  502 -0.82389497014E+02 -0.19751005186E+03  0.89401919910E+02  0.23197638476E+03  0.46999998093E+01 0.  1.
</event>
<event>
 5   0  0.4033144E-04  0.8996857E+03  0.7818609E-02  0.9425974E-01
        2   -1    0    0  501    0  0.00000000000E+00  0.00000000000E+00  0.18995894861E+04  0.18995894861E+04  0.25500000920E-02 0. -1.
       -2   -1    0    0    0  501  0.00000000000E+00  0.00000000000E+00 -0.10652754778E+03  0.10652754781E+03  0.25500000920E-02 0.  1.
    10030    2    1    2    0    0  0.00000000000E+00  0.00000000000E+00  0.17930619383E+04  0.20061170339E+04  0.89968574466E+03 0.  0.
        4    1    3    3  502    0  0.34994649454E+03  0.76026321574E+01  0.15265687209E+04  0.15661845427E+04  0.12699999809E+01 0. -1.
       -4    1    3    3    0  502 -0.34994649454E+03 -0.76026321574E+01  0.26649321741E+03  0.43993249128E+03  0.12699999809E+01 0.  1.
</event>
<event>
 5   0  0.2332791E-04  0.9000544E+03  0.7818609E-02  0.9425513E-01
        1   -1    0    0  501    0  0.00000000000E+00  0.00000000000E+00  0.10323626422E+04  0.10323626422E+04  0.50400001928E-02 0.  1.
       -1   -1    0    0    0  501  0.00000000000E+00  0.00000000000E+00 -0.19617573775E+03  0.19617573781E+03  0.50400001928E-02 0. -1.
    10030    2    1    2    0    0  0.00000000000E+00  0.00000000000E+00  0.83618690445E+03  0.12285383800E+04  0.90005444947E+03 0.  0.
        2    1    3    3  502    0  0.26349657197E+03 -0.23307490065E+03  0.35003481556E+02  0.35352453448E+03  0.25500000920E-02 0. -1.
       -2    1    3    3    0  502 -0.26349657197E+03  0.23307490065E+03  0.80118342289E+03  0.87501384554E+03  0.25500000920E-02 0.  1.
</event>
<event>
 5   0  0.2450427E-04  0.8994772E+03  0.7818609E-02  0.9426235E-01
        1   -1    0    0  501    0  0.00000000000E+00  0.00000000000E+00  0.88956417105E+03  0.88956417106E+03  0.50400001928E-02 0.  1.
       -1   -1    0    0    0  501  0.00000000000E+00  0.00000000000E+00 -0.22737518625E+03  0.22737518631E+03  0.50400001928E-02 0. -1.
    10030    2    1    2    0    0  0.00000000000E+00  0.00000000000E+00  0.66218898480E+03  0.11169393574E+04  0.89947722398E+03 0.  0.
        3    1    3    3  502    0 -0.36284615767E+03  0.21369526907E+03  0.52720613554E+03  0.67473648317E+03  0.10100000352E+00 0.  1.
       -3    1    3    3    0  502  0.36284615767E+03 -0.21369526907E+03  0.13498284925E+03  0.44220287420E+03  0.10100000352E+00 0. -1.
</event>
<event>
 5   0  0.2332791E-04  0.9001927E+03  0.7818609E-02  0.9425341E-01
       -1   -1    0    0    0  501  0.00000000000E+00  0.00000000000E+00  0.75337634480E+03  0.75337634481E+03  0.50400001928E-02 0.  1.
        1   -1    0    0  501    0  0.00000000000E+00  0.00000000000E+00 -0.26890508298E+03  0.26890508303E+03  0.50400001928E-02 0. -1.
    10030    2    1    2    0    0  0.00000000000E+00  0.00000000000E+00  0.48447126181E+03  0.10222814278E+04  0.90019270948E+03 0.  0.
        2    1    3    3  502    0 -0.38865437407E+03 -0.16987263492E+03  0.41325109454E+03  0.59218696518E+03  0.25500000920E-02 0.  1.
       -2    1    3    3    0  502  0.38865437407E+03  0.16987263492E+03  0.71220167270E+02  0.43009446266E+03  0.25500000920E-02 0. -1.
</event>
<event>
 5   0  0.4110039E-04  0.9002278E+03  0.7818609E-02  0.9425297E-01
        2   -1    0    0  501    0  0.00000000000E+00  0.00000000000E+00  0.99687183722E+03  0.99687183723E+03  0.25500000920E-02 0. -1.
       -2   -1    0    0    0  501  0.00000000000E+00  0.00000000000E+00 -0.20323830303E+03  0.20323830305E+03  0.25500000920E-02 0.  1.
    10030    2    1    2    0    0  0.00000000000E+00  0.00000000000E+00  0.79363353419E+03  0.12001101403E+04  0.90022783904E+03 0.  0.
        3    1    3    3  502    0  0.18508172385E+03  0.36195202590E+03  0.13921769783E+03  0.42970465571E+03  0.10100000352E+00 0.  1.
       -3    1    3    3    0  502 -0.18508172385E+03 -0.36195202590E+03  0.65441583636E+03  0.77040548456E+03  0.10100000352E+00 0. -1.
</event>
<event>
 5   0  0.2356918E-04  0.8997567E+03  0.7818609E-02  0.9425886E-01
        1   -1    0    0  501    0  0.00000000000E+00  0.00000000000E+00  0.50534991202E+03  0.50534991204E+03  0.50400001928E-02 0. -1.
       -1   -1    0    0    0  501  0.00000000000E+00  0.00000000000E+00 -0.40049582611E+03  0.40049582614E+03  0.50400001928E-02 0.  1.
    10030    2    1    2    0    0  0.00000000000E+00  0.00000000000E+00  0.10485408591E+03  0.90584573818E+03  0.89975670159E+03 0.  0.
        5    1    3    3  502    0  0.28279261915E+03 -0.15444114189E+03  0.36846977724E+03  0.48950566748E+03  0.46999998093E+01 0. -1.
       -5    1    3    3    0  502 -0.28279261915E+03  0.15444114189E+03 -0.26361569133E+03  0.41634007070E+03  0.46999998093E+01 0.  1.
</event>
<event>
 5   0  0.2351435E-04  0.8999533E+03  0.7818609E-02  0.9425640E-01
       -1   -1    0    0    0  501  0.00000000000E+00  0.00000000000E+00  0.19567715405E+03  0.19567715411E+03  0.50400001928E-02 0. -1.
        1   -1    0    0  501    0  0.00000000000E+00  0.00000000000E+00 -0.10347604331E+04  0.10347604331E+04  0.50400001928E-02 0.  1.
    10030    2    1    2    0    0  0.00000000000E+00  0.00000000000E+00 -0.83908327901E+03  0.12304375872E+04  0.89995328036E+03 0.  0.
        4    1    3    3  502    0 -0.29080393080E+03 -0.24992041703E+03 -0.74149374735E+03  0.83477046622E+03  0.12699999809E+01 0.  1.
       -4    1    3    3    0  502  0.29080393080E+03  0.24992041703E+03 -0.97589531652E+02  0.39566712095E+03  0.12699999809E+01 0. -1.
</event>
<event>
 5   0  0.2308362E-04  0.8999947E+03  0.7818609E-02  0.9425588E-01
       -1   -1    0    0    0  501  0.00000000000E+00  0.00000000000E+00  0.13422404865E+03  0.13422404874E+03  0.50400001928E-02 0.  1.
        1   -1    0    0  501    0  0.00000000000E+00  0.00000000000E+00 -0.15086537968E+04  0.15086537968E+04  0.50400001928E-02 0. -1.
    10030    2    1    2    0    0  0.00000000000E+00  0.00000000000E+00 -0.13744297481E+04  0.16428778455E+04  0.89999471263E+03 0.  0.
        1    1    3    3  502    0 -0.29676496086E+03 -0.31791628590E+03 -0.47624205518E+03  0.64493930101E+03  0.50400001928E-02 0.  1.
       -1    1    3    3    0  502  0.29676496086E+03  0.31791628590E+03 -0.89818769293E+03  0.99793854449E+03  0.50400001928E-02 0. -1.
</event>
<event>
 5   0  0.4243516E-04  0.9000373E+03  0.7818609E-02  0.9425535E-01
       -2   -1    0    0    0  501  0.00000000000E+00  0.00000000000E+00  0.20317294776E+03  0.20317294777E+03  0.25500000920E-02 0. -1.
        2   -1    0    0  501    0  0.00000000000E+00  0.00000000000E+00 -0.99677033788E+03  0.99677033789E+03  0.25500000920E-02 0.  1.
    10030    2    1    2    0    0  0.00000000000E+00  0.00000000000E+00 -0.79359739013E+03  0.11999432857E+04  0.90003726099E+03 0.  0.
        1    1    3    3  502    0 -0.21904775155E+03 -0.29854708571E+03 -0.73775914503E+03  0.82547006968E+03  0.50400001928E-02 0.  1.
       -1    1    3    3    0  502  0.21904775155E+03  0.29854708571E+03 -0.55838245102E+02  0.37447321598E+03  0.50400001928E-02 0. -1.
</event>
<event>
 5   0  0.2308362E-04  0.8940866E+03  0.7818609E-02  0.9433004E-01
       -1   -1    0    0    0  501  0.00000000000E+00  0.00000000000E+00  0.52220557850E+03  0.52220557852E+03  0.50400001928E-02 0.  1.
        1   -1    0    0  501    0  0.00000000000E+00  0.00000000000E+00 -0.38269926539E+03  0.38269926543E+03  0.50400001928E-02 0. -1.
    10030    2    1    2    0    0  0.00000000000E+00  0.00000000000E+00  0.13950631310E+03  0.90490484394E+03  0.89408655353E+03 0.  0.
        1    1    3    3  502    0  0.26116061075E+03 -0.29552115089E+03 -0.14329343831E+03  0.41960770336E+03  0.50400001928E-02 0. -1.
       -1    1    3    3    0  502 -0.26116061075E+03  0.29552115089E+03  0.28279975142E+03  0.48529714058E+03  0.50400001928E-02 0.  1.
</event>
<event>
 5   0  0.4110039E-04  0.9000323E+03  0.7818609E-02  0.9425541E-01
       -2   -1    0    0    0  501  0.00000000000E+00  0.00000000000E+00  0.61796499651E+02  0.61796499704E+02  0.25500000920E-02 0. -1.
        2   -1    0    0  501    0  0.00000000000E+00  0.00000000000E+00 -0.32771195061E+04  0.32771195061E+04  0.25500000920E-02 0.  1.
    10030    2    1    2    0    0  0.00000000000E+00  0.00000000000E+00 -0.32153230065E+04  0.33389160058E+04  0.90003225389E+03 0.  0.
        3    1    3    3  502    0 -0.18034283953E+03  0.18148701476E+03 -0.29810467321E+04  0.29920061339E+04  0.10100000352E+00 0.  1.
       -3    1    3    3    0  502  0.18034283953E+03 -0.18148701476E+03 -0.23427627441E+03  0.34690987194E+03  0.10100000352E+00 0. -1.
</event>
<event>
 5   0  0.4110039E-04  0.9001188E+03  0.7818609E-02  0.9425433E-01
       -2   -1    0    0    0  501  0.00000000000E+00  0.00000000000E+00  0.69605496472E+03  0.69605496473E+03  0.25500000920E-02 0.  1.
        2   -1    0    0  501    0  0.00000000000E+00  0.00000000000E+00 -0.29100213143E+03  0.29100213144E+03  0.25500000920E-02 0. -1.
    10030    2    1    2    0    0  0.00000000000E+00  0.00000000000E+00  0.40505283329E+03  0.98705709617E+03  0.90011883290E+03 0.  0.
        3    1    3    3  502    0 -0.18136639933E+03 -0.27986072080E+02 -0.24811074936E+03  0.30860321642E+03  0.10100000352E+00 0. -1.
       -3    1    3    3    0  502  0.18136639933E+03  0.27986072080E+02  0.65316358266E+03  0.67845387975E+03  0.10100000352E+00 0.  1.
</event>
<event>
 5   0  0.4033144E-04  0.9002264E+03  0.7818609E-02  0.9425298E-01
        2   -1    0    0  501    0  0.00000000000E+00  0.00000000000E+00  0.20732045876E+04  0.20732045876E+04  0.25500000920E-02 0. -1.
       -2   -1    0    0    0  501  0.00000000000E+00  0.00000000000E+00 -0.97724024597E+02  0.97724024630E+02  0.25500000920E-02 0.  1.
    10030    2    1    2    0    0  0.00000000000E+00  0.00000000000E+00  0.19754805630E+04  0.21709286122E+04  0.90022640741E+03 0.  0.
        4    1    3    3  502    0 -0.14960163813E+03  0.69579679641E+02  0.19976480750E+04  0.20044504051E+04  0.12699999809E+01 0. -1.
       -4    1    3    3    0  502  0.14960163813E+03 -0.69579679641E+02 -0.22167512049E+02  0.16647820711E+03  0.12699999809E+01 0.  1.
</event>
<event>
 5   0  0.2450427E-04  0.8994883E+03  0.7818609E-02  0.9426221E-01
        1   -1    0    0  501    0  0.00000000000E+00  0.00000000000E+00  0.86394451822E+03  0.86394451824E+03  0.50400001928E-02 0.  1.
       -1   -1    0    0    0  501  0.00000000000E+00  0.00000000000E+00 -0.23412357847E+03  0.23412357852E+03  0.50400001928E-02 0. -1.
    10030    2    1    2    0    0  0.00000000000E+00  0.00000000000E+00  0.62982093975E+03  0.10980680968E+04  0.89948825949E+03 0.  0.
        3    1    3    3  502    0  0.29163301427E+03  0.33254433358E+03  0.21547786547E+03  0.49200230641E+03  0.10100000352E+00 0.  1.
       -3    1    3    3    0  502 -0.29163301427E+03 -0.33254433358E+03  0.41434307429E+03  0.60606579034E+03  0.10100000352E+00 0. -1.
</event>
<event>
 5   0  0.4033144E-04  0.9000949E+03  0.7818609E-02  0.9425463E-01
        2   -1    0    0  501    0  0.00000000000E+00  0.00000000000E+00  0.93539198381E+03  0.93539198382E+03  0.25500000920E-02 0.  1.
       -2   -1    0    0    0  501  0.00000000000E+00  0.00000000000E+00 -0.21653245323E+03  0.21653245324E+03  0.25500000920E-02 0. -1.
    10030    2    1    2    0    0  0.00000000000E+00  0.00000000000E+00  0.71885953059E+03  0.11519244371E+04  0.90009493054E+03 0.  0.
        4    1    3    3  502    0 -0.23390734213E+03  0.37652086939E+03  0.25979983121E+03  0.51378806427E+03  0.12699999809E+01 0. -1.
       -4    1    3    3    0  502  0.23390734213E+03 -0.37652086939E+03  0.45905969938E+03  0.63813637279E+03  0.12699999809E+01 0.  1.
</event>
<event>
 5   0  0.2356918E-04  0.8989742E+03  0.7818609E-02  0.9426865E-01
       -1   -1    0    0    0  501  0.00000000000E+00  0.00000000000E+00  0.19469650388E+03  0.19469650395E+03  0.50400001928E-02 0.  1.
        1   -1    0    0  501    0  0.00000000000E+00  0.00000000000E+00 -0.10377106649E+04  0.10377106649E+04  0.50400001928E-02 0. -1.
    10030    2    1    2    0    0  0.00000000000E+00  0.00000000000E+00 -0.84301416098E+03  0.12324071688E+04  0.89897416768E+03 0.  0.
        5    1    3    3  502    0 -0.42550839815E+03  0.13251001280E+03 -0.50144674298E+03  0.67088540484E+03  0.46999998093E+01 0. -1.
       -5    1    3    3    0  502  0.42550839815E+03 -0.13251001280E+03 -0.34156741800E+03  0.56152176398E+03  0.46999998093E+01 0.  1.
</event>
<event>
 5   0  0.4243516E-04  0.9002043E+03  0.7818609E-02  0.9425326E-01
        2   -1    0    0  501    0  0.00000000000E+00  0.00000000000E+00  0.44233623861E+03  0.44233623861E+03  0.25500000920E-02 0.  1.
       -2   -1    0    0    0  501  0.00000000000E+00  0.00000000000E+00 -0.45800435423E+03  0.45800435424E+03  0.25500000920E-02 0. -1.
    10030    2    1    2    0    0  0.00000000000E+00  0.00000000000E+00 -0.15668115624E+02  0.90034059285E+03  0.90020425087E+03 0.  0.
        1    1    3    3  502    0  0.16727817337E+03  0.29187781662E+02 -0.42474009882E+03  0.45742547531E+03  0.50400001928E-02 0. -1.
       -1    1    3    3    0  502 -0.16727817337E+03 -0.29187781662E+02  0.40907198320E+03  0.44291511754E+03  0.50400001928E-02 0.  1.
</event>
<event>
 5   0  0.2332791E-04  0.8999127E+03  0.7818609E-02  0.9425691E-01
       -1   -1    0    0    0  501  0.00000000000E+00  0.00000000000E+00  0.98655578357E+02  0.98655578486E+02  0.50400001928E-02 0.  1.
        1   -1    0    0  501    0  0.00000000000E+00  0.00000000000E+00 -0.20521973249E+04  0.20521973249E+04  0.50400001928E-02 0. -1.
    10030    2    1    2    0    0  0.00000000000E+00  0.00000000000E+00 -0.19535417466E+04  0.21508529034E+04  0.89991269385E+03 0.  0.
        2    1    3    3  502    0 -0.28497571102E+03 -0.30657106765E+03 -0.13714126320E+04  0.14338652596E+04  0.25500000920E-02 0. -1.
       -2    1    3    3    0  502  0.28497571102E+03  0.30657106765E+03 -0.58212911457E+03  0.71698764384E+03  0.25500000920E-02 0.  1.
</event>
<event>
 5   0  0.3959804E-04  0.8999904E+03  0.7818609E-02  0.9425593E-01
       -2   -1    0    0    0  501  0.00000000000E+00  0.00000000000E+00  0.98248767021E+02  0.98248767054E+02  0.25500000920E-02 0. -1.
        2   -1    0    0  501    0  0.00000000000E+00  0.00000000000E+00 -0.20610504026E+04  0.20610504026E+04  0.25500000920E-02 0.  1.
    10030    2    1    2    0    0  0.00000000000E+00  0.00000000000E+00 -0.19628016355E+04  0.21592991696E+04  0.89999035741E+03 0.  0.
        5    1    3    3  502    0  0.13003375795E+03 -0.40740792764E+03 -0.13171546116E+04  0.13848495798E+04  0.46999998093E+01 0.  1.
       -5    1    3    3    0  502 -0.13003375795E+03  0.40740792764E+03 -0.64564702395E+03  0.77444958986E+03  0.46999998093E+01 0. -1.
</event>
<event>
 5   0  0.2450427E-04  0.9000317E+03  0.7818609E-02  0.9425542E-01
        1   -1    0    0  501    0  0.00000000000E+00  0.00000000000E+00  0.71483466149E+03  0.71483466151E+03  0.50400001928E-02 0. -1.
       -1   -1    0    0    0  501  0.00000000000E+00  0.00000000000E+00 -0.28330225054E+03  0.28330225058E+03  0.50400001928E-02 0.  1.
    10030    2    1    2    0    0  0.00000000000E+00  0.00000000000E+00  0.43153241095E+03  0.99813691209E+03  0.90003170698E+03 0.  0.
        3    1    3    3  502    0  0.25019914475E+02  0.34807874709E+03  0.53086612942E+03  0.63529809371E+03  0.10100000352E+00 0. -1.
       -3    1    3    3    0  502 -0.25019914475E+02 -0.34807874709E+03 -0.99333718473E+02  0.36283881838E+03  0.10100000352E+00 0.  1.
</event>
<event>
 5   0  0.2308362E-04  0.9002647E+03  0.7818609E-02  0.9425251E-01
       -1   -1    0    0    0  501  0.00000000000E+00  0.00000000000E+00  0.33592108830E+03  0.33592108834E+03  0.50400001928E-02 0. -1.
        1   -1    0    0  501    0  0.00000000000E+00  0.00000000000E+00 -0.60317477700E+03  0.60317477703E+03  0.50400001928E-02 0.  1.
    10030    2    1    2    0    0  0.00000000000E+00  0.00000000000E+00 -0.26725368871E+03  0.93909586536E+03  0.90026468897E+03 0.  0.
        1    1    3    3  502    0  0.32499236237E+01 -0.30138868442E+03  0.21511896246E+03  0.37029970177E+03  0.50400001928E-02 0. -1.
       -1    1    3    3    0  502 -0.32499236237E+01  0.30138868442E+03 -0.48237265117E+03  0.56879616359E+03  0.50400001928E-02 0.  1.
</event>
<event>
 5   0  0.2356918E-04  0.8998897E+03  0.7818609E-02  0.9425719E-01
        1   -1    0    0  501    0  0.00000000000E+00  0.00000000000E+00  0.19785869228E+03  0.19785869235E+03  0.50400001928E-02 0. -1.
       -1   -1    0    0    0  501  0.00000000000E+00  0.00000000000E+00 -0.10232069354E+04  0.10232069354E+04  0.50400001928E-02 0.  1.
    10030    2    1    2    0    0  0.00000000000E+00  0.00000000000E+00 -0.82534824311E+03  0.12210656277E+04  0.89988974040E+03 0.  0.
        5    1    3    3  502    0 -0.19798798648E+03  0.35700425493E+03 -0.15601792167E+03  0.43705258575E+03  0.46999998093E+01 0.  1.
       -5    1    3    3    0  502  0.19798798648E+03 -0.35700425493E+03 -0.66933032144E+03  0.78401304200E+03  0.46999998093E+01 0. -1.
</event>
<event>
 5   0  0.2308362E-04  0.8994105E+03  0.7818609E-02  0.9426319E-01
        1   -1    0    0  501    0  0.00000000000E+00  0.00000000000E+00  0.69097289493E+03  0.69097289495E+03  0.50400001928E-02 0.  1.
       -1   -1    0    0    0  501  0.00000000000E+00  0.00000000000E+00 -0.29268122350E+03  0.29268122354E+03  0.50400001928E-02 0. -1.
    10030    2    1    2    0    0  0.00000000000E+00  0.00000000000E+00  0.39829167143E+03  0.98365411849E+03  0.89941045651E+03 0.  0.
        1    1    3    3  502    0 -0.24062341503E+03 -0.37980283843E+03  0.18906461585E+03  0.48774506962E+03  0.50400001928E-02 0.  1.
       -1    1    3    3    0  502  0.24062341503E+03  0.37980283843E+03  0.20922705558E+03  0.49590904887E+03  0.50400001928E-02 0. -1.
</event>
<event>
 5   0  0.2332791E-04  0.9017680E+03  0.7818609E-02  0.9423374E-01
        1   -1    0    0  501    0  0.00000000000E+00  0.00000000000E+00  0.11309344429E+04  0.11309344429E+04  0.50400001928E-02 0. -1.
       -1   -1    0    0    0  501  0.00000000000E+00  0.00000000000E+00 -0.17975966847E+03  0.17975966854E+03  0.50400001928E-02 0.  1.
    10030    2    1    2    0    0  0.00000000000E+00  0.00000000000E+00  0.95117477440E+03  0.13106941114E+04  0.90176804238E+03 0.  0.
        2    1    3    3  502    0 -0.36238245948E+03 -0.55584202886E+02  0.94107888242E+02  0.37850620231E+03  0.25500000920E-02 0.  1.
       -2    1    3    3    0  502  0.36238245948E+03  0.55584202886E+02  0.85706688616E+03  0.93218790912E+03  0.25500000920E-02 0. -1.
</event>
<event>
 5   0  0.2356918E-04  0.9000139E+03  0.7818609E-02  0.9425564E-01
        1   -1    0    0  501    0  0.00000000000E+00  0.00000000000E+00  0.61382274449E+03  0.61382274451E+03  0.50400001928E-02 0.  1.
       -1   -1    0    0    0  501  0.00000000000E+00  0.00000000000E+00 -0.32990998810E+03  0.32990998814E+03  0.50400001928E-02 0. -1.
    10030    2    1    2    0    0  0.00000000000E+00  0.00000000000E+00  0.28391275639E+03  0.94373273265E+03  0.90001389847E+03 0.  0.
        5    1    3    3  502    0  0.97724831957E+00  0.26540227445E+03 -0.23907480833E+03  0.35723686298E+03  0.46999998093E+01 0. -1.
       -5    1    3    3    0  502 -0.97724831957E+00 -0.26540227445E+03  0.52298756471E+03  0.58649586967E+03  0.46999998093E+01 0.  1.
</event>
<event>
 5   0  0.3959804E-04  0.9001566E+03  0.7818609E-02  0.9425386E-01
        2   -1    0    0  501    0  0.00000000000E+00  0.00000000000E+00  0.86597406172E+03  0.86597406172E+03  0.25500000920E-02 0. -1.
       -2   -1    0    0    0  501  0.00000000000E+00  0.00000000000E+00 -0.23392210456E+03  0.23392210457E+03  0.25500000920E-02 0.  1.
    10030    2    1    2    0    0  0.00000000000E+00  0.00000000000E+00  0.63205195716E+03  0.10998961663E+04  0.90015659753E+03 0.  0.
        5    1    3    3  502    0 -0.97766241255E+02 -0.59210319351E+01  0.85276322938E+03  0.85838249745E+03  0.46999998093E+01 0. -1.
       -5    1    3    3    0  502  0.97766241255E+02  0.59210319351E+01 -0.22071127223E+03  0.24151366884E+03  0.46999998093E+01 0.  1.
</event>
<event>
 5   0  0.2356918E-04  0.9000484E+03  0.7818609E-02  0.9425521E-01
       -1   -1    0    0    0  501  0.00000000000E+00  0.00000000000E+00  0.15630521950E+03  0.15630521958E+03  0.50400001928E-02 0. -1.
        1   -1    0    0  501    0  0.00000000000E+00  0.00000000000E+00 -0.12956813878E+04  0.12956813879E+04  0.50400001928E-02 0.  1.
    10030    2    1    2    0    0  0.00000000000E+00  0.00000000000E+00 -0.11393761683E+04  0.14519866074E+04  0.90004836268E+03 0.  0.
        5    1    3    3  502    0  0.44132701351E+01 -0.44975192221E+03 -0.54668013551E+03  0.70793893031E+03  0.46999998093E+01 0. -1.
       -5    1    3    3    0  502 -0.44132701351E+01  0.44975192221E+03 -0.59269603284E+03  0.74404767712E+03  0.46999998093E+01 0.  1.
</event>
<event>
 5   0  0.4243516E-04  0.8999392E+03  0.7818609E-02  0.9425657E-01
       -2   -1    0    0    0  501  0.00000000000E+00  0.00000000000E+00  0.86381001645E+03  0.86381001646E+03  0.25500000920E-02 0.  1.
        2   -1    0    0  501    0  0.00000000000E+00  0.00000000000E+00 -0.23439490104E+03  0.23439490106E+03  0.25500000920E-02 0. -1.
    10030    2    1    2    0    0  0.00000000000E+00  0.00000000000E+00  0.62941511541E+03  0.10982049175E+04  0.89993924981E+03 0.  0.
        1    1    3    3  502    0  0.35503630922E+03  0.78121190654E+02 -0.88908800546E+01  0.36363821178E+03  0.50400001928E-02 0. -1.
       -1    1    3    3    0  502 -0.35503630922E+03 -0.78121190654E+02  0.63830599546E+03  0.73456670573E+03  0.50400001928E-02 0.  1.
</event>
<event>
 5   0  0.2308362E-04  0.8993697E+03  0.7818609E-02  0.9426370E-01
       -1   -1    0    0    0  501  0.00000000000E+00  0.00000000000E+00  0.37614988044E+03  0.37614988047E+03  0.50400001928E-02 0. -1.
        1   -1    0    0  501    0  0.00000000000E+00  0.00000000000E+00 -0.53759550778E+03  0.53759550780E+03  0.50400001928E-02 0.  1.
    10030    2    1    2    0    0  0.00000000000E+00  0.00000000000E+00 -0.16144562734E+03  0.91374538828E+03  0.89936974822E+03 0.  0.
        1    1    3    3  502    0 -0.13262099074E+03  0.29518194009E+03  0.23651126443E+03  0.40082200933E+03  0.50400001928E-02 0. -1.
       -1    1    3    3    0  502  0.13262099074E+03 -0.29518194009E+03 -0.39795689176E+03  0.51292337894E+03  0.50400001928E-02 0.  1.
</event>
<event>
 5   0  0.4033144E-04  0.8997200E+03  0.7818609E-02  0.9425932E-01
       -2   -1    0    0    0  501  0.00000000000E+00  0.00000000000E+00  0.95719845003E+02  0.95719845037E+02  0.25500000920E-02 0. -1.
        2   -1    0    0  501    0  0.00000000000E+00  0.00000000000E+00 -0.21142326029E+04  0.21142326029E+04  0.25500000920E-02 0.  1.
    10030    2    1    2    0    0  0.00000000000E+00  0.00000000000E+00 -0.20185127579E+04  0.22099524479E+04  0.89971999442E+03 0.  0.
        4    1    3    3  502    0  0.20626180459E+02  0.37305552713E+03 -0.16246801113E+04  0.16670881628E+04  0.12699999809E+01 0.  1.
       -4    1    3    3    0  502 -0.20626180459E+02 -0.37305552713E+03 -0.39383264661E+03  0.54286428514E+03  0.12699999809E+01 0. -1.
</event>
<event>
 5   0  0.4110039E-04  0.8996895E+03  0.7818609E-02  0.9425970E-01
        2   -1    0    0  501    0  0.00000000000E+00  0.00000000000E+00  0.88916717122E+03  0.88916717123E+03  0.25500000920E-02 0. -1.
       -2   -1    0    0    0  501  0.00000000000E+00  0.00000000000E+00 -0.22758411167E+03  0.22758411168E+03  0.25500000920E-02 0.  1.
    10030    2    1    2    0    0  0.00000000000E+00  0.00000000000E+00  0.66158305956E+03  0.11167512829E+04  0.89968954822E+03 0.  0.
        3    1    3    3  502    0 -0.25427961132E+02  0.32651342352E+03 -0.51998166697E+02  0.33160430710E+03  0.10100000352E+00 0.  1.
       -3    1    3    3    0  502  0.25427961132E+02 -0.32651342352E+03  0.71358122626E+03  0.78514697580E+03  0.10100000352E+00 0. -1.
</event>
<event>
 5   0  0.2450427E-04  0.9002934E+03  0.7818609E-02  0.9425215E-01
       -1   -1    0    0    0  501  0.00000000000E+00  0.00000000000E+00  0.26199692525E+03  0.26199692530E+03  0.50400001928E-02 0.  1.
        1   -1    0    0  501    0  0.00000000000E+00  0.00000000000E+00 -0.77341385639E+03  0.77341385641E+03  0.50400001928E-02 0. -1.
    10030    2    1    2    0    0  0.00000000000E+00  0.00000000000E+00 -0.51141693114E+03  0.10354107817E+04  0.90029340185E+03 0.  0.
        3    1    3    3  502    0  0.74881195303E+02  0.25300668694E+03 -0.67515323869E+03  0.72488032320E+03  0.10100000352E+00 0. -1.
       -3    1    3    3    0  502 -0.74881195303E+02 -0.25300668694E+03  0.16373630755E+03  0.31053045850E+03  0.10100000352E+00 0.  1.
</event>
<event>
 5   0  0.2356918E-04  0.9005166E+03  0.7818609E-02  0.9424936E-01
        1   -1    0    0  501    0  0.00000000000E+00  0.00000000000E+00  0.44446063847E+03  0.44446063849E+03  0.50400001928E-02 0. -1.
       -1   -1    0    0    0  501  0.00000000000E+00  0.00000000000E+00 -0.45613155107E+03  0.45613155110E+03  0.50400001928E-02 0.  1.
    10030    2    1    2    0    0  0.00000000000E+00  0.00000000000E+00 -0.11670912607E+02  0.90059218960E+03  0.90051656385E+03 0.  0.
        5    1    3    3  502    0 -0.15653922312E+03 -0.41445971377E+03  0.74352620124E+02  0.44925692519E+03  0.46999998093E+01 0. -1.
       -5    1    3    3    0  502  0.15653922312E+03  0.41445971377E+03 -0.86023532731E+02  0.45133526441E+03  0.46999998093E+01 0.  1.
</event>
<event>
 5   0  0.1596250E-04  0.9000242E+03  0.7818609E-02  0.9425551E-01
        3   -1    0    0  501    0  0.00000000000E+00  0.00000000000E+00  0.90053113129E+03  0.90053113695E+03  0.10100000352E+00 0.  1.
       -3   -1    0    0    0  501  0.00000000000E+00  0.00000000000E+00 -0.22487938666E+03  0.22487940934E+03  0.10100000352E+00 0. -1.
    10030    2    1    2    0    0  0.00000000000E+00  0.00000000000E+00  0.67565174463E+03  0.11254105463E+04  0.90002423172E+03 0.  0.
        2    1    3    3  502    0 -0.15553871642E+03  0.20084232234E+03 -0.12665344585E+03  0.28385035864E+03  0.25500000920E-02 0. -1.
       -2    1    3    3    0  502  0.15553871642E+03 -0.20084232234E+03  0.80230519048E+03  0.84156018765E+03  0.25500000920E-02 0.  1.
</event>
<event>
 5   0  0.2332791E-04  0.8984706E+03  0.7818609E-02  0.9427495E-01
       -1   -1    0    0    0  501  0.00000000000E+00  0.00000000000E+00  0.28589463758E+03  0.28589463762E+03  0.50400001928E-02 0.  1.
        1   -1    0    0  501    0  0.00000000000E+00  0.00000000000E+00 -0.70589773107E+03  0.70589773109E+03  0.50400001928E-02 0. -1.
    10030    2    1    2    0    0  0.00000000000E+00  0.00000000000E+00 -0.42000309349E+03  0.99179236871E+03  0.89847064731E+03 0.  0.
        2    1    3    3  502    0  0.34754284296E+03 -0.15793249210E+03  0.51416223302E+02  0.38519128726E+03  0.25500000920E-02 0.  1.
       -2    1    3    3    0  502 -0.34754284296E+03  0.15793249210E+03 -0.47141931680E+03  0.60660108145E+03  0.25500000920E-02 0. -1.
</event>
<event>
 5   0  0.3959804E-04  0.9001511E+03  0.7818609E-02  0.9425393E-01
       -2   -1    0    0    0  501  0.00000000000E+00  0.00000000000E+00  0.17255313294E+03  0.17255313296E+03  0.25500000920E-02 0. -1.
        2   -1    0    0  501    0  0.00000000000E+00  0.00000000000E+00 -0.11739455581E+04  0.11739455581E+04  0.25500000920E-02 0.  1.
    10030    2    1    2    0    0  0.00000000000E+00  0.00000000000E+00 -0.10013924252E+04  0.13464986911E+04  0.90015106282E+03 0.  0.
        5    1    3    3  502    0 -0.51865987022E+02 -0.41444353964E+03 -0.24997868609E+03  0.48679046998E+03  0.46999998093E+01 0.  1.
       -5    1    3    3    0  502  0.51865987022E+02  0.41444353964E+03 -0.75141373909E+03  0.85970822112E+03  0.46999998093E+01 0. -1.
</event>
<event>
 5   0  0.4236284E-04  0.9000951E+03  0.7818609E-02  0.9425462E-01
        2   -1    0    0  501    0  0.00000000000E+00  0.00000000000E+00  0.10480453149E+04  0.10480453149E+04  0.25500000920E-02 0. -1.
       -2   -1    0    0    0  501  0.00000000000E+00  0.00000000000E+00 -0.19325769016E+03  0.19325769017E+03  0.25500000920E-02 0.  1.
    10030    2    1    2    0    0  0.00000000000E+00  0.00000000000E+00  0.85478762472E+03  0.12413030051E+04  0.90009514329E+03 0.  0.
        2    1    3    3  502    0  0.19859901853E+03 -0.18630236037E+03 -0.66757002203E+02  0.28036875181E+03  0.25500000920E-02 0.  1.
       -2    1    3    3    0  502 -0.19859901853E+03  0.18630236037E+03  0.92154462692E+03  0.96093425325E+03  0.25500000920E-02 0. -1.
</event>
<event>
 5   0  0.4110039E-04  0.9001256E+03  0.7818609E-02  0.9425424E-01
       -2   -1    0    0    0  501  0.00000000000E+00  0.00000000000E+00  0.21132982671E+03  0.21132982672E+03  0.25500000920E-02 0.  1.
        2   -1    0    0  501    0  0.00000000000E+00  0.00000000000E+00 -0.95848518166E+03  0.95848518167E+03  0.25500000920E-02 0. -1.
    10030    2    1    2    0    0  0.00000000000E+00  0.00000000000E+00 -0.74715535495E+03  0.11698150084E+04  0.90012556314E+03 0.  0.
        3    1    3    3  502    0 -0.20159795340E+03 -0.78930806244E+02  0.13920936985E+03  0.25739282400E+03  0.10100000352E+00 0.  1.
       -3    1    3    3    0  502  0.20159795340E+03  0.78930806244E+02 -0.88636472481E+03  0.91242218439E+03  0.10100000352E+00 0. -1.
</event>
<event>
 5   0  0.4236284E-04  0.9007533E+03  0.7818609E-02  0.9424640E-01
       -2   -1    0    0    0  501  0.00000000000E+00  0.00000000000E+00  0.17351589101E+03  0.17351589102E+03  0.25500000920E-02 0.  1.
        2   -1    0    0  501    0  0.00000000000E+00  0.00000000000E+00 -0.11689946467E+04  0.11689946467E+04  0.25500000920E-02 0. -1.
    10030    2    1    2    0    0  0.00000000000E+00  0.00000000000E+00 -0.99547875567E+03  0.13425105377E+04  0.90075334629E+03 0.  0.
        2    1    3    3  502    0 -0.34956464412E+03 -0.25127766608E+03 -0.69492310234E+03  0.81746805690E+03  0.25500000920E-02 0. -1.
       -2    1    3    3    0  502  0.34956464412E+03  0.25127766608E+03 -0.30055565333E+03  0.52504248080E+03  0.25500000920E-02 0.  1.
</event>
<event>
 5   0  0.4110039E-04  0.9000470E+03  0.7818609E-02  0.9425523E-01
       -2   -1    0    0    0  501  0.00000000000E+00  0.00000000000E+00  0.81071079473E+03  0.81071079473E+03  0.25500000920E-02 0. -1.
        2   -1    0    0  501    0  0.00000000000E+00  0.00000000000E+00 -0.24980690159E+03  0.24980690161E+03  0.25500000920E-02 0.  1.
    10030    2    1    2    0    0  0.00000000000E+00  0.00000000000E+00  0.56090389313E+03  0.10605176963E+04  0.90004700261E+03 0.  0.
        3    1    3    3  502    0  0.37714299438E+03  0.58417822579E+02 -0.54440901908E+00  0.38164091341E+03  0.10100000352E+00 0.  1.
       -3    1    3    3    0  502 -0.37714299438E+03 -0.58417822579E+02  0.56144830215E+03  0.67887678293E+03  0.10100000352E+00 0. -1.
</event>
<event>
 5   0  0.3959804E-04  0.8998654E+03  0.7818609E-02  0.9425750E-01
       -2   -1    0    0    0  501  0.00000000000E+00  0.00000000000E+00  0.11476880342E+03  0.11476880344E+03  0.25500000920E-02 0.  1.
        2   -1    0    0  501    0  0.00000000000E+00  0.00000000000E+00 -0.17638890027E+04  0.17638890027E+04  0.25500000920E-02 0. -1.
    10030    2    1    2    0    0  0.00000000000E+00  0.00000000000E+00 -0.16491201993E+04  0.18786578062E+04  0.89986539044E+03 0.  0.
        5    1    3    3  502    0  0.12153240651E+03 -0.18458116048E+03 -0.64095320079E+01  0.22114136369E+03  0.46999998093E+01 0.  1.
       -5    1    3    3    0  502 -0.12153240651E+03  0.18458116048E+03 -0.16427106673E+04  0.16575164425E+04  0.46999998093E+01 0. -1.
</event>
<event>
 5   0  0.4033144E-04  0.8999069E+03  0.7818609E-02  0.9425698E-01
        2   -1    0    0  501    0  0.00000000000E+00  0.00000000000E+00  0.52860259983E+03  0.52860259983E+03  0.25500000920E-02 0. -1.
       -2   -1    0    0    0  501  0.00000000000E+00  0.00000000000E+00 -0.38300628267E+03  0.38300628268E+03  0.25500000920E-02 0.  1.
    10030    2    1    2    0    0  0.00000000000E+00  0.00000000000E+00  0.14559631715E+03  0.91160888251E+03  0.89990692136E+03 0.  0.
        4    1    3    3  502    0  0.61221239733E+02 -0.88245621409E+02  0.51542526264E+03  0.52649800015E+03  0.12699999809E+01 0. -1.
       -4    1    3    3    0  502 -0.61221239733E+02  0.88245621409E+02 -0.36982894549E+03  0.38511088236E+03  0.12699999809E+01 0.  1.
</event>
<event>
 5   0  0.4033144E-04  0.8994934E+03  0.7818609E-02  0.9426215E-01
       -2   -1    0    0    0  501  0.00000000000E+00  0.00000000000E+00  0.26102716615E+03  0.26102716616E+03  0.25500000920E-02 0. -1.
        2   -1    0    0  501    0  0.00000000000E+00  0.00000000000E+00 -0.77490820080E+03  0.77490820080E+03  0.25500000920E-02 0.  1.
    10030    2    1    2    0    0  0.00000000000E+00  0.00000000000E+00 -0.51388103465E+03  0.10359353670E+04  0.89949339450E+03 0.  0.
        4    1    3    3  502    0  0.18799544878E+03  0.40399204049E+03 -0.32717100027E+03  0.55280587358E+03  0.12699999809E+01 0.  1.
       -4    1    3    3    0  502 -0.18799544878E+03 -0.40399204049E+03 -0.18671003438E+03  0.48312949339E+03  0.12699999809E+01 0. -1.
</event>
<event>
 5   0  0.2308362E-04  0.9010282E+03  0.7818609E-02  0.9424297E-01
        1   -1    0    0  501    0  0.00000000000E+00  0.00000000000E+00  0.81805164856E+03  0.81805164858E+03  0.50400001928E-02 0.  1.
       -1   -1    0    0    0  501  0.00000000000E+00  0.00000000000E+00 -0.24810529198E+03  0.24810529203E+03  0.50400001928E-02 0. -1.
    10030    2    1    2    0    0  0.00000000000E+00  0.00000000000E+00  0.56994635658E+03  0.10661569406E+04  0.90102817527E+03 0.  0.
        1    1    3    3  502    0  0.24788072868E+03 -0.27840175163E+02  0.72888446519E+03  0.77038464069E+03  0.50400001928E-02 0.  1.
       -1    1    3    3    0  502 -0.24788072868E+03  0.27840175163E+02 -0.15893810861E+03  0.29577229991E+03  0.50400001928E-02 0. -1.
</event>
<event>
 5   0  0.4236284E-04  0.8991264E+03  0.7818609E-02  0.9426674E-01
       -2   -1    0    0    0  501  0.00000000000E+00  0.00000000000E+00  0.19362117385E+03  0.19362117387E+03  0.25500000920E-02 0. -1.
        2   -1    0    0  501    0  0.00000000000E+00  0.00000000000E+00 -0.10438272887E+04  0.10438272887E+04  0.25500000920E-02 0.  1.
    10030    2    1    2    0    0  0.00000000000E+00  0.00000000000E+00 -0.85020611489E+03  0.12374484626E+04  0.89912638702E+03 0.  0.
        2    1    3    3  502    0 -0.57872025704E+02 -0.21485352311E+03 -0.96272594457E+03  0.98810548632E+03  0.25500000920E-02 0.  1.
       -2    1    3    3    0  502  0.57872025704E+02  0.21485352311E+03  0.11251982968E+03  0.24934297629E+03  0.25500000920E-02 0. -1.
</event>
<event>
 5   0  0.2356918E-04  0.8999638E+03  0.7818609E-02  0.9425627E-01
        1   -1    0    0  501    0  0.00000000000E+00  0.00000000000E+00  0.18313329827E+03  0.18313329833E+03  0.50400001928E-02 0.  1.
       -1   -1    0    0    0  501  0.00000000000E+00  0.00000000000E+00 -0.11056629892E+04  0.11056629892E+04  0.50400001928E-02 0. -1.
    10030    2    1    2    0    0  0.00000000000E+00  0.00000000000E+00 -0.92252969094E+03  0.12887962875E+04  0.89996379935E+03 0.  0.
        5    1    3    3  502    0  0.26625836429E+03 -0.24167555600E+03 -0.84861090195E+03  0.92166324860E+03  0.46999998093E+01 0. -1.
       -5    1    3    3    0  502 -0.26625836429E+03  0.24167555600E+03 -0.73918788990E+02  0.36713303895E+03  0.46999998093E+01 0.  1.
</event>
<event>
 5   0  0.2351435E-04  0.9000330E+03  0.7818609E-02  0.9425540E-01
       -1   -1    0    0    0  501  0.00000000000E+00  0.00000000000E+00  0.38338731522E+03  0.38338731525E+03  0.50400001928E-02 0.  1.
        1   -1    0    0  501    0  0.00000000000E+00  0.00000000000E+00 -0.52822520707E+03  0.52822520709E+03  0.50400001928E-02 0. -1.
    10030    2    1    2    0    0  0.00000000000E+00  0.00000000000E+00 -0.14483789185E+03  0.91161252234E+03  0.90003298605E+03 0.  0.
        4    1    3    3  502    0 -0.17072083929E+03  0.20824590107E+03 -0.43761464530E+03  0.51382891215E+03  0.12699999809E+01 0. -1.
       -4    1    3    3    0  502  0.17072083929E+03 -0.20824590107E+03  0.29277675344E+03  0.39778361019E+03  0.12699999809E+01 0.  1.
</event>
<event>
 5   0  0.2356918E-04  0.8999266E+03  0.7818609E-02  0.9425673E-01
       -1   -1    0    0    0  501  0.00000000000E+00  0.00000000000E+00  0.41210734696E+03  0.41210734699E+03  0.50400001928E-02 0. -1.
        1   -1    0    0  501    0  0.00000000000E+00  0.00000000000E+00 -0.49129662944E+03  0.49129662947E+03  0.50400001928E-02 0.  1.
    10030    2    1    2    0    0  0.00000000000E+00  0.00000000000E+00 -0.79189282489E+02  0.90340397646E+03  0.89992655379E+03 0.  0.
        5    1    3    3  502    0  0.38065269325E+03  0.16507791154E+03  0.13514021719E+03  0.43638533209E+03  0.46999998093E+01 0. -1.
       -5    1    3    3    0  502 -0.38065269325E+03 -0.16507791154E+03 -0.21432949968E+03  0.46701864437E+03  0.46999998093E+01 0.  1.
</event>
<event>
 5   0  0.4243516E-04  0.9004927E+03  0.7818609E-02  0.9424966E-01
        2   -1    0    0  501    0  0.00000000000E+00  0.00000000000E+00  0.45063401642E+03  0.45063401642E+03  0.25500000920E-02 0. -1.
       -2   -1    0    0    0  501  0.00000000000E+00  0.00000000000E+00 -0.44985901905E+03  0.44985901906E+03  0.25500000920E-02 0.  1.
    10030    2    1    2    0    0  0.00000000000E+00  0.00000000000E+00  0.77499736758E+00  0.90049303548E+03  0.90049270199E+03 0.  0.
        1    1    3    3  502    0  0.30764132765E+02  0.12270334555E+03 -0.43172287146E+03  0.44987462769E+03  0.50400001928E-02 0.  1.
       -1    1    3    3    0  502 -0.30764132765E+02 -0.12270334555E+03  0.43249786883E+03  0.45061840779E+03  0.50400001928E-02 0. -1.
</event>
<event>
 5   0  0.4110039E-04  0.9000370E+03  0.7818609E-02  0.9425535E-01
        2   -1    0    0  501    0  0.00000000000E+00  0.00000000000E+00  0.15814140494E+04  0.15814140494E+04  0.25500000920E-02 0. -1.
       -2   -1    0    0    0  501  0.00000000000E+00  0.00000000000E+00 -0.12806049333E+03  0.12806049335E+03  0.25500000920E-02 0.  1.
    10030    2    1    2    0    0  0.00000000000E+00  0.00000000000E+00  0.14533535561E+04  0.17094745428E+04  0.90003702890E+03 0.  0.
        3    1    3    3  502    0  0.36105458050E+03  0.25092891361E+03  0.90876499060E+03  0.10095442279E+04  0.10100000352E+00 0. -1.
       -3    1    3    3    0  502 -0.36105458050E+03 -0.25092891361E+03  0.54458856548E+03  0.69993031485E+03  0.10100000352E+00 0.  1.
</event>
<event>
 5   0  0.3959804E-04  0.9002461E+03  0.7818609E-02  0.9425274E-01
        2   -1    0    0  501    0  0.00000000000E+00  0.00000000000E+00  0.73242102277E+03  0.73242102278E+03  0.25500000920E-02 0. -1.
       -2   -1    0    0    0  501  0.00000000000E+00  0.00000000000E+00 -0.27663153444E+03  0.27663153445E+03  0.25500000920E-02 0.  1.
    10030    2    1    2    0    0  0.00000000000E+00  0.00000000000E+00  0.45578948833E+03  0.10090525572E+04  0.90024608057E+03 0.  0.
        5    1    3    3  502    0  0.22492711182E+03  0.20857481512E+03  0.59708770480E+03  0.67129090293E+03  0.46999998093E+01 0. -1.
       -5    1    3    3    0  502 -0.22492711182E+03 -0.20857481512E+03 -0.14129821647E+03  0.33776165429E+03  0.46999998093E+01 0.  1.
</event>
<event>
 5   0  0.2356918E-04  0.9001752E+03  0.7818609E-02  0.9425362E-01
       -1   -1    0    0    0  501  0.00000000000E+00  0.00000000000E+00  0.29817143157E+03  0.29817143161E+03  0.50400001928E-02 0. -1.
        1   -1    0    0  501    0  0.00000000000E+00  0.00000000000E+00 -0.67940402095E+03  0.67940402097E+03  0.50400001928E-02 0.  1.
    10030    2    1    2    0    0  0.00000000000E+00  0.00000000000E+00 -0.38123258938E+03  0.97757545258E+03  0.90017524865E+03 0.  0.
        5    1    3    3  502    0  0.21405617880E+03  0.31607541060E+03 -0.44951135600E+03  0.58975101699E+03  0.46999998093E+01 0.  1.
       -5    1    3    3    0  502 -0.21405617880E+03 -0.31607541060E+03  0.68278766614E+02  0.38782443559E+03  0.46999998093E+01 0. -1.
</event>
<event>
 5   0  0.4110039E-04  0.9000147E+03  0.7818609E-02  0.9425563E-01
       -2   -1    0    0    0  501  0.00000000000E+00  0.00000000000E+00  0.39329795866E+03  0.39329795866E+03  0.25500000920E-02 0.  1.
        2   -1    0    0  501    0  0.00000000000E+00  0.00000000000E+00 -0.51489366884E+03  0.51489366885E+03  0.25500000920E-02 0. -1.
    10030    2    1    2    0    0  0.00000000000E+00  0.00000000000E+00 -0.12159571019E+03  0.90819162751E+03  0.90001473074E+03 0.  0.
        3    1    3    3  502    0 -0.34767060147E+02 -0.15871391088E+02  0.39165732140E+03  0.39351761985E+03  0.10100000352E+00 0.  1.
       -3    1    3    3    0  502  0.34767060147E+02  0.15871391088E+02 -0.51325303159E+03  0.51467400766E+03  0.10100000352E+00 0. -1.
</event>
<event>
 5   0  0.4033144E-04  0.9011303E+03  0.7818609E-02  0.9424170E-01
       -2   -1    0    0    0  501  0.00000000000E+00  0.00000000000E+00  0.27729484568E+04  0.27729484568E+04  0.25500000920E-02 0.  1.
        2   -1    0    0  501    0  0.00000000000E+00  0.00000000000E+00 -0.73210500953E+02  0.73210500998E+02  0.25500000920E-02 0. -1.
    10030    2    1    2    0    0  0.00000000000E+00  0.00000000000E+00  0.26997379558E+04  0.28461589578E+04  0.90113028071E+03 0.  0.
        4    1    3    3  502    0  0.43174196930E+03  0.67186743034E+02  0.16971837577E+04  0.17525266066E+04  0.12699999809E+01 0. -1.
       -4    1    3    3    0  502 -0.43174196930E+03 -0.67186743034E+02  0.10025541981E+04  0.10936323512E+04  0.12699999809E+01 0.  1.
</event>
<event>
 5   0  0.3959804E-04  0.9000257E+03  0.7818609E-02  0.9425549E-01
        2   -1    0    0  501    0  0.00000000000E+00  0.00000000000E+00  0.10749512626E+04  0.10749512626E+04  0.25500000920E-02 0. -1.
       -2   -1    0    0    0  501  0.00000000000E+00  0.00000000000E+00 -0.18839138118E+03  0.18839138119E+03  0.25500000920E-02 0.  1.
    10030    2    1    2    0    0  0.00000000000E+00  0.00000000000E+00  0.88655988140E+03  0.12633426438E+04  0.90002567312E+03 0.  0.
        5    1    3    3  502    0  0.42864141121E+02 -0.44690784294E+03  0.48598274921E+03  0.66163832809E+03  0.46999998093E+01 0.  1.
       -5    1    3    3    0  502 -0.42864141121E+02  0.44690784294E+03  0.40057713219E+03  0.60170431568E+03  0.46999998093E+01 0. -1.
</event>
<event>
 5   0  0.2356918E-04  0.8995757E+03  0.7818609E-02  0.9426112E-01
        1   -1    0    0  501    0  0.00000000000E+00  0.00000000000E+00  0.38136661523E+03  0.38136661526E+03  0.50400001928E-02 0.  1.
       -1   -1    0    0    0  501  0.00000000000E+00  0.00000000000E+00 -0.53048460802E+03  0.53048460804E+03  0.50400001928E-02 0. -1.
    10030    2    1    2    0    0  0.00000000000E+00  0.00000000000E+00 -0.14911799279E+03  0.91185122330E+03  0.89957572092E+03 0.  0.
        5    1    3    3  502    0  0.25719121049E+03 -0.36437320705E+03 -0.13341924591E+03  0.46555121947E+03  0.46999998093E+01 0. -1.
       -5    1    3    3    0  502 -0.25719121049E+03  0.36437320705E+03 -0.15698746878E+02  0.44630000383E+03  0.46999998093E+01 0.  1.
</event>
<event>
 5   0  0.4110039E-04  0.8993304E+03  0.7818609E-02  0.9426419E-01
       -2   -1    0    0    0  501  0.00000000000E+00  0.00000000000E+00  0.15941917136E+03  0.15941917138E+03  0.25500000920E-02 0. -1.
        2   -1    0    0  501    0  0.00000000000E+00  0.00000000000E+00 -0.12683468625E+04  0.12683468625E+04  0.25500000920E-02 0.  1.
    10030    2    1    2    0    0  0.00000000000E+00  0.00000000000E+00 -0.11089276912E+04  0.14277660339E+04  0.89933043058E+03 0.  0.
        3    1    3    3  502    0  0.15786036662E+03 -0.36703972922E+03 -0.22694044884E+03  0.45949976681E+03  0.10100000352E+00 0. -1.
       -3    1    3    3    0  502 -0.15786036662E+03  0.36703972922E+03 -0.88198724235E+03  0.96826626712E+03  0.10100000352E+00 0.  1.
</event>
<event>
 5   0  0.4243516E-04  0.9000443E+03  0.7818609E-02  0.9425526E-01
        2   -1    0    0  501    0  0.00000000000E+00  0.00000000000E+00  0.12420614263E+04  0.12420614263E+04  0.25500000920E-02 0. -1.
       -2   -1    0    0    0  501  0.00000000000E+00  0.00000000000E+00 -0.16305147858E+03  0.16305147860E+03  0.25500000920E-02 0.  1.
    10030    2    1    2    0    0  0.00000000000E+00  0.00000000000E+00  0.10790099477E+04  0.14051129049E+04  0.90004433681E+03 0.  0.
        1    1    3    3  502    0  0.25784351805E+03  0.18199372572E+01 -0.36292866364E+02  0.26039155928E+03  0.50400001928E-02 0.  1.
       -1    1    3    3    0  502 -0.25784351805E+03 -0.18199372572E+01  0.11153028141E+04  0.11447213456E+04  0.50400001928E-02 0. -1.
</event>
<event>
 5   0  0.4033144E-04  0.8996366E+03  0.7818609E-02  0.9426036E-01
        2   -1    0    0  501    0  0.00000000000E+00  0.00000000000E+00  0.55243124801E+03  0.55243124802E+03  0.25500000920E-02 0. -1.
       -2   -1    0    0    0  501  0.00000000000E+00  0.00000000000E+00 -0.36626547658E+03  0.36626547659E+03  0.25500000920E-02 0.  1.
    10030    2    1    2    0    0  0.00000000000E+00  0.00000000000E+00  0.18616577143E+03  0.91869672461E+03  0.89963658071E+03 0.  0.
        4    1    3    3  502    0 -0.13820649367E+03 -0.26938264326E+02 -0.34317794769E+03  0.37094396026E+03  0.12699999809E+01 0.  1.
       -4    1    3    3    0  502  0.13820649367E+03  0.26938264326E+02  0.52934371912E+03  0.54775276435E+03  0.12699999809E+01 0. -1.
</event>
<event>
 5   0  0.4243516E-04  0.8986813E+03  0.7818609E-02  0.9427231E-01
       -2   -1    0    0    0  501  0.00000000000E+00  0.00000000000E+00  0.17082344182E+03  0.17082344184E+03  0.25500000920E-02 0. -1.
        2   -1    0    0  501    0  0.00000000000E+00  0.00000000000E+00 -0.11819630824E+04  0.11819630824E+04  0.25500000920E-02 0.  1.
    10030    2    1    2    0    0  0.00000000000E+00  0.00000000000E+00 -0.10111396406E+04  0.13527865242E+04  0.89868126020E+03 0.  0.
        1    1    3    3  502    0 -0.82927743144E+02  0.73272955642E+02 -0.11611301658E+04  0.11663915289E+04  0.50400001928E-02 0.  1.
       -1    1    3    3    0  502  0.82927743144E+02 -0.73272955642E+02  0.14999052525E+03  0.18639499538E+03  0.50400001928E-02 0. -1.
</event>
<event>
 5   0  0.4110039E-04  0.9002906E+03  0.7818609E-02  0.9425218E-01
        2   -1    0    0  501    0  0.00000000000E+00  0.00000000000E+00  0.84787578346E+03  0.84787578346E+03  0.25500000920E-02 0.  1.
       -2   -1    0    0    0  501  0.00000000000E+00  0.00000000000E+00 -0.23898640916E+03  0.23898640918E+03  0.25500000920E-02 0. -1.
    10030    2    1    2    0    0  0.00000000000E+00  0.00000000000E+00  0.60888937429E+03  0.10868621926E+04  0.90029059512E+03 0.  0.
        3    1    3    3  502    0 -0.20197080927E+03  0.32056904821E+03  0.11024381930E+02  0.37904916523E+03  0.10100000352E+00 0. -1.
       -3    1    3    3    0  502  0.20197080927E+03 -0.32056904821E+03  0.59786499236E+03  0.70781302740E+03  0.10100000352E+00 0.  1.
</event>
<event>
 5   0  0.4236284E-04  0.8998799E+03  0.7818609E-02  0.9425732E-01
        2   -1    0    0  501    0  0.00000000000E+00  0.00000000000E+00  0.66578326442E+03  0.66578326442E+03  0.25500000920E-02 0.  1.
       -2   -1    0    0    0  501  0.00000000000E+00  0.00000000000E+00 -0.30407183611E+03  0.30407183612E+03  0.25500000920E-02 0. -1.
    10030    2    1    2    0    0  0.00000000000E+00  0.00000000000E+00  0.36171142831E+03  0.96985510054E+03  0.89987985791E+03 0.  0.
        2    1    3    3  502    0  0.19115907580E+02 -0.29973748700E+03  0.54192637972E+03  0.61959033246E+03  0.25500000920E-02 0.  1.
       -2    1    3    3    0  502 -0.19115907580E+02  0.29973748700E+03 -0.18021495141E+03  0.35026476808E+03  0.25500000920E-02 0. -1.
</event>
<event>
 5   0  0.4243516E-04  0.8995619E+03  0.7818609E-02  0.9426129E-01
       -2   -1    0    0    0  501  0.00000000000E+00  0.00000000000E+00  0.56030265943E+03  0.56030265943E+03  0.25500000920E-02 0. -1.
        2   -1    0    0  501    0  0.00000000000E+00  0.00000000000E+00 -0.36106004372E+03  0.36106004373E+03  0.25500000920E-02 0.  1.
    10030    2    1    2    0    0  0.00000000000E+00  0.00000000000E+00  0.19924261571E+03  0.92136270316E+03  0.89956189941E+03 0.  0.
        1    1    3    3  502    0 -0.49086131524E+02 -0.76101176993E+02  0.55086864631E+03  0.55826257528E+03  0.50400001928E-02 0. -1.
       -1    1    3    3    0  502  0.49086131524E+02  0.76101176993E+02 -0.35162603060E+03  0.36310012788E+03  0.50400001928E-02 0.  1.
</event>
<event>
 5   0  0.4236284E-04  0.8981666E+03  0.7818609E-02  0.9427876E-01
        2   -1    0    0  501    0  0.00000000000E+00  0.00000000000E+00  0.11286087751E+04  0.11286087751E+04  0.25500000920E-02 0. -1.
       -2   -1    0    0    0  501  0.00000000000E+00  0.00000000000E+00 -0.17869418028E+03  0.17869418030E+03  0.25500000920E-02 0.  1.
    10030    2    1    2    0    0  0.00000000000E+00  0.00000000000E+00  0.94991459479E+03  0.13073029554E+04  0.89816662135E+03 0.  0.
        2    1    3    3  502    0  0.81292515168E+01  0.31262244543E+03  0.58427407763E+01  0.31278269732E+03  0.25500000920E-02 0.  1.
       -2    1    3    3    0  502 -0.81292515168E+01 -0.31262244543E+03  0.94407185401E+03  0.99452025804E+03  0.25500000920E-02 0. -1.
</event>
<event>
 5   0  0.2308362E-04  0.8996614E+03  0.7818609E-02  0.9426005E-01
       -1   -1    0    0    0  501  0.00000000000E+00  0.00000000000E+00  0.39853907770E+03  0.39853907773E+03  0.50400001928E-02 0.  1.
        1   -1    0    0  501    0  0.00000000000E+00  0.00000000000E+00 -0.50772350144E+03  0.50772350147E+03  0.50400001928E-02 0. -1.
    10030    2    1    2    0    0  0.00000000000E+00  0.00000000000E+00 -0.10918442374E+03  0.90626257920E+03  0.89966139412E+03 0.  0.
        1    1    3    3  502    0  0.30543521150E+03  0.30417726532E+03 -0.18411707581E+03  0.46873614624E+03  0.50400001928E-02 0. -1.
       -1    1    3    3    0  502 -0.30543521150E+03 -0.30417726532E+03  0.74932652069E+02  0.43752643296E+03  0.50400001928E-02 0.  1.
</event>
<event>
 5   0  0.2332791E-04  0.8995718E+03  0.7818609E-02  0.9426117E-01
       -1   -1    0    0    0  501  0.00000000000E+00  0.00000000000E+00  0.11491057364E+03  0.11491057376E+03  0.50400001928E-02 0.  1.
        1   -1    0    0  501    0  0.00000000000E+00  0.00000000000E+00 -0.17605632995E+04  0.17605632995E+04  0.50400001928E-02 0. -1.
    10030    2    1    2    0    0  0.00000000000E+00  0.00000000000E+00 -0.16456527258E+04  0.18754738732E+04  0.89957176209E+03 0.  0.
        2    1    3    3  502    0  0.25346448683E+03 -0.37115418530E+03 -0.78625735763E+03  0.90564910853E+03  0.25500000920E-02 0.  1.
       -2    1    3    3    0  502 -0.25346448683E+03  0.37115418530E+03 -0.85939536819E+03  0.96982476470E+03  0.25500000920E-02 0. -1.
</event>
<event>
 5   0  0.2351435E-04  0.8999924E+03  0.7818609E-02  0.9425591E-01
       -1   -1    0    0    0  501  0.00000000000E+00  0.00000000000E+00  0.15087599103E+03  0.15087599111E+03  0.50400001928E-02 0.  1.
        1   -1    0    0  501    0  0.00000000000E+00  0.00000000000E+00 -0.13421392899E+04  0.13421392900E+04  0.50400001928E-02 0. -1.
    10030    2    1    2    0    0  0.00000000000E+00  0.00000000000E+00 -0.11912632989E+04  0.14930152811E+04  0.89999243450E+03 0.  0.
        4    1    3    3  502    0 -0.22787302999E+02 -0.39647734640E+03 -0.24457726750E+03  0.46640454550E+03  0.12699999809E+01 0.  1.
       -4    1    3    3    0  502  0.22787302999E+02  0.39647734640E+03 -0.94668603141E+03  0.10266107356E+04  0.12699999809E+01 0. -1.
</event>
<event>
 5   0  0.2356918E-04  0.8970868E+03  0.7818609E-02  0.9429230E-01
       -1   -1    0    0    0  501  0.00000000000E+00  0.00000000000E+00  0.40892581885E+03  0.40892581888E+03  0.50400001928E-02 0.  1.
        1   -1    0    0  501    0  0.00000000000E+00  0.00000000000E+00 -0.49199918660E+03  0.49199918662E+03  0.50400001928E-02 0. -1.
    10030    2    1    2    0    0  0.00000000000E+00  0.00000000000E+00 -0.83073367748E+02  0.90092500550E+03  0.89708677457E+03 0.  0.
        5    1    3    3  502    0 -0.54944504344E+02 -0.39893868156E+03  0.15678763317E+03  0.43217522154E+03  0.46999998093E+01 0.  1.
       -5    1    3    3    0  502  0.54944504344E+02  0.39893868156E+03 -0.23986100092E+03  0.46874978396E+03  0.46999998093E+01 0. -1.
</event>
<event>
 5   0  0.4110039E-04  0.9003762E+03  0.7818609E-02  0.9425111E-01
        2   -1    0    0  501    0  0.00000000000E+00  0.00000000000E+00  0.49363622903E+03  0.49363622904E+03  0.25500000920E-02 0. -1.
       -2   -1    0    0    0  501  0.00000000000E+00  0.00000000000E+00 -0.41056412096E+03  0.41056412097E+03  0.25500000920E-02 0.  1.
    10030    2    1    2    0    0  0.00000000000E+00  0.00000000000E+00  0.83072108069E+02  0.90420035001E+03  0.90037619794E+03 0.  0.
        3    1    3    3  502    0 -0.27267796806E+01 -0.14129521425E+03  0.47078280504E+03  0.49153660354E+03  0.10100000352E+00 0. -1.
       -3    1    3    3    0  502  0.27267796806E+01  0.14129521425E+03 -0.38771069698E+03  0.41266374646E+03  0.10100000352E+00 0.  1.
</event>
<event>
 5   0  0.1596250E-04  0.8995254E+03  0.7818609E-02  0.9426175E-01
       -3   -1    0    0    0  501  0.00000000000E+00  0.00000000000E+00  0.21701826709E+03  0.21701829060E+03  0.10100000352E+00 0.  1.
        3   -1    0    0  501    0  0.00000000000E+00  0.00000000000E+00 -0.93211725302E+03  0.93211725849E+03  0.10100000352E+00 0. -1.
    10030    2    1    2    0    0  0.00000000000E+00  0.00000000000E+00 -0.71509898593E+03  0.11491355491E+04  0.89952540292E+03 0.  0.
        4    1    3    3  502    0 -0.13207386931E+03  0.42858397107E+03 -0.31409324851E+03  0.54752525866E+03  0.12699999809E+01 0. -1.
       -4    1    3    3    0  502  0.13207386931E+03 -0.42858397107E+03 -0.40100573742E+03  0.60161029043E+03  0.12699999809E+01 0.  1.
</event>
<event>
 5   0  0.4110039E-04  0.8999282E+03  0.7818609E-02  0.9425671E-01
        2   -1    0    0  501    0  0.00000000000E+00  0.00000000000E+00  0.86621929888E+03  0.86621929889E+03  0.25500000920E-02 0.  1.
       -2   -1    0    0    0  501  0.00000000000E+00  0.00000000000E+00 -0.23373721158E+03  0.23373721160E+03  0.25500000920E-02 0. -1.
    10030    2    1    2    0    0  0.00000000000E+00  0.00000000000E+00  0.63248208730E+03  0.10999565105E+04  0.89992818280E+03 0.  0.
        3    1    3    3  502    0 -0.20844695222E+03  0.25683911965E+03  0.68908634107E+03  0.76436670579E+03  0.10100000352E+00 0.  1.
       -3    1    3    3    0  502  0.20844695222E+03 -0.25683911965E+03 -0.56604253767E+02  0.33558980470E+03  0.10100000352E+00 0. -1.
</event>
<event>
 5   0  0.2450427E-04  0.8989924E+03  0.7818609E-02  0.9426842E-01
        1   -1    0    0  501    0  0.00000000000E+00  0.00000000000E+00  0.62461711347E+03  0.62461711349E+03  0.50400001928E-02 0.  1.
       -1   -1    0    0    0  501  0.00000000000E+00  0.00000000000E+00 -0.32347308911E+03  0.32347308915E+03  0.50400001928E-02 0. -1.
    10030    2    1    2    0    0  0.00000000000E+00  0.00000000000E+00  0.30114402436E+03  0.94809020264E+03  0.89899238536E+03 0.  0.
        3    1    3    3  502    0 -0.29053411899E+03 -0.15897024539E+03  0.47108663046E+03  0.57585088072E+03  0.10100000352E+00 0.  1.
       -3    1    3    3    0  502  0.29053411899E+03  0.15897024539E+03 -0.16994260610E+03  0.37223932193E+03  0.10100000352E+00 0. -1.
</event>
<event>
 5   0  0.2351435E-04  0.9000775E+03  0.7818609E-02  0.9425485E-01
       -1   -1    0    0    0  501  0.00000000000E+00  0.00000000000E+00  0.14154232323E+03  0.14154232332E+03  0.50400001928E-02 0. -1.
        1   -1    0    0  501    0  0.00000000000E+00  0.00000000000E+00 -0.14309137464E+04  0.14309137464E+04  0.50400001928E-02 0.  1.
    10030    2    1    2    0    0  0.00000000000E+00  0.00000000000E+00 -0.12893714231E+04  0.15724560697E+04  0.90007745463E+03 0.  0.
        4    1    3    3  502    0  0.16593445004E+03 -0.34216875776E+03 -0.22423876794E+03  0.44147291927E+03  0.12699999809E+01 0. -1.
       -4    1    3    3    0  502 -0.16593445004E+03  0.34216875776E+03 -0.10651326552E+04  0.11309831504E+04  0.12699999809E+01 0.  1.
</event>
<event>
 5   0  0.2356918E-04  0.9065721E+03  0.7818609E-02  0.9417403E-01
       -1   -1    0    0    0  501  0.00000000000E+00  0.00000000000E+00  0.60391186919E+03  0.60391186921E+03  0.50400001928E-02 0.  1.
        1   -1    0    0  501    0  0.00000000000E+00  0.00000000000E+00 -0.34022886845E+03  0.34022886849E+03  0.50400001928E-02 0. -1.
    10030    2    1    2    0    0  0.00000000000E+00  0.00000000000E+00  0.26368300074E+03  0.94414073769E+03  0.90657211941E+03 0.  0.
        5    1    3    3  502    0  0.18124612668E+02  0.33553978839E+03 -0.18495277661E+03  0.38359493056E+03  0.46999998093E+01 0. -1.
       -5    1    3    3    0  502 -0.18124612668E+02 -0.33553978839E+03  0.44863577735E+03  0.56054580713E+03  0.46999998093E+01 0.  1.
</event>
<event>
 5   0  0.4033144E-04  0.8995175E+03  0.7818609E-02  0.9426185E-01
        2   -1    0    0  501    0  0.00000000000E+00  0.00000000000E+00  0.17299553229E+04  0.17299553229E+04  0.25500000920E-02 0.  1.
       -2   -1    0    0    0  501  0.00000000000E+00  0.00000000000E+00 -0.11692958337E+03  0.11692958339E+03  0.25500000920E-02 0. -1.
    10030    2    1    2    0    0  0.00000000000E+00  0.00000000000E+00  0.16130257396E+04  0.18468849063E+04  0.89951754886E+03 0.  0.
        4    1    3    3  502    0  0.84995460173E+02 -0.33240344029E+03  0.14035834740E+04  0.14449098438E+04  0.12699999809E+01 0.  1.
       -4    1    3    3    0  502 -0.84995460173E+02  0.33240344029E+03  0.20944226553E+03  0.40197506248E+03  0.12699999809E+01 0. -1.
</event>
<event>
 5   0  0.4033144E-04  0.9015104E+03  0.7818609E-02  0.9423695E-01
        2   -1    0    0  501    0  0.00000000000E+00  0.00000000000E+00  0.18127327425E+03  0.18127327427E+03  0.25500000920E-02 0. -1.
       -2   -1    0    0    0  501  0.00000000000E+00  0.00000000000E+00 -0.11208504349E+04  0.11208504349E+04  0.25500000920E-02 0.  1.
    10030    2    1    2    0    0  0.00000000000E+00  0.00000000000E+00 -0.93957716062E+03  0.13021237091E+04  0.90151035110E+03 0.  0.
        4    1    3    3  502    0 -0.43664142877E+03 -0.88594630570E+02 -0.37104251034E+03  0.57980936804E+03  0.12699999809E+01 0. -1.
       -4    1    3    3    0  502  0.43664142877E+03  0.88594630570E+02 -0.56853465028E+03  0.72231434110E+03  0.12699999809E+01 0.  1.
</event>
<event>
 5   0  0.4110039E-04  0.8997024E+03  0.7818609E-02  0.9425953E-01
        2   -1    0    0  501    0  0.00000000000E+00  0.00000000000E+00  0.67139454398E+03  0.67139454398E+03  0.25500000920E-02 0.  1.
       -2   -1    0    0    0  501  0.00000000000E+00  0.00000000000E+00 -0.30141161257E+03  0.30141161258E+03  0.25500000920E-02 0. -1.
    10030    2    1    2    0    0  0.00000000000E+00  0.00000000000E+00  0.36998293141E+03  0.97280615657E+03  0.89970242232E+03 0.  0.
        3    1    3    3  502    0 -0.13502978413E+01  0.12908204852E+03  0.65093772788E+03  0.66361429636E+03  0.10100000352E+00 0.  1.
       -3    1    3    3    0  502  0.13502978413E+01 -0.12908204852E+03 -0.28095479648E+03  0.30919186021E+03  0.10100000352E+00 0. -1.
</event>
<event>
 5   0  0.2308362E-04  0.8997223E+03  0.7818609E-02  0.9425929E-01
       -1   -1    0    0    0  501  0.00000000000E+00  0.00000000000E+00  0.48568376988E+03  0.48568376991E+03  0.50400001928E-02 0.  1.
        1   -1    0    0  501    0  0.00000000000E+00  0.00000000000E+00 -0.41668068494E+03  0.41668068497E+03  0.50400001928E-02 0. -1.
    10030    2    1    2    0    0  0.00000000000E+00  0.00000000000E+00  0.69003084949E+02  0.90236445488E+03  0.89972228143E+03 0.  0.
        1    1    3    3  502    0 -0.35906580709E+03 -0.16067557118E+03 -0.18438269694E+03  0.43444432549E+03  0.50400001928E-02 0. -1.
       -1    1    3    3    0  502  0.35906580709E+03  0.16067557118E+03  0.25338578189E+03  0.46792012939E+03  0.50400001928E-02 0.  1.
</event>
<event>
 5   0  0.4033144E-04  0.8990354E+03  0.7818609E-02  0.9426788E-01
        2   -1    0    0  501    0  0.00000000000E+00  0.00000000000E+00  0.10134655749E+04  0.10134655749E+04  0.25500000920E-02 0. -1.
       -2   -1    0    0    0  501  0.00000000000E+00  0.00000000000E+00 -0.19938136823E+03  0.19938136825E+03  0.25500000920E-02 0.  1.
    10030    2    1    2    0    0  0.00000000000E+00  0.00000000000E+00  0.81408420671E+03  0.12128469432E+04  0.89903537862E+03 0.  0.
        4    1    3    3  502    0 -0.28819762479E+02 -0.28522943450E+03  0.87413062769E+03  0.91994150694E+03  0.12699999809E+01 0. -1.
       -4    1    3    3    0  502  0.28819762479E+02  0.28522943450E+03 -0.60046420986E+02  0.29290543626E+03  0.12699999809E+01 0.  1.
</event>
<event>
 5   0  0.2351435E-04  0.9000005E+03  0.7818609E-02  0.9425581E-01
       -1   -1    0    0    0  501  0.00000000000E+00  0.00000000000E+00  0.62667851229E+03  0.62667851231E+03  0.50400001928E-02 0.  1.
        1   -1    0    0  501    0  0.00000000000E+00  0.00000000000E+00 -0.32313253433E+03  0.32313253437E+03  0.50400001928E-02 0. -1.
    10030    2    1    2    0    0  0.00000000000E+00  0.00000000000E+00  0.30354597796E+03  0.94981104668E+03  0.90000047981E+03 0.  0.
        4    1    3    3  502    0  0.38108690466E+03  0.20457067815E+03  0.20713700384E+02  0.43302085578E+03  0.12699999809E+01 0.  1.
       -4    1    3    3    0  502 -0.38108690466E+03 -0.20457067815E+03  0.28283227758E+03  0.51679019089E+03  0.12699999809E+01 0. -1.
</event>
<event>
 5   0  0.4243516E-04  0.8995608E+03  0.7818609E-02  0.9426131E-01
        2   -1    0    0  501    0  0.00000000000E+00  0.00000000000E+00  0.13398015561E+04  0.13398015561E+04  0.25500000920E-02 0.  1.
       -2   -1    0    0    0  501  0.00000000000E+00  0.00000000000E+00 -0.15099430133E+03  0.15099430135E+03  0.25500000920E-02 0. -1.
    10030    2    1    2    0    0  0.00000000000E+00  0.00000000000E+00  0.11888072547E+04  0.14907958574E+04  0.89956078148E+03 0.  0.
        1    1    3    3  502    0 -0.32135824722E+03  0.37312410079E+00  0.11159267257E+04  0.11612767626E+04  0.50400001928E-02 0.  1.
       -1    1    3    3    0  502  0.32135824722E+03 -0.37312410079E+00  0.72880529019E+02  0.32951909477E+03  0.50400001928E-02 0. -1.
</event>
<event>
 5   0  0.3959804E-04  0.9001590E+03  0.7818609E-02  0.9425383E-01
        2   -1    0    0  501    0  0.00000000000E+00  0.00000000000E+00  0.20564544712E+04  0.20564544712E+04  0.25500000920E-02 0. -1.
       -2   -1    0    0    0  501  0.00000000000E+00  0.00000000000E+00 -0.98505242758E+02  0.98505242791E+02  0.25500000920E-02 0.  1.
    10030    2    1    2    0    0  0.00000000000E+00  0.00000000000E+00  0.19579492284E+04  0.21549597140E+04  0.90015897917E+03 0.  0.
        5    1    3    3  502    0 -0.40272523681E+02 -0.20771175120E+03  0.19299091175E+04  0.19414781326E+04  0.46999998093E+01 0. -1.
       -5    1    3    3    0  502  0.40272523681E+02  0.20771175120E+03  0.28040110938E+02  0.21348158134E+03  0.46999998093E+01 0.  1.
</event>
<event>
 5   0  0.2351435E-04  0.9006032E+03  0.7818609E-02  0.9424828E-01
       -1   -1    0    0    0  501  0.00000000000E+00  0.00000000000E+00  0.13621340173E+03  0.13621340183E+03  0.50400001928E-02 0. -1.
        1   -1    0    0  501    0  0.00000000000E+00  0.00000000000E+00 -0.14886312528E+04  0.14886312528E+04  0.50400001928E-02 0.  1.
    10030    2    1    2    0    0  0.00000000000E+00  0.00000000000E+00 -0.13524178510E+04  0.16248446546E+04  0.90060319109E+03 0.  0.
        4    1    3    3  502    0 -0.39091238830E+03  0.97840815610E+02 -0.31364363739E+03  0.51064592890E+03  0.12699999809E+01 0.  1.
       -4    1    3    3    0  502  0.39091238830E+03 -0.97840815610E+02 -0.10387742136E+04  0.11141987257E+04  0.12699999809E+01 0. -1.
</event>
<event>
 5   0  0.2308362E-04  0.8998423E+03  0.7818609E-02  0.9425779E-01
       -1   -1    0    0    0  501  0.00000000000E+00  0.00000000000E+00  0.11778841824E+04  0.11778841824E+04  0.50400001928E-02 0. -1.
        1   -1    0    0  501    0  0.00000000000E+00  0.00000000000E+00 -0.17185818129E+03  0.17185818136E+03  0.50400001928E-02 0.  1.
    10030    2    1    2    0    0  0.00000000000E+00  0.00000000000E+00  0.10060260011E+04  0.13497423638E+04  0.89984228266E+03 0.  0.
        1    1    3    3  502    0  0.36288069089E+03 -0.85580787418E+02  0.12526133435E+03  0.39331522842E+03  0.50400001928E-02 0.  1.
       -1    1    3    3    0  502 -0.36288069089E+03  0.85580787418E+02  0.88076466679E+03  0.95642713538E+03  0.50400001928E-02 0. -1.
</event>
<event>
 5   0  0.2351435E-04  0.8998879E+03  0.7818609E-02  0.9425722E-01
       -1   -1    0    0    0  501  0.00000000000E+00  0.00000000000E+00  0.38312203395E+03  0.38312203398E+03  0.50400001928E-02 0. -1.
        1   -1    0    0  501    0  0.00000000000E+00  0.00000000000E+00 -0.52842058995E+03  0.52842058997E+03  0.50400001928E-02 0.  1.
    10030    2    1    2    0    0  0.00000000000E+00  0.00000000000E+00 -0.14529855600E+03  0.91154262396E+03  0.89988792909E+03 0.  0.
        4    1    3    3  502    0  0.19917657865E+03  0.39660532278E+03  0.23424184547E+01  0.44381774566E+03  0.12699999809E+01 0. -1.
       -4    1    3    3    0  502 -0.19917657865E+03 -0.39660532278E+03 -0.14764097445E+03  0.46772487830E+03  0.12699999809E+01 0.  1.
</event>
<event>
 5   0  0.4033144E-04  0.8998562E+03  0.7818609E-02  0.9425761E-01
       -2   -1    0    0    0  501  0.00000000000E+00  0.00000000000E+00  0.14874315127E+03  0.14874315129E+03  0.25500000920E-02 0. -1.
        2   -1    0    0  501    0  0.00000000000E+00  0.00000000000E+00 -0.13609722929E+04  0.13609722929E+04  0.25500000920E-02 0.  1.
    10030    2    1    2    0    0  0.00000000000E+00  0.00000000000E+00 -0.12122291416E+04  0.15097154442E+04  0.89985622774E+03 0.  0.
        4    1    3    3  502    0  0.17775603382E+03 -0.41043457869E+03 -0.68796205279E+03  0.82057732721E+03  0.12699999809E+01 0.  1.
       -4    1    3    3    0  502 -0.17775603382E+03  0.41043457869E+03 -0.52426708881E+03  0.68913811696E+03  0.12699999809E+01 0. -1.
</event>
<event>
 5   0  0.2308362E-04  0.9017523E+03  0.7818609E-02  0.9423394E-01
        1   -1    0    0  501    0  0.00000000000E+00  0.00000000000E+00  0.47293876349E+03  0.47293876352E+03  0.50400001928E-02 0.  1.
       -1   -1    0    0    0  501  0.00000000000E+00  0.00000000000E+00 -0.42984272331E+03  0.42984272334E+03  0.50400001928E-02 0. -1.
    10030    2    1    2    0    0  0.00000000000E+00  0.00000000000E+00  0.43096040179E+02  0.90278148686E+03  0.90175226328E+03 0.  0.
        1    1    3    3  502    0  0.24208277962E+03 -0.35994876343E+03 -0.10156428954E+03  0.44551373651E+03  0.50400001928E-02 0.  1.
       -1    1    3    3    0  502 -0.24208277962E+03  0.35994876343E+03  0.14466032972E+03  0.45726775035E+03  0.50400001928E-02 0. -1.
</event>
<event>
 5   0  0.4243516E-04  0.9001680E+03  0.7818609E-02  0.9425371E-01
       -2   -1    0    0    0  501  0.00000000000E+00  0.00000000000E+00  0.19710567599E+03  0.19710567600E+03  0.25500000920E-02 0. -1.
        2   -1    0    0  501    0  0.00000000000E+00  0.00000000000E+00 -0.10277511911E+04  0.10277511911E+04  0.25500000920E-02 0.  1.
    10030    2    1    2    0    0  0.00000000000E+00  0.00000000000E+00 -0.83064551508E+03  0.12248568671E+04  0.90016796938E+03 0.  0.
        1    1    3    3  502    0  0.31165706225E+03 -0.11805486418E+03 -0.82693904054E+03  0.89156898342E+03  0.50400001928E-02 0.  1.
       -1    1    3    3    0  502 -0.31165706225E+03  0.11805486418E+03 -0.37064745438E+01  0.33328788365E+03  0.50400001928E-02 0. -1.
</event>
<event>
 5   0  0.2356918E-04  0.8998977E+03  0.7818609E-02  0.9425709E-01
        1   -1    0    0  501    0  0.00000000000E+00  0.00000000000E+00  0.43318937230E+03  0.43318937233E+03  0.50400001928E-02 0.  1.
       -1   -1    0    0    0  501  0.00000000000E+00  0.00000000000E+00 -0.46735676338E+03  0.46735676341E+03  0.50400001928E-02 0. -1.
    10030    2    1    2    0    0  0.00000000000E+00  0.00000000000E+00 -0.34167391085E+02  0.90054613574E+03  0.89989773418E+03 0.  0.
        5    1    3    3  502    0  0.21641135768E+03  0.13821207618E+03  0.35263539743E+03  0.43624565013E+03  0.46999998093E+01 0.  1.
       -5    1    3    3    0  502 -0.21641135768E+03 -0.13821207618E+03 -0.38680278852E+03  0.46430048561E+03  0.46999998093E+01 0. -1.
</event>
<event>
 5   0  0.2356918E-04  0.9000119E+03  0.7818609E-02  0.9425567E-01
       -1   -1    0    0    0  501  0.00000000000E+00  0.00000000000E+00  0.15089729730E+04  0.15089729730E+04  0.50400001928E-02 0.  1.
        1   -1    0    0  501    0  0.00000000000E+00  0.00000000000E+00 -0.13420077001E+03  0.13420077011E+03  0.50400001928E-02 0. -1.
    10030    2    1    2    0    0  0.00000000000E+00  0.00000000000E+00  0.13747722030E+04  0.16431737431E+04  0.90001185545E+03 0.  0.
        5    1    3    3  502    0  0.24555735457E+03 -0.78363383766E+01  0.13756707526E+04  0.13974447868E+04  0.46999998093E+01 0.  1.
       -5    1    3    3    0  502 -0.24555735457E+03  0.78363383766E+01 -0.89854961543E+00  0.24572895632E+03  0.46999998093E+01 0. -1.
</event>
<event>
 5   0  0.4110039E-04  0.9057636E+03  0.7818609E-02  0.9418405E-01
       -2   -1    0    0    0  501  0.00000000000E+00  0.00000000000E+00  0.16101255722E+03  0.16101255724E+03  0.25500000920E-02 0. -1.
        2   -1    0    0  501    0  0.00000000000E+00  0.00000000000E+00 -0.12738256070E+04  0.12738256071E+04  0.25500000920E-02 0.  1.
    10030    2    1    2    0    0  0.00000000000E+00  0.00000000000E+00 -0.11128130498E+04  0.14348381643E+04  0.90576358607E+03 0.  0.
        3    1    3    3  502    0 -0.44142411647E+03 -0.10091778610E+03 -0.56890583474E+03  0.72711313367E+03  0.10100000352E+00 0. -1.
       -3    1    3    3    0  502  0.44142411647E+03  0.10091778610E+03 -0.54390721508E+03  0.70772503062E+03  0.10100000352E+00 0.  1.
</event>
<event>
 5   0  0.2308362E-04  0.8999520E+03  0.7818609E-02  0.9425641E-01
       -1   -1    0    0    0  501  0.00000000000E+00  0.00000000000E+00  0.31601105751E+03  0.31601105755E+03  0.50400001928E-02 0.  1.
        1   -1    0    0  501    0  0.00000000000E+00  0.00000000000E+00 -0.64073196220E+03  0.64073196222E+03  0.50400001928E-02 0. -1.
    10030    2    1    2    0    0  0.00000000000E+00  0.00000000000E+00 -0.32472090469E+03  0.95674301978E+03  0.89995196536E+03 0.  0.
        1    1    3    3  502    0 -0.98002630254E+02  0.21370773912E+03 -0.57024205196E+03  0.61680751548E+03  0.50400001928E-02 0. -1.
       -1    1    3    3    0  502  0.98002630254E+02 -0.21370773912E+03  0.24552114728E+03  0.33993550430E+03  0.50400001928E-02 0.  1.
</event>
<event>
 5   0  0.2356918E-04  0.9026376E+03  0.7818609E-02  0.9422290E-01
       -1   -1    0    0    0  501  0.00000000000E+00  0.00000000000E+00  0.53716900420E+03  0.53716900422E+03  0.50400001928E-02 0. -1.
        1   -1    0    0  501    0  0.00000000000E+00  0.00000000000E+00 -0.37918911593E+03  0.37918911596E+03  0.50400001928E-02 0.  1.
    10030    2    1    2    0    0  0.00000000000E+00  0.00000000000E+00  0.15797988827E+03  0.91635812019E+03  0.90263755701E+03 0.  0.
        5    1    3    3  502    0  0.38308486556E+02  0.44723577719E+03  0.12638110182E+03  0.46634928266E+03  0.46999998093E+01 0.  1.
       -5    1    3    3    0  502 -0.38308486556E+02 -0.44723577719E+03  0.31598786450E+02  0.45000883752E+03  0.46999998093E+01 0. -1.
</event>
<event>
 5   0  0.1596250E-04  0.8999976E+03  0.7818609E-02  0.9425584E-01
       -3   -1    0    0    0  501  0.00000000000E+00  0.00000000000E+00  0.50946062219E+03  0.50946063220E+03  0.10100000352E+00 0.  1.
        3   -1    0    0  501    0  0.00000000000E+00  0.00000000000E+00 -0.39747705082E+03  0.39747706366E+03  0.10100000352E+00 0. -1.
    10030    2    1    2    0    0  0.00000000000E+00  0.00000000000E+00  0.11198357137E+03  0.90693769586E+03  0.89999759106E+03 0.  0.
        4    1    3    3  502    0  0.31774774373E+03  0.29632580688E+03 -0.62064030436E+02  0.43889197901E+03  0.12699999809E+01 0. -1.
       -4    1    3    3    0  502 -0.31774774373E+03 -0.29632580688E+03  0.17404760180E+03  0.46804571685E+03  0.12699999809E+01 0.  1.
</event>
<event>
 5   0  0.3959804E-04  0.9001015E+03  0.7818609E-02  0.9425455E-01
       -2   -1    0    0    0  501  0.00000000000E+00  0.00000000000E+00  0.21164760922E+03  0.21164760923E+03  0.25500000920E-02 0. -1.
        2   -1    0    0  501    0  0.00000000000E+00  0.00000000000E+00 -0.95699479697E+03  0.95699479697E+03  0.25500000920E-02 0.  1.
    10030    2    1    2    0    0  0.00000000000E+00  0.00000000000E+00 -0.74534718775E+03  0.11686424062E+04  0.90010146277E+03 0.  0.
        5    1    3    3  502    0  0.42607309879E+03  0.13942737740E+03 -0.42371180165E+03  0.61687280693E+03  0.46999998093E+01 0. -1.
       -5    1    3    3    0  502 -0.42607309879E+03 -0.13942737740E+03 -0.32163538610E+03  0.55176959927E+03  0.46999998093E+01 0.  1.
</event>
<event>
 5   0  0.2308362E-04  0.8999599E+03  0.7818609E-02  0.9425632E-01
       -1   -1    0    0    0  501  0.00000000000E+00  0.00000000000E+00  0.15181491422E+03  0.15181491431E+03  0.50400001928E-02 0.  1.
        1   -1    0    0  501    0  0.00000000000E+00  0.00000000000E+00 -0.13337422899E+04  0.13337422899E+04  0.50400001928E-02 0. -1.
    10030    2    1    2    0    0  0.00000000000E+00  0.00000000000E+00 -0.11819273757E+04  0.14855572042E+04  0.89995993557E+03 0.  0.
        1    1    3    3  502    0  0.26195921970E+03  0.31634505809E+03 -0.28755425167E+03  0.50138236531E+03  0.50400001928E-02 0.  1.
       -1    1    3    3    0  502 -0.26195921970E+03 -0.31634505809E+03 -0.89437312403E+03  0.98417483893E+03  0.50400001928E-02 0. -1.
</event>
<event>
 5   0  0.2356918E-04  0.9000297E+03  0.7818609E-02  0.9425544E-01
        1   -1    0    0  501    0  0.00000000000E+00  0.00000000000E+00  0.23952678733E+03  0.23952678738E+03  0.50400001928E-02 0.  1.
       -1   -1    0    0    0  501  0.00000000000E+00  0.00000000000E+00 -0.84547265361E+03  0.84547265362E+03  0.50400001928E-02 0. -1.
    10030    2    1    2    0    0  0.00000000000E+00  0.00000000000E+00 -0.60594586628E+03  0.10849994410E+04  0.90002966291E+03 0.  0.
        5    1    3    3  502    0  0.76714599743E+02 -0.22239515760E+03  0.15945886844E+03  0.28424277767E+03  0.46999998093E+01 0.  1.
       -5    1    3    3    0  502 -0.76714599743E+02  0.22239515760E+03 -0.76540473472E+03  0.80075666333E+03  0.46999998093E+01 0. -1.
</event>
<event>
 5   0  0.2450427E-04  0.8999705E+03  0.7818609E-02  0.9425618E-01
        1   -1    0    0  501    0  0.00000000000E+00  0.00000000000E+00  0.52936803694E+03  0.52936803696E+03  0.50400001928E-02 0.  1.
       -1   -1    0    0    0  501  0.00000000000E+00  0.00000000000E+00 -0.38250647824E+03  0.38250647827E+03  0.50400001928E-02 0. -1.
    10030    2    1    2    0    0  0.00000000000E+00  0.00000000000E+00  0.14686155870E+03  0.91187451524E+03  0.89997045180E+03 0.  0.
        3    1    3    3  502    0 -0.29193835956E+03  0.26134512126E+03  0.29762069187E+03  0.49204406776E+03  0.10100000352E+00 0.  1.
       -3    1    3    3    0  502  0.29193835956E+03 -0.26134512126E+03 -0.15075913317E+03  0.41983044747E+03  0.10100000352E+00 0. -1.
</event>
<event>
 5   0  0.4033144E-04  0.8999860E+03  0.7818609E-02  0.9425599E-01
        2   -1    0    0  501    0  0.00000000000E+00  0.00000000000E+00  0.72021849563E+03  0.72021849563E+03  0.25500000920E-02 0. -1.
       -2   -1    0    0    0  501  0.00000000000E+00  0.00000000000E+00 -0.28115591137E+03  0.28115591138E+03  0.25500000920E-02 0.  1.
    10030    2    1    2    0    0  0.00000000000E+00  0.00000000000E+00  0.43906258426E+03  0.10013744070E+04  0.89998597217E+03 0.  0.
        4    1    3    3  502    0  0.33285514073E+03 -0.20942645480E+03  0.46289551969E+03  0.60739267343E+03  0.12699999809E+01 0. -1.
       -4    1    3    3    0  502 -0.33285514073E+03  0.20942645480E+03 -0.23832935433E+02  0.39398173358E+03  0.12699999809E+01 0.  1.
</event>
<event>
 5   0  0.2332791E-04  0.8994725E+03  0.7818609E-02  0.9426241E-01
       -1   -1    0    0    0  501  0.00000000000E+00  0.00000000000E+00  0.40238621338E+03  0.40238621341E+03  0.50400001928E-02 0.  1.
        1   -1    0    0  501    0  0.00000000000E+00  0.00000000000E+00 -0.50265810066E+03  0.50265810068E+03  0.50400001928E-02 0. -1.
    10030    2    1    2    0    0  0.00000000000E+00  0.00000000000E+00 -0.10027188728E+03  0.90504431409E+03  0.89947248935E+03 0.  0.
        2    1    3    3  502    0 -0.12632502843E+02 -0.67622888572E+02 -0.49733283008E+03  0.50206810203E+03  0.25500000920E-02 0. -1.
       -2    1    3    3    0  502  0.12632502843E+02  0.67622888572E+02  0.39706094280E+03  0.40297621207E+03  0.25500000920E-02 0.  1.
</event>
<event>
 5   0  0.2356918E-04  0.9015276E+03  0.7818609E-02  0.9423674E-01
        1   -1    0    0  501    0  0.00000000000E+00  0.00000000000E+00  0.88474796216E+03  0.88474796218E+03  0.50400001928E-02 0.  1.
       -1   -1    0    0    0  501  0.00000000000E+00  0.00000000000E+00 -0.22965636096E+03  0.22965636102E+03  0.50400001928E-02 0. -1.
    10030    2    1    2    0    0  0.00000000000E+00  0.00000000000E+00  0.65509160120E+03  0.11144043232E+04  0.90152758671E+03 0.  0.
        5    1    3    3  502    0 -0.18476262510E+03  0.15332273159E+03 -0.14400266261E+03  0.28000704365E+03  0.46999998093E+01 0. -1.
       -5    1    3    3    0  502  0.18476262510E+03 -0.15332273159E+03  0.79909426381E+03  0.83439727955E+03  0.46999998093E+01 0.  1.
</event>
<event>
 5   0  0.4243516E-04  0.8999431E+03  0.7818609E-02  0.9425653E-01
       -2   -1    0    0    0  501  0.00000000000E+00  0.00000000000E+00  0.49230495786E+03  0.49230495787E+03  0.25500000920E-02 0. -1.
        2   -1    0    0  501    0  0.00000000000E+00  0.00000000000E+00 -0.41127838245E+03  0.41127838246E+03  0.25500000920E-02 0.  1.
    10030    2    1    2    0    0  0.00000000000E+00  0.00000000000E+00  0.81026575413E+02  0.90358334033E+03  0.89994307987E+03 0.  0.
        1    1    3    3  502    0  0.38970533374E+03  0.10303475601E+03  0.24129210838E+03  0.46979600859E+03  0.50400001928E-02 0. -1.
       -1    1    3    3    0  502 -0.38970533374E+03 -0.10303475601E+03 -0.16026553297E+03  0.43378733174E+03  0.50400001928E-02 0.  1.
</event>
<event>
 5   0  0.4033144E-04  0.9000328E+03  0.7818609E-02  0.9425540E-01
        2   -1    0    0  501    0  0.00000000000E+00  0.00000000000E+00  0.33015907822E+03  0.33015907823E+03  0.25500000920E-02 0. -1.
       -2   -1    0    0    0  501  0.00000000000E+00  0.00000000000E+00 -0.61338537151E+03  0.61338537152E+03  0.25500000920E-02 0.  1.
    10030    2    1    2    0    0  0.00000000000E+00  0.00000000000E+00 -0.28322629329E+03  0.94354444975E+03  0.90003277465E+03 0.  0.
        4    1    3    3  502    0  0.55260084186E+02  0.20131773648E+03  0.27632098424E+03  0.34631980474E+03  0.12699999809E+01 0. -1.
       -4    1    3    3    0  502 -0.55260084186E+02 -0.20131773648E+03 -0.55954727753E+03  0.59722464502E+03  0.12699999809E+01 0.  1.
</event>
<event>
 5   0  0.4033144E-04  0.9040477E+03  0.7818609E-02  0.9420536E-01
        2   -1    0    0  501    0  0.00000000000E+00  0.00000000000E+00  0.40016206930E+03  0.40016206931E+03  0.25500000920E-02 0. -1.
       -2   -1    0    0    0  501  0.00000000000E+00  0.00000000000E+00 -0.51060698289E+03  0.51060698290E+03  0.25500000920E-02 0.  1.
    10030    2    1    2    0    0  0.00000000000E+00  0.00000000000E+00 -0.11044491359E+03  0.91076905220E+03  0.90404766883E+03 0.  0.
        4    1    3    3  502    0 -0.14848165397E+03 -0.22746164476E+03  0.30876462023E+03  0.41124543159E+03  0.12699999809E+01 0. -1.
       -4    1    3    3    0  502  0.14848165397E+03  0.22746164476E+03 -0.41920953382E+03  0.49952362061E+03  0.12699999809E+01 0.  1.
</event>
<event>
 5   0  0.4033144E-04  0.8999889E+03  0.7818609E-02  0.9425595E-01
        2   -1    0    0  501    0  0.00000000000E+00  0.00000000000E+00  0.74465158680E+03  0.74465158680E+03  0.25500000920E-02 0.  1.
       -2   -1    0    0    0  501  0.00000000000E+00  0.00000000000E+00 -0.27193254066E+03  0.27193254067E+03  0.25500000920E-02 0. -1.
    10030    2    1    2    0    0  0.00000000000E+00  0.00000000000E+00  0.47271904614E+03  0.10165841275E+04  0.89998888418E+03 0.  0.
        4    1    3    3  502    0  0.32329642501E+01 -0.10054166972E+03  0.73178656914E+03  0.73866925960E+03  0.12699999809E+01 0.  1.
       -4    1    3    3    0  502 -0.32329642501E+01  0.10054166972E+03 -0.25906752300E+03  0.27791486787E+03  0.12699999809E+01 0. -1.
</event>
<event>
 5   0  0.4110039E-04  0.9002697E+03  0.7818609E-02  0.9425244E-01
        2   -1    0    0  501    0  0.00000000000E+00  0.00000000000E+00  0.13909236347E+04  0.13909236347E+04  0.25500000920E-02 0.  1.
       -2   -1    0    0    0  501  0.00000000000E+00  0.00000000000E+00 -0.14567397583E+03  0.14567397585E+03  0.25500000920E-02 0. -1.
    10030    2    1    2    0    0  0.00000000000E+00  0.00000000000E+00  0.12452496589E+04  0.15365976106E+04  0.90026968396E+03 0.  0.
        3    1    3    3  502    0 -0.41456681477E+03  0.16176127744E+03  0.73824858626E+03  0.86199961723E+03  0.10100000352E+00 0.  1.
       -3    1    3    3    0  502  0.41456681477E+03 -0.16176127744E+03  0.50700107264E+03  0.67459799336E+03  0.10100000352E+00 0. -1.
</event>
<event>
 5   0  0.2450427E-04  0.8994588E+03  0.7818609E-02  0.9426258E-01
        1   -1    0    0  501    0  0.00000000000E+00  0.00000000000E+00  0.52011204567E+03  0.52011204570E+03  0.50400001928E-02 0.  1.
       -1   -1    0    0    0  501  0.00000000000E+00  0.00000000000E+00 -0.38887107144E+03  0.38887107148E+03  0.50400001928E-02 0. -1.
    10030    2    1    2    0    0  0.00000000000E+00  0.00000000000E+00  0.13124097423E+03  0.90898311717E+03  0.89945878949E+03 0.  0.
        3    1    3    3  502    0  0.66483637946E+02  0.17302537544E+03 -0.34847277757E+03  0.39470386567E+03  0.10100000352E+00 0. -1.
       -3    1    3    3    0  502 -0.66483637946E+02 -0.17302537544E+03  0.47971375180E+03  0.51427925151E+03  0.10100000352E+00 0.  1.
</event>
<event>
 5   0  0.2351435E-04  0.8992145E+03  0.7818609E-02  0.9426564E-01
        1   -1    0    0  501    0  0.00000000000E+00  0.00000000000E+00  0.79746224783E+03  0.79746224784E+03  0.50400001928E-02 0.  1.
       -1   -1    0    0    0  501  0.00000000000E+00  0.00000000000E+00 -0.25348745173E+03  0.25348745178E+03  0.50400001928E-02 0. -1.
    10030    2    1    2    0    0  0.00000000000E+00  0.00000000000E+00  0.54397479610E+03  0.10509496996E+04  0.89921448629E+03 0.  0.
        4    1    3    3  502    0 -0.26187141970E+03 -0.28059429759E+03 -0.16960852872E+01  0.38381543729E+03  0.12699999809E+01 0. -1.
       -4    1    3    3    0  502  0.26187141970E+03  0.28059429759E+03  0.54567088139E+03  0.66713426234E+03  0.12699999809E+01 0.  1.
</event>
<event>
 5   0  0.4110039E-04  0.9000310E+03  0.7818609E-02  0.9425543E-01
        2   -1    0    0  501    0  0.00000000000E+00  0.00000000000E+00  0.86395454484E+03  0.86395454485E+03  0.25500000920E-02 0. -1.
       -2   -1    0    0    0  501  0.00000000000E+00  0.00000000000E+00 -0.23440346568E+03  0.23440346569E+03  0.25500000920E-02 0.  1.
    10030    2    1    2    0    0  0.00000000000E+00  0.00000000000E+00  0.62955107916E+03  0.10983580105E+04  0.90003097616E+03 0.  0.
        3    1    3    3  502    0  0.44200877938E+03 -0.49921304725E+02  0.39799299216E+03  0.59687714793E+03  0.10100000352E+00 0. -1.
       -3    1    3    3    0  502 -0.44200877938E+03  0.49921304725E+02  0.23155808700E+03  0.50148086261E+03  0.10100000352E+00 0.  1.
</event>
<event>
 5   0  0.4236284E-04  0.9002583E+03  0.7818609E-02  0.9425259E-01
        2   -1    0    0  501    0  0.00000000000E+00  0.00000000000E+00  0.19146106158E+04  0.19146106158E+04  0.25500000920E-02 0.  1.
       -2   -1    0    0    0  501  0.00000000000E+00  0.00000000000E+00 -0.10582636045E+03  0.10582636048E+03  0.25500000920E-02 0. -1.
    10030    2    1    2    0    0  0.00000000000E+00  0.00000000000E+00  0.18087842554E+04  0.20204369763E+04  0.90025834777E+03 0.  0.
        2    1    3    3  502    0 -0.22456120013E+03  0.37012354385E+03  0.62772436867E+03  0.76253331294E+03  0.25500000920E-02 0. -1.
       -2    1    3    3    0  502  0.22456120013E+03 -0.37012354385E+03  0.11810598867E+04  0.12579036634E+04  0.25500000920E-02 0.  1.
</event>
<event>
 5   0  0.2308362E-04  0.8994226E+03  0.7818609E-02  0.9426303E-01
        1   -1    0    0  501    0  0.00000000000E+00  0.00000000000E+00  0.55938703166E+03  0.55938703168E+03  0.50400001928E-02 0. -1.
       -1   -1    0    0    0  501  0.00000000000E+00  0.00000000000E+00 -0.36153907348E+03  0.36153907351E+03  0.50400001928E-02 0.  1.
    10030    2    1    2    0    0  0.00000000000E+00  0.00000000000E+00  0.19784795819E+03  0.92092610520E+03  0.89942263518E+03 0.  0.
        1    1    3    3  502    0  0.31162418708E+03  0.64064049668E+02 -0.22652167767E+03  0.39054565279E+03  0.50400001928E-02 0.  1.
       -1    1    3    3    0  502 -0.31162418708E+03 -0.64064049668E+02  0.42436963585E+03  0.53038045241E+03  0.50400001928E-02 0. -1.
</event>
<event>
 5   0  0.4243516E-04  0.9001232E+03  0.7818609E-02  0.9425427E-01
       -2   -1    0    0    0  501  0.00000000000E+00  0.00000000000E+00  0.15550057204E+03  0.15550057206E+03  0.25500000920E-02 0. -1.
        2   -1    0    0  501    0  0.00000000000E+00  0.00000000000E+00 -0.13026024896E+04  0.13026024896E+04  0.25500000920E-02 0.  1.
    10030    2    1    2    0    0  0.00000000000E+00  0.00000000000E+00 -0.11471019176E+04  0.14581030617E+04  0.90012317443E+03 0.  0.
        1    1    3    3  502    0  0.34695099284E+03 -0.15322562145E+03 -0.18107413015E+03  0.42028671539E+03  0.50400001928E-02 0.  1.
       -1    1    3    3    0  502 -0.34695099284E+03  0.15322562145E+03 -0.96602778743E+03  0.10378163463E+04  0.50400001928E-02 0. -1.
</event>
<event>
 5   0  0.2332791E-04  0.9000806E+03  0.7818609E-02  0.9425481E-01
        1   -1    0    0  501    0  0.00000000000E+00  0.00000000000E+00  0.62832921256E+03  0.62832921258E+03  0.50400001928E-02 0. -1.
       -1   -1    0    0    0  501  0.00000000000E+00  0.00000000000E+00 -0.32234099578E+03  0.32234099582E+03  0.50400001928E-02 0.  1.
    10030    2    1    2    0    0  0.00000000000E+00  0.00000000000E+00  0.30598821678E+03  0.95067020841E+03  0.90008058325E+03 0.  0.
        2    1    3    3  502    0 -0.19688118885E+03  0.40187612375E+03  0.20331255663E+03  0.49153089125E+03  0.25500000920E-02 0. -1.
       -2    1    3    3    0  502  0.19688118885E+03 -0.40187612375E+03  0.10267566015E+03  0.45913931715E+03  0.25500000920E-02 0.  1.
</event>
<event>
 5   0  0.3959804E-04  0.9012920E+03  0.7818609E-02  0.9423968E-01
        2   -1    0    0  501    0  0.00000000000E+00  0.00000000000E+00  0.33438106812E+03  0.33438106813E+03  0.25500000920E-02 0.  1.
       -2   -1    0    0    0  501  0.00000000000E+00  0.00000000000E+00 -0.60733643253E+03  0.60733643253E+03  0.25500000920E-02 0. -1.
    10030    2    1    2    0    0  0.00000000000E+00  0.00000000000E+00 -0.27295536441E+03  0.94171750066E+03  0.90129197272E+03 0.  0.
        5    1    3    3  502    0  0.36314531806E+03 -0.53386481583E+02  0.13665708258E+03  0.39169106023E+03  0.46999998093E+01 0.  1.
       -5    1    3    3    0  502 -0.36314531806E+03  0.53386481583E+02 -0.40961244699E+03  0.55002644043E+03  0.46999998093E+01 0. -1.
</event>
<event>
 5   0  0.2332791E-04  0.8967557E+03  0.7818609E-02  0.9429646E-01
       -1   -1    0    0    0  501  0.00000000000E+00  0.00000000000E+00  0.18674263961E+03  0.18674263968E+03  0.50400001928E-02 0. -1.
        1   -1    0    0  501    0  0.00000000000E+00  0.00000000000E+00 -0.10765763362E+04  0.10765763363E+04  0.50400001928E-02 0.  1.
    10030    2    1    2    0    0  0.00000000000E+00  0.00000000000E+00 -0.88983369663E+03  0.12633189759E+04  0.89675572332E+03 0.  0.
        2    1    3    3  502    0 -0.27694411682E+03  0.34493017109E+03 -0.54813085705E+03  0.70435949856E+03  0.25500000920E-02 0. -1.
       -2    1    3    3    0  502  0.27694411682E+03 -0.34493017109E+03 -0.34170283959E+03  0.55895947738E+03  0.25500000920E-02 0.  1.
</event>
<event>
 5   0  0.2308362E-04  0.8991812E+03  0.7818609E-02  0.9426605E-01
        1   -1    0    0  501    0  0.00000000000E+00  0.00000000000E+00  0.77838454273E+03  0.77838454274E+03  0.50400001928E-02 0.  1.
       -1   -1    0    0    0  501  0.00000000000E+00  0.00000000000E+00 -0.25968106092E+03  0.25968106097E+03  0.50400001928E-02 0. -1.
    10030    2    1    2    0    0  0.00000000000E+00  0.00000000000E+00  0.51870348181E+03  0.10380656037E+04  0.89918123622E+03 0.  0.
        1    1    3    3  502    0 -0.34289872741E+03 -0.14992155098E+03  0.54698455558E+03  0.66275795942E+03  0.50400001928E-02 0.  1.
       -1    1    3    3    0  502  0.34289872741E+03  0.14992155098E+03 -0.28281073771E+02  0.37530764429E+03  0.50400001928E-02 0. -1.
</event>
<event>
 5   0  0.2356918E-04  0.9002614E+03  0.7818609E-02  0.9425255E-01
        1   -1    0    0  501    0  0.00000000000E+00  0.00000000000E+00  0.86319215786E+03  0.86319215787E+03  0.50400001928E-02 0.  1.
       -1   -1    0    0    0  501  0.00000000000E+00  0.00000000000E+00 -0.23473064279E+03  0.23473064284E+03  0.50400001928E-02 0. -1.
    10030    2    1    2    0    0  0.00000000000E+00  0.00000000000E+00  0.62846151507E+03  0.10979228007E+04  0.90026140670E+03 0.  0.
        5    1    3    3  502    0  0.29646331326E+03  0.25079407528E+03  0.59181771230E+03  0.70785482896E+03  0.46999998093E+01 0.  1.
       -5    1    3    3    0  502 -0.29646331326E+03 -0.25079407528E+03  0.36643802776E+02  0.39006797175E+03  0.46999998093E+01 0. -1.
</event>
<event>
 5   0  0.4243516E-04  0.8994230E+03  0.7818609E-02  0.9426303E-01
       -2   -1    0    0    0  501  0.00000000000E+00  0.00000000000E+00  0.20485764194E+03  0.20485764196E+03  0.25500000920E-02 0.  1.
        2   -1    0    0  501    0  0.00000000000E+00  0.00000000000E+00 -0.98722429404E+03  0.98722429405E+03  0.25500000920E-02 0. -1.
    10030    2    1    2    0    0  0.00000000000E+00  0.00000000000E+00 -0.78236665210E+03  0.11920819360E+04  0.89942301717E+03 0.  0.
        1    1    3    3  502    0  0.43968883549E+03 -0.82743870606E+02 -0.33091660668E+03  0.55648775438E+03  0.50400001928E-02 0.  1.
       -1    1    3    3    0  502 -0.43968883549E+03  0.82743870606E+02 -0.45145004542E+03  0.63559418162E+03  0.50400001928E-02 0. -1.
</event>
<event>
 5   0  0.2450427E-04  0.9001048E+03  0.7818609E-02  0.9425450E-01
       -1   -1    0    0    0  501  0.00000000000E+00  0.00000000000E+00  0.30505248329E+03  0.30505248334E+03  0.50400001928E-02 0. -1.
        1   -1    0    0  501    0  0.00000000000E+00  0.00000000000E+00 -0.66397479386E+03  0.66397479388E+03  0.50400001928E-02 0.  1.
    10030    2    1    2    0    0  0.00000000000E+00  0.00000000000E+00 -0.35892231057E+03  0.96902727722E+03  0.90010479333E+03 0.  0.
        3    1    3    3  502    0  0.28414898266E+03 -0.29434631333E+03  0.22426174267E+02  0.40973569530E+03  0.10100000352E+00 0.  1.
       -3    1    3    3    0  502 -0.28414898266E+03  0.29434631333E+03 -0.38134848484E+03  0.55929158192E+03  0.10100000352E+00 0. -1.
</event>
<event>
 5   0  0.4236284E-04  0.9008533E+03  0.7818609E-02  0.9424515E-01
        2   -1    0    0  501    0  0.00000000000E+00  0.00000000000E+00  0.65071947108E+03  0.65071947108E+03  0.25500000920E-02 0.  1.
       -2   -1    0    0    0  501  0.00000000000E+00  0.00000000000E+00 -0.31178437066E+03  0.31178437067E+03  0.25500000920E-02 0. -1.
    10030    2    1    2    0    0  0.00000000000E+00  0.00000000000E+00  0.33893510042E+03  0.96250384176E+03  0.90085328611E+03 0.  0.
        2    1    3    3  502    0 -0.36937781807E+03  0.15155159110E+02 -0.10546425740E+03  0.38443772048E+03  0.25500000920E-02 0. -1.
       -2    1    3    3    0  502  0.36937781807E+03 -0.15155159110E+02  0.44439935782E+03  0.57806612128E+03  0.25500000920E-02 0.  1.
</event>
<event>
 5   0  0.2351435E-04  0.9002407E+03  0.7818609E-02  0.9425281E-01
        1   -1    0    0  501    0  0.00000000000E+00  0.00000000000E+00  0.13129982818E+04  0.13129982818E+04  0.50400001928E-02 0. -1.
       -1   -1    0    0    0  501  0.00000000000E+00  0.00000000000E+00 -0.15430968427E+03  0.15430968435E+03  0.50400001928E-02 0.  1.
    10030    2    1    2    0    0  0.00000000000E+00  0.00000000000E+00  0.11586885976E+04  0.14673079662E+04  0.90024074643E+03 0.  0.
        4    1    3    3  502    0 -0.26945322328E+03  0.19276463315E+03  0.10759804708E+04  0.11258325052E+04  0.12699999809E+01 0. -1.
       -4    1    3    3    0  502  0.26945322328E+03 -0.19276463315E+03  0.82708126769E+02  0.34147546100E+03  0.12699999809E+01 0.  1.
</event>
<event>
 5   0  0.2356918E-04  0.8992156E+03  0.7818609E-02  0.9426562E-01
        1   -1    0    0  501    0  0.00000000000E+00  0.00000000000E+00  0.55014660362E+03  0.55014660364E+03  0.50400001928E-02 0. -1.
       -1   -1    0    0    0  501  0.00000000000E+00  0.00000000000E+00 -0.36744239030E+03  0.36744239034E+03  0.50400001928E-02 0.  1.
    10030    2    1    2    0    0  0.00000000000E+00  0.00000000000E+00  0.18270421332E+03  0.91758899398E+03  0.89921562059E+03 0.  0.
        5    1    3    3  502    0  0.35649123790E+03 -0.26683451864E+03  0.15457307858E+03  0.47138263614E+03  0.46999998093E+01 0. -1.
       -5    1    3    3    0  502 -0.35649123790E+03  0.26683451864E+03  0.28131134741E+02  0.44620635784E+03  0.46999998093E+01 0.  1.
</event>
<event>
 5   0  0.3959804E-04  0.9002891E+03  0.7818609E-02  0.9425220E-01
       -2   -1    0    0    0  501  0.00000000000E+00  0.00000000000E+00  0.35720887900E+03  0.35720887901E+03  0.25500000920E-02 0. -1.
        2   -1    0    0  501    0  0.00000000000E+00  0.00000000000E+00 -0.56725940355E+03  0.56725940355E+03  0.25500000920E-02 0.  1.
    10030    2    1    2    0    0  0.00000000000E+00  0.00000000000E+00 -0.21005052455E+03  0.92446828256E+03  0.90028905502E+03 0.  0.
        5    1    3    3  502    0 -0.31501027055E+03  0.10457308573E+03 -0.41723207385E+03  0.53317135543E+03  0.46999998093E+01 0.  1.
       -5    1    3    3    0  502  0.31501027055E+03 -0.10457308573E+03  0.20718154929E+03  0.39129692713E+03  0.46999998093E+01 0. -1.
</event>
<event>
 5   0  0.2356918E-04  0.9001224E+03  0.7818609E-02  0.9425428E-01
        1   -1    0    0  501    0  0.00000000000E+00  0.00000000000E+00  0.11390612652E+04  0.11390612652E+04  0.50400001928E-02 0.  1.
       -1   -1    0    0    0  501  0.00000000000E+00  0.00000000000E+00 -0.17782633097E+03  0.17782633104E+03  0.50400001928E-02 0. -1.
    10030    2    1    2    0    0  0.00000000000E+00  0.00000000000E+00  0.96123493425E+03  0.13168875963E+04  0.90012240412E+03 0.  0.
        5    1    3    3  502    0  0.27237446636E+03  0.75924276958E+02  0.99283931117E+03  0.10323295664E+04  0.46999998093E+01 0.  1.
       -5    1    3    3    0  502 -0.27237446636E+03 -0.75924276958E+02 -0.31604376924E+02  0.28455802992E+03  0.46999998093E+01 0. -1.
</event>
<event>
 5   0  0.2332791E-04  0.9002080E+03  0.7818609E-02  0.9425321E-01
       -1   -1    0    0    0  501  0.00000000000E+00  0.00000000000E+00  0.31518915256E+03  0.31518915260E+03  0.50400001928E-02 0. -1.
        1   -1    0    0  501    0  0.00000000000E+00  0.00000000000E+00 -0.64276836377E+03  0.64276836379E+03  0.50400001928E-02 0.  1.
    10030    2    1    2    0    0  0.00000000000E+00  0.00000000000E+00 -0.32757921121E+03  0.95795751638E+03  0.90020801128E+03 0.  0.
        2    1    3    3  502    0 -0.61525326684E+02 -0.64539821818E+02  0.30569636183E+03  0.31843526826E+03  0.25500000920E-02 0. -1.
       -2    1    3    3    0  502  0.61525326684E+02  0.64539821818E+02 -0.63327557305E+03  0.63952224813E+03  0.25500000920E-02 0.  1.
</event>
<event>
 5   0  0.4243516E-04  0.8996368E+03  0.7818609E-02  0.9426036E-01
       -2   -1    0    0    0  501  0.00000000000E+00  0.00000000000E+00  0.19183475222E+03  0.19183475224E+03  0.25500000920E-02 0.  1.
        2   -1    0    0  501    0  0.00000000000E+00  0.00000000000E+00 -0.10547442297E+04  0.10547442297E+04  0.25500000920E-02 0. -1.
    10030    2    1    2    0    0  0.00000000000E+00  0.00000000000E+00 -0.86290947744E+03  0.12465789819E+04  0.89963681109E+03 0.  0.
        1    1    3    3  502    0  0.40898325663E+02 -0.68800047256E+02 -0.10447979774E+04  0.10478592144E+04  0.50400001928E-02 0. -1.
       -1    1    3    3    0  502 -0.40898325663E+02  0.68800047256E+02  0.18188849998E+03  0.19871976750E+03  0.50400001928E-02 0.  1.
</event>
<event>
 5   0  0.2351435E-04  0.9008492E+03  0.7818609E-02  0.9424521E-01
        1   -1    0    0  501    0  0.00000000000E+00  0.00000000000E+00  0.11776791094E+04  0.11776791094E+04  0.50400001928E-02 0.  1.
       -1   -1    0    0    0  501  0.00000000000E+00  0.00000000000E+00 -0.17227300737E+03  0.17227300744E+03  0.50400001928E-02 0. -1.
    10030    2    1    2    0    0  0.00000000000E+00  0.00000000000E+00  0.10054061020E+04  0.13499521169E+04  0.90084920369E+03 0.  0.
        4    1    3    3  502    0 -0.38997227103E+02 -0.33624734196E+03  0.57415207734E+02  0.34333828460E+03  0.12699999809E+01 0. -1.
       -4    1    3    3    0  502  0.38997227103E+02  0.33624734196E+03  0.94799089431E+03  0.10066138323E+04  0.12699999809E+01 0.  1.
</event>
<event>
 5   0  0.4243516E-04  0.8996307E+03  0.7818609E-02  0.9426043E-01
       -2   -1    0    0    0  501  0.00000000000E+00  0.00000000000E+00  0.25517948705E+03  0.25517948707E+03  0.25500000920E-02 0. -1.
        2   -1    0    0  501    0  0.00000000000E+00  0.00000000000E+00 -0.79290790641E+03  0.79290790642E+03  0.25500000920E-02 0.  1.
    10030    2    1    2    0    0  0.00000000000E+00  0.00000000000E+00 -0.53772841936E+03  0.10480873935E+04  0.89963066388E+03 0.  0.
        1    1    3    3  502    0  0.17913643465E+03 -0.17309046589E+03  0.16748761189E+03  0.30017040454E+03  0.50400001928E-02 0. -1.
       -1    1    3    3    0  502 -0.17913643465E+03  0.17309046589E+03 -0.70521603125E+03  0.74791698895E+03  0.50400001928E-02 0.  1.
</event>
<event>
 5   0  0.4243516E-04  0.9000080E+03  0.7818609E-02  0.9425571E-01
       -2   -1    0    0    0  501  0.00000000000E+00  0.00000000000E+00  0.66392704243E+03  0.66392704243E+03  0.25500000920E-02 0.  1.
        2   -1    0    0  501    0  0.00000000000E+00  0.00000000000E+00 -0.30500883097E+03  0.30500883099E+03  0.25500000920E-02 0. -1.
    10030    2    1    2    0    0  0.00000000000E+00  0.00000000000E+00  0.35891821145E+03  0.96893587342E+03  0.90000802456E+03 0.  0.
        1    1    3    3  502    0 -0.44952811816E+03  0.81810576436E+01  0.19991855118E+03  0.49204662976E+03  0.50400001928E-02 0. -1.
       -1    1    3    3    0  502  0.44952811816E+03 -0.81810576436E+01  0.15899966027E+03  0.47688924366E+03  0.50400001928E-02 0.  1.
</event>
<event>
 5   0  0.2351435E-04  0.9003041E+03  0.7818609E-02  0.9425201E-01
        1   -1    0    0  501    0  0.00000000000E+00  0.00000000000E+00  0.62612360357E+03  0.62612360359E+03  0.50400001928E-02 0. -1.
       -1   -1    0    0    0  501  0.00000000000E+00  0.00000000000E+00 -0.32363713696E+03  0.32363713699E+03  0.50400001928E-02 0.  1.
    10030    2    1    2    0    0  0.00000000000E+00  0.00000000000E+00  0.30248646662E+03  0.94976074059E+03  0.90030406079E+03 0.  0.
        4    1    3    3  502    0  0.40397381289E+02 -0.44654558418E+03  0.19344492227E+03  0.48832106039E+03  0.12699999809E+01 0. -1.
       -4    1    3    3    0  502 -0.40397381289E+02  0.44654558418E+03  0.10904154435E+03  0.46143968020E+03  0.12699999809E+01 0.  1.
</event>
<event>
 5   0  0.2450427E-04  0.8999184E+03  0.7818609E-02  0.9425683E-01
        1   -1    0    0  501    0  0.00000000000E+00  0.00000000000E+00  0.77671122185E+03  0.77671122187E+03  0.50400001928E-02 0.  1.
       -1   -1    0    0    0  501  0.00000000000E+00  0.00000000000E+00 -0.26066738190E+03  0.26066738195E+03  0.50400001928E-02 0. -1.
    10030    2    1    2    0    0  0.00000000000E+00  0.00000000000E+00  0.51604383995E+03  0.10373786038E+04  0.89991839791E+03 0.  0.
        3    1    3    3  502    0  0.17483712754E+03  0.40543814143E+03  0.15809020212E+03  0.46897828297E+03  0.10100000352E+00 0. -1.
       -3    1    3    3    0  502 -0.17483712754E+03 -0.40543814143E+03  0.35795363784E+03  0.56840032084E+03  0.10100000352E+00 0.  1.
</event>
<event>
 5   0  0.1596250E-04  0.9009485E+03  0.7818609E-02  0.9424397E-01
        3   -1    0    0  501    0  0.00000000000E+00  0.00000000000E+00  0.10223642628E+04  0.10223642678E+04  0.10100000352E+00 0. -1.
       -3   -1    0    0    0  501  0.00000000000E+00  0.00000000000E+00 -0.19848797304E+03  0.19848799874E+03  0.10100000352E+00 0.  1.
    10030    2    1    2    0    0  0.00000000000E+00  0.00000000000E+00  0.82387628979E+03  0.12208522666E+04  0.90094845352E+03 0.  0.
        3    1    3    3  502    0  0.23811745336E+03 -0.31099222250E+03  0.11041980560E+03  0.40695039958E+03  0.10100000352E+00 0.  1.
       -3    1    3    3    0  502 -0.23811745336E+03  0.31099222250E+03  0.71345648420E+03  0.81390186699E+03  0.10100000352E+00 0. -1.
</event>
<event>
 5   0  0.4033144E-04  0.9000758E+03  0.7818609E-02  0.9425487E-01
       -2   -1    0    0    0  501  0.00000000000E+00  0.00000000000E+00  0.33289599765E+03  0.33289599766E+03  0.25500000920E-02 0. -1.
        2   -1    0    0  501    0  0.00000000000E+00  0.00000000000E+00 -0.60840058157E+03  0.60840058157E+03  0.25500000920E-02 0.  1.
    10030    2    1    2    0    0  0.00000000000E+00  0.00000000000E+00 -0.27550458392E+03  0.94129657923E+03  0.90007581587E+03 0.  0.
        4    1    3    3  502    0  0.97429526978E+02 -0.43532564091E+03 -0.19990096636E+03  0.48883835325E+03  0.12699999809E+01 0.  1.
       -4    1    3    3    0  502 -0.97429526978E+02  0.43532564091E+03 -0.75603617561E+02  0.45245822597E+03  0.12699999809E+01 0. -1.
</event>
<event>
 5   0  0.2351435E-04  0.8997852E+03  0.7818609E-02  0.9425850E-01
        1   -1    0    0  501    0  0.00000000000E+00  0.00000000000E+00  0.12199692966E+04  0.12199692966E+04  0.50400001928E-02 0. -1.
       -1   -1    0    0    0  501  0.00000000000E+00  0.00000000000E+00 -0.16590855393E+03  0.16590855401E+03  0.50400001928E-02 0.  1.
    10030    2    1    2    0    0  0.00000000000E+00  0.00000000000E+00  0.10540607427E+04  0.13858778506E+04  0.89978517859E+03 0.  0.
        4    1    3    3  502    0  0.19820657603E+03  0.35281615885E+03  0.22427922519E+03  0.46267469401E+03  0.12699999809E+01 0. -1.
       -4    1    3    3    0  502 -0.19820657603E+03 -0.35281615885E+03  0.82978151746E+03  0.92320315659E+03  0.12699999809E+01 0.  1.
</event>
<event>
 5   0  0.2308362E-04  0.8993598E+03  0.7818609E-02  0.9426382E-01
       -1   -1    0    0    0  501  0.00000000000E+00  0.00000000000E+00  0.21575362397E+03  0.21575362403E+03  0.50400001928E-02 0. -1.
        1   -1    0    0  501    0  0.00000000000E+00  0.00000000000E+00 -0.93723582426E+03  0.93723582427E+03  0.50400001928E-02 0.  1.
    10030    2    1    2    0    0  0.00000000000E+00  0.00000000000E+00 -0.72148220029E+03  0.11529894483E+04  0.89935982930E+03 0.  0.
        1    1    3    3  502    0  0.61766826098E+02  0.14095674566E+03  0.18094178664E+03  0.23753710264E+03  0.50400001928E-02 0. -1.
       -1    1    3    3    0  502 -0.61766826098E+02 -0.14095674566E+03 -0.90242398693E+03  0.91545234566E+03  0.50400001928E-02 0.  1.
</event>
<event>
 5   0  0.2356918E-04  0.9003538E+03  0.7818609E-02  0.9425139E-01
       -1   -1    0    0    0  501  0.00000000000E+00  0.00000000000E+00  0.11194489413E+03  0.11194489425E+03  0.50400001928E-02 0. -1.
        1   -1    0    0  501    0  0.00000000000E+00  0.00000000000E+00 -0.18103481724E+04  0.18103481724E+04  0.50400001928E-02 0.  1.
    10030    2    1    2    0    0  0.00000000000E+00  0.00000000000E+00 -0.16984032782E+04  0.19222930666E+04  0.90035378517E+03 0.  0.
        5    1    3    3  502    0  0.30765654849E+03  0.18304487683E+03 -0.14318731803E+04  0.14759542246E+04  0.46999998093E+01 0.  1.
       -5    1    3    3    0  502 -0.30765654849E+03 -0.18304487683E+03 -0.26653009793E+03  0.44633884199E+03  0.46999998093E+01 0. -1.
</event>
<event>
 5   0  0.4033144E-04  0.9001539E+03  0.7818609E-02  0.9425389E-01
       -2   -1    0    0    0  501  0.00000000000E+00  0.00000000000E+00  0.10843776996E+03  0.10843776999E+03  0.25500000920E-02 0.  1.
        2   -1    0    0  501    0  0.00000000000E+00  0.00000000000E+00 -0.18680693237E+04  0.18680693237E+04  0.25500000920E-02 0. -1.
    10030    2    1    2    0    0  0.00000000000E+00  0.00000000000E+00 -0.17596315537E+04  0.19765070937E+04  0.90015392376E+03 0.  0.
        4    1    3    3  502    0 -0.38734271409E+03  0.19570606211E+03 -0.11417673077E+04  0.12214620087E+04  0.12699999809E+01 0. -1.
       -4    1    3    3    0  502  0.38734271409E+03 -0.19570606211E+03 -0.61786424606E+03  0.75504508498E+03  0.12699999809E+01 0.  1.
</event>
<event>
 5   0  0.4236284E-04  0.8996527E+03  0.7818609E-02  0.9426016E-01
        2   -1    0    0  501    0  0.00000000000E+00  0.00000000000E+00  0.63151923111E+03  0.63151923111E+03  0.25500000920E-02 0.  1.
       -2   -1    0    0    0  501  0.00000000000E+00  0.00000000000E+00 -0.32040792407E+03  0.32040792408E+03  0.25500000920E-02 0. -1.
    10030    2    1    2    0    0  0.00000000000E+00  0.00000000000E+00  0.31111130704E+03  0.95192715519E+03  0.89965274602E+03 0.  0.
        2    1    3    3  502    0 -0.22706014831E+03 -0.34292402150E+03 -0.37212889073E+02  0.41296246148E+03  0.25500000920E-02 0.  1.
       -2    1    3    3    0  502  0.22706014831E+03  0.34292402150E+03  0.34832419611E+03  0.53896469372E+03  0.25500000920E-02 0. -1.
</event>
<event>
 5   0  0.2356918E-04  0.9004884E+03  0.7818609E-02  0.9424971E-01
        1   -1    0    0  501    0  0.00000000000E+00  0.00000000000E+00  0.60849671723E+03  0.60849671725E+03  0.50400001928E-02 0. -1.
       -1   -1    0    0    0  501  0.00000000000E+00  0.00000000000E+00 -0.33314858032E+03  0.33314858036E+03  0.50400001928E-02 0.  1.
    10030    2    1    2    0    0  0.00000000000E+00  0.00000000000E+00  0.27534813691E+03  0.94164529761E+03  0.90048835085E+03 0.  0.
        5    1    3    3  502    0  0.28271559042E+03 -0.31221356734E+03  0.30397837591E+03  0.51945198018E+03  0.46999998093E+01 0. -1.
       -5    1    3    3    0  502 -0.28271559042E+03  0.31221356734E+03 -0.28630238995E+02  0.42219331743E+03  0.46999998093E+01 0.  1.
</event>
<event>
 5   0  0.2308362E-04  0.9002118E+03  0.7818609E-02  0.9425317E-01
       -1   -1    0    0    0  501  0.00000000000E+00  0.00000000000E+00  0.11337726862E+03  0.11337726873E+03  0.50400001928E-02 0.  1.
        1   -1    0    0  501    0  0.00000000000E+00  0.00000000000E+00 -0.17869130793E+04  0.17869130793E+04  0.50400001928E-02 0. -1.
    10030    2    1    2    0    0  0.00000000000E+00  0.00000000000E+00 -0.16735358107E+04  0.19002903480E+04  0.90021180687E+03 0.  0.
        1    1    3    3  502    0  0.13641904558E+03  0.15132502084E+03  0.10467371191E+02  0.20400731314E+03  0.50400001928E-02 0.  1.
       -1    1    3    3    0  502 -0.13641904558E+03 -0.15132502084E+03 -0.16840031818E+04  0.16962830349E+04  0.50400001928E-02 0. -1.
</event>
<event>
 5   0  0.4110039E-04  0.9002195E+03  0.7818609E-02  0.9425307E-01
       -2   -1    0    0    0  501  0.00000000000E+00  0.00000000000E+00  0.20593938674E+03  0.20593938676E+03  0.25500000920E-02 0.  1.
        2   -1    0    0  501    0  0.00000000000E+00  0.00000000000E+00 -0.98377870375E+03  0.98377870376E+03  0.25500000920E-02 0. -1.
    10030    2    1    2    0    0  0.00000000000E+00  0.00000000000E+00 -0.77783931701E+03  0.11897180905E+04  0.90021949091E+03 0.  0.
        3    1    3    3  502    0  0.45444916882E+01 -0.20789014685E+03  0.13865636661E+03  0.24992911748E+03  0.10100000352E+00 0.  1.
       -3    1    3    3    0  502 -0.45444916882E+01  0.20789014685E+03 -0.91649568362E+03  0.93978897304E+03  0.10100000352E+00 0. -1.
</event>
<event>
 5   0  0.4033144E-04  0.9003437E+03  0.7818609E-02  0.9425152E-01
       -2   -1    0    0    0  501  0.00000000000E+00  0.00000000000E+00  0.83056728910E+03  0.83056728911E+03  0.25500000920E-02 0. -1.
        2   -1    0    0  501    0  0.00000000000E+00  0.00000000000E+00 -0.24399552704E+03  0.24399552706E+03  0.25500000920E-02 0.  1.
    10030    2    1    2    0    0  0.00000000000E+00  0.00000000000E+00  0.58657176206E+03  0.10745628162E+04  0.90034371983E+03 0.  0.
        4    1    3    3  502    0  0.72133261652E+02 -0.24198518222E+03  0.73808481068E+03  0.78008386505E+03  0.12699999809E+01 0.  1.
       -4    1    3    3    0  502 -0.72133261652E+02  0.24198518222E+03 -0.15151304862E+03  0.29447895112E+03  0.12699999809E+01 0. -1.
</event>
<event>
 5   0  0.4033144E-04  0.9001466E+03  0.7818609E-02  0.9425398E-01
       -2   -1    0    0    0  501  0.00000000000E+00  0.00000000000E+00  0.15238326010E+03  0.15238326012E+03  0.25500000920E-02 0.  1.
        2   -1    0    0  501    0  0.00000000000E+00  0.00000000000E+00 -0.13293191324E+04  0.13293191324E+04  0.25500000920E-02 0. -1.
    10030    2    1    2    0    0  0.00000000000E+00  0.00000000000E+00 -0.11769358723E+04  0.14817023925E+04  0.90014661720E+03 0.  0.
        4    1    3    3  502    0  0.35066766114E+03 -0.33018554122E+02 -0.10496793907E+04  0.11071975748E+04  0.12699999809E+01 0. -1.
       -4    1    3    3    0  502 -0.35066766114E+03  0.33018554122E+02 -0.12725648161E+03  0.37450481772E+03  0.12699999809E+01 0.  1.
</event>
<event>
 5   0  0.2450427E-04  0.9006494E+03  0.7818609E-02  0.9424770E-01
        1   -1    0    0  501    0  0.00000000000E+00  0.00000000000E+00  0.35262388755E+03  0.35262388759E+03  0.50400001928E-02 0.  1.
       -1   -1    0    0    0  501  0.00000000000E+00  0.00000000000E+00 -0.57509532637E+03  0.57509532639E+03  0.50400001928E-02 0. -1.
    10030    2    1    2    0    0  0.00000000000E+00  0.00000000000E+00 -0.22247143882E+03  0.92771921398E+03  0.90064943174E+03 0.  0.
        3    1    3    3  502    0 -0.11124810747E+03  0.29432505344E+03 -0.44308154149E+03  0.54343779874E+03  0.10100000352E+00 0. -1.
       -3    1    3    3    0  502  0.11124810747E+03 -0.29432505344E+03  0.22061010267E+03  0.38428141524E+03  0.10100000352E+00 0.  1.
</event>
<event>
 5   0  0.2450427E-04  0.8997463E+03  0.7818609E-02  0.9425899E-01
       -1   -1    0    0    0  501  0.00000000000E+00  0.00000000000E+00  0.32284298138E+03  0.32284298142E+03  0.50400001928E-02 0.  1.
        1   -1    0    0  501    0  0.00000000000E+00  0.00000000000E+00 -0.62688625969E+03  0.62688625971E+03  0.50400001928E-02 0. -1.
    10030    2    1    2    0    0  0.00000000000E+00  0.00000000000E+00 -0.30404327831E+03  0.94972924114E+03  0.89974625111E+03 0.  0.
        3    1    3    3  502    0  0.29940625102E+03  0.33469891248E+03 -0.18031268099E+03  0.48392162412E+03  0.10100000352E+00 0.  1.
       -3    1    3    3    0  502 -0.29940625102E+03 -0.33469891248E+03 -0.12373059731E+03  0.46580761702E+03  0.10100000352E+00 0. -1.
</event>
<event>
 5   0  0.2308362E-04  0.9002468E+03  0.7818609E-02  0.9425273E-01
        1   -1    0    0  501    0  0.00000000000E+00  0.00000000000E+00  0.10391796020E+04  0.10391796020E+04  0.50400001928E-02 0.  1.
       -1   -1    0    0    0  501  0.00000000000E+00  0.00000000000E+00 -0.19497214854E+03  0.19497214860E+03  0.50400001928E-02 0. -1.
    10030    2    1    2    0    0  0.00000000000E+00  0.00000000000E+00  0.84420745348E+03  0.12341517506E+04  0.90024681009E+03 0.  0.
        1    1    3    3  502    0 -0.22927893337E+03  0.18309151073E+03 -0.45854129674E+02  0.29697463161E+03  0.50400001928E-02 0. -1.
       -1    1    3    3    0  502  0.22927893337E+03 -0.18309151073E+03  0.89006158316E+03  0.93717711903E+03  0.50400001928E-02 0.  1.
</event>
<event>
 5   0  0.2332791E-04  0.9003431E+03  0.7818609E-02  0.9425153E-01
       -1   -1    0    0    0  501  0.00000000000E+00  0.00000000000E+00  0.46231013526E+03  0.46231013529E+03  0.50400001928E-02 0.  1.
        1   -1    0    0  501    0  0.00000000000E+00  0.00000000000E+00 -0.43835164405E+03  0.43835164408E+03  0.50400001928E-02 0. -1.
    10030    2    1    2    0    0  0.00000000000E+00  0.00000000000E+00  0.23958491209E+02  0.90066177938E+03  0.90034306324E+03 0.  0.
        2    1    3    3  502    0 -0.37633924582E+01  0.43333958182E+03  0.13391189939E+03  0.45357441848E+03  0.25500000920E-02 0. -1.
       -2    1    3    3    0  502  0.37633924582E+01 -0.43333958182E+03 -0.10995340818E+03  0.44708736090E+03  0.25500000920E-02 0.  1.
</event>
<event>
 5   0  0.4110039E-04  0.9001447E+03  0.7818609E-02  0.9425401E-01
       -2   -1    0    0    0  501  0.00000000000E+00  0.00000000000E+00  0.20125053372E+03  0.20125053373E+03  0.25500000920E-02 0.  1.
        2   -1    0    0  501    0  0.00000000000E+00  0.00000000000E+00 -0.10065320177E+04  0.10065320177E+04  0.25500000920E-02 0. -1.
    10030    2    1    2    0    0  0.00000000000E+00  0.00000000000E+00 -0.80528148399E+03  0.12077825514E+04  0.90014466788E+03 0.  0.
        3    1    3    3  502    0 -0.28649285028E+03 -0.19359202829E+03 -0.78922058839E+03  0.86164097745E+03  0.10100000352E+00 0. -1.
       -3    1    3    3    0  502  0.28649285028E+03  0.19359202829E+03 -0.16060895602E+02  0.34614157399E+03  0.10100000352E+00 0.  1.
</event>
<event>
 5   0  0.4110039E-04  0.9006383E+03  0.7818609E-02  0.9424784E-01
       -2   -1    0    0    0  501  0.00000000000E+00  0.00000000000E+00  0.12081603982E+03  0.12081603985E+03  0.25500000920E-02 0. -1.
        2   -1    0    0  501    0  0.00000000000E+00  0.00000000000E+00 -0.16784801356E+04  0.16784801356E+04  0.25500000920E-02 0.  1.
    10030    2    1    2    0    0  0.00000000000E+00  0.00000000000E+00 -0.15576640958E+04  0.17992961754E+04  0.90063826908E+03 0.  0.
        3    1    3    3  502    0 -0.40778259449E+03 -0.60314659658E+01 -0.11603246669E+04  0.12299090884E+04  0.10100000352E+00 0.  1.
       -3    1    3    3    0  502  0.40778259449E+03  0.60314659658E+01 -0.39733942891E+03  0.56938708707E+03  0.10100000352E+00 0. -1.
</event>
<event>
 5   0  0.1596250E-04  0.9004492E+03  0.7818609E-02  0.9425020E-01
       -3   -1    0    0    0  501  0.00000000000E+00  0.00000000000E+00  0.42069614393E+03  0.42069615605E+03  0.10100000352E+00 0.  1.
        3   -1    0    0  501    0  0.00000000000E+00  0.00000000000E+00 -0.48182566408E+03  0.48182567467E+03  0.10100000352E+00 0. -1.
    10030    2    1    2    0    0  0.00000000000E+00  0.00000000000E+00 -0.61129520156E+02  0.90252183072E+03  0.90044924160E+03 0.  0.
        5    1    3    3  502    0 -0.10500072246E+03  0.24528645429E+03 -0.39401424161E+03  0.47587804001E+03  0.46999998093E+01 0. -1.
       -5    1    3    3    0  502  0.10500072246E+03 -0.24528645429E+03  0.33288472145E+03  0.42664379071E+03  0.46999998093E+01 0.  1.
</event>
<event>
 5   0  0.2450427E-04  0.9000428E+03  0.7818609E-02  0.9425528E-01
        1   -1    0    0  501    0  0.00000000000E+00  0.00000000000E+00  0.25685281719E+03  0.25685281724E+03  0.50400001928E-02 0.  1.
       -1   -1    0    0    0  501  0.00000000000E+00  0.00000000000E+00 -0.78846432047E+03  0.78846432048E+03  0.50400001928E-02 0. -1.
    10030    2    1    2    0    0  0.00000000000E+00  0.00000000000E+00 -0.53161150328E+03  0.10453171377E+04  0.90004284786E+03 0.  0.
        3    1    3    3  502    0  0.60470488948E+02  0.33103403548E+03  0.81218389316E+02  0.34617430529E+03  0.10100000352E+00 0. -1.
       -3    1    3    3    0  502 -0.60470488948E+02 -0.33103403548E+03 -0.61282989260E+03  0.69914283243E+03  0.10100000352E+00 0.  1.
</event>
<event>
 5   0  0.4236284E-04  0.8995241E+03  0.7818609E-02  0.9426177E-01
        2   -1    0    0  501    0  0.00000000000E+00  0.00000000000E+00  0.16922314832E+04  0.16922314832E+04  0.25500000920E-02 0.  1.
       -2   -1    0    0    0  501  0.00000000000E+00  0.00000000000E+00 -0.11953794843E+03  0.11953794846E+03  0.25500000920E-02 0. -1.
    10030    2    1    2    0    0  0.00000000000E+00  0.00000000000E+00  0.15726935347E+04  0.18117694316E+04  0.89952405148E+03 0.  0.
        2    1    3    3  502    0  0.10865941427E+03 -0.41492235024E+03  0.10589522374E+04  0.11425179500E+04  0.25500000920E-02 0. -1.
       -2    1    3    3    0  502 -0.10865941427E+03  0.41492235024E+03  0.51374129735E+03  0.66925148161E+03  0.25500000920E-02 0.  1.
</event>
<event>
 5   0  0.4243516E-04  0.9000233E+03  0.7818609E-02  0.9425552E-01
        2   -1    0    0  501    0  0.00000000000E+00  0.00000000000E+00  0.28061256495E+04  0.28061256495E+04  0.25500000920E-02 0.  1.
       -2   -1    0    0    0  501  0.00000000000E+00  0.00000000000E+00 -0.72167288141E+02  0.72167288186E+02  0.25500000920E-02 0. -1.
    10030    2    1    2    0    0  0.00000000000E+00  0.00000000000E+00  0.27339583614E+04  0.28782929377E+04  0.90002328498E+03 0.  0.
        1    1    3    3  502    0  0.13398916097E+03 -0.36910386844E+03  0.20699599416E+04  0.21068756301E+04  0.50400001928E-02 0.  1.
       -1    1    3    3    0  502 -0.13398916097E+03  0.36910386844E+03  0.66399841984E+03  0.77141730764E+03  0.50400001928E-02 0. -1.
</event>
<event>
 5   0  0.4033144E-04  0.9002465E+03  0.7818609E-02  0.9425273E-01
        2   -1    0    0  501    0  0.00000000000E+00  0.00000000000E+00  0.89352657955E+03  0.89352657955E+03  0.25500000920E-02 0. -1.
       -2   -1    0    0    0  501  0.00000000000E+00  0.00000000000E+00 -0.22675426333E+03  0.22675426334E+03  0.25500000920E-02 0.  1.
    10030    2    1    2    0    0  0.00000000000E+00  0.00000000000E+00  0.66677231622E+03  0.11202808429E+04  0.90024654694E+03 0.  0.
        4    1    3    3  502    0  0.16847675630E+03 -0.31630606463E+03 -0.55324443122E+01  0.35842176939E+03  0.12699999809E+01 0. -1.
       -4    1    3    3    0  502 -0.16847675630E+03  0.31630606463E+03  0.67230476053E+03  0.76185907350E+03  0.12699999809E+01 0.  1.
</event>
<event>
 5   0  0.1596250E-04  0.8998916E+03  0.7818609E-02  0.9425717E-01
        3   -1    0    0  501    0  0.00000000000E+00  0.00000000000E+00  0.69375785843E+03  0.69375786579E+03  0.10100000352E+00 0. -1.
       -3   -1    0    0    0  501  0.00000000000E+00  0.00000000000E+00 -0.29181823058E+03  0.29181824806E+03  0.10100000352E+00 0.  1.
    10030    2    1    2    0    0  0.00000000000E+00  0.00000000000E+00  0.40193962785E+03  0.98557611385E+03  0.89989155555E+03 0.  0.
        5    1    3    3  502    0  0.20998229362E+03  0.31898382223E+03  0.46149756677E+03  0.59903700771E+03  0.46999998093E+01 0. -1.
       -5    1    3    3    0  502 -0.20998229362E+03 -0.31898382223E+03 -0.59557938912E+02  0.38653910613E+03  0.46999998093E+01 0.  1.
</event>
<event>
 5   0  0.2356918E-04  0.9001847E+03  0.7818609E-02  0.9425351E-01
       -1   -1    0    0    0  501  0.00000000000E+00  0.00000000000E+00  0.23580448154E+03  0.23580448160E+03  0.50400001928E-02 0. -1.
        1   -1    0    0  501    0  0.00000000000E+00  0.00000000000E+00 -0.85911488058E+03  0.85911488059E+03  0.50400001928E-02 0.  1.
    10030    2    1    2    0    0  0.00000000000E+00  0.00000000000E+00 -0.62331039904E+03  0.10949193622E+04  0.90018473446E+03 0.  0.
        5    1    3    3  502    0 -0.28179306712E+03 -0.33613436239E+03 -0.18900857737E+03  0.47764000521E+03  0.46999998093E+01 0.  1.
       -5    1    3    3    0  502  0.28179306712E+03  0.33613436239E+03 -0.43430182167E+03  0.61727935698E+03  0.46999998093E+01 0. -1.
</event>
<event>
 5   0  0.4243516E-04  0.9001584E+03  0.7818609E-02  0.9425383E-01
        2   -1    0    0  501    0  0.00000000000E+00  0.00000000000E+00  0.82853955857E+03  0.82853955858E+03  0.25500000920E-02 0.  1.
       -2   -1    0    0    0  501  0.00000000000E+00  0.00000000000E+00 -0.24449199875E+03  0.24449199877E+03  0.25500000920E-02 0. -1.
    10030    2    1    2    0    0  0.00000000000E+00  0.00000000000E+00  0.58404755982E+03  0.10730315573E+04  0.90015841435E+03 0.  0.
        1    1    3    3  502    0 -0.22766216705E+03  0.34053393719E+03  0.69720931924E+02  0.41551706711E+03  0.50400001928E-02 0. -1.
       -1    1    3    3    0  502  0.22766216705E+03 -0.34053393719E+03  0.51432662790E+03  0.65751449024E+03  0.50400001928E-02 0.  1.
</event>
<event>
 5   0  0.3959804E-04  0.8999803E+03  0.7818609E-02  0.9425606E-01
       -2   -1    0    0    0  501  0.00000000000E+00  0.00000000000E+00  0.23275085040E+03  0.23275085042E+03  0.25500000920E-02 0. -1.
        2   -1    0    0  501    0  0.00000000000E+00  0.00000000000E+00 -0.86999091848E+03  0.86999091848E+03  0.25500000920E-02 0.  1.
    10030    2    1    2    0    0  0.00000000000E+00  0.00000000000E+00 -0.63724006807E+03  0.11027417689E+04  0.89998028006E+03 0.  0.
        5    1    3    3  502    0  0.15515723345E+03 -0.18479046755E+03  0.14674672477E+03  0.28244995171E+03  0.46999998093E+01 0. -1.
       -5    1    3    3    0  502 -0.15515723345E+03  0.18479046755E+03 -0.78398679285E+03  0.82029181719E+03  0.46999998093E+01 0.  1.
</event>
<event>
 5   0  0.2351435E-04  0.8999771E+03  0.7818609E-02  0.9425610E-01
       -1   -1    0    0    0  501  0.00000000000E+00  0.00000000000E+00  0.38363469978E+03  0.38363469982E+03  0.50400001928E-02 0.  1.
        1   -1    0    0  501    0  0.00000000000E+00  0.00000000000E+00 -0.52781902504E+03  0.52781902506E+03  0.50400001928E-02 0. -1.
    10030    2    1    2    0    0  0.00000000000E+00  0.00000000000E+00 -0.14418432526E+03  0.91145372488E+03  0.89997709579E+03 0.  0.
        4    1    3    3  502    0 -0.14533379612E+03  0.40767057807E+03  0.52648595561E+02  0.43599392202E+03  0.12699999809E+01 0. -1.
       -4    1    3    3    0  502  0.14533379612E+03 -0.40767057807E+03 -0.19683292082E+03  0.47545980286E+03  0.12699999809E+01 0.  1.
</event>
<event>
 5   0  0.3959804E-04  0.9004060E+03  0.7818609E-02  0.9425074E-01
       -2   -1    0    0    0  501  0.00000000000E+00  0.00000000000E+00  0.43569177070E+03  0.43569177071E+03  0.25500000920E-02 0.  1.
        2   -1    0    0  501    0  0.00000000000E+00  0.00000000000E+00 -0.46519750168E+03  0.46519750169E+03  0.25500000920E-02 0. -1.
    10030    2    1    2    0    0  0.00000000000E+00  0.00000000000E+00 -0.29505730981E+02  0.90088927240E+03  0.90040596009E+03 0.  0.
        5    1    3    3  502    0 -0.40883552561E+03 -0.14818436142E+03 -0.13124362752E+03  0.45425991649E+03  0.46999998093E+01 0. -1.
       -5    1    3    3    0  502  0.40883552561E+03  0.14818436142E+03  0.10173789654E+03  0.44662935591E+03  0.46999998093E+01 0.  1.
</event>
<event>
 5   0  0.4236284E-04  0.9010477E+03  0.7818609E-02  0.9424273E-01
       -2   -1    0    0    0  501  0.00000000000E+00  0.00000000000E+00  0.15426516109E+03  0.15426516111E+03  0.25500000920E-02 0. -1.
        2   -1    0    0  501    0  0.00000000000E+00  0.00000000000E+00 -0.13157329361E+04  0.13157329361E+04  0.25500000920E-02 0.  1.
    10030    2    1    2    0    0  0.00000000000E+00  0.00000000000E+00 -0.11614677750E+04  0.14699980972E+04  0.90104773094E+03 0.  0.
        2    1    3    3  502    0 -0.18356490858E+03  0.26715063867E+03 -0.10912084476E+04  0.11383327350E+04  0.25500000920E-02 0.  1.
       -2    1    3    3    0  502  0.18356490858E+03 -0.26715063867E+03 -0.70259327389E+02  0.33166536222E+03  0.25500000920E-02 0. -1.
</event>
<event>
 5   0  0.4236284E-04  0.9002619E+03  0.7818609E-02  0.9425254E-01
       -2   -1    0    0    0  501  0.00000000000E+00  0.00000000000E+00  0.41608823701E+03  0.41608823702E+03  0.25500000920E-02 0. -1.
        2   -1    0    0  501    0  0.00000000000E+00  0.00000000000E+00 -0.48695894193E+03  0.48695894193E+03  0.25500000920E-02 0.  1.
    10030    2    1    2    0    0  0.00000000000E+00  0.00000000000E+00 -0.70870704913E+02  0.90304717895E+03  0.90026193444E+03 0.  0.
        2    1    3    3  502    0 -0.36504531847E+03 -0.17002232215E+03 -0.23718495879E+03  0.46735680080E+03  0.25500000920E-02 0. -1.
       -2    1    3    3    0  502  0.36504531847E+03  0.17002232215E+03  0.16631425387E+03  0.43569037816E+03  0.25500000920E-02 0.  1.
</event>
<event>
 5   0  0.2450427E-04  0.9002122E+03  0.7818609E-02  0.9425316E-01
       -1   -1    0    0    0  501  0.00000000000E+00  0.00000000000E+00  0.19227061596E+03  0.19227061602E+03  0.50400001928E-02 0. -1.
        1   -1    0    0  501    0  0.00000000000E+00  0.00000000000E+00 -0.10536996578E+04  0.10536996578E+04  0.50400001928E-02 0.  1.
    10030    2    1    2    0    0  0.00000000000E+00  0.00000000000E+00 -0.86142904181E+03  0.12459702738E+04  0.90021215784E+03 0.  0.
        3    1    3    3  502    0  0.32393814416E+03 -0.29575827320E+03 -0.57040838157E+03  0.71956556989E+03  0.10100000352E+00 0.  1.
       -3    1    3    3    0  502 -0.32393814416E+03  0.29575827320E+03 -0.29102066024E+03  0.52640470391E+03  0.10100000352E+00 0. -1.
</event>
<event>
 5   0  0.2332791E-04  0.8998217E+03  0.7818609E-02  0.9425804E-01
       -1   -1    0    0    0  501  0.00000000000E+00  0.00000000000E+00  0.59145930275E+03  0.59145930278E+03  0.50400001928E-02 0.  1.
        1   -1    0    0  501    0  0.00000000000E+00  0.00000000000E+00 -0.34223790491E+03  0.34223790494E+03  0.50400001928E-02 0. -1.
    10030    2    1    2    0    0  0.00000000000E+00  0.00000000000E+00  0.24922139785E+03  0.93369720772E+03  0.89982174377E+03 0.  0.
        2    1    3    3  502    0 -0.19417362558E+03  0.20603186820E+03  0.48744194092E+03  0.56369510674E+03  0.25500000920E-02 0. -1.
       -2    1    3    3    0  502  0.19417362558E+03 -0.20603186820E+03 -0.23822054307E+03  0.37000210098E+03  0.25500000920E-02 0.  1.
</event>
<event>
 5   0  0.4243516E-04  0.9004978E+03  0.7818609E-02  0.9424959E-01
       -2   -1    0    0    0  501  0.00000000000E+00  0.00000000000E+00  0.84610472112E+02  0.84610472151E+02  0.25500000920E-02 0.  1.
        2   -1    0    0  501    0  0.00000000000E+00  0.00000000000E+00 -0.23959688402E+04  0.23959688402E+04  0.25500000920E-02 0. -1.
    10030    2    1    2    0    0  0.00000000000E+00  0.00000000000E+00 -0.23113583681E+04  0.24805793123E+04  0.90049776187E+03 0.  0.
        1    1    3    3  502    0 -0.53818341681E+02  0.32868844794E+03 -0.19902665762E+04  0.20179429016E+04  0.50400001928E-02 0. -1.
       -1    1    3    3    0  502  0.53818341681E+02 -0.32868844794E+03 -0.32109179186E+03  0.46263641074E+03  0.50400001928E-02 0.  1.
</event>
<event>
 5   0  0.1596250E-04  0.8999963E+03  0.7818609E-02  0.9425586E-01
        4   -1    0    0  501    0  0.00000000000E+00  0.00000000000E+00  0.55268466821E+03  0.55268612736E+03  0.12699999809E+01 0. -1.
       -4   -1    0    0    0  501  0.00000000000E+00  0.00000000000E+00 -0.36638732349E+03  0.36638952457E+03  0.12699999809E+01 0.  1.
    10030    2    1    2    0    0  0.00000000000E+00  0.00000000000E+00  0.18629734473E+03  0.91907565193E+03  0.89999630739E+03 0.  0.
        3    1    3    3  502    0  0.35508353193E+03 -0.95453656090E+02 -0.17177849526E+03  0.40583688441E+03  0.10100000352E+00 0.  1.
       -3    1    3    3    0  502 -0.35508353193E+03  0.95453656090E+02  0.35807583998E+03  0.51323876753E+03  0.10100000352E+00 0. -1.
</event>
<event>
 5   0  0.2356918E-04  0.9000172E+03  0.7818609E-02  0.9425560E-01
       -1   -1    0    0    0  501  0.00000000000E+00  0.00000000000E+00  0.21188170576E+03  0.21188170582E+03  0.50400001928E-02 0. -1.
        1   -1    0    0  501    0  0.00000000000E+00  0.00000000000E+00 -0.95575839706E+03  0.95575839707E+03  0.50400001928E-02 0.  1.
    10030    2    1    2    0    0  0.00000000000E+00  0.00000000000E+00 -0.74387669130E+03  0.11676401029E+04  0.90001715429E+03 0.  0.
        5    1    3    3  502    0 -0.26314506903E+03  0.33992057833E+03 -0.19936451466E+03  0.47387722738E+03  0.46999998093E+01 0. -1.
       -5    1    3    3    0  502  0.26314506903E+03 -0.33992057833E+03 -0.54451217664E+03  0.69376287551E+03  0.46999998093E+01 0.  1.
</event>
<event>
 5   0  0.3959804E-04  0.9000577E+03  0.7818609E-02  0.9425509E-01
       -2   -1    0    0    0  501  0.00000000000E+00  0.00000000000E+00  0.17745340540E+03  0.17745340541E+03  0.25500000920E-02 0.  1.
        2   -1    0    0  501    0  0.00000000000E+00  0.00000000000E+00 -0.11412909470E+04  0.11412909470E+04  0.25500000920E-02 0. -1.
    10030    2    1    2    0    0  0.00000000000E+00  0.00000000000E+00 -0.96383754164E+03  0.13187443525E+04  0.90005769840E+03 0.  0.
        5    1    3    3  502    0  0.20677946712E+03  0.94434497111E+02 -0.10509441175E+04  0.10752586900E+04  0.46999998093E+01 0. -1.
       -5    1    3    3    0  502 -0.20677946712E+03 -0.94434497111E+02  0.87106575870E+02  0.24348566246E+03  0.46999998093E+01 0.  1.
</event>
<event>
 5   0  0.2332791E-04  0.8999988E+03  0.7818609E-02  0.9425583E-01
        1   -1    0    0  501    0  0.00000000000E+00  0.00000000000E+00  0.11395908896E+04  0.11395908896E+04  0.50400001928E-02 0. -1.
       -1   -1    0    0    0  501  0.00000000000E+00  0.00000000000E+00 -0.17769486005E+03  0.17769486012E+03  0.50400001928E-02 0.  1.
    10030    2    1    2    0    0  0.00000000000E+00  0.00000000000E+00  0.96189602952E+03  0.13172857497E+04  0.89999876376E+03 0.  0.
        2    1    3    3  502    0 -0.33238932075E+03 -0.26806145268E+03  0.27313074778E+03  0.50689250177E+03  0.25500000920E-02 0. -1.
       -2    1    3    3    0  502  0.33238932075E+03  0.26806145268E+03  0.68876528174E+03  0.81039324794E+03  0.25500000920E-02 0.  1.
</event>
<event>
 5   0  0.2450427E-04  0.9002307E+03  0.7818609E-02  0.9425293E-01
        1   -1    0    0  501    0  0.00000000000E+00  0.00000000000E+00  0.11697199490E+04  0.11697199490E+04  0.50400001928E-02 0.  1.
       -1   -1    0    0    0  501  0.00000000000E+00  0.00000000000E+00 -0.17320712784E+03  0.17320712791E+03  0.50400001928E-02 0. -1.
    10030    2    1    2    0    0  0.00000000000E+00  0.00000000000E+00  0.99651282119E+03  0.13429270769E+04  0.90023070998E+03 0.  0.
        3    1    3    3  502    0 -0.33290759242E+03  0.16433355802E+03  0.87791075015E+03  0.95318428376E+03  0.10100000352E+00 0.  1.
       -3    1    3    3    0  502  0.33290759242E+03 -0.16433355802E+03  0.11860207105E+03  0.38974279319E+03  0.10100000352E+00 0. -1.
</event>
<event>
 5   0  0.2450427E-04  0.9010335E+03  0.7818609E-02  0.9424290E-01
        1   -1    0    0  501    0  0.00000000000E+00  0.00000000000E+00  0.93029743788E+03  0.93029743789E+03  0.50400001928E-02 0.  1.
       -1   -1    0    0    0  501  0.00000000000E+00  0.00000000000E+00 -0.21817253820E+03  0.21817253826E+03  0.50400001928E-02 0. -1.
    10030    2    1    2    0    0  0.00000000000E+00  0.00000000000E+00  0.71212489967E+03  0.11484699762E+04  0.90103352512E+03 0.  0.
        3    1    3    3  502    0  0.44398646208E+03  0.56870016347E+02  0.29098012959E+03  0.53387978355E+03  0.10100000352E+00 0. -1.
       -3    1    3    3    0  502 -0.44398646208E+03 -0.56870016347E+02  0.42114477009E+03  0.61459019260E+03  0.10100000352E+00 0.  1.
</event>
<event>
 5   0  0.4236284E-04  0.8999289E+03  0.7818609E-02  0.9425670E-01
       -2   -1    0    0    0  501  0.00000000000E+00  0.00000000000E+00  0.16663417538E+03  0.16663417540E+03  0.25500000920E-02 0. -1.
        2   -1    0    0  501    0  0.00000000000E+00  0.00000000000E+00 -0.12150449028E+04  0.12150449028E+04  0.25500000920E-02 0.  1.
    10030    2    1    2    0    0  0.00000000000E+00  0.00000000000E+00 -0.10484107274E+04  0.13816790782E+04  0.89992889817E+03 0.  0.
        2    1    3    3  502    0 -0.26432092823E+03 -0.17465318506E+02  0.34232250094E+02  0.26710005129E+03  0.25500000920E-02 0. -1.
       -2    1    3    3    0  502  0.26432092823E+03  0.17465318506E+02 -0.10826429775E+04  0.11145790269E+04  0.25500000920E-02 0.  1.
</event>
<event>
 5   0  0.4110039E-04  0.9002558E+03  0.7818609E-02  0.9425262E-01
        2   -1    0    0  501    0  0.00000000000E+00  0.00000000000E+00  0.50939778630E+03  0.50939778631E+03  0.25500000920E-02 0. -1.
       -2   -1    0    0    0  501  0.00000000000E+00  0.00000000000E+00 -0.39775427329E+03  0.39775427330E+03  0.25500000920E-02 0.  1.
    10030    2    1    2    0    0  0.00000000000E+00  0.00000000000E+00  0.11164351301E+03  0.90715205961E+03  0.90025584434E+03 0.  0.
        3    1    3    3  502    0 -0.84250590823E+02 -0.33079039366E+03  0.35148839491E+03  0.48996382372E+03  0.10100000352E+00 0. -1.
       -3    1    3    3    0  502  0.84250590823E+02  0.33079039366E+03 -0.23984488190E+03  0.41718823589E+03  0.10100000352E+00 0.  1.
</event>
<event>
 5   0  0.2308362E-04  0.9003907E+03  0.7818609E-02  0.9425093E-01
        1   -1    0    0  501    0  0.00000000000E+00  0.00000000000E+00  0.43297351386E+03  0.43297351389E+03  0.50400001928E-02 0.  1.
       -1   -1    0    0    0  501  0.00000000000E+00  0.00000000000E+00 -0.46810217399E+03  0.46810217402E+03  0.50400001928E-02 0. -1.
    10030    2    1    2    0    0  0.00000000000E+00  0.00000000000E+00 -0.35128660130E+02  0.90107568790E+03  0.90039067775E+03 0.  0.
        1    1    3    3  502    0  0.22794479095E+03  0.35130979461E+03 -0.18291243646E+03  0.45698398106E+03  0.50400001928E-02 0. -1.
       -1    1    3    3    0  502 -0.22794479095E+03 -0.35130979461E+03  0.14778377633E+03  0.44409170684E+03  0.50400001928E-02 0.  1.
</event>
<event>
 5   0  0.4243516E-04  0.9003649E+03  0.7818609E-02  0.9425125E-01
       -2   -1    0    0    0  501  0.00000000000E+00  0.00000000000E+00  0.19902973235E+03  0.19902973236E+03  0.25500000920E-02 0.  1.
        2   -1    0    0  501    0  0.00000000000E+00  0.00000000000E+00 -0.10182610766E+04  0.10182610766E+04  0.25500000920E-02 0. -1.
    10030    2    1    2    0    0  0.00000000000E+00  0.00000000000E+00 -0.81923134422E+03  0.12172908089E+04  0.90036488057E+03 0.  0.
        1    1    3    3  502    0  0.18667611792E+03  0.26072542751E+03 -0.83680937009E+03  0.89614487861E+03  0.50400001928E-02 0. -1.
       -1    1    3    3    0  502 -0.18667611792E+03 -0.26072542751E+03  0.17578025871E+02  0.32114593033E+03  0.50400001928E-02 0.  1.
</event>
<event>
 5   0  0.4243516E-04  0.9000934E+03  0.7818609E-02  0.9425465E-01
        2   -1    0    0  501    0  0.00000000000E+00  0.00000000000E+00  0.50396657959E+03  0.50396657960E+03  0.25500000920E-02 0.  1.
       -2   -1    0    0    0  501  0.00000000000E+00  0.00000000000E+00 -0.40189575214E+03  0.40189575214E+03  0.25500000920E-02 0. -1.
    10030    2    1    2    0    0  0.00000000000E+00  0.00000000000E+00  0.10207082745E+03  0.90586233174E+03  0.90009338974E+03 0.  0.
        1    1    3    3  502    0  0.24446381710E+03  0.27945759934E+03 -0.20492301568E+03  0.42409026172E+03  0.50400001928E-02 0. -1.
       -1    1    3    3    0  502 -0.24446381710E+03 -0.27945759934E+03  0.30699384314E+03  0.48177207002E+03  0.50400001928E-02 0.  1.
</event>
<event>
 5   0  0.3959804E-04  0.9001058E+03  0.7818609E-02  0.9425449E-01
        2   -1    0    0  501    0  0.00000000000E+00  0.00000000000E+00  0.22786236753E+04  0.22786236753E+04  0.25500000920E-02 0.  1.
       -2   -1    0    0    0  501  0.00000000000E+00  0.00000000000E+00 -0.88890332193E+02  0.88890332229E+02  0.25500000920E-02 0. -1.
    10030    2    1    2    0    0  0.00000000000E+00  0.00000000000E+00  0.21897333431E+04  0.23675140075E+04  0.90010580596E+03 0.  0.
        5    1    3    3  502    0  0.37106146255E+03 -0.55980421425E+02  0.44149612072E+03  0.57944916186E+03  0.46999998093E+01 0. -1.
       -5    1    3    3    0  502 -0.37106146255E+03  0.55980421425E+02  0.17482372224E+04  0.17880648457E+04  0.46999998093E+01 0.  1.
</event>
<event>
 5   0  0.4110039E-04  0.8991576E+03  0.7818609E-02  0.9426635E-01
       -2   -1    0    0    0  501  0.00000000000E+00  0.00000000000E+00  0.14976184849E+03  0.14976184851E+03  0.25500000920E-02 0. -1.
        2   -1    0    0  501    0  0.00000000000E+00  0.00000000000E+00 -0.13496167101E+04  0.13496167101E+04  0.25500000920E-02 0.  1.
    10030    2    1    2    0    0  0.00000000000E+00  0.00000000000E+00 -0.11998548616E+04  0.14993785586E+04  0.89915759079E+03 0.  0.
        3    1    3    3  502    0 -0.16575236157E+03 -0.38040427160E+03 -0.31139134865E+03  0.51879267288E+03  0.10100000352E+00 0. -1.
       -3    1    3    3    0  502  0.16575236157E+03  0.38040427160E+03 -0.88846351296E+03  0.98058588572E+03  0.10100000352E+00 0.  1.
</event>
<event>
 5   0  0.2351435E-04  0.9000930E+03  0.7818609E-02  0.9425465E-01
        1   -1    0    0  501    0  0.00000000000E+00  0.00000000000E+00  0.21398961964E+04  0.21398961964E+04  0.50400001928E-02 0. -1.
       -1   -1    0    0    0  501  0.00000000000E+00  0.00000000000E+00 -0.94650311323E+02  0.94650311457E+02  0.50400001928E-02 0.  1.
    10030    2    1    2    0    0  0.00000000000E+00  0.00000000000E+00  0.20452458851E+04  0.22345465079E+04  0.90009297597E+03 0.  0.
        4    1    3    3  502    0 -0.28233651078E+02 -0.91195605203E+01  0.21374610979E+04  0.21376673884E+04  0.12699999809E+01 0. -1.
       -4    1    3    3    0  502  0.28233651078E+02  0.91195605203E+01 -0.92215212763E+02  0.96879119536E+02  0.12699999809E+01 0.  1.
</event>
<event>
 5   0  0.2308362E-04  0.9001369E+03  0.7818609E-02  0.9425410E-01
        1   -1    0    0  501    0  0.00000000000E+00  0.00000000000E+00  0.19915558062E+04  0.19915558062E+04  0.50400001928E-02 0.  1.
       -1   -1    0    0    0  501  0.00000000000E+00  0.00000000000E+00 -0.10171023907E+03  0.10171023919E+03  0.50400001928E-02 0. -1.
    10030    2    1    2    0    0  0.00000000000E+00  0.00000000000E+00  0.18898455671E+04  0.20932660454E+04  0.90013691692E+03 0.  0.
        1    1    3    3  502    0 -0.43689205613E+03 -0.10705606061E+03  0.90996687937E+03  0.10150740812E+04  0.50400001928E-02 0.  1.
       -1    1    3    3    0  502  0.43689205613E+03  0.10705606061E+03  0.97987868775E+03  0.10781919641E+04  0.50400001928E-02 0. -1.
</event>
<event>
 5   0  0.2308362E-04  0.8999573E+03  0.7818609E-02  0.9425635E-01
       -1   -1    0    0    0  501  0.00000000000E+00  0.00000000000E+00  0.87147906946E+03  0.87147906947E+03  0.50400001928E-02 0. -1.
        1   -1    0    0  501    0  0.00000000000E+00  0.00000000000E+00 -0.23234155053E+03  0.23234155059E+03  0.50400001928E-02 0.  1.
    10030    2    1    2    0    0  0.00000000000E+00  0.00000000000E+00  0.63913751893E+03  0.11038206201E+04  0.89995732853E+03 0.  0.
        1    1    3    3  502    0  0.23141972033E+03  0.38544113330E+03  0.29626980830E+03  0.53841968160E+03  0.50400001928E-02 0.  1.
       -1    1    3    3    0  502 -0.23141972033E+03 -0.38544113330E+03  0.34286771062E+03  0.56540093846E+03  0.50400001928E-02 0. -1.
</event>
<event>
 5   0  0.3959804E-04  0.8936123E+03  0.7818609E-02  0.9433602E-01
       -2   -1    0    0    0  501  0.00000000000E+00  0.00000000000E+00  0.25844440846E+03  0.25844440847E+03  0.25500000920E-02 0. -1.
        2   -1    0    0  501    0  0.00000000000E+00  0.00000000000E+00 -0.77245128172E+03  0.77245128172E+03  0.25500000920E-02 0.  1.
    10030    2    1    2    0    0  0.00000000000E+00  0.00000000000E+00 -0.51400687326E+03  0.10308956902E+04  0.89361225277E+03 0.  0.
        5    1    3    3  502    0  0.21780314201E+03  0.31220611158E+02  0.19157923651E+03  0.29178353122E+03  0.46999998093E+01 0. -1.
       -5    1    3    3    0  502 -0.21780314201E+03 -0.31220611158E+02 -0.70558610977E+03  0.73911215897E+03  0.46999998093E+01 0.  1.
</event>
<event>
 5   0  0.4243516E-04  0.8998700E+03  0.7818609E-02  0.9425744E-01
        2   -1    0    0  501    0  0.00000000000E+00  0.00000000000E+00  0.51568307188E+03  0.51568307189E+03  0.25500000920E-02 0.  1.
       -2   -1    0    0    0  501  0.00000000000E+00  0.00000000000E+00 -0.39256958039E+03  0.39256958040E+03  0.25500000920E-02 0. -1.
    10030    2    1    2    0    0  0.00000000000E+00  0.00000000000E+00  0.12311349149E+03  0.90825265229E+03  0.89986996205E+03 0.  0.
        1    1    3    3  502    0 -0.36435484134E+03  0.15004943208E+01  0.32799458473E+03  0.49024192959E+03  0.50400001928E-02 0.  1.
       -1    1    3    3    0  502  0.36435484134E+03 -0.15004943208E+01 -0.20488109324E+03  0.41801072269E+03  0.50400001928E-02 0. -1.
</event>
<event>
 5   0  0.2450427E-04  0.8999764E+03  0.7818609E-02  0.9425611E-01
       -1   -1    0    0    0  501  0.00000000000E+00  0.00000000000E+00  0.18867241154E+03  0.18867241161E+03  0.50400001928E-02 0. -1.
        1   -1    0    0  501    0  0.00000000000E+00  0.00000000000E+00 -0.10732325720E+04  0.10732325721E+04  0.50400001928E-02 0.  1.
    10030    2    1    2    0    0  0.00000000000E+00  0.00000000000E+00 -0.88456016050E+03  0.12619049837E+04  0.89997639428E+03 0.  0.
        3    1    3    3  502    0  0.34582119336E+03 -0.18227720353E+03 -0.12977883164E+03  0.41189784176E+03  0.10100000352E+00 0. -1.
       -3    1    3    3    0  502 -0.34582119336E+03  0.18227720353E+03 -0.75478132885E+03  0.85000714190E+03  0.10100000352E+00 0.  1.
</event>
<event>
 5   0  0.2450427E-04  0.8998476E+03  0.7818609E-02  0.9425772E-01
       -1   -1    0    0    0  501  0.00000000000E+00  0.00000000000E+00  0.45160462734E+03  0.45160462737E+03  0.50400001928E-02 0.  1.
        1   -1    0    0  501    0  0.00000000000E+00  0.00000000000E+00 -0.44824919464E+03  0.44824919467E+03  0.50400001928E-02 0. -1.
    10030    2    1    2    0    0  0.00000000000E+00  0.00000000000E+00  0.33554326998E+01  0.89985382203E+03  0.89984756603E+03 0.  0.
        3    1    3    3  502    0  0.16091571576E+03 -0.17157291459E+03 -0.38186147734E+03  0.44849674545E+03  0.10100000352E+00 0. -1.
       -3    1    3    3    0  502 -0.16091571576E+03  0.17157291459E+03  0.38521691004E+03  0.45135707658E+03  0.10100000352E+00 0.  1.
</event>
<event>
 5   0  0.4243516E-04  0.8999144E+03  0.7818609E-02  0.9425688E-01
       -2   -1    0    0    0  501  0.00000000000E+00  0.00000000000E+00  0.19661968923E+03  0.19661968924E+03  0.25500000920E-02 0.  1.
        2   -1    0    0  501    0  0.00000000000E+00  0.00000000000E+00 -0.10297111749E+04  0.10297111749E+04  0.25500000920E-02 0. -1.
    10030    2    1    2    0    0  0.00000000000E+00  0.00000000000E+00 -0.83309148571E+03  0.12263308642E+04  0.89991442087E+03 0.  0.
        1    1    3    3  502    0 -0.22408353334E+02 -0.15742689157E+03  0.15705413990E+03  0.22349801648E+03  0.50400001928E-02 0.  1.
       -1    1    3    3    0  502  0.22408353334E+02  0.15742689157E+03 -0.99014562561E+03  0.10028328477E+04  0.50400001928E-02 0. -1.
</event>
<event>
 5   0  0.2308362E-04  0.9003678E+03  0.7818609E-02  0.9425122E-01
        1   -1    0    0  501    0  0.00000000000E+00  0.00000000000E+00  0.66577376825E+03  0.66577376827E+03  0.50400001928E-02 0. -1.
       -1   -1    0    0    0  501  0.00000000000E+00  0.00000000000E+00 -0.30440604796E+03  0.30440604800E+03  0.50400001928E-02 0.  1.
    10030    2    1    2    0    0  0.00000000000E+00  0.00000000000E+00  0.36136772029E+03  0.97017981627E+03  0.90036783962E+03 0.  0.
        1    1    3    3  502    0 -0.32787282418E+03 -0.54002188710E+02 -0.14659087068E+03  0.36318825506E+03  0.50400001928E-02 0.  1.
       -1    1    3    3    0  502  0.32787282418E+03  0.54002188710E+02  0.50795859097E+03  0.60699156121E+03  0.50400001928E-02 0. -1.
</event>
<event>
 5   0  0.2332791E-04  0.8998489E+03  0.7818609E-02  0.9425770E-01
        1   -1    0    0  501    0  0.00000000000E+00  0.00000000000E+00  0.12875503073E+04  0.12875503073E+04  0.50400001928E-02 0. -1.
       -1   -1    0    0    0  501  0.00000000000E+00  0.00000000000E+00 -0.15722261905E+03  0.15722261913E+03  0.50400001928E-02 0.  1.
    10030    2    1    2    0    0  0.00000000000E+00  0.00000000000E+00  0.11303276883E+04  0.14447729265E+04  0.89984894631E+03 0.  0.
        2    1    3    3  502    0  0.27898432360E+02 -0.25771205127E+03  0.11556091653E+04  0.11843252792E+04  0.25500000920E-02 0. -1.
       -2    1    3    3    0  502 -0.27898432360E+02  0.25771205127E+03 -0.25281477043E+02  0.26044764730E+03  0.25500000920E-02 0.  1.
</event>
<event>
 5   0  0.2351435E-04  0.8999888E+03  0.7818609E-02  0.9425595E-01
        1   -1    0    0  501    0  0.00000000000E+00  0.00000000000E+00  0.96574939902E+03  0.96574939903E+03  0.50400001928E-02 0. -1.
       -1   -1    0    0    0  501  0.00000000000E+00  0.00000000000E+00 -0.20967652345E+03  0.20967652351E+03  0.50400001928E-02 0.  1.
    10030    2    1    2    0    0  0.00000000000E+00  0.00000000000E+00  0.75607287557E+03  0.11754259225E+04  0.89998883672E+03 0.  0.
        4    1    3    3  502    0 -0.59674355105E+02 -0.14702895865E+03 -0.17192300071E+03  0.23396083948E+03  0.12699999809E+01 0.  1.
       -4    1    3    3    0  502  0.59674355105E+02  0.14702895865E+03  0.92799587628E+03  0.94146508306E+03  0.12699999809E+01 0. -1.
</event>
<event>
 5   0  0.2332791E-04  0.9003169E+03  0.7818609E-02  0.9425185E-01
        1   -1    0    0  501    0  0.00000000000E+00  0.00000000000E+00  0.51331276041E+03  0.51331276044E+03  0.50400001928E-02 0. -1.
       -1   -1    0    0    0  501  0.00000000000E+00  0.00000000000E+00 -0.39477418170E+03  0.39477418174E+03  0.50400001928E-02 0.  1.
    10030    2    1    2    0    0  0.00000000000E+00  0.00000000000E+00  0.11853857871E+03  0.90808694218E+03  0.90031688860E+03 0.  0.
        2    1    3    3  502    0  0.29150760287E+03  0.26206301879E+02 -0.28570466401E+03  0.40901174535E+03  0.25500000920E-02 0.  1.
       -2    1    3    3    0  502 -0.29150760287E+03 -0.26206301879E+02  0.40424324273E+03  0.49907519682E+03  0.25500000920E-02 0. -1.
</event>
<event>
 5   0  0.2308362E-04  0.9016463E+03  0.7818609E-02  0.9423526E-01
       -1   -1    0    0    0  501  0.00000000000E+00  0.00000000000E+00  0.26024652733E+03  0.26024652737E+03  0.50400001928E-02 0.  1.
        1   -1    0    0  501    0  0.00000000000E+00  0.00000000000E+00 -0.78095764048E+03  0.78095764049E+03  0.50400001928E-02 0. -1.
    10030    2    1    2    0    0  0.00000000000E+00  0.00000000000E+00 -0.52071111315E+03  0.10412041679E+04  0.90164630306E+03 0.  0.
        1    1    3    3  502    0  0.10023994974E+02  0.45040221499E+03 -0.27963999347E+03  0.53024632174E+03  0.50400001928E-02 0.  1.
       -1    1    3    3    0  502 -0.10023994974E+02 -0.45040221499E+03 -0.24107111968E+03  0.51095784612E+03  0.50400001928E-02 0. -1.
</event>
<event>
 5   0  0.2450427E-04  0.9005069E+03  0.7818609E-02  0.9424948E-01
        1   -1    0    0  501    0  0.00000000000E+00  0.00000000000E+00  0.58723720738E+03  0.58723720740E+03  0.50400001928E-02 0. -1.
       -1   -1    0    0    0  501  0.00000000000E+00  0.00000000000E+00 -0.34522362273E+03  0.34522362276E+03  0.50400001928E-02 0.  1.
    10030    2    1    2    0    0  0.00000000000E+00  0.00000000000E+00  0.24201358466E+03  0.93246083017E+03  0.90050687095E+03 0.  0.
        3    1    3    3  502    0  0.14938017483E+03  0.21189888386E+03  0.50218964971E+03  0.56516371795E+03  0.10100000352E+00 0. -1.
       -3    1    3    3    0  502 -0.14938017483E+03 -0.21189888386E+03 -0.26017606505E+03  0.36729711221E+03  0.10100000352E+00 0.  1.
</event>
<event>
 5   0  0.2351435E-04  0.9003439E+03  0.7818609E-02  0.9425152E-01
       -1   -1    0    0    0  501  0.00000000000E+00  0.00000000000E+00  0.38818868197E+03  0.38818868200E+03  0.50400001928E-02 0. -1.
        1   -1    0    0  501    0  0.00000000000E+00  0.00000000000E+00 -0.52205227492E+03  0.52205227494E+03  0.50400001928E-02 0.  1.
    10030    2    1    2    0    0  0.00000000000E+00  0.00000000000E+00 -0.13386359295E+03  0.91024095694E+03  0.90034389995E+03 0.  0.
        4    1    3    3  502    0  0.17135107231E+03 -0.14906161592E+03 -0.45988498925E+03  0.51290971092E+03  0.12699999809E+01 0.  1.
       -4    1    3    3    0  502 -0.17135107231E+03  0.14906161592E+03  0.32602139630E+03  0.39733124602E+03  0.12699999809E+01 0. -1.
</event>
<event>
 5   0  0.3959804E-04  0.8996439E+03  0.7818609E-02  0.9426027E-01
        2   -1    0    0  501    0  0.00000000000E+00  0.00000000000E+00  0.14068104597E+04  0.14068104597E+04  0.25500000920E-02 0. -1.
       -2   -1    0    0    0  501  0.00000000000E+00  0.00000000000E+00 -0.14382876085E+03  0.14382876087E+03  0.25500000920E-02 0.  1.
    10030    2    1    2    0    0  0.00000000000E+00  0.00000000000E+00  0.12629816988E+04  0.15506392206E+04  0.89964394109E+03 0.  0.
        5    1    3    3  502    0 -0.25163847998E+03 -0.36050265632E+03  0.79531244180E+03  0.90875082388E+03  0.46999998093E+01 0.  1.
       -5    1    3    3    0  502  0.25163847998E+03  0.36050265632E+03  0.46766925705E+03  0.64188839669E+03  0.46999998093E+01 0. -1.
</event>
<event>
 5   0  0.2332791E-04  0.9001178E+03  0.7818609E-02  0.9425434E-01
        1   -1    0    0  501    0  0.00000000000E+00  0.00000000000E+00  0.12453518502E+04  0.12453518502E+04  0.50400001928E-02 0. -1.
       -1   -1    0    0    0  501  0.00000000000E+00  0.00000000000E+00 -0.16264722331E+03  0.16264722339E+03  0.50400001928E-02 0.  1.
    10030    2    1    2    0    0  0.00000000000E+00  0.00000000000E+00  0.10827046268E+04  0.14079990736E+04  0.90011781570E+03 0.  0.
        2    1    3    3  502    0  0.15402560251E+03 -0.28189313239E+03  0.10344359561E+04  0.10831645174E+04  0.25500000920E-02 0. -1.
       -2    1    3    3    0  502 -0.15402560251E+03  0.28189313239E+03  0.48268670709E+02  0.32483455619E+03  0.25500000920E-02 0.  1.
</event>
<event>
 5   0  0.2450427E-04  0.9001167E+03  0.7818609E-02  0.9425436E-01
       -1   -1    0    0    0  501  0.00000000000E+00  0.00000000000E+00  0.20634236095E+03  0.20634236101E+03  0.50400001928E-02 0.  1.
        1   -1    0    0  501    0  0.00000000000E+00  0.00000000000E+00 -0.98163314703E+03  0.98163314704E+03  0.50400001928E-02 0. -1.
    10030    2    1    2    0    0  0.00000000000E+00  0.00000000000E+00 -0.77529078608E+03  0.11879755080E+04  0.90011666174E+03 0.  0.
        3    1    3    3  502    0  0.37231887352E+03 -0.24671613490E+03 -0.46068060313E+03  0.64165163687E+03  0.10100000352E+00 0. -1.
       -3    1    3    3    0  502 -0.37231887352E+03  0.24671613490E+03 -0.31461018295E+03  0.54632387118E+03  0.10100000352E+00 0.  1.
</event>
<event>
 5   0  0.2332791E-04  0.9004313E+03  0.7818609E-02  0.9425042E-01
       -1   -1    0    0    0  501  0.00000000000E+00  0.00000000000E+00  0.34880689114E+03  0.34880689117E+03  0.50400001928E-02 0.  1.
        1   -1    0    0  501    0  0.00000000000E+00  0.00000000000E+00 -0.58110699581E+03  0.58110699584E+03  0.50400001928E-02 0. -1.
    10030    2    1    2    0    0  0.00000000000E+00  0.00000000000E+00 -0.23230010468E+03  0.92991388701E+03  0.90043128479E+03 0.  0.
        2    1    3    3  502    0  0.84124619916E+02 -0.65002604084E+02 -0.56795799358E+03  0.57782226739E+03  0.25500000920E-02 0. -1.
       -2    1    3    3    0  502 -0.84124619916E+02  0.65002604084E+02  0.33565788891E+03  0.35209161962E+03  0.25500000920E-02 0.  1.
</event>
<event>
 5   0  0.4243516E-04  0.9001260E+03  0.7818609E-02  0.9425424E-01
       -2   -1    0    0    0  501  0.00000000000E+00  0.00000000000E+00  0.24681396111E+03  0.24681396112E+03  0.25500000920E-02 0.  1.
        2   -1    0    0  501    0  0.00000000000E+00  0.00000000000E+00 -0.82068568597E+03  0.82068568598E+03  0.25500000920E-02 0. -1.
    10030    2    1    2    0    0  0.00000000000E+00  0.00000000000E+00 -0.57387172486E+03  0.10674996471E+04  0.90012595783E+03 0.  0.
        1    1    3    3  502    0 -0.13146111219E+03  0.10367149301E+03 -0.78238105604E+03  0.80009369411E+03  0.50400001928E-02 0. -1.
       -1    1    3    3    0  502  0.13146111219E+03 -0.10367149301E+03  0.20850933117E+03  0.26740595299E+03  0.50400001928E-02 0.  1.
</event>
<event>
 5   0  0.1596250E-04  0.8997135E+03  0.7818609E-02  0.9425940E-01
       -3   -1    0    0    0  501  0.00000000000E+00  0.00000000000E+00  0.40262467577E+03  0.40262468843E+03  0.10100000352E+00 0. -1.
        3   -1    0    0  501    0  0.00000000000E+00  0.00000000000E+00 -0.50262960775E+03  0.50262961790E+03  0.10100000352E+00 0.  1.
    10030    2    1    2    0    0  0.00000000000E+00  0.00000000000E+00 -0.10000493198E+03  0.90525430633E+03  0.89971349479E+03 0.  0.
        3    1    3    3  502    0 -0.51644540281E+02  0.26985771925E+03 -0.40839933684E+03  0.49221984490E+03  0.10100000352E+00 0.  1.
       -3    1    3    3    0  502  0.51644540281E+02 -0.26985771925E+03  0.30839440486E+03  0.41303446143E+03  0.10100000352E+00 0. -1.
</event>
<event>
 5   0  0.2308362E-04  0.9003108E+03  0.7818609E-02  0.9425193E-01
        1   -1    0    0  501    0  0.00000000000E+00  0.00000000000E+00  0.49379057811E+03  0.49379057813E+03  0.50400001928E-02 0.  1.
       -1   -1    0    0    0  501  0.00000000000E+00  0.00000000000E+00 -0.41037621051E+03  0.41037621054E+03  0.50400001928E-02 0. -1.
    10030    2    1    2    0    0  0.00000000000E+00  0.00000000000E+00  0.83414367596E+02  0.90416678868E+03  0.90031084911E+03 0.  0.
        1    1    3    3  502    0  0.12486562131E+03 -0.22884592110E+03 -0.32684962618E+03  0.41808199812E+03  0.50400001928E-02 0. -1.
       -1    1    3    3    0  502 -0.12486562131E+03  0.22884592110E+03  0.41026399378E+03  0.48608479055E+03  0.50400001928E-02 0.  1.
</event>
<event>
 5   0  0.4236284E-04  0.8999072E+03  0.7818609E-02  0.9425697E-01
       -2   -1    0    0    0  501  0.00000000000E+00  0.00000000000E+00  0.38968918266E+03  0.38968918267E+03  0.25500000920E-02 0. -1.
        2   -1    0    0  501    0  0.00000000000E+00  0.00000000000E+00 -0.51953772592E+03  0.51953772592E+03  0.25500000920E-02 0.  1.
    10030    2    1    2    0    0  0.00000000000E+00  0.00000000000E+00 -0.12984854326E+03  0.90922690859E+03  0.89990717694E+03 0.  0.
        2    1    3    3  502    0  0.29355863136E+03  0.24056234011E+03 -0.30911157759E+03  0.48948633989E+03  0.25500000920E-02 0.  1.
       -2    1    3    3    0  502 -0.29355863136E+03 -0.24056234011E+03  0.17926303434E+03  0.41974056870E+03  0.25500000920E-02 0. -1.
</event>
<event>
 5   0  0.2356918E-04  0.9000816E+03  0.7818609E-02  0.9425479E-01
       -1   -1    0    0    0  501  0.00000000000E+00  0.00000000000E+00  0.23169315570E+03  0.23169315575E+03  0.50400001928E-02 0. -1.
        1   -1    0    0  501    0  0.00000000000E+00  0.00000000000E+00 -0.87415920965E+03  0.87415920967E+03  0.50400001928E-02 0.  1.
    10030    2    1    2    0    0  0.00000000000E+00  0.00000000000E+00 -0.64246605396E+03  0.11058523654E+04  0.90008156498E+03 0.  0.
        5    1    3    3  502    0 -0.18984365680E+02 -0.59483167056E+02 -0.86878123147E+03  0.87103477052E+03  0.46999998093E+01 0.  1.
       -5    1    3    3    0  502  0.18984365680E+02  0.59483167056E+02  0.22631517751E+03  0.23481759490E+03  0.46999998093E+01 0. -1.
</event>
<event>
 5   0  0.2351435E-04  0.9000261E+03  0.7818609E-02  0.9425549E-01
       -1   -1    0    0    0  501  0.00000000000E+00  0.00000000000E+00  0.14624929674E+03  0.14624929683E+03  0.50400001928E-02 0. -1.
        1   -1    0    0  501    0  0.00000000000E+00  0.00000000000E+00 -0.13847023794E+04  0.13847023794E+04  0.50400001928E-02 0.  1.
    10030    2    1    2    0    0  0.00000000000E+00  0.00000000000E+00 -0.12384530827E+04  0.15309516763E+04  0.90002610909E+03 0.  0.
        4    1    3    3  502    0 -0.61305129623E+01  0.95964459117E+02  0.12856604465E+03  0.16055404492E+03  0.12699999809E+01 0. -1.
       -4    1    3    3    0  502  0.61305129623E+01 -0.95964459117E+02 -0.13670191273E+04  0.13703976313E+04  0.12699999809E+01 0.  1.
</event>
<event>
 5   0  0.2450427E-04  0.9004289E+03  0.7818609E-02  0.9425045E-01
       -1   -1    0    0    0  501  0.00000000000E+00  0.00000000000E+00  0.44013439834E+03  0.44013439837E+03  0.50400001928E-02 0.  1.
        1   -1    0    0  501    0  0.00000000000E+00  0.00000000000E+00 -0.46052537594E+03  0.46052537597E+03  0.50400001928E-02 0. -1.
    10030    2    1    2    0    0  0.00000000000E+00  0.00000000000E+00 -0.20390977605E+02  0.90065977434E+03  0.90042891843E+03 0.  0.
        3    1    3    3  502    0  0.11148740465E+03 -0.12962778750E+03  0.40639687886E+03  0.44089821732E+03  0.10100000352E+00 0.  1.
       -3    1    3    3    0  502 -0.11148740465E+03  0.12962778750E+03 -0.42678785646E+03  0.45976155702E+03  0.10100000352E+00 0. -1.
</event>
<event>
 5   0  0.1596250E-04  0.8999127E+03  0.7818609E-02  0.9425691E-01
       -3   -1    0    0    0  501  0.00000000000E+00  0.00000000000E+00  0.37319115958E+03  0.37319117325E+03  0.10100000352E+00 0.  1.
        3   -1    0    0  501    0  0.00000000000E+00  0.00000000000E+00 -0.54251208492E+03  0.54251209432E+03  0.10100000352E+00 0. -1.
    10030    2    1    2    0    0  0.00000000000E+00  0.00000000000E+00 -0.16932092534E+03  0.91570326757E+03  0.89991271714E+03 0.  0.
        4    1    3    3  502    0 -0.20547372106E+03 -0.10224387034E+03 -0.47847321279E+03  0.53067078997E+03  0.12699999809E+01 0. -1.
       -4    1    3    3    0  502  0.20547372106E+03  0.10224387034E+03  0.30915228745E+03  0.38503247760E+03  0.12699999809E+01 0.  1.
</event>
<event>
 5   0  0.4110039E-04  0.8994432E+03  0.7818609E-02  0.9426278E-01
       -2   -1    0    0    0  501  0.00000000000E+00  0.00000000000E+00  0.59599932735E+03  0.59599932735E+03  0.25500000920E-02 0. -1.
        2   -1    0    0  501    0  0.00000000000E+00  0.00000000000E+00 -0.33934517366E+03  0.33934517367E+03  0.25500000920E-02 0.  1.
    10030    2    1    2    0    0  0.00000000000E+00  0.00000000000E+00  0.25665415369E+03  0.93534450102E+03  0.89944315051E+03 0.  0.
        3    1    3    3  502    0  0.10497930584E+03 -0.28309626919E+02 -0.32547093844E+03  0.34315219889E+03  0.10100000352E+00 0.  1.
       -3    1    3    3    0  502 -0.10497930584E+03  0.28309626919E+02  0.58212509212E+03  0.59219230214E+03  0.10100000352E+00 0. -1.
</event>
<event>
 5   0  0.4033144E-04  0.8994068E+03  0.7818609E-02  0.9426323E-01
        2   -1    0    0  501    0  0.00000000000E+00  0.00000000000E+00  0.18451743462E+04  0.18451743462E+04  0.25500000920E-02 0.  1.
       -2   -1    0    0    0  501  0.00000000000E+00  0.00000000000E+00 -0.10960109718E+03  0.10960109721E+03  0.25500000920E-02 0. -1.
    10030    2    1    2    0    0  0.00000000000E+00  0.00000000000E+00  0.17355732490E+04  0.19547754434E+04  0.89940676640E+03 0.  0.
        4    1    3    3  502    0 -0.16390297893E+03 -0.83076398508E+02 -0.24278168046E+02  0.18535618909E+03  0.12699999809E+01 0. -1.
       -4    1    3    3    0  502  0.16390297893E+03  0.83076398508E+02  0.17598514171E+04  0.17694192543E+04  0.12699999809E+01 0.  1.
</event>
<event>
 5   0  0.2351435E-04  0.9001592E+03  0.7818609E-02  0.9425382E-01
        1   -1    0    0  501    0  0.00000000000E+00  0.00000000000E+00  0.66760730693E+03  0.66760730695E+03  0.50400001928E-02 0.  1.
       -1   -1    0    0    0  501  0.00000000000E+00  0.00000000000E+00 -0.30342934796E+03  0.30342934801E+03  0.50400001928E-02 0. -1.
    10030    2    1    2    0    0  0.00000000000E+00  0.00000000000E+00  0.36417795897E+03  0.97103665495E+03  0.90015920785E+03 0.  0.
        4    1    3    3  502    0  0.57535987267E+02 -0.36541306521E+03 -0.94482772476E+02  0.38179275170E+03  0.12699999809E+01 0. -1.
       -4    1    3    3    0  502 -0.57535987267E+02  0.36541306521E+03  0.45866073144E+03  0.58924390325E+03  0.12699999809E+01 0.  1.
</event>
<event>
 5   0  0.2356918E-04  0.9002175E+03  0.7818609E-02  0.9425310E-01
       -1   -1    0    0    0  501  0.00000000000E+00  0.00000000000E+00  0.38126897497E+03  0.38126897500E+03  0.50400001928E-02 0.  1.
        1   -1    0    0  501    0  0.00000000000E+00  0.00000000000E+00 -0.53137789031E+03  0.53137789033E+03  0.50400001928E-02 0. -1.
    10030    2    1    2    0    0  0.00000000000E+00  0.00000000000E+00 -0.15010891534E+03  0.91264686533E+03  0.90021753723E+03 0.  0.
        5    1    3    3  502    0  0.99801641569E+02  0.24246062750E+03 -0.44593091144E+03  0.51732387469E+03  0.46999998093E+01 0. -1.
       -5    1    3    3    0  502 -0.99801641569E+02 -0.24246062750E+03  0.29582199611E+03  0.39532299064E+03  0.46999998093E+01 0.  1.
</event>
<event>
 5   0  0.4110039E-04  0.9003481E+03  0.7818609E-02  0.9425146E-01
       -2   -1    0    0    0  501  0.00000000000E+00  0.00000000000E+00  0.19488226033E+03  0.19488226035E+03  0.25500000920E-02 0.  1.
        2   -1    0    0  501    0  0.00000000000E+00  0.00000000000E+00 -0.10398929522E+04  0.10398929522E+04  0.25500000920E-02 0. -1.
    10030    2    1    2    0    0  0.00000000000E+00  0.00000000000E+00 -0.84501069184E+03  0.12347752125E+04  0.90034813052E+03 0.  0.
        3    1    3    3  502    0 -0.35728293955E+03 -0.24372255855E+03 -0.59382526180E+03  0.73462931890E+03  0.10100000352E+00 0.  1.
       -3    1    3    3    0  502  0.35728293955E+03  0.24372255855E+03 -0.25118543004E+03  0.50014589362E+03  0.10100000352E+00 0. -1.
</event>
<event>
 5   0  0.2351435E-04  0.9006967E+03  0.7818609E-02  0.9424711E-01
       -1   -1    0    0    0  501  0.00000000000E+00  0.00000000000E+00  0.25008467608E+03  0.25008467613E+03  0.50400001928E-02 0.  1.
        1   -1    0    0  501    0  0.00000000000E+00  0.00000000000E+00 -0.81097984915E+03  0.81097984917E+03  0.50400001928E-02 0. -1.
    10030    2    1    2    0    0  0.00000000000E+00  0.00000000000E+00 -0.56089517307E+03  0.10610645253E+04  0.90069669238E+03 0.  0.
        4    1    3    3  502    0  0.12843964657E+03 -0.97515419415E+01  0.22791853835E+03  0.26180204049E+03  0.12699999809E+01 0.  1.
       -4    1    3    3    0  502 -0.12843964657E+03  0.97515419415E+01 -0.78881371142E+03  0.79926248480E+03  0.12699999809E+01 0. -1.
</event>
<event>
 5   0  0.4110039E-04  0.9052900E+03  0.7818609E-02  0.9418993E-01
       -2   -1    0    0    0  501  0.00000000000E+00  0.00000000000E+00  0.11183801196E+03  0.11183801198E+03  0.25500000920E-02 0.  1.
        2   -1    0    0  501    0  0.00000000000E+00  0.00000000000E+00 -0.18320024374E+04  0.18320024374E+04  0.25500000920E-02 0. -1.
    10030    2    1    2    0    0  0.00000000000E+00  0.00000000000E+00 -0.17201644255E+04  0.19438404494E+04  0.90529003205E+03 0.  0.
        3    1    3    3  502    0  0.35031391263E+03 -0.12321110910E+03 -0.14158164093E+04  0.14637065723E+04  0.10100000352E+00 0. -1.
       -3    1    3    3    0  502 -0.35031391263E+03  0.12321110910E+03 -0.30434801616E+03  0.48013387709E+03  0.10100000352E+00 0.  1.
</event>
<event>
 5   0  0.2356918E-04  0.9001604E+03  0.7818609E-02  0.9425381E-01
        1   -1    0    0  501    0  0.00000000000E+00  0.00000000000E+00  0.57128142221E+03  0.57128142223E+03  0.50400001928E-02 0. -1.
       -1   -1    0    0    0  501  0.00000000000E+00  0.00000000000E+00 -0.35459267206E+03  0.35459267210E+03  0.50400001928E-02 0.  1.
    10030    2    1    2    0    0  0.00000000000E+00  0.00000000000E+00  0.21668875014E+03  0.92587409433E+03  0.90016044354E+03 0.  0.
        5    1    3    3  502    0  0.21161854351E+03  0.38799437565E+03  0.20897708380E+02  0.44247129591E+03  0.46999998093E+01 0.  1.
       -5    1    3    3    0  502 -0.21161854351E+03 -0.38799437565E+03  0.19579104176E+03  0.48340279842E+03  0.46999998093E+01 0. -1.
</event>
<event>
 5   0  0.2332791E-04  0.8999185E+03  0.7818609E-02  0.9425683E-01
       -1   -1    0    0    0  501  0.00000000000E+00  0.00000000000E+00  0.52850173696E+03  0.52850173698E+03  0.50400001928E-02 0.  1.
        1   -1    0    0  501    0  0.00000000000E+00  0.00000000000E+00 -0.38308925618E+03  0.38308925622E+03  0.50400001928E-02 0. -1.
    10030    2    1    2    0    0  0.00000000000E+00  0.00000000000E+00  0.14541248077E+03  0.91159099320E+03  0.89991852371E+03 0.  0.
        2    1    3    3  502    0 -0.19183617909E+03  0.37930739086E+03 -0.76816319266E+02  0.43194439836E+03  0.25500000920E-02 0.  1.
       -2    1    3    3    0  502  0.19183617909E+03 -0.37930739086E+03  0.22222880004E+03  0.47964659484E+03  0.25500000920E-02 0. -1.
</event>
<event>
 5   0  0.3959804E-04  0.9005789E+03  0.7818609E-02  0.9424858E-01
        2   -1    0    0  501    0  0.00000000000E+00  0.00000000000E+00  0.47779405760E+03  0.47779405760E+03  0.25500000920E-02 0.  1.
       -2   -1    0    0    0  501  0.00000000000E+00  0.00000000000E+00 -0.42436816794E+03  0.42436816795E+03  0.25500000920E-02 0. -1.
    10030    2    1    2    0    0  0.00000000000E+00  0.00000000000E+00  0.53425889660E+02  0.90216222555E+03  0.90057890022E+03 0.  0.
        5    1    3    3  502    0  0.15115577863E+03 -0.39165946338E+03 -0.13634082808E+03  0.44142509678E+03  0.46999998093E+01 0. -1.
       -5    1    3    3    0  502 -0.15115577863E+03  0.39165946338E+03  0.18976671774E+03  0.46073712877E+03  0.46999998093E+01 0.  1.
</event>
<event>
 5   0  0.2308362E-04  0.9005314E+03  0.7818609E-02  0.9424917E-01
       -1   -1    0    0    0  501  0.00000000000E+00  0.00000000000E+00  0.13955434755E+03  0.13955434764E+03  0.50400001928E-02 0. -1.
        1   -1    0    0  501    0  0.00000000000E+00  0.00000000000E+00 -0.14527615274E+04  0.14527615274E+04  0.50400001928E-02 0.  1.
    10030    2    1    2    0    0  0.00000000000E+00  0.00000000000E+00 -0.13132071799E+04  0.15923158751E+04  0.90053137022E+03 0.  0.
        1    1    3    3  502    0 -0.29299718607E+03 -0.26348697242E+03 -0.10418368373E+04  0.11138656702E+04  0.50400001928E-02 0.  1.
       -1    1    3    3    0  502  0.29299718607E+03  0.26348697242E+03 -0.27137034255E+03  0.47845020485E+03  0.50400001928E-02 0. -1.
</event>
<event>
 5   0  0.2308362E-04  0.8990299E+03  0.7818609E-02  0.9426795E-01
        1   -1    0    0  501    0  0.00000000000E+00  0.00000000000E+00  0.17554906197E+04  0.17554906197E+04  0.50400001928E-02 0. -1.
       -1   -1    0    0    0  501  0.00000000000E+00  0.00000000000E+00 -0.11510382680E+03  0.11510382691E+03  0.50400001928E-02 0.  1.
    10030    2    1    2    0    0  0.00000000000E+00  0.00000000000E+00  0.16403867929E+04  0.18705944466E+04  0.89902989572E+03 0.  0.
        1    1    3    3  502    0 -0.27990739762E+03  0.26492859396E+03  0.13015839298E+04  0.13574446720E+04  0.50400001928E-02 0. -1.
       -1    1    3    3    0  502  0.27990739762E+03 -0.26492859396E+03  0.33880286309E+03  0.51314977463E+03  0.50400001928E-02 0.  1.
</event>
<event>
 5   0  0.3959804E-04  0.9001842E+03  0.7818609E-02  0.9425351E-01
       -2   -1    0    0    0  501  0.00000000000E+00  0.00000000000E+00  0.30624627453E+03  0.30624627454E+03  0.25500000920E-02 0. -1.
        2   -1    0    0  501    0  0.00000000000E+00  0.00000000000E+00 -0.66150318781E+03  0.66150318781E+03  0.25500000920E-02 0.  1.
    10030    2    1    2    0    0  0.00000000000E+00  0.00000000000E+00 -0.35525691327E+03  0.96774946235E+03  0.90018417419E+03 0.  0.
        5    1    3    3  502    0  0.21184570521E+03 -0.38724596332E+03 -0.27210364724E+03  0.51855619151E+03  0.46999998093E+01 0. -1.
       -5    1    3    3    0  502 -0.21184570521E+03  0.38724596332E+03 -0.83153266037E+02  0.44919327084E+03  0.46999998093E+01 0.  1.
</event>
<event>
 5   0  0.2351435E-04  0.9001924E+03  0.7818609E-02  0.9425341E-01
       -1   -1    0    0    0  501  0.00000000000E+00  0.00000000000E+00  0.20481362327E+03  0.20481362334E+03  0.50400001928E-02 0.  1.
        1   -1    0    0  501    0  0.00000000000E+00  0.00000000000E+00 -0.98912657860E+03  0.98912657861E+03  0.50400001928E-02 0. -1.
    10030    2    1    2    0    0  0.00000000000E+00  0.00000000000E+00 -0.78431295532E+03  0.11939402019E+04  0.90019242051E+03 0.  0.
        4    1    3    3  502    0 -0.47308363848E+02  0.33465102878E+03 -0.78639971058E+03  0.85595298355E+03  0.12699999809E+01 0. -1.
       -4    1    3    3    0  502  0.47308363848E+02 -0.33465102878E+03  0.20867552558E+01  0.33798721840E+03  0.12699999809E+01 0.  1.
</event>
<event>
 5   0  0.2308362E-04  0.8996472E+03  0.7818609E-02  0.9426023E-01
       -1   -1    0    0    0  501  0.00000000000E+00  0.00000000000E+00  0.20574979506E+03  0.20574979513E+03  0.50400001928E-02 0.  1.
        1   -1    0    0  501    0  0.00000000000E+00  0.00000000000E+00 -0.98343360222E+03  0.98343360223E+03  0.50400001928E-02 0. -1.
    10030    2    1    2    0    0  0.00000000000E+00  0.00000000000E+00 -0.77768380715E+03  0.11891833974E+04  0.89964718009E+03 0.  0.
        1    1    3    3  502    0  0.10702214701E+03 -0.20708032993E+03 -0.89737027533E+03  0.92715123581E+03  0.50400001928E-02 0. -1.
       -1    1    3    3    0  502 -0.10702214701E+03  0.20708032993E+03  0.11968646818E+03  0.26203216155E+03  0.50400001928E-02 0.  1.
</event>
<event>
 5   0  0.3959804E-04  0.8993010E+03  0.7818609E-02  0.9426456E-01
       -2   -1    0    0    0  501  0.00000000000E+00  0.00000000000E+00  0.28651128737E+03  0.28651128738E+03  0.25500000920E-02 0.  1.
        2   -1    0    0  501    0  0.00000000000E+00  0.00000000000E+00 -0.70568098295E+03  0.70568098296E+03  0.25500000920E-02 0. -1.
    10030    2    1    2    0    0  0.00000000000E+00  0.00000000000E+00 -0.41916969559E+03  0.99219227034E+03  0.89930098834E+03 0.  0.
        5    1    3    3  502    0 -0.17783981356E+03  0.16820217619E+03 -0.62569519818E+03  0.67188953138E+03  0.46999998093E+01 0. -1.
       -5    1    3    3    0  502  0.17783981356E+03 -0.16820217619E+03  0.20652550259E+03  0.32030273895E+03  0.46999998093E+01 0.  1.
</event>
<event>
 5   0  0.2356918E-04  0.8996615E+03  0.7818609E-02  0.9426005E-01
       -1   -1    0    0    0  501  0.00000000000E+00  0.00000000000E+00  0.60032759758E+03  0.60032759761E+03  0.50400001928E-02 0. -1.
        1   -1    0    0  501    0  0.00000000000E+00  0.00000000000E+00 -0.33706215422E+03  0.33706215425E+03  0.50400001928E-02 0.  1.
    10030    2    1    2    0    0  0.00000000000E+00  0.00000000000E+00  0.26326544337E+03  0.93738975186E+03  0.89966152147E+03 0.  0.
        5    1    3    3  502    0  0.31246940297E+03 -0.22818827039E+03 -0.10737434163E+03  0.40156986164E+03  0.46999998093E+01 0.  1.
       -5    1    3    3    0  502 -0.31246940297E+03  0.22818827039E+03  0.37063978500E+03  0.53581989022E+03  0.46999998093E+01 0. -1.
</event>
<event>
 5   0  0.4110039E-04  0.8998981E+03  0.7818609E-02  0.9425709E-01
        2   -1    0    0  501    0  0.00000000000E+00  0.00000000000E+00  0.62439729100E+03  0.62439729101E+03  0.25500000920E-02 0.  1.
       -2   -1    0    0    0  501  0.00000000000E+00  0.00000000000E+00 -0.32423933491E+03  0.32423933492E+03  0.25500000920E-02 0. -1.
    10030    2    1    2    0    0  0.00000000000E+00  0.00000000000E+00  0.30015795609E+03  0.94863662592E+03  0.89989813281E+03 0.  0.
        3    1    3    3  502    0 -0.14327431979E+03 -0.40117223949E+03 -0.26376878264E+01  0.42599725826E+03  0.10100000352E+00 0. -1.
       -3    1    3    3    0  502  0.14327431979E+03  0.40117223949E+03  0.30279564392E+03  0.52263936766E+03  0.10100000352E+00 0.  1.
</event>
<event>
 5   0  0.2332791E-04  0.9024290E+03  0.7818609E-02  0.9422550E-01
       -1   -1    0    0    0  501  0.00000000000E+00  0.00000000000E+00  0.61234035795E+03  0.61234035797E+03  0.50400001928E-02 0. -1.
        1   -1    0    0  501    0  0.00000000000E+00  0.00000000000E+00 -0.33248591310E+03  0.33248591314E+03  0.50400001928E-02 0.  1.
    10030    2    1    2    0    0  0.00000000000E+00  0.00000000000E+00  0.27985444485E+03  0.94482627111E+03  0.90242904003E+03 0.  0.
        2    1    3    3  502    0 -0.28469189321E+03  0.40488321372E+02  0.50397836832E+03  0.58024389180E+03  0.25500000920E-02 0. -1.
       -2    1    3    3    0  502  0.28469189321E+03 -0.40488321372E+02 -0.22412392347E+03  0.36458237931E+03  0.25500000920E-02 0.  1.
</event>
<event>
 5   0  0.2351435E-04  0.9012169E+03  0.7818609E-02  0.9424062E-01
        1   -1    0    0  501    0  0.00000000000E+00  0.00000000000E+00  0.12242756809E+04  0.12242756809E+04  0.50400001928E-02 0.  1.
       -1   -1    0    0    0  501  0.00000000000E+00  0.00000000000E+00 -0.16585149757E+03  0.16585149765E+03  0.50400001928E-02 0. -1.
    10030    2    1    2    0    0  0.00000000000E+00  0.00000000000E+00  0.10584241833E+04  0.13901271785E+04  0.90121685553E+03 0.  0.
        4    1    3    3  502    0  0.97281985741E+02 -0.39954959678E+03  0.81339521019E+03  0.91143680302E+03  0.12699999809E+01 0.  1.
       -4    1    3    3    0  502 -0.97281985741E+02  0.39954959678E+03  0.24502897310E+03  0.47869037550E+03  0.12699999809E+01 0. -1.
</event>
<event>
 5   0  0.2308362E-04  0.8997744E+03  0.7818609E-02  0.9425863E-01
       -1   -1    0    0    0  501  0.00000000000E+00  0.00000000000E+00  0.10170549254E+04  0.10170549254E+04  0.50400001928E-02 0.  1.
        1   -1    0    0  501    0  0.00000000000E+00  0.00000000000E+00 -0.19900447867E+03  0.19900447874E+03  0.50400001928E-02 0. -1.
    10030    2    1    2    0    0  0.00000000000E+00  0.00000000000E+00  0.81805044674E+03  0.12160594042E+04  0.89977438340E+03 0.  0.
        1    1    3    3  502    0  0.34219657555E+03 -0.29053908208E+03  0.44927750390E+03  0.63510765235E+03  0.50400001928E-02 0. -1.
       -1    1    3    3    0  502 -0.34219657555E+03  0.29053908208E+03  0.36877294284E+03  0.58095175181E+03  0.50400001928E-02 0.  1.
</event>
<event>
 5   0  0.2351435E-04  0.8998403E+03  0.7818609E-02  0.9425781E-01
       -1   -1    0    0    0  501  0.00000000000E+00  0.00000000000E+00  0.49910317735E+03  0.49910317738E+03  0.50400001928E-02 0.  1.
        1   -1    0    0  501    0  0.00000000000E+00  0.00000000000E+00 -0.40558371401E+03  0.40558371404E+03  0.50400001928E-02 0. -1.
    10030    2    1    2    0    0  0.00000000000E+00  0.00000000000E+00  0.93519463336E+02  0.90468689142E+03  0.89984025331E+03 0.  0.
        4    1    3    3  502    0 -0.11680427838E+03 -0.33743189965E+03 -0.22843518363E+03  0.42389594521E+03  0.12699999809E+01 0. -1.
       -4    1    3    3    0  502  0.11680427838E+03  0.33743189965E+03  0.32195464697E+03  0.48079094621E+03  0.12699999809E+01 0.  1.
</event>
<event>
 5   0  0.4236284E-04  0.8996616E+03  0.7818609E-02  0.9426005E-01
        2   -1    0    0  501    0  0.00000000000E+00  0.00000000000E+00  0.10421835086E+04  0.10421835086E+04  0.25500000920E-02 0.  1.
       -2   -1    0    0    0  501  0.00000000000E+00  0.00000000000E+00 -0.19415749587E+03  0.19415749589E+03  0.25500000920E-02 0. -1.
    10030    2    1    2    0    0  0.00000000000E+00  0.00000000000E+00  0.84802601271E+03  0.12363410045E+04  0.89966158142E+03 0.  0.
        2    1    3    3  502    0  0.36816472390E+03  0.25825627944E+03  0.43817293196E+03  0.62788302104E+03  0.25500000920E-02 0. -1.
       -2    1    3    3    0  502 -0.36816472390E+03 -0.25825627944E+03  0.40985308075E+03  0.60845798343E+03  0.25500000920E-02 0.  1.
</event>
<event>
 5   0  0.4243516E-04  0.8993737E+03  0.7818609E-02  0.9426365E-01
       -2   -1    0    0    0  501  0.00000000000E+00  0.00000000000E+00  0.33195080883E+03  0.33195080884E+03  0.25500000920E-02 0. -1.
        2   -1    0    0  501    0  0.00000000000E+00  0.00000000000E+00 -0.60918136697E+03  0.60918136697E+03  0.25500000920E-02 0.  1.
    10030    2    1    2    0    0  0.00000000000E+00  0.00000000000E+00 -0.27723055814E+03  0.94113217581E+03  0.89937366538E+03 0.  0.
        1    1    3    3  502    0 -0.42085242020E+03 -0.94697005258E+02 -0.27153242611E+03  0.50971966889E+03  0.50400001928E-02 0. -1.
       -1    1    3    3    0  502  0.42085242020E+03  0.94697005258E+02 -0.56981320326E+01  0.43141250692E+03  0.50400001928E-02 0.  1.
</event>
<event>
 5   0  0.4110039E-04  0.8990152E+03  0.7818609E-02  0.9426813E-01
        2   -1    0    0  501    0  0.00000000000E+00  0.00000000000E+00  0.17175537498E+04  0.17175537498E+04  0.25500000920E-02 0.  1.
       -2   -1    0    0    0  501  0.00000000000E+00  0.00000000000E+00 -0.11764235340E+03  0.11764235343E+03  0.25500000920E-02 0. -1.
    10030    2    1    2    0    0  0.00000000000E+00  0.00000000000E+00  0.15999113964E+04  0.18351961032E+04  0.89901516172E+03 0.  0.
        3    1    3    3  502    0 -0.20669176369E+03  0.38407888039E+03  0.57803105736E+03  0.72412566935E+03  0.10100000352E+00 0. -1.
       -3    1    3    3    0  502  0.20669176369E+03 -0.38407888039E+03  0.10218803390E+04  0.11110704339E+04  0.10100000352E+00 0.  1.
</event>
<event>
 5   0  0.4243516E-04  0.9001756E+03  0.7818609E-02  0.9425362E-01
       -2   -1    0    0    0  501  0.00000000000E+00  0.00000000000E+00  0.27929673100E+03  0.27929673101E+03  0.25500000920E-02 0.  1.
        2   -1    0    0  501    0  0.00000000000E+00  0.00000000000E+00 -0.72531825998E+03  0.72531825998E+03  0.25500000920E-02 0. -1.
    10030    2    1    2    0    0  0.00000000000E+00  0.00000000000E+00 -0.44602152898E+03  0.10046149910E+04  0.90017558054E+03 0.  0.
        1    1    3    3  502    0  0.23985341713E+03 -0.34604862004E+03 -0.40052377797E+03  0.58111840952E+03  0.50400001928E-02 0. -1.
       -1    1    3    3    0  502 -0.23985341713E+03  0.34604862004E+03 -0.45497751014E+02  0.42349658147E+03  0.50400001928E-02 0.  1.
</event>
<event>
 5   0  0.4033144E-04  0.8998239E+03  0.7818609E-02  0.9425802E-01
        2   -1    0    0  501    0  0.00000000000E+00  0.00000000000E+00  0.10901309971E+04  0.10901309971E+04  0.25500000920E-02 0.  1.
       -2   -1    0    0    0  501  0.00000000000E+00  0.00000000000E+00 -0.18568480318E+03  0.18568480320E+03  0.25500000920E-02 0. -1.
    10030    2    1    2    0    0  0.00000000000E+00  0.00000000000E+00  0.90444619391E+03  0.12758158003E+04  0.89982389311E+03 0.  0.
        4    1    3    3  502    0  0.30392713945E+02  0.65695375478E+02 -0.17737207378E+03  0.19157782982E+03  0.12699999809E+01 0. -1.
       -4    1    3    3    0  502 -0.30392713945E+02 -0.65695375478E+02  0.10818182677E+04  0.10842379705E+04  0.12699999809E+01 0.  1.
</event>
<event>
 5   0  0.2450427E-04  0.9002578E+03  0.7818609E-02  0.9425259E-01
        1   -1    0    0  501    0  0.00000000000E+00  0.00000000000E+00  0.67504379199E+03  0.67504379200E+03  0.50400001928E-02 0. -1.
       -1   -1    0    0    0  501  0.00000000000E+00  0.00000000000E+00 -0.30015238583E+03  0.30015238588E+03  0.50400001928E-02 0.  1.
    10030    2    1    2    0    0  0.00000000000E+00  0.00000000000E+00  0.37489140615E+03  0.97519617788E+03  0.90025775139E+03 0.  0.
        3    1    3    3  502    0 -0.16634524783E+03  0.13254937216E+03 -0.24228289630E+03  0.32239896026E+03  0.10100000352E+00 0.  1.
       -3    1    3    3    0  502  0.16634524783E+03 -0.13254937216E+03  0.61717430245E+03  0.65279721763E+03  0.10100000352E+00 0. -1.
</event>
<event>
 5   0  0.2308362E-04  0.9003601E+03  0.7818609E-02  0.9425131E-01
        1   -1    0    0  501    0  0.00000000000E+00  0.00000000000E+00  0.69383727603E+03  0.69383727604E+03  0.50400001928E-02 0.  1.
       -1   -1    0    0    0  501  0.00000000000E+00  0.00000000000E+00 -0.29208875003E+03  0.29208875007E+03  0.50400001928E-02 0. -1.
    10030    2    1    2    0    0  0.00000000000E+00  0.00000000000E+00  0.40174852600E+03  0.98592602612E+03  0.90036006733E+03 0.  0.
        1    1    3    3  502    0  0.26201402072E+02  0.43994249505E+03  0.10035652522E+03  0.45200369977E+03  0.50400001928E-02 0. -1.
       -1    1    3    3    0  502 -0.26201402072E+02 -0.43994249505E+03  0.30139200077E+03  0.53392232635E+03  0.50400001928E-02 0.  1.
</event>
<event>
 5   0  0.2356918E-04  0.8998890E+03  0.7818609E-02  0.9425720E-01
        1   -1    0    0  501    0  0.00000000000E+00  0.00000000000E+00  0.65152414050E+03  0.65152414052E+03  0.50400001928E-02 0.  1.
       -1   -1    0    0    0  501  0.00000000000E+00  0.00000000000E+00 -0.31073301927E+03  0.31073301931E+03  0.50400001928E-02 0. -1.
    10030    2    1    2    0    0  0.00000000000E+00  0.00000000000E+00  0.34079112124E+03  0.96225715983E+03  0.89988902279E+03 0.  0.
        5    1    3    3  502    0 -0.77001453858E+02 -0.42494159867E+03  0.30532910374E+03  0.52891638070E+03  0.46999998093E+01 0.  1.
       -5    1    3    3    0  502  0.77001453858E+02  0.42494159867E+03  0.35462017497E+02  0.43334077914E+03  0.46999998093E+01 0. -1.
</event>
<event>
 5   0  0.2308362E-04  0.9001387E+03  0.7818609E-02  0.9425408E-01
        1   -1    0    0  501    0  0.00000000000E+00  0.00000000000E+00  0.13916574773E+04  0.13916574773E+04  0.50400001928E-02 0.  1.
       -1   -1    0    0    0  501  0.00000000000E+00  0.00000000000E+00 -0.14555478280E+03  0.14555478288E+03  0.50400001928E-02 0. -1.
    10030    2    1    2    0    0  0.00000000000E+00  0.00000000000E+00  0.12461026945E+04  0.15372122602E+04  0.90013866024E+03 0.  0.
        1    1    3    3  502    0 -0.11088237235E+03 -0.36092356088E+03  0.10413689565E+04  0.11077048437E+04  0.50400001928E-02 0.  1.
       -1    1    3    3    0  502  0.11088237235E+03  0.36092356088E+03  0.20473373806E+03  0.42950741649E+03  0.50400001928E-02 0. -1.
</event>
<event>
 5   0  0.2351435E-04  0.9001799E+03  0.7818609E-02  0.9425357E-01
        1   -1    0    0  501    0  0.00000000000E+00  0.00000000000E+00  0.13547879646E+04  0.13547879647E+04  0.50400001928E-02 0.  1.
       -1   -1    0    0    0  501  0.00000000000E+00  0.00000000000E+00 -0.14952964898E+03  0.14952964907E+03  0.50400001928E-02 0. -1.
    10030    2    1    2    0    0  0.00000000000E+00  0.00000000000E+00  0.12052583157E+04  0.15043176137E+04  0.90017991284E+03 0.  0.
        4    1    3    3  502    0 -0.12734149730E+03 -0.20453865948E+03 -0.32680374692E+02  0.24314921334E+03  0.12699999809E+01 0. -1.
       -4    1    3    3    0  502  0.12734149730E+03  0.20453865948E+03  0.12379386904E+04  0.12611684004E+04  0.12699999809E+01 0.  1.
</event>
<event>
 5   0  0.2450427E-04  0.8997549E+03  0.7818609E-02  0.9425888E-01
        1   -1    0    0  501    0  0.00000000000E+00  0.00000000000E+00  0.28038510742E+03  0.28038510747E+03  0.50400001928E-02 0. -1.
       -1   -1    0    0    0  501  0.00000000000E+00  0.00000000000E+00 -0.72182761728E+03  0.72182761730E+03  0.50400001928E-02 0.  1.
    10030    2    1    2    0    0  0.00000000000E+00  0.00000000000E+00 -0.44144250986E+03  0.10022127248E+04  0.89975488671E+03 0.  0.
        3    1    3    3  502    0 -0.79519217853E+02  0.38398291219E+03  0.24896015454E+02  0.39291984506E+03  0.10100000352E+00 0. -1.
       -3    1    3    3    0  502  0.79519217853E+02 -0.38398291219E+03 -0.46633852531E+03  0.60929287970E+03  0.10100000352E+00 0.  1.
</event>
<event>
 5   0  0.4033144E-04  0.8990739E+03  0.7818609E-02  0.9426740E-01
        2   -1    0    0  501    0  0.00000000000E+00  0.00000000000E+00  0.93946455163E+03  0.93946455163E+03  0.25500000920E-02 0. -1.
       -2   -1    0    0    0  501  0.00000000000E+00  0.00000000000E+00 -0.21510493017E+03  0.21510493019E+03  0.25500000920E-02 0.  1.
    10030    2    1    2    0    0  0.00000000000E+00  0.00000000000E+00  0.72435962146E+03  0.11545694818E+04  0.89907387191E+03 0.  0.
        4    1    3    3  502    0  0.25928121295E+03 -0.24523482272E+03  0.11162500370E+02  0.35706173133E+03  0.12699999809E+01 0.  1.
       -4    1    3    3    0  502 -0.25928121295E+03  0.24523482272E+03  0.71319712109E+03  0.79750775049E+03  0.12699999809E+01 0. -1.
</event>
<event>
 5   0  0.2332791E-04  0.9000389E+03  0.7818609E-02  0.9425533E-01
       -1   -1    0    0    0  501  0.00000000000E+00  0.00000000000E+00  0.61522866206E+03  0.61522866208E+03  0.50400001928E-02 0. -1.
        1   -1    0    0  501    0  0.00000000000E+00  0.00000000000E+00 -0.32917434586E+03  0.32917434590E+03  0.50400001928E-02 0.  1.
    10030    2    1    2    0    0  0.00000000000E+00  0.00000000000E+00  0.28605431620E+03  0.94440300798E+03  0.90003887120E+03 0.  0.
        2    1    3    3  502    0 -0.18107466526E+03 -0.38064649613E+03  0.30839528610E+03  0.52229057230E+03  0.25500000920E-02 0.  1.
       -2    1    3    3    0  502  0.18107466526E+03  0.38064649613E+03 -0.22340969894E+02  0.42211243568E+03  0.25500000920E-02 0. -1.
</event>
<event>
 5   0  0.2450427E-04  0.8995147E+03  0.7818609E-02  0.9426188E-01
        1   -1    0    0  501    0  0.00000000000E+00  0.00000000000E+00  0.10729281347E+04  0.10729281348E+04  0.50400001928E-02 0.  1.
       -1   -1    0    0    0  501  0.00000000000E+00  0.00000000000E+00 -0.18853234124E+03  0.18853234130E+03  0.50400001928E-02 0. -1.
    10030    2    1    2    0    0  0.00000000000E+00  0.00000000000E+00  0.88439579351E+03  0.12614604761E+04  0.89951465418E+03 0.  0.
        3    1    3    3  502    0  0.35179613282E+03 -0.24200612788E+02  0.83369895531E+03  0.90520723982E+03  0.10100000352E+00 0.  1.
       -3    1    3    3    0  502 -0.35179613282E+03  0.24200612788E+02  0.50696838197E+02  0.35625323624E+03  0.10100000352E+00 0. -1.
</event>
<event>
 5   0  0.3959804E-04  0.8999072E+03  0.7818609E-02  0.9425697E-01
       -2   -1    0    0    0  501  0.00000000000E+00  0.00000000000E+00  0.18560715503E+03  0.18560715505E+03  0.25500000920E-02 0. -1.
        2   -1    0    0  501    0  0.00000000000E+00  0.00000000000E+00 -0.10907888783E+04  0.10907888783E+04  0.25500000920E-02 0.  1.
    10030    2    1    2    0    0  0.00000000000E+00  0.00000000000E+00 -0.90518172331E+03  0.12763960334E+04  0.89990715179E+03 0.  0.
        5    1    3    3  502    0  0.36307852207E+02  0.17780620278E+03 -0.10365416007E+04  0.10523183387E+04  0.46999998093E+01 0.  1.
       -5    1    3    3    0  502 -0.36307852207E+02 -0.17780620278E+03  0.13135987741E+03  0.22407769472E+03  0.46999998093E+01 0. -1.
</event>
<event>
 5   0  0.2332791E-04  0.9004676E+03  0.7818609E-02  0.9424997E-01
       -1   -1    0    0    0  501  0.00000000000E+00  0.00000000000E+00  0.50695159352E+03  0.50695159354E+03  0.50400001928E-02 0.  1.
        1   -1    0    0  501    0  0.00000000000E+00  0.00000000000E+00 -0.39986164068E+03  0.39986164071E+03  0.50400001928E-02 0. -1.
    10030    2    1    2    0    0  0.00000000000E+00  0.00000000000E+00  0.10708995283E+03  0.90681323426E+03  0.90046764729E+03 0.  0.
        2    1    3    3  502    0 -0.93353878772E+01 -0.10113202906E+03 -0.38817533592E+03  0.40124173286E+03  0.25500000920E-02 0. -1.
       -2    1    3    3    0  502  0.93353878772E+01  0.10113202906E+03  0.49526528875E+03  0.50557150139E+03  0.25500000920E-02 0.  1.
</event>
<event>
 5   0  0.2450427E-04  0.8997900E+03  0.7818609E-02  0.9425844E-01
       -1   -1    0    0    0  501  0.00000000000E+00  0.00000000000E+00  0.15879618279E+03  0.15879618287E+03  0.50400001928E-02 0. -1.
        1   -1    0    0  501    0  0.00000000000E+00  0.00000000000E+00 -0.12746245431E+04  0.12746245431E+04  0.50400001928E-02 0.  1.
    10030    2    1    2    0    0  0.00000000000E+00  0.00000000000E+00 -0.11158283603E+04  0.14334207260E+04  0.89979000216E+03 0.  0.
        3    1    3    3  502    0 -0.13960458862E+03 -0.17013978234E+03  0.67184349113E+02  0.23011026415E+03  0.10100000352E+00 0. -1.
       -3    1    3    3    0  502  0.13960458862E+03  0.17013978234E+03 -0.11830127094E+04  0.12033104618E+04  0.10100000352E+00 0.  1.
</event>
<event>
 5   0  0.2356918E-04  0.8995219E+03  0.7818609E-02  0.9426179E-01
       -1   -1    0    0    0  501  0.00000000000E+00  0.00000000000E+00  0.33300521981E+03  0.33300521984E+03  0.50400001928E-02 0.  1.
        1   -1    0    0  501    0  0.00000000000E+00  0.00000000000E+00 -0.60745262135E+03  0.60745262137E+03  0.50400001928E-02 0. -1.
    10030    2    1    2    0    0  0.00000000000E+00  0.00000000000E+00 -0.27444740154E+03  0.94045784121E+03  0.89952185904E+03 0.  0.
        5    1    3    3  502    0  0.12505053950E+03  0.40834726092E+03 -0.28462810723E+03  0.51324494382E+03  0.46999998093E+01 0.  1.
       -5    1    3    3    0  502 -0.12505053950E+03 -0.40834726092E+03  0.10180705689E+02  0.42721289739E+03  0.46999998093E+01 0. -1.
</event>
<event>
 5   0  0.4236284E-04  0.8999360E+03  0.7818609E-02  0.9425661E-01
        2   -1    0    0  501    0  0.00000000000E+00  0.00000000000E+00  0.13612598531E+04  0.13612598531E+04  0.25500000920E-02 0.  1.
       -2   -1    0    0    0  501  0.00000000000E+00  0.00000000000E+00 -0.14873810522E+03  0.14873810524E+03  0.25500000920E-02 0. -1.
    10030    2    1    2    0    0  0.00000000000E+00  0.00000000000E+00  0.12125217479E+04  0.15099979584E+04  0.89993602280E+03 0.  0.
        2    1    3    3  502    0 -0.44554870826E+03  0.33794747440E+02  0.69529173081E+03  0.82649036736E+03  0.25500000920E-02 0. -1.
       -2    1    3    3    0  502  0.44554870826E+03 -0.33794747440E+02  0.51723001709E+03  0.68350759101E+03  0.25500000920E-02 0.  1.
</event>
<event>
 5   0  0.4236284E-04  0.9000794E+03  0.7818609E-02  0.9425482E-01
       -2   -1    0    0    0  501  0.00000000000E+00  0.00000000000E+00  0.19435152550E+03  0.19435152551E+03  0.25500000920E-02 0. -1.
        2   -1    0    0  501    0  0.00000000000E+00  0.00000000000E+00 -0.10421104375E+04  0.10421104375E+04  0.25500000920E-02 0.  1.
    10030    2    1    2    0    0  0.00000000000E+00  0.00000000000E+00 -0.84775891204E+03  0.12364619631E+04  0.90007944823E+03 0.  0.
        2    1    3    3  502    0 -0.84575579627E+02  0.34864209415E+02 -0.10292034127E+04  0.10332609576E+04  0.25500000920E-02 0.  1.
       -2    1    3    3    0  502  0.84575579627E+02 -0.34864209415E+02  0.18144450069E+03  0.20320100542E+03  0.25500000920E-02 0. -1.
</event>
<event>
 5   0  0.3959804E-04  0.9000640E+03  0.7818609E-02  0.9425501E-01
       -2   -1    0    0    0  501  0.00000000000E+00  0.00000000000E+00  0.14376149549E+03  0.14376149551E+03  0.25500000920E-02 0. -1.
        2   -1    0    0  501    0  0.00000000000E+00  0.00000000000E+00 -0.14087832204E+04  0.14087832204E+04  0.25500000920E-02 0.  1.
    10030    2    1    2    0    0  0.00000000000E+00  0.00000000000E+00 -0.12650217249E+04  0.15525447159E+04  0.90006395907E+03 0.  0.
        5    1    3    3  502    0  0.10752909180E+02  0.41522076456E+03 -0.33383046173E+03  0.53290597253E+03  0.46999998093E+01 0. -1.
       -5    1    3    3    0  502 -0.10752909180E+02 -0.41522076456E+03 -0.93119126320E+03  0.10196387434E+04  0.46999998093E+01 0.  1.
</event>
<event>
 5   0  0.4033144E-04  0.8999931E+03  0.7818609E-02  0.9425590E-01
       -2   -1    0    0    0  501  0.00000000000E+00  0.00000000000E+00  0.34066330642E+03  0.34066330643E+03  0.25500000920E-02 0. -1.
        2   -1    0    0  501    0  0.00000000000E+00  0.00000000000E+00 -0.59441950281E+03  0.59441950281E+03  0.25500000920E-02 0.  1.
    10030    2    1    2    0    0  0.00000000000E+00  0.00000000000E+00 -0.25375619638E+03  0.93508280925E+03  0.89999314050E+03 0.  0.
        4    1    3    3  502    0 -0.75243256643E+01  0.43533674615E+03 -0.24497873876E+03  0.49959072586E+03  0.12699999809E+01 0.  1.
       -4    1    3    3    0  502  0.75243256643E+01 -0.43533674615E+03 -0.87774576240E+01  0.43549208338E+03  0.12699999809E+01 0. -1.
</event>
<event>
 5   0  0.2308362E-04  0.8999093E+03  0.7818609E-02  0.9425695E-01
        1   -1    0    0  501    0  0.00000000000E+00  0.00000000000E+00  0.35293484604E+03  0.35293484608E+03  0.50400001928E-02 0.  1.
       -1   -1    0    0    0  501  0.00000000000E+00  0.00000000000E+00 -0.57364465794E+03  0.57364465797E+03  0.50400001928E-02 0. -1.
    10030    2    1    2    0    0  0.00000000000E+00  0.00000000000E+00 -0.22070981190E+03  0.92657950404E+03  0.89990930445E+03 0.  0.
        1    1    3    3  502    0 -0.15009858743E+03  0.17513944946E+03 -0.50814093061E+03  0.55804177092E+03  0.50400001928E-02 0. -1.
       -1    1    3    3    0  502  0.15009858743E+03 -0.17513944946E+03  0.28743111871E+03  0.36853773312E+03  0.50400001928E-02 0.  1.
</event>
<event>
 5   0  0.4033144E-04  0.9016528E+03  0.7818609E-02  0.9423518E-01
       -2   -1    0    0    0  501  0.00000000000E+00  0.00000000000E+00  0.16863257641E+03  0.16863257643E+03  0.25500000920E-02 0.  1.
        2   -1    0    0  501    0  0.00000000000E+00  0.00000000000E+00 -0.12052500561E+04  0.12052500561E+04  0.25500000920E-02 0. -1.
    10030    2    1    2    0    0  0.00000000000E+00  0.00000000000E+00 -0.10366174797E+04  0.13738826326E+04  0.90165275399E+03 0.  0.
        4    1    3    3  502    0  0.13000885573E+03 -0.32724744050E+03 -0.94726095282E+03  0.10105929524E+04  0.12699999809E+01 0. -1.
       -4    1    3    3    0  502 -0.13000885573E+03  0.32724744050E+03 -0.89356526909E+02  0.36328968012E+03  0.12699999809E+01 0.  1.
</event>
<event>
 5   0  0.2351435E-04  0.8998715E+03  0.7818609E-02  0.9425742E-01
        1   -1    0    0  501    0  0.00000000000E+00  0.00000000000E+00  0.39705893457E+03  0.39705893460E+03  0.50400001928E-02 0.  1.
       -1   -1    0    0    0  501  0.00000000000E+00  0.00000000000E+00 -0.50985428234E+03  0.50985428236E+03  0.50400001928E-02 0. -1.
    10030    2    1    2    0    0  0.00000000000E+00  0.00000000000E+00 -0.11279534777E+03  0.90691321696E+03  0.89987154229E+03 0.  0.
        4    1    3    3  502    0  0.20457723471E+03 -0.43768170429E+02 -0.45785265386E+03  0.50338669356E+03  0.12699999809E+01 0. -1.
       -4    1    3    3    0  502 -0.20457723471E+03  0.43768170429E+02  0.34505730609E+03  0.40352652340E+03  0.12699999809E+01 0.  1.
</event>
<event>
 5   0  0.4243516E-04  0.8993689E+03  0.7818609E-02  0.9426371E-01
       -2   -1    0    0    0  501  0.00000000000E+00  0.00000000000E+00  0.14754226776E+03  0.14754226778E+03  0.25500000920E-02 0. -1.
        2   -1    0    0  501    0  0.00000000000E+00  0.00000000000E+00 -0.13705640385E+04  0.13705640385E+04  0.25500000920E-02 0.  1.
    10030    2    1    2    0    0  0.00000000000E+00  0.00000000000E+00 -0.12230217707E+04  0.15181063063E+04  0.89936894846E+03 0.  0.
        1    1    3    3  502    0 -0.23516606687E+03 -0.36950905186E+03 -0.43956905900E+03  0.62053281626E+03  0.50400001928E-02 0.  1.
       -1    1    3    3    0  502  0.23516606687E+03  0.36950905186E+03 -0.78345271174E+03  0.89757349001E+03  0.50400001928E-02 0. -1.
</event>
<event>
 5   0  0.2450427E-04  0.8997816E+03  0.7818609E-02  0.9425855E-01
       -1   -1    0    0    0  501  0.00000000000E+00  0.00000000000E+00  0.16273639099E+03  0.16273639107E+03  0.50400001928E-02 0. -1.
        1   -1    0    0  501    0  0.00000000000E+00  0.00000000000E+00 -0.12437397179E+04  0.12437397179E+04  0.50400001928E-02 0.  1.
    10030    2    1    2    0    0  0.00000000000E+00  0.00000000000E+00 -0.10810033269E+04  0.14064761090E+04  0.89978155814E+03 0.  0.
        3    1    3    3  502    0 -0.87870052879E+02  0.13547996480E+03  0.11587498839E+03  0.19875359164E+03  0.10100000352E+00 0. -1.
       -3    1    3    3    0  502  0.87870052879E+02 -0.13547996480E+03 -0.11968783153E+04  0.12077225174E+04  0.10100000352E+00 0.  1.
</event>
<event>
 5   0  0.4110039E-04  0.9002001E+03  0.7818609E-02  0.9425331E-01
       -2   -1    0    0    0  501  0.00000000000E+00  0.00000000000E+00  0.18625206272E+03  0.18625206274E+03  0.25500000920E-02 0.  1.
        2   -1    0    0  501    0  0.00000000000E+00  0.00000000000E+00 -0.10877196815E+04  0.10877196815E+04  0.25500000920E-02 0. -1.
    10030    2    1    2    0    0  0.00000000000E+00  0.00000000000E+00 -0.90146761873E+03  0.12739717442E+04  0.90020005410E+03 0.  0.
        3    1    3    3  502    0 -0.35147804394E+03 -0.27218795551E+03 -0.35099490558E+03  0.56641021569E+03  0.10100000352E+00 0.  1.
       -3    1    3    3    0  502  0.35147804394E+03  0.27218795551E+03 -0.55047271316E+03  0.70756152851E+03  0.10100000352E+00 0. -1.
</event>
<event>
 5   0  0.2356918E-04  0.9001417E+03  0.7818609E-02  0.9425404E-01
       -1   -1    0    0    0  501  0.00000000000E+00  0.00000000000E+00  0.97857231577E+02  0.97857231707E+02  0.50400001928E-02 0.  1.
        1   -1    0    0  501    0  0.00000000000E+00  0.00000000000E+00 -0.20699927362E+04  0.20699927362E+04  0.50400001928E-02 0. -1.
    10030    2    1    2    0    0  0.00000000000E+00  0.00000000000E+00 -0.19721355046E+04  0.21678499679E+04  0.90014167483E+03 0.  0.
        5    1    3    3  502    0 -0.10054526633E+03 -0.35965800842E+03 -0.15909332443E+04  0.16341829491E+04  0.46999998093E+01 0. -1.
       -5    1    3    3    0  502  0.10054526633E+03  0.35965800842E+03 -0.38120226032E+03  0.53366701872E+03  0.46999998093E+01 0.  1.
</event>
<event>
 5   0  0.4243516E-04  0.9002265E+03  0.7818609E-02  0.9425298E-01
        2   -1    0    0  501    0  0.00000000000E+00  0.00000000000E+00  0.60894057187E+03  0.60894057188E+03  0.25500000920E-02 0.  1.
       -2   -1    0    0    0  501  0.00000000000E+00  0.00000000000E+00 -0.33271216985E+03  0.33271216986E+03  0.25500000920E-02 0. -1.
    10030    2    1    2    0    0  0.00000000000E+00  0.00000000000E+00  0.27622840202E+03  0.94165274174E+03  0.90022650258E+03 0.  0.
        1    1    3    3  502    0 -0.10171319353E+03  0.43604837524E+03  0.89972616665E+02  0.45670431470E+03  0.50400001928E-02 0.  1.
       -1    1    3    3    0  502  0.10171319353E+03 -0.43604837524E+03  0.18625578535E+03  0.48494842704E+03  0.50400001928E-02 0. -1.
</event>
<event>
 5   0  0.4110039E-04  0.9001740E+03  0.7818609E-02  0.9425364E-01
       -2   -1    0    0    0  501  0.00000000000E+00  0.00000000000E+00  0.87300958443E+02  0.87300958480E+02  0.25500000920E-02 0.  1.
        2   -1    0    0  501    0  0.00000000000E+00  0.00000000000E+00 -0.23204589119E+04  0.23204589119E+04  0.25500000920E-02 0. -1.
    10030    2    1    2    0    0  0.00000000000E+00  0.00000000000E+00 -0.22331579534E+04  0.24077598704E+04  0.90017395448E+03 0.  0.
        3    1    3    3  502    0  0.41909989131E+03 -0.16219076549E+03 -0.11835932770E+04  0.12660346041E+04  0.10100000352E+00 0.  1.
       -3    1    3    3    0  502 -0.41909989131E+03  0.16219076549E+03 -0.10495646765E+04  0.11417252662E+04  0.10100000352E+00 0. -1.
</event>
<event>
 5   0  0.2356918E-04  0.8999315E+03  0.7818609E-02  0.9425667E-01
        1   -1    0    0  501    0  0.00000000000E+00  0.00000000000E+00  0.38091147347E+03  0.38091147350E+03  0.50400001928E-02 0. -1.
       -1   -1    0    0    0  501  0.00000000000E+00  0.00000000000E+00 -0.53153866330E+03  0.53153866332E+03  0.50400001928E-02 0.  1.
    10030    2    1    2    0    0  0.00000000000E+00  0.00000000000E+00 -0.15062718984E+03  0.91245013682E+03  0.89993149843E+03 0.  0.
        5    1    3    3  502    0 -0.38475242949E+03 -0.17127784404E+03  0.85245019772E+02  0.42972006616E+03  0.46999998093E+01 0. -1.
       -5    1    3    3    0  502  0.38475242949E+03  0.17127784404E+03 -0.23587220961E+03  0.48273007067E+03  0.46999998093E+01 0.  1.
</event>
<event>
 5   0  0.2351435E-04  0.9002460E+03  0.7818609E-02  0.9425274E-01
       -1   -1    0    0    0  501  0.00000000000E+00  0.00000000000E+00  0.70255310975E+03  0.70255310976E+03  0.50400001928E-02 0.  1.
        1   -1    0    0  501    0  0.00000000000E+00  0.00000000000E+00 -0.28839201659E+03  0.28839201663E+03  0.50400001928E-02 0. -1.
    10030    2    1    2    0    0  0.00000000000E+00  0.00000000000E+00  0.41416109316E+03  0.99094512640E+03  0.90024598441E+03 0.  0.
        4    1    3    3  502    0 -0.40087119316E+03  0.20442379137E+03  0.21925342151E+03  0.50056016195E+03  0.12699999809E+01 0. -1.
       -4    1    3    3    0  502  0.40087119316E+03 -0.20442379137E+03  0.19490767164E+03  0.49038496444E+03  0.12699999809E+01 0.  1.
</event>
<event>
 5   0  0.2332791E-04  0.8998673E+03  0.7818609E-02  0.9425747E-01
       -1   -1    0    0    0  501  0.00000000000E+00  0.00000000000E+00  0.33844901741E+03  0.33844901745E+03  0.50400001928E-02 0.  1.
        1   -1    0    0  501    0  0.00000000000E+00  0.00000000000E+00 -0.59814120789E+03  0.59814120791E+03  0.50400001928E-02 0. -1.
    10030    2    1    2    0    0  0.00000000000E+00  0.00000000000E+00 -0.25969219048E+03  0.93659022536E+03  0.89986733269E+03 0.  0.
        2    1    3    3  502    0  0.13099793790E+03  0.42764850221E+03 -0.18079902702E+03  0.48242303982E+03  0.25500000920E-02 0. -1.
       -2    1    3    3    0  502 -0.13099793790E+03 -0.42764850221E+03 -0.78893163465E+02  0.45416718554E+03  0.25500000920E-02 0.  1.
</event>
<event>
 5   0  0.4033144E-04  0.9002289E+03  0.7818609E-02  0.9425295E-01
       -2   -1    0    0    0  501  0.00000000000E+00  0.00000000000E+00  0.27523791668E+03  0.27523791670E+03  0.25500000920E-02 0.  1.
        2   -1    0    0  501    0  0.00000000000E+00  0.00000000000E+00 -0.73610136526E+03  0.73610136526E+03  0.25500000920E-02 0. -1.
    10030    2    1    2    0    0  0.00000000000E+00  0.00000000000E+00 -0.46086344858E+03  0.10113392820E+04  0.90022887368E+03 0.  0.
        4    1    3    3  502    0 -0.20743607497E+03 -0.36416570633E+02 -0.67733097296E+03  0.70931992193E+03  0.12699999809E+01 0. -1.
       -4    1    3    3    0  502  0.20743607497E+03  0.36416570633E+02  0.21646752439E+03  0.30201936003E+03  0.12699999809E+01 0.  1.
</event>
<event>
 5   0  0.4243516E-04  0.8999381E+03  0.7818609E-02  0.9425659E-01
       -2   -1    0    0    0  501  0.00000000000E+00  0.00000000000E+00  0.20037414374E+03  0.20037414375E+03  0.25500000920E-02 0.  1.
        2   -1    0    0  501    0  0.00000000000E+00  0.00000000000E+00 -0.10104705146E+04  0.10104705146E+04  0.25500000920E-02 0. -1.
    10030    2    1    2    0    0  0.00000000000E+00  0.00000000000E+00 -0.81009637086E+03  0.12108446583E+04  0.89993814042E+03 0.  0.
        1    1    3    3  502    0 -0.61350764755E+02  0.20183016499E+03  0.12972173897E+03  0.24764301206E+03  0.50400001928E-02 0.  1.
       -1    1    3    3    0  502  0.61350764755E+02 -0.20183016499E+03 -0.93981810983E+03  0.96320164629E+03  0.50400001928E-02 0. -1.
</event>
<event>
 5   0  0.2308362E-04  0.9003088E+03  0.7818609E-02  0.9425196E-01
        1   -1    0    0  501    0  0.00000000000E+00  0.00000000000E+00  0.66976409974E+03  0.66976409975E+03  0.50400001928E-02 0. -1.
       -1   -1    0    0    0  501  0.00000000000E+00  0.00000000000E+00 -0.30255275100E+03  0.30255275104E+03  0.50400001928E-02 0.  1.
    10030    2    1    2    0    0  0.00000000000E+00  0.00000000000E+00  0.36721134874E+03  0.97231685079E+03  0.90030877131E+03 0.  0.
        1    1    3    3  502    0  0.30226362036E+03  0.30458998290E+03  0.33050149428E+03  0.54163603242E+03  0.50400001928E-02 0. -1.
       -1    1    3    3    0  502 -0.30226362036E+03 -0.30458998290E+03  0.36709854459E+02  0.43068081837E+03  0.50400001928E-02 0.  1.
</event>
<event>
 5   0  0.3959804E-04  0.9001600E+03  0.7818609E-02  0.9425381E-01
        2   -1    0    0  501    0  0.00000000000E+00  0.00000000000E+00  0.11179668991E+04  0.11179668991E+04  0.25500000920E-02 0. -1.
       -2   -1    0    0    0  501  0.00000000000E+00  0.00000000000E+00 -0.18119677171E+03  0.18119677173E+03  0.25500000920E-02 0.  1.
    10030    2    1    2    0    0  0.00000000000E+00  0.00000000000E+00  0.93677012741E+03  0.12991636709E+04  0.90015997026E+03 0.  0.
        5    1    3    3  502    0  0.39145137174E+03  0.94514335179E+02  0.17835554074E+03  0.44045422566E+03  0.46999998093E+01 0.  1.
       -5    1    3    3    0  502 -0.39145137174E+03 -0.94514335179E+02  0.75841458667E+03  0.85870944520E+03  0.46999998093E+01 0. -1.
</event>
<event>
 5   0  0.2351435E-04  0.9003350E+03  0.7818609E-02  0.9425163E-01
       -1   -1    0    0    0  501  0.00000000000E+00  0.00000000000E+00  0.12007254711E+03  0.12007254721E+03  0.50400001928E-02 0.  1.
        1   -1    0    0  501    0  0.00000000000E+00  0.00000000000E+00 -0.16877362565E+04  0.16877362565E+04  0.50400001928E-02 0. -1.
    10030    2    1    2    0    0  0.00000000000E+00  0.00000000000E+00 -0.15676637094E+04  0.18078088038E+04  0.90033502935E+03 0.  0.
        4    1    3    3  502    0 -0.17715605365E+03  0.13800733480E+03 -0.43356356235E+00  0.22457090792E+03  0.12699999809E+01 0.  1.
       -4    1    3    3    0  502  0.17715605365E+03 -0.13800733480E+03 -0.15672301459E+04  0.15832378958E+04  0.12699999809E+01 0. -1.
</event>
<event>
 5   0  0.2450427E-04  0.8982549E+03  0.7818609E-02  0.9427766E-01
        1   -1    0    0  501    0  0.00000000000E+00  0.00000000000E+00  0.14957641654E+04  0.14957641654E+04  0.50400001928E-02 0. -1.
       -1   -1    0    0    0  501  0.00000000000E+00  0.00000000000E+00 -0.13485780266E+03  0.13485780275E+03  0.50400001928E-02 0.  1.
    10030    2    1    2    0    0  0.00000000000E+00  0.00000000000E+00  0.13609063627E+04  0.16306219681E+04  0.89825490530E+03 0.  0.
        3    1    3    3  502    0 -0.37802501753E+03  0.22965968805E+03  0.82187332371E+03  0.93333930413E+03  0.10100000352E+00 0. -1.
       -3    1    3    3    0  502  0.37802501753E+03 -0.22965968805E+03  0.53903303900E+03  0.69728266401E+03  0.10100000352E+00 0.  1.
</event>
<event>
 5   0  0.1596250E-04  0.8999181E+03  0.7818609E-02  0.9425684E-01
       -3   -1    0    0    0  501  0.00000000000E+00  0.00000000000E+00  0.12755963609E+04  0.12755963649E+04  0.10100000352E+00 0.  1.
        3   -1    0    0  501    0  0.00000000000E+00  0.00000000000E+00 -0.15872036695E+03  0.15872039909E+03  0.10100000352E+00 0. -1.
    10030    2    1    2    0    0  0.00000000000E+00  0.00000000000E+00  0.11168759939E+04  0.14343167640E+04  0.89991810383E+03 0.  0.
        4    1    3    3  502    0 -0.42544566224E+03 -0.14647365877E+03  0.55568142217E+03  0.71501188806E+03  0.12699999809E+01 0.  1.
       -4    1    3    3    0  502  0.42544566224E+03  0.14647365877E+03  0.56119457177E+03  0.71930487592E+03  0.12699999809E+01 0. -1.
</event>
<event>
 5   0  0.2332791E-04  0.9000865E+03  0.7818609E-02  0.9425473E-01
        1   -1    0    0  501    0  0.00000000000E+00  0.00000000000E+00  0.91227343942E+03  0.91227343943E+03  0.50400001928E-02 0.  1.
       -1   -1    0    0    0  501  0.00000000000E+00  0.00000000000E+00 -0.22201558323E+03  0.22201558328E+03  0.50400001928E-02 0. -1.
    10030    2    1    2    0    0  0.00000000000E+00  0.00000000000E+00  0.69025785619E+03  0.11342890227E+04  0.90008648419E+03 0.  0.
        2    1    3    3  502    0  0.34573791920E+03 -0.41890285290E+02  0.70433991375E+03  0.78573800906E+03  0.25500000920E-02 0.  1.
       -2    1    3    3    0  502 -0.34573791920E+03  0.41890285290E+02 -0.14082057555E+02  0.34855101366E+03  0.25500000920E-02 0. -1.
</event>
<event>
 5   0  0.1596250E-04  0.8997466E+03  0.7818609E-02  0.9425898E-01
        3   -1    0    0  501    0  0.00000000000E+00  0.00000000000E+00  0.83937326048E+03  0.83937326655E+03  0.10100000352E+00 0.  1.
       -3   -1    0    0    0  501  0.00000000000E+00  0.00000000000E+00 -0.24111558033E+03  0.24111560149E+03  0.10100000352E+00 0. -1.
    10030    2    1    2    0    0  0.00000000000E+00  0.00000000000E+00  0.59825768015E+03  0.10804888680E+04  0.89974659883E+03 0.  0.
        1    1    3    3  502    0  0.26990655300E+02 -0.32144267162E+03  0.67570059113E+03  0.74874907378E+03  0.50400001928E-02 0.  1.
       -1    1    3    3    0  502 -0.26990655300E+02  0.32144267162E+03 -0.77442910982E+02  0.33173979426E+03  0.50400001928E-02 0. -1.
</event>
<event>
 5   0  0.4033144E-04  0.8999810E+03  0.7818609E-02  0.9425605E-01
       -2   -1    0    0    0  501  0.00000000000E+00  0.00000000000E+00  0.32152646531E+03  0.32152646532E+03  0.25500000920E-02 0. -1.
        2   -1    0    0  501    0  0.00000000000E+00  0.00000000000E+00 -0.62978163956E+03  0.62978163957E+03  0.25500000920E-02 0.  1.
    10030    2    1    2    0    0  0.00000000000E+00  0.00000000000E+00 -0.30825517426E+03  0.95130810489E+03  0.89998103200E+03 0.  0.
        4    1    3    3  502    0 -0.35578802824E+03  0.70505296219E+02 -0.43565082627E+03  0.56687685891E+03  0.12699999809E+01 0.  1.
       -4    1    3    3    0  502  0.35578802824E+03 -0.70505296219E+02  0.12739565201E+03  0.38443124598E+03  0.12699999809E+01 0. -1.
</event>
<event>
 5   0  0.2308362E-04  0.9010989E+03  0.7818609E-02  0.9424209E-01
        1   -1    0    0  501    0  0.00000000000E+00  0.00000000000E+00  0.28985505523E+03  0.28985505527E+03  0.50400001928E-02 0. -1.
       -1   -1    0    0    0  501  0.00000000000E+00  0.00000000000E+00 -0.70033217375E+03  0.70033217377E+03  0.50400001928E-02 0.  1.
    10030    2    1    2    0    0  0.00000000000E+00  0.00000000000E+00 -0.41047711852E+03  0.99018722904E+03  0.90109893116E+03 0.  0.
        1    1    3    3  502    0 -0.10015028359E+03  0.22169806271E+03 -0.62196062952E+03  0.66784364564E+03  0.50400001928E-02 0.  1.
       -1    1    3    3    0  502  0.10015028359E+03 -0.22169806271E+03  0.21148351100E+03  0.32234358341E+03  0.50400001928E-02 0. -1.
</event>
<event>
 5   0  0.2450427E-04  0.8997089E+03  0.7818609E-02  0.9425945E-01
        1   -1    0    0  501    0  0.00000000000E+00  0.00000000000E+00  0.84076503653E+03  0.84076503654E+03  0.50400001928E-02 0.  1.
       -1   -1    0    0    0  501  0.00000000000E+00  0.00000000000E+00 -0.24069629286E+03  0.24069629292E+03  0.50400001928E-02 0. -1.
    10030    2    1    2    0    0  0.00000000000E+00  0.00000000000E+00  0.60006874366E+03  0.10814613295E+04  0.89970890292E+03 0.  0.
        3    1    3    3  502    0  0.29754046085E+03 -0.20314380413E+03  0.62384521472E+03  0.72040307685E+03  0.10100000352E+00 0.  1.
       -3    1    3    3    0  502 -0.29754046085E+03  0.20314380413E+03 -0.23776471056E+02  0.36105825261E+03  0.10100000352E+00 0. -1.
</event>
<event>
 5   0  0.4236284E-04  0.8993212E+03  0.7818609E-02  0.9426430E-01
       -2   -1    0    0    0  501  0.00000000000E+00  0.00000000000E+00  0.14279220060E+03  0.14279220062E+03  0.25500000920E-02 0. -1.
        2   -1    0    0  501    0  0.00000000000E+00  0.00000000000E+00 -0.14160061702E+04  0.14160061702E+04  0.25500000920E-02 0.  1.
    10030    2    1    2    0    0  0.00000000000E+00  0.00000000000E+00 -0.12732139696E+04  0.15587983708E+04  0.89932115979E+03 0.  0.
        2    1    3    3  502    0 -0.26835716204E+02 -0.12701404217E+03  0.10960454271E+03  0.16989961260E+03  0.25500000920E-02 0. -1.
       -2    1    3    3    0  502  0.26835716204E+02  0.12701404217E+03 -0.13828185123E+04  0.13888987582E+04  0.25500000920E-02 0.  1.
</event>
<event>
 5   0  0.4033144E-04  0.9001368E+03  0.7818609E-02  0.9425410E-01
        2   -1    0    0  501    0  0.00000000000E+00  0.00000000000E+00  0.49734798115E+03  0.49734798115E+03  0.25500000920E-02 0. -1.
       -2   -1    0    0    0  501  0.00000000000E+00  0.00000000000E+00 -0.40728333536E+03  0.40728333537E+03  0.25500000920E-02 0.  1.
    10030    2    1    2    0    0  0.00000000000E+00  0.00000000000E+00  0.90064645786E+02  0.90463131652E+03  0.90013675539E+03 0.  0.
        4    1    3    3  502    0 -0.32125753252E+02  0.18942506993E+03  0.45406086363E+03  0.49303833717E+03  0.12699999809E+01 0. -1.
       -4    1    3    3    0  502  0.32125753252E+02 -0.18942506993E+03 -0.36399621785E+03  0.41159297935E+03  0.12699999809E+01 0.  1.
</event>
<event>
 5   0  0.2356918E-04  0.8997164E+03  0.7818609E-02  0.9425936E-01
       -1   -1    0    0    0  501  0.00000000000E+00  0.00000000000E+00  0.27090515528E+03  0.27090515532E+03  0.50400001928E-02 0.  1.
        1   -1    0    0  501    0  0.00000000000E+00  0.00000000000E+00 -0.74702311796E+03  0.74702311798E+03  0.50400001928E-02 0. -1.
    10030    2    1    2    0    0  0.00000000000E+00  0.00000000000E+00 -0.47611796268E+03  0.10179282733E+04  0.89971643044E+03 0.  0.
        5    1    3    3  502    0 -0.86948696001E+02 -0.16490004585E+03  0.22511721336E+03  0.29232165607E+03  0.46999998093E+01 0.  1.
       -5    1    3    3    0  502  0.86948696001E+02  0.16490004585E+03 -0.70123517604E+03  0.72560661723E+03  0.46999998093E+01 0. -1.
</event>
<event>
 5   0  0.4033144E-04  0.9004393E+03  0.7818609E-02  0.9425032E-01
       -2   -1    0    0    0  501  0.00000000000E+00  0.00000000000E+00  0.32615468779E+03  0.32615468780E+03  0.25500000920E-02 0.  1.
        2   -1    0    0  501    0  0.00000000000E+00  0.00000000000E+00 -0.62147730553E+03  0.62147730554E+03  0.25500000920E-02 0. -1.
    10030    2    1    2    0    0  0.00000000000E+00  0.00000000000E+00 -0.29532261775E+03  0.94763199334E+03  0.90043930736E+03 0.  0.
        4    1    3    3  502    0 -0.25588696118E+03  0.35137051617E+03 -0.27109768028E+03  0.51228404395E+03  0.12699999809E+01 0. -1.
       -4    1    3    3    0  502  0.25588696118E+03 -0.35137051617E+03 -0.24224937469E+02  0.43534794938E+03  0.12699999809E+01 0.  1.
</event>
<event>
 5   0  0.2332791E-04  0.8998404E+03  0.7818609E-02  0.9425781E-01
       -1   -1    0    0    0  501  0.00000000000E+00  0.00000000000E+00  0.22933743318E+03  0.22933743323E+03  0.50400001928E-02 0. -1.
        1   -1    0    0  501    0  0.00000000000E+00  0.00000000000E+00 -0.88266520191E+03  0.88266520192E+03  0.50400001928E-02 0.  1.
    10030    2    1    2    0    0  0.00000000000E+00  0.00000000000E+00 -0.65332776873E+03  0.11120026352E+04  0.89984036762E+03 0.  0.
        2    1    3    3  502    0 -0.32172246744E+03 -0.22771377630E+03 -0.59477143065E+03  0.71352082289E+03  0.25500000920E-02 0.  1.
       -2    1    3    3    0  502  0.32172246744E+03  0.22771377630E+03 -0.58556338081E+02  0.39848181227E+03  0.25500000920E-02 0. -1.
</event>
<event>
 5   0  0.3959804E-04  0.8995634E+03  0.7818609E-02  0.9426127E-01
       -2   -1    0    0    0  501  0.00000000000E+00  0.00000000000E+00  0.43836043881E+03  0.43836043882E+03  0.25500000920E-02 0.  1.
        2   -1    0    0  501    0  0.00000000000E+00  0.00000000000E+00 -0.46150056928E+03  0.46150056929E+03  0.25500000920E-02 0. -1.
    10030    2    1    2    0    0  0.00000000000E+00  0.00000000000E+00 -0.23140130464E+02  0.89986100811E+03  0.89956343205E+03 0.  0.
        5    1    3    3  502    0 -0.71271066893E+02 -0.21240717110E+03  0.37853987708E+03  0.43989873817E+03  0.46999998093E+01 0.  1.
       -5    1    3    3    0  502  0.71271066893E+02  0.21240717110E+03 -0.40168000754E+03  0.45996226994E+03  0.46999998093E+01 0. -1.
</event>
<event>
 5   0  0.2332791E-04  0.9002618E+03  0.7818609E-02  0.9425254E-01
        1   -1    0    0  501    0  0.00000000000E+00  0.00000000000E+00  0.35613270868E+03  0.35613270871E+03  0.50400001928E-02 0.  1.
       -1   -1    0    0    0  501  0.00000000000E+00  0.00000000000E+00 -0.56893911592E+03  0.56893911594E+03  0.50400001928E-02 0. -1.
    10030    2    1    2    0    0  0.00000000000E+00  0.00000000000E+00 -0.21280640724E+03  0.92507182465E+03  0.90026180292E+03 0.  0.
        2    1    3    3  502    0 -0.70361667297E+02  0.11371009972E+02 -0.56310392424E+03  0.56759677025E+03  0.25500000920E-02 0. -1.
       -2    1    3    3    0  502  0.70361667297E+02 -0.11371009972E+02  0.35029751700E+03  0.35747505440E+03  0.25500000920E-02 0.  1.
</event>
<event>
 5   0  0.4110039E-04  0.9003237E+03  0.7818609E-02  0.9425177E-01
        2   -1    0    0  501    0  0.00000000000E+00  0.00000000000E+00  0.25024156966E+04  0.25024156966E+04  0.25500000920E-02 0.  1.
       -2   -1    0    0    0  501  0.00000000000E+00  0.00000000000E+00 -0.80980036039E+02  0.80980036079E+02  0.25500000920E-02 0. -1.
    10030    2    1    2    0    0  0.00000000000E+00  0.00000000000E+00  0.24214356605E+04  0.25833957326E+04  0.90032374921E+03 0.  0.
        3    1    3    3  502    0  0.92769844348E+02  0.15448434074E+03  0.23944103302E+04  0.24011814790E+04  0.10100000352E+00 0.  1.
       -3    1    3    3    0  502 -0.92769844348E+02 -0.15448434074E+03  0.27025330342E+02  0.18221425365E+03  0.10100000352E+00 0. -1.
</event>
<event>
 5   0  0.1596250E-04  0.8999965E+03  0.7818609E-02  0.9425586E-01
        4   -1    0    0  501    0  0.00000000000E+00  0.00000000000E+00  0.31855349739E+03  0.31855602898E+03  0.12699999809E+01 0.  1.
       -4   -1    0    0    0  501  0.00000000000E+00  0.00000000000E+00 -0.63567535030E+03  0.63567661894E+03  0.12699999809E+01 0. -1.
    10030    2    1    2    0    0  0.00000000000E+00  0.00000000000E+00 -0.31712185291E+03  0.95423264792E+03  0.89999648709E+03 0.  0.
        1    1    3    3  502    0  0.29011280836E+03 -0.36243201786E+02 -0.52125662519E+03  0.59765163815E+03  0.50400001928E-02 0. -1.
       -1    1    3    3    0  502 -0.29011280836E+03  0.36243201786E+02  0.20413477228E+03  0.35658100977E+03  0.50400001928E-02 0.  1.
</event>
<event>
 5   0  0.4236284E-04  0.9003478E+03  0.7818609E-02  0.9425147E-01
        2   -1    0    0  501    0  0.00000000000E+00  0.00000000000E+00  0.41248567770E+03  0.41248567770E+03  0.25500000920E-02 0. -1.
       -2   -1    0    0    0  501  0.00000000000E+00  0.00000000000E+00 -0.49130568082E+03  0.49130568083E+03  0.25500000920E-02 0.  1.
    10030    2    1    2    0    0  0.00000000000E+00  0.00000000000E+00 -0.78820003127E+02  0.90379135853E+03  0.90034783660E+03 0.  0.
        2    1    3    3  502    0 -0.16790556694E+03 -0.13305096554E+03 -0.43685575973E+03  0.48655708160E+03  0.25500000920E-02 0.  1.
       -2    1    3    3    0  502  0.16790556694E+03  0.13305096554E+03  0.35803575660E+03  0.41723427694E+03  0.25500000920E-02 0. -1.
</event>
<event>
 5   0  0.2356918E-04  0.9001807E+03  0.7818609E-02  0.9425356E-01
        1   -1    0    0  501    0  0.00000000000E+00  0.00000000000E+00  0.28563893390E+03  0.28563893394E+03  0.50400001928E-02 0.  1.
       -1   -1    0    0    0  501  0.00000000000E+00  0.00000000000E+00 -0.70922170214E+03  0.70922170216E+03  0.50400001928E-02 0. -1.
    10030    2    1    2    0    0  0.00000000000E+00  0.00000000000E+00 -0.42358276825E+03  0.99486063610E+03  0.90018071725E+03 0.  0.
        5    1    3    3  502    0  0.30699412698E+03 -0.13861878667E+03 -0.54168064208E+03  0.63788758415E+03  0.46999998093E+01 0. -1.
       -5    1    3    3    0  502 -0.30699412698E+03  0.13861878667E+03  0.11809787383E+03  0.35697305195E+03  0.46999998093E+01 0.  1.
</event>
<event>
 5   0  0.4033144E-04  0.8996039E+03  0.7818609E-02  0.9426077E-01
        2   -1    0    0  501    0  0.00000000000E+00  0.00000000000E+00  0.55613205788E+03  0.55613205789E+03  0.25500000920E-02 0. -1.
       -2   -1    0    0    0  501  0.00000000000E+00  0.00000000000E+00 -0.36380168209E+03  0.36380168210E+03  0.25500000920E-02 0.  1.
    10030    2    1    2    0    0  0.00000000000E+00  0.00000000000E+00  0.19233037579E+03  0.91993373999E+03  0.89960386422E+03 0.  0.
        4    1    3    3  502    0 -0.58018197055E+02  0.41845073876E+03  0.25409969970E+03  0.49298620898E+03  0.12699999809E+01 0. -1.
       -4    1    3    3    0  502  0.58018197055E+02 -0.41845073876E+03 -0.61769323903E+02  0.42694753101E+03  0.12699999809E+01 0.  1.
</event>
<event>
 5   0  0.3959804E-04  0.8998434E+03  0.7818609E-02  0.9425777E-01
        2   -1    0    0  501    0  0.00000000000E+00  0.00000000000E+00  0.57737271262E+03  0.57737271263E+03  0.25500000920E-02 0.  1.
       -2   -1    0    0    0  501  0.00000000000E+00  0.00000000000E+00 -0.35060462993E+03  0.35060462994E+03  0.25500000920E-02 0. -1.
    10030    2    1    2    0    0  0.00000000000E+00  0.00000000000E+00  0.22676808269E+03  0.92797734257E+03  0.89984342249E+03 0.  0.
        5    1    3    3  502    0  0.61597884498E+02  0.20259513075E+03  0.52274361079E+03  0.56402310147E+03  0.46999998093E+01 0.  1.
       -5    1    3    3    0  502 -0.61597884498E+02 -0.20259513075E+03 -0.29597552810E+03  0.36395424110E+03  0.46999998093E+01 0. -1.
</event>
<event>
 5   0  0.2351435E-04  0.9000470E+03  0.7818609E-02  0.9425523E-01
       -1   -1    0    0    0  501  0.00000000000E+00  0.00000000000E+00  0.19168635446E+03  0.19168635452E+03  0.50400001928E-02 0. -1.
        1   -1    0    0  501    0  0.00000000000E+00  0.00000000000E+00 -0.10565236690E+04  0.10565236690E+04  0.50400001928E-02 0.  1.
    10030    2    1    2    0    0  0.00000000000E+00  0.00000000000E+00 -0.86483731453E+03  0.12482100235E+04  0.90004704445E+03 0.  0.
        4    1    3    3  502    0 -0.41335425239E+03  0.21989525414E+02 -0.67728025265E+03  0.79376031062E+03  0.12699999809E+01 0.  1.
       -4    1    3    3    0  502  0.41335425239E+03 -0.21989525414E+02 -0.18755706188E+03  0.45444971290E+03  0.12699999809E+01 0. -1.
</event>
<event>
 5   0  0.1596250E-04  0.9000351E+03  0.7818609E-02  0.9425538E-01
       -4   -1    0    0    0  501  0.00000000000E+00  0.00000000000E+00  0.66837648990E+03  0.66837769648E+03  0.12699999809E+01 0. -1.
        4   -1    0    0  501    0  0.00000000000E+00  0.00000000000E+00 -0.30299379018E+03  0.30299645177E+03  0.12699999809E+01 0.  1.
    10030    2    1    2    0    0  0.00000000000E+00  0.00000000000E+00  0.36538269973E+03  0.97137414825E+03  0.90003512078E+03 0.  0.
        3    1    3    3  502    0 -0.32045119289E+03 -0.89809948783E+02  0.50962238888E+03  0.60866229009E+03  0.10100000352E+00 0. -1.
       -3    1    3    3    0  502  0.32045119289E+03  0.89809948783E+02 -0.14423968915E+03  0.36271185817E+03  0.10100000352E+00 0.  1.
</event>
<event>
 5   0  0.3959804E-04  0.8994126E+03  0.7818609E-02  0.9426316E-01
        2   -1    0    0  501    0  0.00000000000E+00  0.00000000000E+00  0.81523915836E+03  0.81523915836E+03  0.25500000920E-02 0.  1.
       -2   -1    0    0    0  501  0.00000000000E+00  0.00000000000E+00 -0.24806924571E+03  0.24806924572E+03  0.25500000920E-02 0. -1.
    10030    2    1    2    0    0  0.00000000000E+00  0.00000000000E+00  0.56716991265E+03  0.10633084041E+04  0.89941261520E+03 0.  0.
        5    1    3    3  502    0  0.27085644713E+03 -0.23640437460E+03 -0.35754728356E+02  0.36131805087E+03  0.46999998093E+01 0. -1.
       -5    1    3    3    0  502 -0.27085644713E+03  0.23640437460E+03  0.60292464100E+03  0.70199035322E+03  0.46999998093E+01 0.  1.
</event>
<event>
 5   0  0.2450427E-04  0.9003577E+03  0.7818609E-02  0.9425134E-01
       -1   -1    0    0    0  501  0.00000000000E+00  0.00000000000E+00  0.34366286272E+03  0.34366286276E+03  0.50400001928E-02 0.  1.
        1   -1    0    0  501    0  0.00000000000E+00  0.00000000000E+00 -0.58970874351E+03  0.58970874353E+03  0.50400001928E-02 0. -1.
    10030    2    1    2    0    0  0.00000000000E+00  0.00000000000E+00 -0.24604588079E+03  0.93337160629E+03  0.90035769557E+03 0.  0.
        3    1    3    3  502    0 -0.87340061313E+02 -0.27415194714E+03 -0.48194564464E+03  0.56130133709E+03  0.10100000352E+00 0. -1.
       -3    1    3    3    0  502  0.87340061313E+02  0.27415194714E+03  0.23589976385E+03  0.37207026919E+03  0.10100000352E+00 0.  1.
</event>
<event>
 5   0  0.4243516E-04  0.8994173E+03  0.7818609E-02  0.9426310E-01
        2   -1    0    0  501    0  0.00000000000E+00  0.00000000000E+00  0.40302920626E+03  0.40302920627E+03  0.25500000920E-02 0.  1.
       -2   -1    0    0    0  501  0.00000000000E+00  0.00000000000E+00 -0.50179459977E+03  0.50179459977E+03  0.25500000920E-02 0. -1.
    10030    2    1    2    0    0  0.00000000000E+00  0.00000000000E+00 -0.98765393503E+02  0.90482380604E+03  0.89941732084E+03 0.  0.
        1    1    3    3  502    0  0.19530701185E+03 -0.27320118655E+03 -0.35026943570E+03  0.48525497918E+03  0.50400001928E-02 0. -1.
       -1    1    3    3    0  502 -0.19530701185E+03  0.27320118655E+03  0.25150404219E+03  0.41956882686E+03  0.50400001928E-02 0.  1.
</event>
<event>
 5   0  0.2308362E-04  0.8997000E+03  0.7818609E-02  0.9425957E-01
       -1   -1    0    0    0  501  0.00000000000E+00  0.00000000000E+00  0.52981136139E+03  0.52981136142E+03  0.50400001928E-02 0.  1.
        1   -1    0    0  501    0  0.00000000000E+00  0.00000000000E+00 -0.38195671804E+03  0.38195671807E+03  0.50400001928E-02 0. -1.
    10030    2    1    2    0    0  0.00000000000E+00  0.00000000000E+00  0.14785464336E+03  0.91176807949E+03  0.89969996955E+03 0.  0.
        1    1    3    3  502    0 -0.22347451841E+02 -0.59575824025E+02  0.52522791753E+03  0.52906809844E+03  0.50400001928E-02 0.  1.
       -1    1    3    3    0  502  0.22347451841E+02  0.59575824025E+02 -0.37737327417E+03  0.38269998105E+03  0.50400001928E-02 0. -1.
</event>
<event>
 5   0  0.4243516E-04  0.8999246E+03  0.7818609E-02  0.9425676E-01
       -2   -1    0    0    0  501  0.00000000000E+00  0.00000000000E+00  0.18203624640E+03  0.18203624641E+03  0.25500000920E-02 0.  1.
        2   -1    0    0  501    0  0.00000000000E+00  0.00000000000E+00 -0.11122293722E+04  0.11122293722E+04  0.25500000920E-02 0. -1.
    10030    2    1    2    0    0  0.00000000000E+00  0.00000000000E+00 -0.93019312578E+03  0.12942656186E+04  0.89992457474E+03 0.  0.
        1    1    3    3  502    0  0.10266471459E+03 -0.40398889226E+02  0.16228216485E+03  0.19623357237E+03  0.50400001928E-02 0.  1.
       -1    1    3    3    0  502 -0.10266471459E+03  0.40398889226E+02 -0.10924752906E+04  0.10980320462E+04  0.50400001928E-02 0. -1.
</event>
<event>
 5   0  0.4243516E-04  0.9016316E+03  0.7818609E-02  0.9423544E-01
       -2   -1    0    0    0  501  0.00000000000E+00  0.00000000000E+00  0.19107279687E+03  0.19107279689E+03  0.25500000920E-02 0. -1.
        2   -1    0    0  501    0  0.00000000000E+00  0.00000000000E+00 -0.10636515112E+04  0.10636515112E+04  0.25500000920E-02 0.  1.
    10030    2    1    2    0    0  0.00000000000E+00  0.00000000000E+00 -0.87257871436E+03  0.12547243081E+04  0.90163156370E+03 0.  0.
        1    1    3    3  502    0  0.11658937951E+03 -0.10806868235E+03  0.15077268062E+03  0.21909889266E+03  0.50400001928E-02 0. -1.
       -1    1    3    3    0  502 -0.11658937951E+03  0.10806868235E+03 -0.10233513950E+04  0.10356254155E+04  0.50400001928E-02 0.  1.
</event>
<event>
 5   0  0.3959804E-04  0.9000982E+03  0.7818609E-02  0.9425459E-01
        2   -1    0    0  501    0  0.00000000000E+00  0.00000000000E+00  0.29583655448E+03  0.29583655449E+03  0.25500000920E-02 0.  1.
       -2   -1    0    0    0  501  0.00000000000E+00  0.00000000000E+00 -0.68464904497E+03  0.68464904498E+03  0.25500000920E-02 0. -1.
    10030    2    1    2    0    0  0.00000000000E+00  0.00000000000E+00 -0.38881249049E+03  0.98048559947E+03  0.90009824909E+03 0.  0.
        5    1    3    3  502    0 -0.22391985017E+02 -0.12034557000E+03  0.27732599349E+03  0.30317693494E+03  0.46999998093E+01 0.  1.
       -5    1    3    3    0  502  0.22391985017E+02  0.12034557000E+03 -0.66613848398E+03  0.67730866453E+03  0.46999998093E+01 0. -1.
</event>
<event>
 5   0  0.4110039E-04  0.9001050E+03  0.7818609E-02  0.9425450E-01
        2   -1    0    0  501    0  0.00000000000E+00  0.00000000000E+00  0.66129146823E+03  0.66129146824E+03  0.25500000920E-02 0.  1.
       -2   -1    0    0    0  501  0.00000000000E+00  0.00000000000E+00 -0.30629040894E+03  0.30629040895E+03  0.25500000920E-02 0. -1.
    10030    2    1    2    0    0  0.00000000000E+00  0.00000000000E+00  0.35500105930E+03  0.96758187719E+03  0.90010495885E+03 0.  0.
        3    1    3    3  502    0  0.27255507226E+03 -0.11789702348E+03  0.54102530527E+03  0.61716640114E+03  0.10100000352E+00 0.  1.
       -3    1    3    3    0  502 -0.27255507226E+03  0.11789702348E+03 -0.18602424597E+03  0.35041547604E+03  0.10100000352E+00 0. -1.
</event>
<event>
 5   0  0.2332791E-04  0.9000867E+03  0.7818609E-02  0.9425473E-01
       -1   -1    0    0    0  501  0.00000000000E+00  0.00000000000E+00  0.59520972608E+03  0.59520972610E+03  0.50400001928E-02 0.  1.
        1   -1    0    0  501    0  0.00000000000E+00  0.00000000000E+00 -0.34028178422E+03  0.34028178426E+03  0.50400001928E-02 0. -1.
    10030    2    1    2    0    0  0.00000000000E+00  0.00000000000E+00  0.25492794186E+03  0.93549151036E+03  0.90008672383E+03 0.  0.
        2    1    3    3  502    0  0.84423001293E+02 -0.16246421543E+02 -0.33166782216E+03  0.34262914882E+03  0.25500000920E-02 0. -1.
       -2    1    3    3    0  502 -0.84423001293E+02  0.16246421543E+02  0.58659576402E+03  0.59286236154E+03  0.25500000920E-02 0.  1.
</event>
<event>
 5   0  0.2450427E-04  0.8997593E+03  0.7818609E-02  0.9425882E-01
       -1   -1    0    0    0  501  0.00000000000E+00  0.00000000000E+00  0.16503278565E+03  0.16503278573E+03  0.50400001928E-02 0. -1.
        1   -1    0    0  501    0  0.00000000000E+00  0.00000000000E+00 -0.12263728090E+04  0.12263728090E+04  0.50400001928E-02 0.  1.
    10030    2    1    2    0    0  0.00000000000E+00  0.00000000000E+00 -0.10613400233E+04  0.13914055947E+04  0.89975934777E+03 0.  0.
        3    1    3    3  502    0  0.12896737023E+03 -0.21479526468E+03  0.47165855642E+02  0.25493963296E+03  0.10100000352E+00 0. -1.
       -3    1    3    3    0  502 -0.12896737023E+03  0.21479526468E+03 -0.11085058790E+04  0.11364659618E+04  0.10100000352E+00 0.  1.
</event>
<event>
 5   0  0.2356918E-04  0.8996070E+03  0.7818609E-02  0.9426073E-01
       -1   -1    0    0    0  501  0.00000000000E+00  0.00000000000E+00  0.39015331878E+03  0.39015331881E+03  0.50400001928E-02 0. -1.
        1   -1    0    0  501    0  0.00000000000E+00  0.00000000000E+00 -0.51857350114E+03  0.51857350116E+03  0.50400001928E-02 0.  1.
    10030    2    1    2    0    0  0.00000000000E+00  0.00000000000E+00 -0.12842018236E+03  0.90872681997E+03  0.89960696424E+03 0.  0.
        5    1    3    3  502    0  0.98776471097E+01 -0.17792183765E+03 -0.48137042366E+03  0.51331600695E+03  0.46999998093E+01 0.  1.
       -5    1    3    3    0  502 -0.98776471097E+01  0.17792183765E+03  0.35295024129E+03  0.39541081302E+03  0.46999998093E+01 0. -1.
</event>
<event>
 5   0  0.1596250E-04  0.9000793E+03  0.7818609E-02  0.9425482E-01
        3   -1    0    0  501    0  0.00000000000E+00  0.00000000000E+00  0.19885450741E+03  0.19885453306E+03  0.10100000352E+00 0.  1.
       -3   -1    0    0    0  501  0.00000000000E+00  0.00000000000E+00 -0.10185117901E+04  0.10185117951E+04  0.10100000352E+00 0. -1.
    10030    2    1    2    0    0  0.00000000000E+00  0.00000000000E+00 -0.81965728264E+03  0.12173663281E+04  0.90007928310E+03 0.  0.
        3    1    3    3  502    0 -0.26528756213E+03  0.30637405068E+03 -0.14516097302E+03  0.43048143728E+03  0.10100000352E+00 0. -1.
       -3    1    3    3    0  502  0.26528756213E+03 -0.30637405068E+03 -0.67449630962E+03  0.78688489085E+03  0.10100000352E+00 0.  1.
</event>
<event>
 5   0  0.2332791E-04  0.8997485E+03  0.7818609E-02  0.9425896E-01
       -1   -1    0    0    0  501  0.00000000000E+00  0.00000000000E+00  0.13775089732E+04  0.13775089732E+04  0.50400001928E-02 0.  1.
        1   -1    0    0  501    0  0.00000000000E+00  0.00000000000E+00 -0.14692232351E+03  0.14692232360E+03  0.50400001928E-02 0. -1.
    10030    2    1    2    0    0  0.00000000000E+00  0.00000000000E+00  0.12305866497E+04  0.15244312968E+04  0.89974845167E+03 0.  0.
        2    1    3    3  502    0  0.26085076154E+03 -0.59114998941E+02  0.12281686619E+04  0.12569550370E+04  0.25500000920E-02 0.  1.
       -2    1    3    3    0  502 -0.26085076154E+03  0.59114998941E+02  0.24179877710E+01  0.26747625981E+03  0.25500000920E-02 0. -1.
</event>
<event>
 5   0  0.2308362E-04  0.8996681E+03  0.7818609E-02  0.9425996E-01
        1   -1    0    0  501    0  0.00000000000E+00  0.00000000000E+00  0.28573913846E+03  0.28573913851E+03  0.50400001928E-02 0. -1.
       -1   -1    0    0    0  501  0.00000000000E+00  0.00000000000E+00 -0.70816580357E+03  0.70816580359E+03  0.50400001928E-02 0.  1.
    10030    2    1    2    0    0  0.00000000000E+00  0.00000000000E+00 -0.42242666511E+03  0.99390494209E+03  0.89966813132E+03 0.  0.
        1    1    3    3  502    0  0.25524116822E+02  0.27983205063E+03  0.17685497688E+03  0.33201677665E+03  0.50400001928E-02 0. -1.
       -1    1    3    3    0  502 -0.25524116822E+02 -0.27983205063E+03 -0.59928164199E+03  0.66188816544E+03  0.50400001928E-02 0.  1.
</event>
<event>
 5   0  0.4243516E-04  0.8986717E+03  0.7818609E-02  0.9427243E-01
       -2   -1    0    0    0  501  0.00000000000E+00  0.00000000000E+00  0.15007913746E+03  0.15007913748E+03  0.25500000920E-02 0. -1.
        2   -1    0    0  501    0  0.00000000000E+00  0.00000000000E+00 -0.13453082177E+04  0.13453082177E+04  0.25500000920E-02 0.  1.
    10030    2    1    2    0    0  0.00000000000E+00  0.00000000000E+00 -0.11952290803E+04  0.14953873552E+04  0.89867167965E+03 0.  0.
        1    1    3    3  502    0  0.37045374036E+03 -0.14459562404E+03 -0.24952939279E+03  0.46947714122E+03  0.50400001928E-02 0. -1.
       -1    1    3    3    0  502 -0.37045374036E+03  0.14459562404E+03 -0.94569968749E+03  0.10259102140E+04  0.50400001928E-02 0.  1.
</event>
<event>
 5   0  0.2450427E-04  0.9001343E+03  0.7818609E-02  0.9425414E-01
       -1   -1    0    0    0  501  0.00000000000E+00  0.00000000000E+00  0.25391693475E+03  0.25391693480E+03  0.50400001928E-02 0.  1.
        1   -1    0    0  501    0  0.00000000000E+00  0.00000000000E+00 -0.79774284912E+03  0.79774284913E+03  0.50400001928E-02 0. -1.
    10030    2    1    2    0    0  0.00000000000E+00  0.00000000000E+00 -0.54382591437E+03  0.10516597839E+04  0.90013425443E+03 0.  0.
        3    1    3    3  502    0 -0.40355536083E+03  0.86115508184E+02 -0.48184844161E+03  0.63439005422E+03  0.10100000352E+00 0. -1.
       -3    1    3    3    0  502  0.40355536083E+03 -0.86115508184E+02 -0.61977472755E+02  0.41726972971E+03  0.10100000352E+00 0.  1.
</event>
<event>
 5   0  0.4236284E-04  0.9000223E+03  0.7818609E-02  0.9425554E-01
       -2   -1    0    0    0  501  0.00000000000E+00  0.00000000000E+00  0.32916227634E+03  0.32916227635E+03  0.25500000920E-02 0.  1.
        2   -1    0    0  501    0  0.00000000000E+00  0.00000000000E+00 -0.61522854043E+03  0.61522854043E+03  0.25500000920E-02 0. -1.
    10030    2    1    2    0    0  0.00000000000E+00  0.00000000000E+00 -0.28606626409E+03  0.94439081678E+03  0.90002228159E+03 0.  0.
        2    1    3    3  502    0  0.12410095155E+03  0.31232089220E+03 -0.45705998631E+03  0.56731756272E+03  0.25500000920E-02 0. -1.
       -2    1    3    3    0  502 -0.12410095155E+03 -0.31232089220E+03  0.17099372222E+03  0.37707325406E+03  0.25500000920E-02 0.  1.
</event>
<event>
 5   0  0.2356918E-04  0.9006170E+03  0.7818609E-02  0.9424810E-01
       -1   -1    0    0    0  501  0.00000000000E+00  0.00000000000E+00  0.23668597182E+03  0.23668597188E+03  0.50400001928E-02 0.  1.
        1   -1    0    0  501    0  0.00000000000E+00  0.00000000000E+00 -0.85673756999E+03  0.85673757001E+03  0.50400001928E-02 0. -1.
    10030    2    1    2    0    0  0.00000000000E+00  0.00000000000E+00 -0.62005159817E+03  0.10934235419E+04  0.90061704267E+03 0.  0.
        5    1    3    3  502    0  0.23365062749E+02 -0.44935537790E+03 -0.28936881184E+03  0.53499773931E+03  0.46999998093E+01 0.  1.
       -5    1    3    3    0  502 -0.23365062749E+02  0.44935537790E+03 -0.33068278633E+03  0.55842580257E+03  0.46999998093E+01 0. -1.
</event>
<event>
 5   0  0.4033144E-04  0.8998957E+03  0.7818609E-02  0.9425712E-01
        2   -1    0    0  501    0  0.00000000000E+00  0.00000000000E+00  0.44462206220E+03  0.44462206221E+03  0.25500000920E-02 0.  1.
       -2   -1    0    0    0  501  0.00000000000E+00  0.00000000000E+00 -0.45533740040E+03  0.45533740041E+03  0.25500000920E-02 0. -1.
    10030    2    1    2    0    0  0.00000000000E+00  0.00000000000E+00 -0.10715338201E+02  0.89995946262E+03  0.89989566944E+03 0.  0.
        4    1    3    3  502    0  0.23180390925E+03 -0.90712735353E+01 -0.39091852676E+03  0.45457039918E+03  0.12699999809E+01 0. -1.
       -4    1    3    3    0  502 -0.23180390925E+03  0.90712735353E+01  0.38020318856E+03  0.44538906344E+03  0.12699999809E+01 0.  1.
</event>
<event>
 5   0  0.4243516E-04  0.9001526E+03  0.7818609E-02  0.9425391E-01
        2   -1    0    0  501    0  0.00000000000E+00  0.00000000000E+00  0.70138734033E+03  0.70138734034E+03  0.25500000920E-02 0.  1.
       -2   -1    0    0    0  501  0.00000000000E+00  0.00000000000E+00 -0.28881145449E+03  0.28881145450E+03  0.25500000920E-02 0. -1.
    10030    2    1    2    0    0  0.00000000000E+00  0.00000000000E+00  0.41257588584E+03  0.99019879484E+03  0.90015264912E+03 0.  0.
        1    1    3    3  502    0 -0.31713762443E+03 -0.29276211535E+03  0.34665666915E+03  0.55358538212E+03  0.50400001928E-02 0.  1.
       -1    1    3    3    0  502  0.31713762443E+03  0.29276211535E+03  0.65919216697E+02  0.43661341272E+03  0.50400001928E-02 0. -1.
</event>
<event>
 5   0  0.4110039E-04  0.8997089E+03  0.7818609E-02  0.9425945E-01
       -2   -1    0    0    0  501  0.00000000000E+00  0.00000000000E+00  0.94049187078E+03  0.94049187078E+03  0.25500000920E-02 0. -1.
        2   -1    0    0  501    0  0.00000000000E+00  0.00000000000E+00 -0.21517361303E+03  0.21517361304E+03  0.25500000920E-02 0.  1.
    10030    2    1    2    0    0  0.00000000000E+00  0.00000000000E+00  0.72531825776E+03  0.11556654838E+04  0.89970891708E+03 0.  0.
        3    1    3    3  502    0  0.40663403610E+03 -0.18077458630E+03  0.27805499678E+03  0.52473353410E+03  0.10100000352E+00 0.  1.
       -3    1    3    3    0  502 -0.40663403610E+03  0.18077458630E+03  0.44726326097E+03  0.63093194973E+03  0.10100000352E+00 0. -1.
</event>
<event>
 5   0  0.2351435E-04  0.9002086E+03  0.7818609E-02  0.9425321E-01
        1   -1    0    0  501    0  0.00000000000E+00  0.00000000000E+00  0.57404280808E+03  0.57404280811E+03  0.50400001928E-02 0. -1.
       -1   -1    0    0    0  501  0.00000000000E+00  0.00000000000E+00 -0.35292467836E+03  0.35292467839E+03  0.50400001928E-02 0.  1.
    10030    2    1    2    0    0  0.00000000000E+00  0.00000000000E+00  0.22111812973E+03  0.92696748650E+03  0.90020858346E+03 0.  0.
        4    1    3    3  502    0 -0.85867465691E+01  0.37149516997E+03  0.37209684012E+03  0.52587076821E+03  0.12699999809E+01 0. -1.
       -4    1    3    3    0  502  0.85867465691E+01 -0.37149516997E+03 -0.15097871040E+03  0.40109671829E+03  0.12699999809E+01 0.  1.
</event>
<event>
 5   0  0.4033144E-04  0.8996487E+03  0.7818609E-02  0.9426021E-01
       -2   -1    0    0    0  501  0.00000000000E+00  0.00000000000E+00  0.17118289573E+03  0.17118289575E+03  0.25500000920E-02 0. -1.
        2   -1    0    0  501    0  0.00000000000E+00  0.00000000000E+00 -0.11820219891E+04  0.11820219891E+04  0.25500000920E-02 0.  1.
    10030    2    1    2    0    0  0.00000000000E+00  0.00000000000E+00 -0.10108390933E+04  0.13532048848E+04  0.89964870237E+03 0.  0.
        4    1    3    3  502    0 -0.34744796402E+03  0.27256420145E+03 -0.63418905314E+03  0.77279279217E+03  0.12699999809E+01 0. -1.
       -4    1    3    3    0  502  0.34744796402E+03 -0.27256420145E+03 -0.37665004020E+03  0.58041209265E+03  0.12699999809E+01 0.  1.
</event>
<event>
 5   0  0.4033144E-04  0.8989783E+03  0.7818609E-02  0.9426860E-01
       -2   -1    0    0    0  501  0.00000000000E+00  0.00000000000E+00  0.10227952653E+03  0.10227952657E+03  0.25500000920E-02 0.  1.
        2   -1    0    0  501    0  0.00000000000E+00  0.00000000000E+00 -0.19753757269E+04  0.19753757269E+04  0.25500000920E-02 0. -1.
    10030    2    1    2    0    0  0.00000000000E+00  0.00000000000E+00 -0.18730962004E+04  0.20776552535E+04  0.89897829587E+03 0.  0.
        4    1    3    3  502    0  0.39967064017E+03  0.19809078344E+03 -0.10644415485E+04  0.11541291099E+04  0.12699999809E+01 0. -1.
       -4    1    3    3    0  502 -0.39967064017E+03 -0.19809078344E+03 -0.80865465187E+03  0.92352614364E+03  0.12699999809E+01 0.  1.
</event>
<event>
 5   0  0.1596250E-04  0.8996459E+03  0.7818609E-02  0.9426024E-01
        4   -1    0    0  501    0  0.00000000000E+00  0.00000000000E+00  0.35982735551E+03  0.35982959671E+03  0.12699999809E+01 0.  1.
       -4   -1    0    0    0  501  0.00000000000E+00  0.00000000000E+00 -0.56232239065E+03  0.56232382479E+03  0.12699999809E+01 0. -1.
    10030    2    1    2    0    0  0.00000000000E+00  0.00000000000E+00 -0.20249503514E+03  0.92215342151E+03  0.89964587118E+03 0.  0.
        5    1    3    3  502    0 -0.28194814972E+03  0.26575056614E+03 -0.33543774018E+03  0.51250238055E+03  0.46999998093E+01 0. -1.
       -5    1    3    3    0  502  0.28194814972E+03 -0.26575056614E+03  0.13294270504E+03  0.40965104095E+03  0.46999998093E+01 0.  1.
</event>
<event>
 5   0  0.4243516E-04  0.9022331E+03  0.7818609E-02  0.9422794E-01
        2   -1    0    0  501    0  0.00000000000E+00  0.00000000000E+00  0.52407937025E+03  0.52407937025E+03  0.25500000920E-02 0. -1.
       -2   -1    0    0    0  501  0.00000000000E+00  0.00000000000E+00 -0.38831164307E+03  0.38831164308E+03  0.25500000920E-02 0.  1.
    10030    2    1    2    0    0  0.00000000000E+00  0.00000000000E+00  0.13576772717E+03  0.91239101333E+03  0.90223305496E+03 0.  0.
        1    1    3    3  502    0  0.34195163263E+03 -0.96938036536E+02 -0.21305359019E+03  0.41439079901E+03  0.50400001928E-02 0.  1.
       -1    1    3    3    0  502 -0.34195163263E+03  0.96938036536E+02  0.34882131737E+03  0.49800021432E+03  0.50400001928E-02 0. -1.
</event>
<event>
 5   0  0.2450427E-04  0.9001454E+03  0.7818609E-02  0.9425400E-01
       -1   -1    0    0    0  501  0.00000000000E+00  0.00000000000E+00  0.69310887260E+03  0.69310887261E+03  0.50400001928E-02 0. -1.
        1   -1    0    0  501    0  0.00000000000E+00  0.00000000000E+00 -0.29225628758E+03  0.29225628762E+03  0.50400001928E-02 0.  1.
    10030    2    1    2    0    0  0.00000000000E+00  0.00000000000E+00  0.40085258502E+03  0.98536516024E+03  0.90014537942E+03 0.  0.
        3    1    3    3  502    0  0.37496641532E+03 -0.15207416938E+03 -0.15307832058E+02  0.40492061633E+03  0.10100000352E+00 0.  1.
       -3    1    3    3    0  502 -0.37496641532E+03  0.15207416938E+03  0.41616041707E+03  0.58044454390E+03  0.10100000352E+00 0. -1.
</event>
<event>
 5   0  0.2356918E-04  0.9018361E+03  0.7818609E-02  0.9423289E-01
       -1   -1    0    0    0  501  0.00000000000E+00  0.00000000000E+00  0.62495494094E+03  0.62495494096E+03  0.50400001928E-02 0. -1.
        1   -1    0    0  501    0  0.00000000000E+00  0.00000000000E+00 -0.32534679490E+03  0.32534679494E+03  0.50400001928E-02 0.  1.
    10030    2    1    2    0    0  0.00000000000E+00  0.00000000000E+00  0.29960814604E+03  0.95030173589E+03  0.90183609823E+03 0.  0.
        5    1    3    3  502    0 -0.22028911564E+03 -0.11204944296E+03  0.54719527921E+03  0.60043911908E+03  0.46999998093E+01 0. -1.
       -5    1    3    3    0  502  0.22028911564E+03  0.11204944296E+03 -0.24758713316E+03  0.34986261681E+03  0.46999998093E+01 0.  1.
</event>
<event>
 5   0  0.2450427E-04  0.8998754E+03  0.7818609E-02  0.9425737E-01
        1   -1    0    0  501    0  0.00000000000E+00  0.00000000000E+00  0.55819608696E+03  0.55819608698E+03  0.50400001928E-02 0.  1.
       -1   -1    0    0    0  501  0.00000000000E+00  0.00000000000E+00 -0.36267526542E+03  0.36267526546E+03  0.50400001928E-02 0. -1.
    10030    2    1    2    0    0  0.00000000000E+00  0.00000000000E+00  0.19552082153E+03  0.92087135244E+03  0.89987535586E+03 0.  0.
        3    1    3    3  502    0  0.18756619984E+03  0.97061245475E+02  0.50432336940E+03  0.54675774875E+03  0.10100000352E+00 0.  1.
       -3    1    3    3    0  502 -0.18756619984E+03 -0.97061245475E+02 -0.30880254786E+03  0.37411360369E+03  0.10100000352E+00 0. -1.
</event>
<event>
 5   0  0.2332791E-04  0.8964170E+03  0.7818609E-02  0.9430071E-01
       -1   -1    0    0    0  501  0.00000000000E+00  0.00000000000E+00  0.71816004056E+03  0.71816004058E+03  0.50400001928E-02 0.  1.
        1   -1    0    0  501    0  0.00000000000E+00  0.00000000000E+00 -0.27972994538E+03  0.27972994543E+03  0.50400001928E-02 0. -1.
    10030    2    1    2    0    0  0.00000000000E+00  0.00000000000E+00  0.43843009518E+03  0.99788998600E+03  0.89641702115E+03 0.  0.
        2    1    3    3  502    0 -0.38536339693E+03 -0.93442326188E+02  0.45180280172E+03  0.60113408459E+03  0.25500000920E-02 0.  1.
       -2    1    3    3    0  502  0.38536339693E+03  0.93442326188E+02 -0.13372706538E+02  0.39675590141E+03  0.25500000920E-02 0. -1.
</event>
<event>
 5   0  0.4110039E-04  0.8999591E+03  0.7818609E-02  0.9425633E-01
       -2   -1    0    0    0  501  0.00000000000E+00  0.00000000000E+00  0.38437933306E+03  0.38437933307E+03  0.25500000920E-02 0.  1.
        2   -1    0    0  501    0  0.00000000000E+00  0.00000000000E+00 -0.52677540696E+03  0.52677540697E+03  0.25500000920E-02 0. -1.
    10030    2    1    2    0    0  0.00000000000E+00  0.00000000000E+00 -0.14239607390E+03  0.91115474004E+03  0.89995906486E+03 0.  0.
        3    1    3    3  502    0  0.33195612958E+02  0.37275225381E+03 -0.32417720244E+03  0.49511317921E+03  0.10100000352E+00 0. -1.
       -3    1    3    3    0  502 -0.33195612958E+02 -0.37275225381E+03  0.18178112854E+03  0.41604156083E+03  0.10100000352E+00 0.  1.
</event>
<event>
 5   0  0.3959804E-04  0.9015939E+03  0.7818609E-02  0.9423591E-01
        2   -1    0    0  501    0  0.00000000000E+00  0.00000000000E+00  0.26868892670E+03  0.26868892672E+03  0.25500000920E-02 0. -1.
       -2   -1    0    0    0  501  0.00000000000E+00  0.00000000000E+00 -0.75633139521E+03  0.75633139521E+03  0.25500000920E-02 0.  1.
    10030    2    1    2    0    0  0.00000000000E+00  0.00000000000E+00 -0.48764246851E+03  0.10250203219E+04  0.90159385717E+03 0.  0.
        5    1    3    3  502    0 -0.35981039705E+03 -0.99625621301E+01  0.64680633694E+02  0.36574369282E+03  0.46999998093E+01 0. -1.
       -5    1    3    3    0  502  0.35981039705E+03  0.99625621301E+01 -0.55232310220E+03  0.65927662911E+03  0.46999998093E+01 0.  1.
</event>
<event>
 5   0  0.4236284E-04  0.8999670E+03  0.7818609E-02  0.9425623E-01
        2   -1    0    0  501    0  0.00000000000E+00  0.00000000000E+00  0.21924857997E+03  0.21924857999E+03  0.25500000920E-02 0. -1.
       -2   -1    0    0    0  501  0.00000000000E+00  0.00000000000E+00 -0.92354152300E+03  0.92354152300E+03  0.25500000920E-02 0.  1.
    10030    2    1    2    0    0  0.00000000000E+00  0.00000000000E+00 -0.70429294303E+03  0.11427901030E+04  0.89996703823E+03 0.  0.
        2    1    3    3  502    0  0.17882519651E+03  0.27729539422E+03 -0.74066364815E+03  0.81083526456E+03  0.25500000920E-02 0.  1.
       -2    1    3    3    0  502 -0.17882519651E+03 -0.27729539422E+03  0.36370705122E+02  0.33195483843E+03  0.25500000920E-02 0. -1.
</event>
<event>
 5   0  0.2332791E-04  0.8998144E+03  0.7818609E-02  0.9425813E-01
        1   -1    0    0  501    0  0.00000000000E+00  0.00000000000E+00  0.18366668422E+04  0.18366668422E+04  0.50400001928E-02 0. -1.
       -1   -1    0    0    0  501  0.00000000000E+00  0.00000000000E+00 -0.11020860028E+03  0.11020860039E+03  0.50400001928E-02 0.  1.
    10030    2    1    2    0    0  0.00000000000E+00  0.00000000000E+00  0.17264582419E+04  0.19468754426E+04  0.89981438525E+03 0.  0.
        2    1    3    3  502    0  0.78600503483E+02  0.33391016373E+03  0.23338115494E+03  0.41489854191E+03  0.25500000920E-02 0.  1.
       -2    1    3    3    0  502 -0.78600503483E+02 -0.33391016373E+03  0.14930770870E+04  0.15319769007E+04  0.25500000920E-02 0. -1.
</event>
<event>
 5   0  0.4243516E-04  0.8998998E+03  0.7818609E-02  0.9425707E-01
       -2   -1    0    0    0  501  0.00000000000E+00  0.00000000000E+00  0.37360447952E+03  0.37360447953E+03  0.25500000920E-02 0.  1.
        2   -1    0    0  501    0  0.00000000000E+00  0.00000000000E+00 -0.54189642944E+03  0.54189642945E+03  0.25500000920E-02 0. -1.
    10030    2    1    2    0    0  0.00000000000E+00  0.00000000000E+00 -0.16829194992E+03  0.91550090898E+03  0.89989984662E+03 0.  0.
        1    1    3    3  502    0  0.22711906477E+03 -0.31741603140E+02 -0.47798046500E+03  0.53014707761E+03  0.50400001928E-02 0. -1.
       -1    1    3    3    0  502 -0.22711906477E+03  0.31741603140E+02  0.30968851508E+03  0.38535383137E+03  0.50400001928E-02 0.  1.
</event>
<event>
 5   0  0.1596250E-04  0.9038747E+03  0.7818609E-02  0.9420751E-01
       -3   -1    0    0    0  501  0.00000000000E+00  0.00000000000E+00  0.37030321569E+03  0.37030322947E+03  0.10100000352E+00 0. -1.
        3   -1    0    0  501    0  0.00000000000E+00  0.00000000000E+00 -0.55156783575E+03  0.55156784500E+03  0.10100000352E+00 0.  1.
    10030    2    1    2    0    0  0.00000000000E+00  0.00000000000E+00 -0.18126462006E+03  0.92187107447E+03  0.90387466800E+03 0.  0.
        2    1    3    3  502    0  0.19589996565E+03 -0.31969834609E+03 -0.34797232001E+03  0.51153549684E+03  0.25500000920E-02 0.  1.
       -2    1    3    3    0  502 -0.19589996565E+03  0.31969834609E+03  0.16670769995E+03  0.41033557762E+03  0.25500000920E-02 0. -1.
</event>
<event>
 5   0  0.1596250E-04  0.8998719E+03  0.7818609E-02  0.9425742E-01
       -4   -1    0    0    0  501  0.00000000000E+00  0.00000000000E+00  0.30763822544E+03  0.30764084685E+03  0.12699999809E+01 0. -1.
        4   -1    0    0  501    0  0.00000000000E+00  0.00000000000E+00 -0.65804727105E+03  0.65804849657E+03  0.12699999809E+01 0.  1.
    10030    2    1    2    0    0  0.00000000000E+00  0.00000000000E+00 -0.35040904562E+03  0.96568934342E+03  0.89987188463E+03 0.  0.
        3    1    3    3  502    0 -0.35667019872E+03 -0.27107309694E+03 -0.22007269031E+03  0.49912548899E+03  0.10100000352E+00 0.  1.
       -3    1    3    3    0  502  0.35667019872E+03  0.27107309694E+03 -0.13033635531E+03  0.46656385443E+03  0.10100000352E+00 0. -1.
</event>
<event>
 5   0  0.2308362E-04  0.9034780E+03  0.7818609E-02  0.9421244E-01
       -1   -1    0    0    0  501  0.00000000000E+00  0.00000000000E+00  0.15891153780E+03  0.15891153788E+03  0.50400001928E-02 0.  1.
        1   -1    0    0  501    0  0.00000000000E+00  0.00000000000E+00 -0.12841616762E+04  0.12841616762E+04  0.50400001928E-02 0. -1.
    10030    2    1    2    0    0  0.00000000000E+00  0.00000000000E+00 -0.11252501384E+04  0.14430732141E+04  0.90347796169E+03 0.  0.
        1    1    3    3  502    0 -0.19834247071E+03  0.36991885885E+03 -0.29588843216E+03  0.51354616359E+03  0.50400001928E-02 0.  1.
       -1    1    3    3    0  502  0.19834247071E+03 -0.36991885885E+03 -0.82936170621E+03  0.92952705048E+03  0.50400001928E-02 0. -1.
</event>
<event>
 5   0  0.1596250E-04  0.9000179E+03  0.7818609E-02  0.9425559E-01
        3   -1    0    0  501    0  0.00000000000E+00  0.00000000000E+00  0.66543340093E+03  0.66543340859E+03  0.10100000352E+00 0. -1.
       -3   -1    0    0    0  501  0.00000000000E+00  0.00000000000E+00 -0.30432500951E+03  0.30432502627E+03  0.10100000352E+00 0.  1.
    10030    2    1    2    0    0  0.00000000000E+00  0.00000000000E+00  0.36110839142E+03  0.96975843486E+03  0.90001786184E+03 0.  0.
        5    1    3    3  502    0  0.22843303292E+03 -0.33912739117E+03 -0.21878556920E+02  0.40949944960E+03  0.46999998093E+01 0.  1.
       -5    1    3    3    0  502 -0.22843303292E+03  0.33912739117E+03  0.38298694834E+03  0.56025898526E+03  0.46999998093E+01 0. -1.
</event>
<event>
 5   0  0.2450427E-04  0.9003252E+03  0.7818609E-02  0.9425175E-01
        1   -1    0    0  501    0  0.00000000000E+00  0.00000000000E+00  0.50989362587E+03  0.50989362590E+03  0.50400001928E-02 0.  1.
       -1   -1    0    0    0  501  0.00000000000E+00  0.00000000000E+00 -0.39742874833E+03  0.39742874836E+03  0.50400001928E-02 0. -1.
    10030    2    1    2    0    0  0.00000000000E+00  0.00000000000E+00  0.11246487754E+03  0.90732237426E+03  0.90032524243E+03 0.  0.
        3    1    3    3  502    0 -0.22817229307E+03 -0.13586305296E+03  0.42254744657E+03  0.49906684852E+03  0.10100000352E+00 0.  1.
       -3    1    3    3    0  502  0.22817229307E+03  0.13586305296E+03 -0.31008256903E+03  0.40825552575E+03  0.10100000352E+00 0. -1.
</event>
<event>
 5   0  0.2332791E-04  0.8995502E+03  0.7818609E-02  0.9426144E-01
       -1   -1    0    0    0  501  0.00000000000E+00  0.00000000000E+00  0.78677804700E+03  0.78677804702E+03  0.50400001928E-02 0. -1.
        1   -1    0    0  501    0  0.00000000000E+00  0.00000000000E+00 -0.25712160119E+03  0.25712160123E+03  0.50400001928E-02 0.  1.
    10030    2    1    2    0    0  0.00000000000E+00  0.00000000000E+00  0.52965644582E+03  0.10438996483E+04  0.89955017927E+03 0.  0.
        2    1    3    3  502    0 -0.22188506531E+03  0.35993968868E+03  0.86901229426E+02  0.43167277581E+03  0.25500000920E-02 0.  1.
       -2    1    3    3    0  502  0.22188506531E+03 -0.35993968868E+03  0.44275521639E+03  0.61222687244E+03  0.25500000920E-02 0. -1.
</event>
<event>
 5   0  0.2450427E-04  0.8999520E+03  0.7818609E-02  0.9425641E-01
        1   -1    0    0  501    0  0.00000000000E+00  0.00000000000E+00  0.30018873872E+03  0.30018873877E+03  0.50400001928E-02 0.  1.
       -1   -1    0    0    0  501  0.00000000000E+00  0.00000000000E+00 -0.67450360100E+03  0.67450360102E+03  0.50400001928E-02 0. -1.
    10030    2    1    2    0    0  0.00000000000E+00  0.00000000000E+00 -0.37431486228E+03  0.97469233979E+03  0.89995196601E+03 0.  0.
        3    1    3    3  502    0 -0.44509577548E+03  0.51342528739E+02 -0.14208292246E+03  0.47003603231E+03  0.10100000352E+00 0. -1.
       -3    1    3    3    0  502  0.44509577548E+03 -0.51342528739E+02 -0.23223193982E+03  0.50465630748E+03  0.10100000352E+00 0.  1.
</event>
<event>
 5   0  0.2351435E-04  0.9001005E+03  0.7818609E-02  0.9425456E-01
       -1   -1    0    0    0  501  0.00000000000E+00  0.00000000000E+00  0.18604847030E+03  0.18604847036E+03  0.50400001928E-02 0. -1.
        1   -1    0    0  501    0  0.00000000000E+00  0.00000000000E+00 -0.10886691179E+04  0.10886691179E+04  0.50400001928E-02 0.  1.
    10030    2    1    2    0    0  0.00000000000E+00  0.00000000000E+00 -0.90262064761E+03  0.12747175883E+04  0.90010049238E+03 0.  0.
        4    1    3    3  502    0 -0.27336831586E+03 -0.19868236145E+03 -0.87222926266E+03  0.93540922404E+03  0.12699999809E+01 0.  1.
       -4    1    3    3    0  502  0.27336831586E+03  0.19868236145E+03 -0.30391384944E+02  0.33930836424E+03  0.12699999809E+01 0. -1.
</event>
<event>
 5   0  0.2332791E-04  0.9000641E+03  0.7818609E-02  0.9425501E-01
        1   -1    0    0  501    0  0.00000000000E+00  0.00000000000E+00  0.41522865670E+03  0.41522865674E+03  0.50400001928E-02 0.  1.
       -1   -1    0    0    0  501  0.00000000000E+00  0.00000000000E+00 -0.48775254308E+03  0.48775254311E+03  0.50400001928E-02 0. -1.
    10030    2    1    2    0    0  0.00000000000E+00  0.00000000000E+00 -0.72523886379E+02  0.90298119985E+03  0.90006407171E+03 0.  0.
        2    1    3    3  502    0  0.29256978040E+03 -0.52292588651E+02  0.30276412266E+03  0.42426136427E+03  0.25500000920E-02 0.  1.
       -2    1    3    3    0  502 -0.29256978040E+03  0.52292588651E+02 -0.37528800904E+03  0.47871983557E+03  0.25500000920E-02 0. -1.
</event>
<event>
 5   0  0.4236284E-04  0.9000557E+03  0.7818609E-02  0.9425512E-01
       -2   -1    0    0    0  501  0.00000000000E+00  0.00000000000E+00  0.17251081688E+03  0.17251081690E+03  0.25500000920E-02 0. -1.
        2   -1    0    0  501    0  0.00000000000E+00  0.00000000000E+00 -0.11739846558E+04  0.11739846558E+04  0.25500000920E-02 0.  1.
    10030    2    1    2    0    0  0.00000000000E+00  0.00000000000E+00 -0.10014738389E+04  0.13464954727E+04  0.90005566936E+03 0.  0.
        2    1    3    3  502    0  0.49414994317E+02  0.33247466723E+03 -0.94840208386E+03  0.10062046306E+04  0.25500000920E-02 0.  1.
       -2    1    3    3    0  502 -0.49414994317E+02 -0.33247466723E+03 -0.53071755072E+02  0.34029084208E+03  0.25500000920E-02 0. -1.
</event>
<event>
 5   0  0.2332791E-04  0.9008162E+03  0.7818609E-02  0.9424562E-01
        1   -1    0    0  501    0  0.00000000000E+00  0.00000000000E+00  0.10777910595E+04  0.10777910595E+04  0.50400001928E-02 0. -1.
       -1   -1    0    0    0  501  0.00000000000E+00  0.00000000000E+00 -0.18822522430E+03  0.18822522437E+03  0.50400001928E-02 0.  1.
    10030    2    1    2    0    0  0.00000000000E+00  0.00000000000E+00  0.88956583518E+03  0.12660162839E+04  0.90081621649E+03 0.  0.
        2    1    3    3  502    0  0.16460544966E+03 -0.53798271717E+02  0.10291332322E+04  0.10436016566E+04  0.25500000920E-02 0. -1.
       -2    1    3    3    0  502 -0.16460544966E+03  0.53798271717E+02 -0.13956739701E+03  0.22241462725E+03  0.25500000920E-02 0.  1.
</event>
<event>
 5   0  0.2356918E-04  0.9000319E+03  0.7818609E-02  0.9425542E-01
        1   -1    0    0  501    0  0.00000000000E+00  0.00000000000E+00  0.52020066844E+03  0.52020066846E+03  0.50400001928E-02 0. -1.
       -1   -1    0    0    0  501  0.00000000000E+00  0.00000000000E+00 -0.38930047102E+03  0.38930047105E+03  0.50400001928E-02 0.  1.
    10030    2    1    2    0    0  0.00000000000E+00  0.00000000000E+00  0.13090019742E+03  0.90950113952E+03  0.90003192226E+03 0.  0.
        5    1    3    3  502    0  0.50318874840E+02 -0.19574894373E+03  0.47172809124E+03  0.51322423968E+03  0.46999998093E+01 0. -1.
       -5    1    3    3    0  502 -0.50318874840E+02  0.19574894373E+03 -0.34082789382E+03  0.39627689983E+03  0.46999998093E+01 0.  1.
</event>
<event>
 5   0  0.2356918E-04  0.9002203E+03  0.7818609E-02  0.9425306E-01
        1   -1    0    0  501    0  0.00000000000E+00  0.00000000000E+00  0.32548831285E+03  0.32548831289E+03  0.50400001928E-02 0.  1.
       -1   -1    0    0    0  501  0.00000000000E+00  0.00000000000E+00 -0.62244670584E+03  0.62244670586E+03  0.50400001928E-02 0. -1.
    10030    2    1    2    0    0  0.00000000000E+00  0.00000000000E+00 -0.29695839299E+03  0.94793501875E+03  0.90022025783E+03 0.  0.
        5    1    3    3  502    0 -0.34413364483E+03 -0.28580235253E+03 -0.20077105358E+03  0.49034891268E+03  0.46999998093E+01 0. -1.
       -5    1    3    3    0  502  0.34413364483E+03  0.28580235253E+03 -0.96187339403E+02  0.45758610607E+03  0.46999998093E+01 0.  1.
</event>
<event>
 5   0  0.4110039E-04  0.8999047E+03  0.7818609E-02  0.9425701E-01
       -2   -1    0    0    0  501  0.00000000000E+00  0.00000000000E+00  0.31640289190E+03  0.31640289191E+03  0.25500000920E-02 0. -1.
        2   -1    0    0  501    0  0.00000000000E+00  0.00000000000E+00 -0.63987125125E+03  0.63987125125E+03  0.25500000920E-02 0.  1.
    10030    2    1    2    0    0  0.00000000000E+00  0.00000000000E+00 -0.32346835935E+03  0.95627414316E+03  0.89990469350E+03 0.  0.
        3    1    3    3  502    0 -0.31144324327E+03 -0.60787036928E+02  0.17725468087E+03  0.36347103011E+03  0.10100000352E+00 0. -1.
       -3    1    3    3    0  502  0.31144324327E+03  0.60787036928E+02 -0.50072304022E+03  0.59280311305E+03  0.10100000352E+00 0.  1.
</event>
<event>
 5   0  0.4110039E-04  0.9001023E+03  0.7818609E-02  0.9425454E-01
        2   -1    0    0  501    0  0.00000000000E+00  0.00000000000E+00  0.10031751919E+04  0.10031751919E+04  0.25500000920E-02 0.  1.
       -2   -1    0    0    0  501  0.00000000000E+00  0.00000000000E+00 -0.20190496490E+03  0.20190496492E+03  0.25500000920E-02 0. -1.
    10030    2    1    2    0    0  0.00000000000E+00  0.00000000000E+00  0.80127022698E+03  0.12050801568E+04  0.90010233177E+03 0.  0.
        3    1    3    3  502    0 -0.15516548777E+03  0.13981616431E+03  0.93435686501E+03  0.95741717647E+03  0.10100000352E+00 0.  1.
       -3    1    3    3    0  502  0.15516548777E+03 -0.13981616431E+03 -0.13308663804E+03  0.24766298033E+03  0.10100000352E+00 0. -1.
</event>
<event>
 5   0  0.4033144E-04  0.9011643E+03  0.7818609E-02  0.9424127E-01
       -2   -1    0    0    0  501  0.00000000000E+00  0.00000000000E+00  0.91353318443E+02  0.91353318478E+02  0.25500000920E-02 0.  1.
        2   -1    0    0  501    0  0.00000000000E+00  0.00000000000E+00 -0.22224070510E+04  0.22224070510E+04  0.25500000920E-02 0. -1.
    10030    2    1    2    0    0  0.00000000000E+00  0.00000000000E+00 -0.21310537326E+04  0.23137603695E+04  0.90116426713E+03 0.  0.
        4    1    3    3  502    0 -0.26113684277E+03 -0.28577794946E+03 -0.47354059352E+03  0.61164024856E+03  0.12699999809E+01 0.  1.
       -4    1    3    3    0  502  0.26113684277E+03  0.28577794946E+03 -0.16575131391E+04  0.17021201210E+04  0.12699999809E+01 0. -1.
</event>
<event>
 5   0  0.4110039E-04  0.8996744E+03  0.7818609E-02  0.9425988E-01
        2   -1    0    0  501    0  0.00000000000E+00  0.00000000000E+00  0.24664944118E+04  0.24664944118E+04  0.25500000920E-02 0. -1.
       -2   -1    0    0    0  501  0.00000000000E+00  0.00000000000E+00 -0.82040942396E+02  0.82040942436E+02  0.25500000920E-02 0.  1.
    10030    2    1    2    0    0  0.00000000000E+00  0.00000000000E+00  0.23844534694E+04  0.25485353543E+04  0.89967444337E+03 0.  0.
        3    1    3    3  502    0  0.42712227290E+03 -0.81653580808E+02  0.15183326308E+04  0.15793779570E+04  0.10100000352E+00 0. -1.
       -3    1    3    3    0  502 -0.42712227290E+03  0.81653580808E+02  0.86612083868E+03  0.96915739726E+03  0.10100000352E+00 0.  1.
</event>
<event>
 5   0  0.4243516E-04  0.9001036E+03  0.7818609E-02  0.9425452E-01
       -2   -1    0    0    0  501  0.00000000000E+00  0.00000000000E+00  0.10297013653E+04  0.10297013653E+04  0.25500000920E-02 0. -1.
        2   -1    0    0  501    0  0.00000000000E+00  0.00000000000E+00 -0.19670425721E+03  0.19670425723E+03  0.25500000920E-02 0.  1.
    10030    2    1    2    0    0  0.00000000000E+00  0.00000000000E+00  0.83299710811E+03  0.12264056225E+04  0.90010364342E+03 0.  0.
        1    1    3    3  502    0 -0.30166020308E+03  0.33379343464E+03  0.43201611421E+03  0.62374262167E+03  0.50400001928E-02 0. -1.
       -1    1    3    3    0  502  0.30166020308E+03 -0.33379343464E+03  0.40098099390E+03  0.60266300087E+03  0.50400001928E-02 0.  1.
</event>
<event>
 5   0  0.3959804E-04  0.8997412E+03  0.7818609E-02  0.9425905E-01
        2   -1    0    0  501    0  0.00000000000E+00  0.00000000000E+00  0.12757625958E+04  0.12757625958E+04  0.25500000920E-02 0. -1.
       -2   -1    0    0    0  501  0.00000000000E+00  0.00000000000E+00 -0.15863733156E+03  0.15863733158E+03  0.25500000920E-02 0.  1.
    10030    2    1    2    0    0  0.00000000000E+00  0.00000000000E+00  0.11171252643E+04  0.14343999274E+04  0.89974123818E+03 0.  0.
        5    1    3    3  502    0 -0.39727247711E+03 -0.18697416303E+03  0.40254950515E+03  0.59569535235E+03  0.46999998093E+01 0.  1.
       -5    1    3    3    0  502  0.39727247711E+03  0.18697416303E+03  0.71457575912E+03  0.83870457506E+03  0.46999998093E+01 0. -1.
</event>
<event>
 5   0  0.3959804E-04  0.9009170E+03  0.7818609E-02  0.9424436E-01
       -2   -1    0    0    0  501  0.00000000000E+00  0.00000000000E+00  0.12412702033E+04  0.12412702033E+04  0.25500000920E-02 0. -1.
        2   -1    0    0  501    0  0.00000000000E+00  0.00000000000E+00 -0.16347196161E+03  0.16347196163E+03  0.25500000920E-02 0.  1.
    10030    2    1    2    0    0  0.00000000000E+00  0.00000000000E+00  0.10777982417E+04  0.14047421649E+04  0.90091703289E+03 0.  0.
        5    1    3    3  502    0 -0.22309414056E+03 -0.12792452890E+03 -0.37712768906E+02  0.25996158098E+03  0.46999998093E+01 0.  1.
       -5    1    3    3    0  502  0.22309414056E+03  0.12792452890E+03  0.11155110106E+04  0.11447805839E+04  0.46999998093E+01 0. -1.
</event>
<event>
 5   0  0.2450427E-04  0.9000481E+03  0.7818609E-02  0.9425521E-01
       -1   -1    0    0    0  501  0.00000000000E+00  0.00000000000E+00  0.21666268929E+03  0.21666268935E+03  0.50400001928E-02 0.  1.
        1   -1    0    0  501    0  0.00000000000E+00  0.00000000000E+00 -0.93473235059E+03  0.93473235060E+03  0.50400001928E-02 0. -1.
    10030    2    1    2    0    0  0.00000000000E+00  0.00000000000E+00 -0.71806966129E+03  0.11513950400E+04  0.90004805403E+03 0.  0.
        3    1    3    3  502    0 -0.15426781931E+03  0.41193741122E+03 -0.23746731723E+03  0.49988171380E+03  0.10100000352E+00 0.  1.
       -3    1    3    3    0  502  0.15426781931E+03 -0.41193741122E+03 -0.48060234406E+03  0.65151332615E+03  0.10100000352E+00 0. -1.
</event>
<event>
 5   0  0.1596250E-04  0.8996424E+03  0.7818609E-02  0.9426028E-01
       -3   -1    0    0    0  501  0.00000000000E+00  0.00000000000E+00  0.39066349535E+03  0.39066350840E+03  0.10100000352E+00 0. -1.
        3   -1    0    0  501    0  0.00000000000E+00  0.00000000000E+00 -0.51793710853E+03  0.51793711838E+03  0.10100000352E+00 0.  1.
    10030    2    1    2    0    0  0.00000000000E+00  0.00000000000E+00 -0.12727361319E+03  0.90860062678E+03  0.89964244363E+03 0.  0.
        3    1    3    3  502    0  0.57074513085E+02 -0.25165647555E+03  0.30847550387E+03  0.40217611617E+03  0.10100000352E+00 0. -1.
       -3    1    3    3    0  502 -0.57074513085E+02  0.25165647555E+03 -0.43574911706E+03  0.50642451061E+03  0.10100000352E+00 0.  1.
</event>
<event>
 5   0  0.2308362E-04  0.9000380E+03  0.7818609E-02  0.9425534E-01
        1   -1    0    0  501    0  0.00000000000E+00  0.00000000000E+00  0.80740408152E+03  0.80740408154E+03  0.50400001928E-02 0. -1.
       -1   -1    0    0    0  501  0.00000000000E+00  0.00000000000E+00 -0.25082495094E+03  0.25082495099E+03  0.50400001928E-02 0.  1.
    10030    2    1    2    0    0  0.00000000000E+00  0.00000000000E+00  0.55657913058E+03  0.10582290325E+04  0.90003797514E+03 0.  0.
        1    1    3    3  502    0 -0.12801687073E+03 -0.10268672563E+03 -0.21438661165E+03  0.26998981850E+03  0.50400001928E-02 0.  1.
       -1    1    3    3    0  502  0.12801687073E+03  0.10268672563E+03  0.77096574223E+03  0.78823921403E+03  0.50400001928E-02 0. -1.
</event>
<event>
 5   0  0.2450427E-04  0.8995951E+03  0.7818609E-02  0.9426088E-01
       -1   -1    0    0    0  501  0.00000000000E+00  0.00000000000E+00  0.55163788606E+03  0.55163788609E+03  0.50400001928E-02 0.  1.
        1   -1    0    0  501    0  0.00000000000E+00  0.00000000000E+00 -0.36675839307E+03  0.36675839310E+03  0.50400001928E-02 0. -1.
    10030    2    1    2    0    0  0.00000000000E+00  0.00000000000E+00  0.18487949300E+03  0.91839627919E+03  0.89959507485E+03 0.  0.
        3    1    3    3  502    0  0.39522849343E+02  0.44787652505E+03  0.79430698335E+02  0.45657932865E+03  0.10100000352E+00 0. -1.
       -3    1    3    3    0  502 -0.39522849343E+02 -0.44787652505E+03  0.10544879466E+03  0.46181695054E+03  0.10100000352E+00 0.  1.
</event>
<event>
 5   0  0.2351435E-04  0.8996532E+03  0.7818609E-02  0.9426015E-01
       -1   -1    0    0    0  501  0.00000000000E+00  0.00000000000E+00  0.38020950584E+03  0.38020950587E+03  0.50400001928E-02 0.  1.
        1   -1    0    0  501    0  0.00000000000E+00  0.00000000000E+00 -0.53219070256E+03  0.53219070259E+03  0.50400001928E-02 0. -1.
    10030    2    1    2    0    0  0.00000000000E+00  0.00000000000E+00 -0.15198119672E+03  0.91240020846E+03  0.89965318665E+03 0.  0.
        4    1    3    3  502    0 -0.42112406362E+03 -0.29941630214E+02  0.81451958878E+02  0.42997443260E+03  0.12699999809E+01 0.  1.
       -4    1    3    3    0  502  0.42112406362E+03  0.29941630214E+02 -0.23343315560E+03  0.48242577586E+03  0.12699999809E+01 0. -1.
</event>
<event>
 5   0  0.2351435E-04  0.9000787E+03  0.7818609E-02  0.9425483E-01
        1   -1    0    0  501    0  0.00000000000E+00  0.00000000000E+00  0.62938857102E+03  0.62938857104E+03  0.50400001928E-02 0.  1.
       -1   -1    0    0    0  501  0.00000000000E+00  0.00000000000E+00 -0.32179710998E+03  0.32179711002E+03  0.50400001928E-02 0. -1.
    10030    2    1    2    0    0  0.00000000000E+00  0.00000000000E+00  0.30759146104E+03  0.95118568107E+03  0.90007871487E+03 0.  0.
        4    1    3    3  502    0 -0.79994249098E+02 -0.32576738038E+03 -0.16325665401E+03  0.37306542856E+03  0.12699999809E+01 0. -1.
       -4    1    3    3    0  502  0.79994249098E+02  0.32576738038E+03  0.47084811505E+03  0.57812025250E+03  0.12699999809E+01 0.  1.
</event>
<event>
 5   0  0.4033144E-04  0.8999427E+03  0.7818609E-02  0.9425653E-01
       -2   -1    0    0    0  501  0.00000000000E+00  0.00000000000E+00  0.16903353147E+03  0.16903353149E+03  0.25500000920E-02 0.  1.
        2   -1    0    0  501    0  0.00000000000E+00  0.00000000000E+00 -0.11978345716E+04  0.11978345716E+04  0.25500000920E-02 0. -1.
    10030    2    1    2    0    0  0.00000000000E+00  0.00000000000E+00 -0.10288010401E+04  0.13668681031E+04  0.89994268211E+03 0.  0.
        4    1    3    3  502    0 -0.27347338100E+03 -0.80802421734E+02 -0.10430697033E+04  0.10813476500E+04  0.12699999809E+01 0. -1.
       -4    1    3    3    0  502  0.27347338100E+03  0.80802421734E+02  0.14268663119E+02  0.28552045307E+03  0.12699999809E+01 0.  1.
</event>
<event>
 5   0  0.3959804E-04  0.9000458E+03  0.7818609E-02  0.9425524E-01
       -2   -1    0    0    0  501  0.00000000000E+00  0.00000000000E+00  0.17320107744E+03  0.17320107746E+03  0.25500000920E-02 0.  1.
        2   -1    0    0  501    0  0.00000000000E+00  0.00000000000E+00 -0.11692804168E+04  0.11692804168E+04  0.25500000920E-02 0. -1.
    10030    2    1    2    0    0  0.00000000000E+00  0.00000000000E+00 -0.99607933932E+03  0.13424814942E+04  0.90004583889E+03 0.  0.
        5    1    3    3  502    0  0.44202438477E+03  0.80776265925E+02 -0.53421374065E+03  0.69808077797E+03  0.46999998093E+01 0. -1.
       -5    1    3    3    0  502 -0.44202438477E+03 -0.80776265925E+02 -0.46186559867E+03  0.64440071625E+03  0.46999998093E+01 0.  1.
</event>
<event>
 5   0  0.2351435E-04  0.8998731E+03  0.7818609E-02  0.9425740E-01
        1   -1    0    0  501    0  0.00000000000E+00  0.00000000000E+00  0.10581617192E+04  0.10581617192E+04  0.50400001928E-02 0. -1.
       -1   -1    0    0    0  501  0.00000000000E+00  0.00000000000E+00 -0.19131565501E+03  0.19131565508E+03  0.50400001928E-02 0.  1.
    10030    2    1    2    0    0  0.00000000000E+00  0.00000000000E+00  0.86684606416E+03  0.12494773743E+04  0.89987310764E+03 0.  0.
        4    1    3    3  502    0  0.32229464189E+03  0.28321660251E+03  0.24530349856E+03  0.49422757858E+03  0.12699999809E+01 0.  1.
       -4    1    3    3    0  502 -0.32229464189E+03 -0.28321660251E+03  0.62154256559E+03  0.75524979568E+03  0.12699999809E+01 0. -1.
</event>
<event>
 5   0  0.4110039E-04  0.8996178E+03  0.7818609E-02  0.9426059E-01
       -2   -1    0    0    0  501  0.00000000000E+00  0.00000000000E+00  0.13970321624E+03  0.13970321627E+03  0.25500000920E-02 0. -1.
        2   -1    0    0  501    0  0.00000000000E+00  0.00000000000E+00 -0.14482703485E+04  0.14482703485E+04  0.25500000920E-02 0.  1.
    10030    2    1    2    0    0  0.00000000000E+00  0.00000000000E+00 -0.13085671322E+04  0.15879735647E+04  0.89961775370E+03 0.  0.
        3    1    3    3  502    0 -0.42405006092E+03 -0.16629890762E+02 -0.39108448812E+03  0.57709799383E+03  0.10100000352E+00 0. -1.
       -3    1    3    3    0  502  0.42405006092E+03  0.16629890762E+02 -0.91748264411E+03  0.10108755709E+04  0.10100000352E+00 0.  1.
</event>
<event>
 5   0  0.4243516E-04  0.8998500E+03  0.7818609E-02  0.9425769E-01
        2   -1    0    0  501    0  0.00000000000E+00  0.00000000000E+00  0.19242120046E+04  0.19242120046E+04  0.25500000920E-02 0.  1.
       -2   -1    0    0    0  501  0.00000000000E+00  0.00000000000E+00 -0.10520281367E+03  0.10520281370E+03  0.25500000920E-02 0. -1.
    10030    2    1    2    0    0  0.00000000000E+00  0.00000000000E+00  0.18190091909E+04  0.20294148183E+04  0.89985002530E+03 0.  0.
        1    1    3    3  502    0 -0.12676929430E+03  0.45726379058E+02 -0.58615824073E+02  0.14695975835E+03  0.50400001928E-02 0. -1.
       -1    1    3    3    0  502  0.12676929430E+03 -0.45726379058E+02  0.18776250150E+04  0.18824550599E+04  0.50400001928E-02 0.  1.
</event>
<event>
 5   0  0.4236284E-04  0.9001987E+03  0.7818609E-02  0.9425333E-01
        2   -1    0    0  501    0  0.00000000000E+00  0.00000000000E+00  0.10747796531E+04  0.10747796531E+04  0.25500000920E-02 0.  1.
       -2   -1    0    0    0  501  0.00000000000E+00  0.00000000000E+00 -0.18849391579E+03  0.18849391581E+03  0.25500000920E-02 0. -1.
    10030    2    1    2    0    0  0.00000000000E+00  0.00000000000E+00  0.88628573735E+03  0.12632735690E+04  0.90019870128E+03 0.  0.
        2    1    3    3  502    0  0.19749308264E+03  0.29359486189E+03  0.83353022218E+03  0.90552420836E+03  0.25500000920E-02 0.  1.
       -2    1    3    3    0  502 -0.19749308264E+03 -0.29359486189E+03  0.52755515168E+02  0.35774936060E+03  0.25500000920E-02 0. -1.
</event>
<event>
 5   0  0.1596250E-04  0.8999172E+03  0.7818609E-02  0.9425685E-01
       -4   -1    0    0    0  501  0.00000000000E+00  0.00000000000E+00  0.12891098796E+03  0.12891724367E+03  0.12699999809E+01 0. -1.
        4   -1    0    0  501    0  0.00000000000E+00  0.00000000000E+00 -0.15705178244E+04  0.15705183379E+04  0.12699999809E+01 0.  1.
    10030    2    1    2    0    0  0.00000000000E+00  0.00000000000E+00 -0.14416068365E+04  0.16994355816E+04  0.89991723232E+03 0.  0.
        3    1    3    3  502    0  0.18918674432E+03 -0.35505872030E+03 -0.11013333575E+04  0.11725158820E+04  0.10100000352E+00 0.  1.
       -3    1    3    3    0  502 -0.18918674432E+03  0.35505872030E+03 -0.34027347896E+03  0.52691969955E+03  0.10100000352E+00 0. -1.
</event>
<event>
 5   0  0.2351435E-04  0.9000715E+03  0.7818609E-02  0.9425492E-01
        1   -1    0    0  501    0  0.00000000000E+00  0.00000000000E+00  0.10314649867E+04  0.10314649867E+04  0.50400001928E-02 0.  1.
       -1   -1    0    0    0  501  0.00000000000E+00  0.00000000000E+00 -0.19635391753E+03  0.19635391759E+03  0.50400001928E-02 0. -1.
    10030    2    1    2    0    0  0.00000000000E+00  0.00000000000E+00  0.83511106914E+03  0.12278189043E+04  0.90007153266E+03 0.  0.
        4    1    3    3  502    0  0.12477643708E+02 -0.41871081468E+03  0.19317240056E+03  0.46129342848E+03  0.12699999809E+01 0. -1.
       -4    1    3    3    0  502 -0.12477643708E+02  0.41871081468E+03  0.64193866858E+03  0.76652547579E+03  0.12699999809E+01 0.  1.
</event>
<event>
 5   0  0.3959804E-04  0.8999766E+03  0.7818609E-02  0.9425611E-01
        2   -1    0    0  501    0  0.00000000000E+00  0.00000000000E+00  0.86447412489E+03  0.86447412489E+03  0.25500000920E-02 0.  1.
       -2   -1    0    0    0  501  0.00000000000E+00  0.00000000000E+00 -0.23423428063E+03  0.23423428065E+03  0.25500000920E-02 0. -1.
    10030    2    1    2    0    0  0.00000000000E+00  0.00000000000E+00  0.63023984425E+03  0.10987084055E+04  0.89997661031E+03 0.  0.
        5    1    3    3  502    0 -0.26071145165E+03 -0.16491157778E+02 -0.13214812670E+03  0.29279282214E+03  0.46999998093E+01 0. -1.
       -5    1    3    3    0  502  0.26071145165E+03  0.16491157778E+02  0.76238797096E+03  0.80591558340E+03  0.46999998093E+01 0.  1.
</event>
<event>
 5   0  0.1596250E-04  0.8994519E+03  0.7818609E-02  0.9426267E-01
       -4   -1    0    0    0  501  0.00000000000E+00  0.00000000000E+00  0.16931932328E+03  0.16932408611E+03  0.12699999809E+01 0.  1.
        4   -1    0    0  501    0  0.00000000000E+00  0.00000000000E+00 -0.11944870477E+04  0.11944877229E+04  0.12699999809E+01 0. -1.
    10030    2    1    2    0    0  0.00000000000E+00  0.00000000000E+00 -0.10251677244E+04  0.13638118090E+04  0.89945193705E+03 0.  0.
        1    1    3    3  502    0 -0.27803237329E+03 -0.28160331664E+03 -0.18861615718E+03  0.43838166398E+03  0.50400001928E-02 0.  1.
       -1    1    3    3    0  502  0.27803237329E+03  0.28160331664E+03 -0.83655156727E+03  0.92543014499E+03  0.50400001928E-02 0. -1.
</event>
<event>
 5   0  0.2356918E-04  0.8994003E+03  0.7818609E-02  0.9426331E-01
       -1   -1    0    0    0  501  0.00000000000E+00  0.00000000000E+00  0.26115071275E+03  0.26115071280E+03  0.50400001928E-02 0.  1.
        1   -1    0    0  501    0  0.00000000000E+00  0.00000000000E+00 -0.77438135519E+03  0.77438135521E+03  0.50400001928E-02 0. -1.
    10030    2    1    2    0    0  0.00000000000E+00  0.00000000000E+00 -0.51323064245E+03  0.10355320680E+04  0.89940033996E+03 0.  0.
        5    1    3    3  502    0 -0.35082485951E+03  0.49353526182E+02 -0.57546945365E+03  0.67579659268E+03  0.46999998093E+01 0. -1.
       -5    1    3    3    0  502  0.35082485951E+03 -0.49353526182E+02  0.62238811200E+02  0.35973547533E+03  0.46999998093E+01 0.  1.
</event>
<event>
 5   0  0.2351435E-04  0.9003151E+03  0.7818609E-02  0.9425188E-01
       -1   -1    0    0    0  501  0.00000000000E+00  0.00000000000E+00  0.60815879648E+03  0.60815879650E+03  0.50400001928E-02 0.  1.
        1   -1    0    0  501    0  0.00000000000E+00  0.00000000000E+00 -0.33320546041E+03  0.33320546045E+03  0.50400001928E-02 0. -1.
    10030    2    1    2    0    0  0.00000000000E+00  0.00000000000E+00  0.27495333607E+03  0.94136425695E+03  0.90031512663E+03 0.  0.
        4    1    3    3  502    0  0.15428398962E+03  0.31674531516E+03  0.43044662484E+03  0.55625268886E+03  0.12699999809E+01 0.  1.
       -4    1    3    3    0  502 -0.15428398962E+03 -0.31674531516E+03 -0.15549328877E+03  0.38511156809E+03  0.12699999809E+01 0. -1.
</event>
<event>
 5   0  0.2450427E-04  0.9010231E+03  0.7818609E-02  0.9424303E-01
       -1   -1    0    0    0  501  0.00000000000E+00  0.00000000000E+00  0.23006118711E+03  0.23006118716E+03  0.50400001928E-02 0.  1.
        1   -1    0    0  501    0  0.00000000000E+00  0.00000000000E+00 -0.88220299926E+03  0.88220299927E+03  0.50400001928E-02 0. -1.
    10030    2    1    2    0    0  0.00000000000E+00  0.00000000000E+00 -0.65214181215E+03  0.11122641864E+04  0.90102312804E+03 0.  0.
        3    1    3    3  502    0  0.20469135648E+03 -0.32764398363E+03 -0.61216294132E+03  0.72387333723E+03  0.10100000352E+00 0. -1.
       -3    1    3    3    0  502 -0.20469135648E+03  0.32764398363E+03 -0.39978870828E+02  0.38839084920E+03  0.10100000352E+00 0.  1.
</event>
<event>
 5   0  0.1596250E-04  0.9000260E+03  0.7818609E-02  0.9425549E-01
       -3   -1    0    0    0  501  0.00000000000E+00  0.00000000000E+00  0.18017994244E+03  0.18017997075E+03  0.10100000352E+00 0.  1.
        3   -1    0    0  501    0  0.00000000000E+00  0.00000000000E+00 -0.11239413255E+04  0.11239413301E+04  0.10100000352E+00 0. -1.
    10030    2    1    2    0    0  0.00000000000E+00  0.00000000000E+00 -0.94376138308E+03  0.13041213008E+04  0.90002601019E+03 0.  0.
        4    1    3    3  502    0  0.14396668472E+03 -0.34118026754E+03 -0.84237746051E+03  0.92018029763E+03  0.12699999809E+01 0.  1.
       -4    1    3    3    0  502 -0.14396668472E+03  0.34118026754E+03 -0.10138392257E+03  0.38394100318E+03  0.12699999809E+01 0. -1.
</event>
<event>
 5   0  0.2356918E-04  0.9039886E+03  0.7818609E-02  0.9420609E-01
       -1   -1    0    0    0  501  0.00000000000E+00  0.00000000000E+00  0.10898737588E+03  0.10898737600E+03  0.50400001928E-02 0.  1.
        1   -1    0    0  501    0  0.00000000000E+00  0.00000000000E+00 -0.18745182575E+04  0.18745182575E+04  0.50400001928E-02 0. -1.
    10030    2    1    2    0    0  0.00000000000E+00  0.00000000000E+00 -0.17655308816E+04  0.19835056335E+04  0.90398855315E+03 0.  0.
        5    1    3    3  502    0  0.27212194126E+03  0.35121295701E+03 -0.10647076709E+04  0.11537007439E+04  0.46999998093E+01 0. -1.
       -5    1    3    3    0  502 -0.27212194126E+03 -0.35121295701E+03 -0.70082321075E+03  0.82980488960E+03  0.46999998093E+01 0.  1.
</event>
<event>
 5   0  0.2351435E-04  0.8998964E+03  0.7818609E-02  0.9425711E-01
       -1   -1    0    0    0  501  0.00000000000E+00  0.00000000000E+00  0.34302342786E+03  0.34302342790E+03  0.50400001928E-02 0. -1.
        1   -1    0    0  501    0  0.00000000000E+00  0.00000000000E+00 -0.59020274772E+03  0.59020274774E+03  0.50400001928E-02 0.  1.
    10030    2    1    2    0    0  0.00000000000E+00  0.00000000000E+00 -0.24717931986E+03  0.93322617564E+03  0.89989637111E+03 0.  0.
        4    1    3    3  502    0  0.41909038187E+03  0.16338051700E+03 -0.11214388292E+03  0.46358149757E+03  0.12699999809E+01 0. -1.
       -4    1    3    3    0  502 -0.41909038187E+03 -0.16338051700E+03 -0.13503543694E+03  0.46964467807E+03  0.12699999809E+01 0.  1.
</event>
<event>
 5   0  0.2356918E-04  0.9000113E+03  0.7818609E-02  0.9425567E-01
       -1   -1    0    0    0  501  0.00000000000E+00  0.00000000000E+00  0.39941639102E+03  0.39941639105E+03  0.50400001928E-02 0.  1.
        1   -1    0    0  501    0  0.00000000000E+00  0.00000000000E+00 -0.50700239072E+03  0.50700239074E+03  0.50400001928E-02 0. -1.
    10030    2    1    2    0    0  0.00000000000E+00  0.00000000000E+00 -0.10758599970E+03  0.90641878180E+03  0.90001125585E+03 0.  0.
        5    1    3    3  502    0 -0.10314904600E+02  0.44340141903E+02  0.39706649799E+03  0.39969530803E+03  0.46999998093E+01 0.  1.
       -5    1    3    3    0  502  0.10314904600E+02 -0.44340141903E+02 -0.50465249769E+03  0.50672347376E+03  0.46999998093E+01 0. -1.
</event>
<event>
 5   0  0.4243516E-04  0.9005186E+03  0.7818609E-02  0.9424933E-01
       -2   -1    0    0    0  501  0.00000000000E+00  0.00000000000E+00  0.11401390553E+03  0.11401390556E+03  0.25500000920E-02 0.  1.
        2   -1    0    0  501    0  0.00000000000E+00  0.00000000000E+00 -0.17781464392E+04  0.17781464392E+04  0.25500000920E-02 0. -1.
    10030    2    1    2    0    0  0.00000000000E+00  0.00000000000E+00 -0.16641325337E+04  0.18921603448E+04  0.90051856211E+03 0.  0.
        1    1    3    3  502    0 -0.24438869754E+03  0.10531679523E+03 -0.15952233404E+04  0.16172677480E+04  0.50400001928E-02 0. -1.
       -1    1    3    3    0  502  0.24438869754E+03 -0.10531679523E+03 -0.68909193294E+02  0.27489259682E+03  0.50400001928E-02 0.  1.
</event>
<event>
 5   0  0.2308362E-04  0.8999516E+03  0.7818609E-02  0.9425642E-01
        1   -1    0    0  501    0  0.00000000000E+00  0.00000000000E+00  0.24685610392E+04  0.24685610392E+04  0.50400001928E-02 0. -1.
       -1   -1    0    0    0  501  0.00000000000E+00  0.00000000000E+00 -0.82022764765E+02  0.82022764919E+02  0.50400001928E-02 0.  1.
    10030    2    1    2    0    0  0.00000000000E+00  0.00000000000E+00  0.23865382744E+04  0.25505838041E+04  0.89995155787E+03 0.  0.
        1    1    3    3  502    0 -0.24124354801E+03 -0.32401514319E+03  0.17550710953E+04  0.18009605249E+04  0.50400001928E-02 0. -1.
       -1    1    3    3    0  502  0.24124354801E+03  0.32401514319E+03  0.63146717909E+03  0.74962327924E+03  0.50400001928E-02 0.  1.
</event>
<event>
 5   0  0.4033144E-04  0.9005982E+03  0.7818609E-02  0.9424834E-01
        2   -1    0    0  501    0  0.00000000000E+00  0.00000000000E+00  0.71668191051E+03  0.71668191051E+03  0.25500000920E-02 0. -1.
       -2   -1    0    0    0  501  0.00000000000E+00  0.00000000000E+00 -0.28292787692E+03  0.28292787694E+03  0.25500000920E-02 0.  1.
    10030    2    1    2    0    0  0.00000000000E+00  0.00000000000E+00  0.43375403359E+03  0.99960978745E+03  0.90059822647E+03 0.  0.
        4    1    3    3  502    0 -0.31613670699E+02  0.23506371830E+03  0.64172928525E+03  0.68415821582E+03  0.12699999809E+01 0. -1.
       -4    1    3    3    0  502  0.31613670699E+02 -0.23506371830E+03 -0.20797525166E+03  0.31545157163E+03  0.12699999809E+01 0.  1.
</event>
<event>
 5   0  0.3959804E-04  0.8997459E+03  0.7818609E-02  0.9425899E-01
        2   -1    0    0  501    0  0.00000000000E+00  0.00000000000E+00  0.58096730896E+03  0.58096730896E+03  0.25500000920E-02 0. -1.
       -2   -1    0    0    0  501  0.00000000000E+00  0.00000000000E+00 -0.34835985867E+03  0.34835985868E+03  0.25500000920E-02 0.  1.
    10030    2    1    2    0    0  0.00000000000E+00  0.00000000000E+00  0.23260745029E+03  0.92932716764E+03  0.89974594113E+03 0.  0.
        5    1    3    3  502    0  0.51496832503E+02  0.40005127788E+02  0.57603423174E+03  0.57973257640E+03  0.46999998093E+01 0. -1.
       -5    1    3    3    0  502 -0.51496832503E+02 -0.40005127788E+02 -0.34342678145E+03  0.34959459124E+03  0.46999998093E+01 0.  1.
</event>
<event>
 5   0  0.2332791E-04  0.9005116E+03  0.7818609E-02  0.9424942E-01
       -1   -1    0    0    0  501  0.00000000000E+00  0.00000000000E+00  0.17394029648E+03  0.17394029655E+03  0.50400001928E-02 0. -1.
        1   -1    0    0  501    0  0.00000000000E+00  0.00000000000E+00 -0.11655163716E+04  0.11655163716E+04  0.50400001928E-02 0.  1.
    10030    2    1    2    0    0  0.00000000000E+00  0.00000000000E+00 -0.99157607508E+03  0.13394566681E+04  0.90051155078E+03 0.  0.
        2    1    3    3  502    0  0.15377786693E+03  0.11885216651E+03 -0.10999098041E+04  0.11169489903E+04  0.25500000920E-02 0.  1.
       -2    1    3    3    0  502 -0.15377786693E+03 -0.11885216651E+03  0.10833372900E+03  0.22250767781E+03  0.25500000920E-02 0. -1.
</event>
<event>
 5   0  0.2308362E-04  0.9003068E+03  0.7818609E-02  0.9425198E-01
        1   -1    0    0  501    0  0.00000000000E+00  0.00000000000E+00  0.46779024106E+03  0.46779024109E+03  0.50400001928E-02 0. -1.
       -1   -1    0    0    0  501  0.00000000000E+00  0.00000000000E+00 -0.43318149747E+03  0.43318149749E+03  0.50400001928E-02 0.  1.
    10030    2    1    2    0    0  0.00000000000E+00  0.00000000000E+00  0.34608743596E+02  0.90097173858E+03  0.90030678582E+03 0.  0.
        1    1    3    3  502    0 -0.17540743270E+03 -0.40030443742E+03 -0.90602291380E+02  0.44634088463E+03  0.50400001928E-02 0. -1.
       -1    1    3    3    0  502  0.17540743270E+03  0.40030443742E+03  0.12521103498E+03  0.45463085395E+03  0.50400001928E-02 0.  1.
</event>
<event>
 5   0  0.4236284E-04  0.9001795E+03  0.7818609E-02  0.9425357E-01
        2   -1    0    0  501    0  0.00000000000E+00  0.00000000000E+00  0.29607545725E+03  0.29607545726E+03  0.25500000920E-02 0. -1.
       -2   -1    0    0    0  501  0.00000000000E+00  0.00000000000E+00 -0.68422015825E+03  0.68422015826E+03  0.25500000920E-02 0.  1.
    10030    2    1    2    0    0  0.00000000000E+00  0.00000000000E+00 -0.38814470100E+03  0.98029561552E+03  0.90017952926E+03 0.  0.
        2    1    3    3  502    0  0.44770309348E+03 -0.30773960277E+02 -0.15641593441E+03  0.47523787842E+03  0.25500000920E-02 0.  1.
       -2    1    3    3    0  502 -0.44770309348E+03  0.30773960277E+02 -0.23172876659E+03  0.50505773710E+03  0.25500000920E-02 0. -1.
</event>
<event>
 5   0  0.2450427E-04  0.8994690E+03  0.7818609E-02  0.9426245E-01
        1   -1    0    0  501    0  0.00000000000E+00  0.00000000000E+00  0.51591586804E+03  0.51591586807E+03  0.50400001928E-02 0. -1.
       -1   -1    0    0    0  501  0.00000000000E+00  0.00000000000E+00 -0.39204285728E+03  0.39204285731E+03  0.50400001928E-02 0.  1.
    10030    2    1    2    0    0  0.00000000000E+00  0.00000000000E+00  0.12387301077E+03  0.90795872538E+03  0.89946902348E+03 0.  0.
        3    1    3    3  502    0  0.20758973175E+03  0.28653319407E+02  0.46362027319E+03  0.50878116844E+03  0.10100000352E+00 0. -1.
       -3    1    3    3    0  502 -0.20758973175E+03 -0.28653319407E+02 -0.33974726242E+03  0.39917755694E+03  0.10100000352E+00 0.  1.
</event>
<event>
 5   0  0.2450427E-04  0.8999989E+03  0.7818609E-02  0.9425583E-01
        1   -1    0    0  501    0  0.00000000000E+00  0.00000000000E+00  0.49752325070E+03  0.49752325072E+03  0.50400001928E-02 0.  1.
       -1   -1    0    0    0  501  0.00000000000E+00  0.00000000000E+00 -0.40701516537E+03  0.40701516541E+03  0.50400001928E-02 0. -1.
    10030    2    1    2    0    0  0.00000000000E+00  0.00000000000E+00  0.90508085321E+02  0.90453841613E+03  0.89999890708E+03 0.  0.
        3    1    3    3  502    0 -0.21177050889E+03  0.19330053162E+03  0.39382850139E+03  0.48714755738E+03  0.10100000352E+00 0.  1.
       -3    1    3    3    0  502  0.21177050889E+03 -0.19330053162E+03 -0.30332041607E+03  0.41739085874E+03  0.10100000352E+00 0. -1.
</event>
<event>
 5   0  0.4236284E-04  0.8998888E+03  0.7818609E-02  0.9425720E-01
       -2   -1    0    0    0  501  0.00000000000E+00  0.00000000000E+00  0.82482796472E+03  0.82482796472E+03  0.25500000920E-02 0.  1.
        2   -1    0    0  501    0  0.00000000000E+00  0.00000000000E+00 -0.24544505797E+03  0.24544505798E+03  0.25500000920E-02 0. -1.
    10030    2    1    2    0    0  0.00000000000E+00  0.00000000000E+00  0.57938290675E+03  0.10702730227E+04  0.89988876562E+03 0.  0.
        2    1    3    3  502    0  0.19730363391E+03 -0.31403078127E+03 -0.13312161937E+02  0.37110816375E+03  0.25500000920E-02 0. -1.
       -2    1    3    3    0  502 -0.19730363391E+03  0.31403078127E+03  0.59269506869E+03  0.69916485895E+03  0.25500000920E-02 0.  1.
</event>
<event>
 5   0  0.2450427E-04  0.9000831E+03  0.7818609E-02  0.9425478E-01
       -1   -1    0    0    0  501  0.00000000000E+00  0.00000000000E+00  0.28638735489E+03  0.28638735493E+03  0.50400001928E-02 0.  1.
        1   -1    0    0  501    0  0.00000000000E+00  0.00000000000E+00 -0.70721491941E+03  0.70721491943E+03  0.50400001928E-02 0. -1.
    10030    2    1    2    0    0  0.00000000000E+00  0.00000000000E+00 -0.42082756452E+03  0.99360227436E+03  0.90008312980E+03 0.  0.
        3    1    3    3  502    0  0.33639868377E+03 -0.17659828865E+03 -0.47669503228E+03  0.60958116277E+03  0.10100000352E+00 0.  1.
       -3    1    3    3    0  502 -0.33639868377E+03  0.17659828865E+03  0.55867467761E+02  0.38402111160E+03  0.10100000352E+00 0. -1.
</event>
<event>
 5   0  0.4110039E-04  0.8998326E+03  0.7818609E-02  0.9425791E-01
       -2   -1    0    0    0  501  0.00000000000E+00  0.00000000000E+00  0.11058968857E+03  0.11058968860E+03  0.25500000920E-02 0. -1.
        2   -1    0    0  501    0  0.00000000000E+00  0.00000000000E+00 -0.18304120246E+04  0.18304120246E+04  0.25500000920E-02 0.  1.
    10030    2    1    2    0    0  0.00000000000E+00  0.00000000000E+00 -0.17198223360E+04  0.19410017132E+04  0.89983264172E+03 0.  0.
        3    1    3    3  502    0 -0.20675480099E+03  0.39959605384E+03 -0.85912867325E+03  0.96980752801E+03  0.10100000352E+00 0. -1.
       -3    1    3    3    0  502  0.20675480099E+03 -0.39959605384E+03 -0.86069366276E+03  0.97119418516E+03  0.10100000352E+00 0.  1.
</event>
<event>
 5   0  0.4110039E-04  0.9002708E+03  0.7818609E-02  0.9425243E-01
        2   -1    0    0  501    0  0.00000000000E+00  0.00000000000E+00  0.68765841275E+03  0.68765841276E+03  0.25500000920E-02 0.  1.
       -2   -1    0    0    0  501  0.00000000000E+00  0.00000000000E+00 -0.29465481331E+03  0.29465481332E+03  0.25500000920E-02 0. -1.
    10030    2    1    2    0    0  0.00000000000E+00  0.00000000000E+00  0.39300359945E+03  0.98231322608E+03  0.90027076202E+03 0.  0.
        3    1    3    3  502    0 -0.14649712956E+03 -0.42470934552E+03  0.16598105516E+03  0.47894588213E+03  0.10100000352E+00 0. -1.
       -3    1    3    3    0  502  0.14649712956E+03  0.42470934552E+03  0.22702254428E+03  0.50336734395E+03  0.10100000352E+00 0.  1.
</event>
<event>
 5   0  0.4236284E-04  0.8993509E+03  0.7818609E-02  0.9426393E-01
       -2   -1    0    0    0  501  0.00000000000E+00  0.00000000000E+00  0.11665601761E+03  0.11665601764E+03  0.25500000920E-02 0. -1.
        2   -1    0    0  501    0  0.00000000000E+00  0.00000000000E+00 -0.17333697349E+04  0.17333697350E+04  0.25500000920E-02 0.  1.
    10030    2    1    2    0    0  0.00000000000E+00  0.00000000000E+00 -0.16167137173E+04  0.18500257526E+04  0.89935090004E+03 0.  0.
        2    1    3    3  502    0 -0.22839641802E+03 -0.36140282683E+03 -0.10951026864E+04  0.11755963681E+04  0.25500000920E-02 0.  1.
       -2    1    3    3    0  502  0.22839641802E+03  0.36140282683E+03 -0.52161103096E+03  0.67442938447E+03  0.25500000920E-02 0. -1.
</event>
<event>
 5   0  0.2351435E-04  0.9002058E+03  0.7818609E-02  0.9425324E-01
        1   -1    0    0  501    0  0.00000000000E+00  0.00000000000E+00  0.13413307140E+04  0.13413307140E+04  0.50400001928E-02 0. -1.
       -1   -1    0    0    0  501  0.00000000000E+00  0.00000000000E+00 -0.15103851492E+03  0.15103851501E+03  0.50400001928E-02 0.  1.
    10030    2    1    2    0    0  0.00000000000E+00  0.00000000000E+00  0.11902921991E+04  0.14923692290E+04  0.90020575233E+03 0.  0.
        4    1    3    3  502    0 -0.44490668583E+03  0.49846556388E+01  0.48241288681E+03  0.65627022799E+03  0.12699999809E+01 0. -1.
       -4    1    3    3    0  502  0.44490668583E+03 -0.49846556388E+01  0.70787931229E+03  0.83609900105E+03  0.12699999809E+01 0.  1.
</event>
<event>
 5   0  0.4243516E-04  0.9001931E+03  0.7818609E-02  0.9425340E-01
       -2   -1    0    0    0  501  0.00000000000E+00  0.00000000000E+00  0.54595930832E+03  0.54595930832E+03  0.25500000920E-02 0. -1.
        2   -1    0    0  501    0  0.00000000000E+00  0.00000000000E+00 -0.37106596009E+03  0.37106596010E+03  0.25500000920E-02 0.  1.
    10030    2    1    2    0    0  0.00000000000E+00  0.00000000000E+00  0.17489334822E+03  0.91702526842E+03  0.90019312354E+03 0.  0.
        1    1    3    3  502    0  0.30040034951E+03  0.13410449124E+03  0.40037537749E+03  0.51819381266E+03  0.50400001928E-02 0. -1.
       -1    1    3    3    0  502 -0.30040034951E+03 -0.13410449124E+03 -0.22548202927E+03  0.39883145576E+03  0.50400001928E-02 0.  1.
</event>
<event>
 5   0  0.4236284E-04  0.9008629E+03  0.7818609E-02  0.9424503E-01
       -2   -1    0    0    0  501  0.00000000000E+00  0.00000000000E+00  0.23121261302E+03  0.23121261304E+03  0.25500000920E-02 0. -1.
        2   -1    0    0  501    0  0.00000000000E+00  0.00000000000E+00 -0.87749747884E+03  0.87749747884E+03  0.25500000920E-02 0.  1.
    10030    2    1    2    0    0  0.00000000000E+00  0.00000000000E+00 -0.64628486582E+03  0.11087100919E+04  0.90086288638E+03 0.  0.
        2    1    3    3  502    0 -0.31002609572E+02  0.13456785528E+03  0.20451770548E+03  0.24677350209E+03  0.25500000920E-02 0. -1.
       -2    1    3    3    0  502  0.31002609572E+02 -0.13456785528E+03 -0.85080257130E+03  0.86193658978E+03  0.25500000920E-02 0.  1.
</event>
<event>
 5   0  0.4243516E-04  0.9003332E+03  0.7818609E-02  0.9425165E-01
       -2   -1    0    0    0  501  0.00000000000E+00  0.00000000000E+00  0.58899632891E+03  0.58899632892E+03  0.25500000920E-02 0.  1.
        2   -1    0    0  501    0  0.00000000000E+00  0.00000000000E+00 -0.34405983478E+03  0.34405983479E+03  0.25500000920E-02 0. -1.
    10030    2    1    2    0    0  0.00000000000E+00  0.00000000000E+00  0.24493649413E+03  0.93305616371E+03  0.90033322636E+03 0.  0.
        1    1    3    3  502    0  0.11939385662E+03  0.15148463327E+03  0.54400418186E+03  0.57718544422E+03  0.50400001928E-02 0.  1.
       -1    1    3    3    0  502 -0.11939385662E+03 -0.15148463327E+03 -0.29906768773E+03  0.35587071949E+03  0.50400001928E-02 0. -1.
</event>
<event>
 5   0  0.4110039E-04  0.8999577E+03  0.7818609E-02  0.9425634E-01
        2   -1    0    0  501    0  0.00000000000E+00  0.00000000000E+00  0.71979564522E+03  0.71979564522E+03  0.25500000920E-02 0.  1.
       -2   -1    0    0    0  501  0.00000000000E+00  0.00000000000E+00 -0.28130341452E+03  0.28130341453E+03  0.25500000920E-02 0. -1.
    10030    2    1    2    0    0  0.00000000000E+00  0.00000000000E+00  0.43849223069E+03  0.10010990598E+04  0.89995771627E+03 0.  0.
        3    1    3    3  502    0  0.86443394387E+02  0.22352765973E+03 -0.20440140045E+03  0.31498732959E+03  0.10100000352E+00 0. -1.
       -3    1    3    3    0  502 -0.86443394387E+02 -0.22352765973E+03  0.64289363115E+03  0.68611173016E+03  0.10100000352E+00 0.  1.
</event>
<event>
 5   0  0.2332791E-04  0.8999385E+03  0.7818609E-02  0.9425658E-01
        1   -1    0    0  501    0  0.00000000000E+00  0.00000000000E+00  0.21734426867E+03  0.21734426872E+03  0.50400001928E-02 0.  1.
       -1   -1    0    0    0  501  0.00000000000E+00  0.00000000000E+00 -0.93157432670E+03  0.93157432672E+03  0.50400001928E-02 0. -1.
    10030    2    1    2    0    0  0.00000000000E+00  0.00000000000E+00 -0.71423005804E+03  0.11489185954E+04  0.89993853298E+03 0.  0.
        2    1    3    3  502    0  0.27911103512E+03  0.20574994926E+03  0.89921704695E+01  0.34686722342E+03  0.25500000920E-02 0.  1.
       -2    1    3    3    0  502 -0.27911103512E+03 -0.20574994926E+03 -0.72322222851E+03  0.80205137202E+03  0.25500000920E-02 0. -1.
</event>
<event>
 5   0  0.4110039E-04  0.8999542E+03  0.7818609E-02  0.9425639E-01
       -2   -1    0    0    0  501  0.00000000000E+00  0.00000000000E+00  0.15344591771E+03  0.15344591773E+03  0.25500000920E-02 0. -1.
        2   -1    0    0  501    0  0.00000000000E+00  0.00000000000E+00 -0.13195489712E+04  0.13195489712E+04  0.25500000920E-02 0.  1.
    10030    2    1    2    0    0  0.00000000000E+00  0.00000000000E+00 -0.11661030535E+04  0.14729948890E+04  0.89995422743E+03 0.  0.
        3    1    3    3  502    0  0.36192538976E+03  0.73793091560E+02 -0.10036788227E+04  0.10694889422E+04  0.10100000352E+00 0.  1.
       -3    1    3    3    0  502 -0.36192538976E+03 -0.73793091560E+02 -0.16242423079E+03  0.40350594675E+03  0.10100000352E+00 0. -1.
</event>
<event>
 5   0  0.4033144E-04  0.9006725E+03  0.7818609E-02  0.9424741E-01
       -2   -1    0    0    0  501  0.00000000000E+00  0.00000000000E+00  0.19904180515E+03  0.19904180516E+03  0.25500000920E-02 0. -1.
        2   -1    0    0  501    0  0.00000000000E+00  0.00000000000E+00 -0.10188952089E+04  0.10188952089E+04  0.25500000920E-02 0.  1.
    10030    2    1    2    0    0  0.00000000000E+00  0.00000000000E+00 -0.81985340377E+03  0.12179370141E+04  0.90067250797E+03 0.  0.
        4    1    3    3  502    0 -0.14319581249E+03  0.42665683183E+03 -0.38812077391E+03  0.59428986269E+03  0.12699999809E+01 0.  1.
       -4    1    3    3    0  502  0.14319581249E+03 -0.42665683183E+03 -0.43173262986E+03  0.62364715139E+03  0.12699999809E+01 0. -1.
</event>
<event>
 5   0  0.2308362E-04  0.8998772E+03  0.7818609E-02  0.9425735E-01
       -1   -1    0    0    0  501  0.00000000000E+00  0.00000000000E+00  0.13820371511E+03  0.13820371520E+03  0.50400001928E-02 0.  1.
        1   -1    0    0  501    0  0.00000000000E+00  0.00000000000E+00 -0.14648285004E+04  0.14648285004E+04  0.50400001928E-02 0. -1.
    10030    2    1    2    0    0  0.00000000000E+00  0.00000000000E+00 -0.13266247853E+04  0.16030322156E+04  0.89987719349E+03 0.  0.
        1    1    3    3  502    0 -0.20904266807E+03 -0.25302062793E+03 -0.12115826310E+04  0.12552492768E+04  0.50400001928E-02 0. -1.
       -1    1    3    3    0  502  0.20904266807E+03  0.25302062793E+03 -0.11504215432E+03  0.34778293881E+03  0.50400001928E-02 0.  1.
</event>
<event>
 5   0  0.2332791E-04  0.9002189E+03  0.7818609E-02  0.9425308E-01
       -1   -1    0    0    0  501  0.00000000000E+00  0.00000000000E+00  0.45075474456E+03  0.45075474458E+03  0.50400001928E-02 0. -1.
        1   -1    0    0  501    0  0.00000000000E+00  0.00000000000E+00 -0.44946505252E+03  0.44946505255E+03  0.50400001928E-02 0.  1.
    10030    2    1    2    0    0  0.00000000000E+00  0.00000000000E+00  0.12896920345E+01  0.90021979713E+03  0.90021887330E+03 0.  0.
        2    1    3    3  502    0  0.22850482052E+03 -0.23012500094E+03 -0.31148771534E+03  0.44966272458E+03  0.25500000920E-02 0.  1.
       -2    1    3    3    0  502 -0.22850482052E+03  0.23012500094E+03  0.31277740738E+03  0.45055707256E+03  0.25500000920E-02 0. -1.
</event>
<event>
 5   0  0.2356918E-04  0.8993250E+03  0.7818609E-02  0.9426426E-01
        1   -1    0    0  501    0  0.00000000000E+00  0.00000000000E+00  0.25386467285E+03  0.25386467290E+03  0.50400001928E-02 0.  1.
       -1   -1    0    0    0  501  0.00000000000E+00  0.00000000000E+00 -0.79647307883E+03  0.79647307885E+03  0.50400001928E-02 0. -1.
    10030    2    1    2    0    0  0.00000000000E+00  0.00000000000E+00 -0.54260840599E+03  0.10503377517E+04  0.89932503051E+03 0.  0.
        5    1    3    3  502    0 -0.21361770151E+03  0.29909463141E+03 -0.57380206465E+03  0.68144040116E+03  0.46999998093E+01 0. -1.
       -5    1    3    3    0  502  0.21361770151E+03 -0.29909463141E+03  0.31193658660E+02  0.36889735059E+03  0.46999998093E+01 0.  1.
</event>
<event>
 5   0  0.2356918E-04  0.9000688E+03  0.7818609E-02  0.9425495E-01
        1   -1    0    0  501    0  0.00000000000E+00  0.00000000000E+00  0.31007072972E+03  0.31007072977E+03  0.50400001928E-02 0. -1.
       -1   -1    0    0    0  501  0.00000000000E+00  0.00000000000E+00 -0.65317668345E+03  0.65317668347E+03  0.50400001928E-02 0.  1.
    10030    2    1    2    0    0  0.00000000000E+00  0.00000000000E+00 -0.34310595372E+03  0.96324741323E+03  0.90006882160E+03 0.  0.
        5    1    3    3  502    0  0.35507555272E+03  0.96365788704E+02  0.10575688217E+03  0.38284673369E+03  0.46999998093E+01 0. -1.
       -5    1    3    3    0  502 -0.35507555272E+03 -0.96365788704E+02 -0.44886283589E+03  0.58040067954E+03  0.46999998093E+01 0.  1.
</event>
<event>
 5   0  0.2308362E-04  0.9000112E+03  0.7818609E-02  0.9425567E-01
       -1   -1    0    0    0  501  0.00000000000E+00  0.00000000000E+00  0.33352410473E+03  0.33352410476E+03  0.50400001928E-02 0.  1.
        1   -1    0    0  501    0  0.00000000000E+00  0.00000000000E+00 -0.60716768113E+03  0.60716768115E+03  0.50400001928E-02 0. -1.
    10030    2    1    2    0    0  0.00000000000E+00  0.00000000000E+00 -0.27364357641E+03  0.94069178592E+03  0.90001123836E+03 0.  0.
        1    1    3    3  502    0 -0.67265865476E+02 -0.38729784978E+03  0.92124113029E+02  0.40374642206E+03  0.50400001928E-02 0.  1.
       -1    1    3    3    0  502  0.67265865476E+02  0.38729784978E+03 -0.36576768943E+03  0.53694536385E+03  0.50400001928E-02 0. -1.
</event>
<event>
 5   0  0.4033144E-04  0.9002357E+03  0.7818609E-02  0.9425287E-01
       -2   -1    0    0    0  501  0.00000000000E+00  0.00000000000E+00  0.71587556094E+03  0.71587556095E+03  0.25500000920E-02 0.  1.
        2   -1    0    0  501    0  0.00000000000E+00  0.00000000000E+00 -0.28301854432E+03  0.28301854433E+03  0.25500000920E-02 0. -1.
    10030    2    1    2    0    0  0.00000000000E+00  0.00000000000E+00  0.43285701662E+03  0.99889410528E+03  0.90023565622E+03 0.  0.
        4    1    3    3  502    0 -0.29052821218E+03  0.24846493863E+02 -0.16405059543E+03  0.33457166809E+03  0.12699999809E+01 0. -1.
       -4    1    3    3    0  502  0.29052821218E+03 -0.24846493863E+02  0.59690761205E+03  0.66432243719E+03  0.12699999809E+01 0.  1.
</event>
<event>
 5   0  0.2308362E-04  0.8995130E+03  0.7818609E-02  0.9426190E-01
        1   -1    0    0  501    0  0.00000000000E+00  0.00000000000E+00  0.10334428364E+04  0.10334428364E+04  0.50400001928E-02 0.  1.
       -1   -1    0    0    0  501  0.00000000000E+00  0.00000000000E+00 -0.19573499228E+03  0.19573499234E+03  0.50400001928E-02 0. -1.
    10030    2    1    2    0    0  0.00000000000E+00  0.00000000000E+00  0.83770784414E+03  0.12291778288E+04  0.89951303637E+03 0.  0.
        1    1    3    3  502    0  0.86957173796E+02 -0.35686536480E+03  0.77352780241E+03  0.85630584477E+03  0.50400001928E-02 0.  1.
       -1    1    3    3    0  502 -0.86957173796E+02  0.35686536480E+03  0.64180041727E+02  0.37287198400E+03  0.50400001928E-02 0. -1.
</event>
<event>
 5   0  0.3959804E-04  0.9008597E+03  0.7818609E-02  0.9424507E-01
       -2   -1    0    0    0  501  0.00000000000E+00  0.00000000000E+00  0.11111302777E+03  0.11111302780E+03  0.25500000920E-02 0. -1.
        2   -1    0    0  501    0  0.00000000000E+00  0.00000000000E+00 -0.18259519040E+04  0.18259519040E+04  0.25500000920E-02 0.  1.
    10030    2    1    2    0    0  0.00000000000E+00  0.00000000000E+00 -0.17148388763E+04  0.19370649318E+04  0.90085968861E+03 0.  0.
        5    1    3    3  502    0  0.44572301301E+03 -0.17881735145E+02 -0.99129144379E+03  0.10870462627E+04  0.46999998093E+01 0.  1.
       -5    1    3    3    0  502 -0.44572301301E+03  0.17881735145E+02 -0.72354743249E+03  0.85001866911E+03  0.46999998093E+01 0. -1.
</event>
<event>
 5   0  0.3959804E-04  0.9008983E+03  0.7818609E-02  0.9424459E-01
        2   -1    0    0  501    0  0.00000000000E+00  0.00000000000E+00  0.49742404547E+03  0.49742404547E+03  0.25500000920E-02 0.  1.
       -2   -1    0    0    0  501  0.00000000000E+00  0.00000000000E+00 -0.40791042888E+03  0.40791042888E+03  0.25500000920E-02 0. -1.
    10030    2    1    2    0    0  0.00000000000E+00  0.00000000000E+00  0.89513616591E+02  0.90533447436E+03  0.90089834216E+03 0.  0.
        5    1    3    3  502    0 -0.39018716391E+03 -0.13352598001E+03  0.22677615829E+03  0.47066413310E+03  0.46999998093E+01 0.  1.
       -5    1    3    3    0  502  0.39018716391E+03  0.13352598001E+03 -0.13726254170E+03  0.43467034126E+03  0.46999998093E+01 0. -1.
</event>
<event>
 5   0  0.3959804E-04  0.8993023E+03  0.7818609E-02  0.9426454E-01
       -2   -1    0    0    0  501  0.00000000000E+00  0.00000000000E+00  0.29174076161E+03  0.29174076162E+03  0.25500000920E-02 0.  1.
        2   -1    0    0  501    0  0.00000000000E+00  0.00000000000E+00 -0.69303357864E+03  0.69303357865E+03  0.25500000920E-02 0. -1.
    10030    2    1    2    0    0  0.00000000000E+00  0.00000000000E+00 -0.40129281703E+03  0.98477434027E+03  0.89930227191E+03 0.  0.
        5    1    3    3  502    0 -0.20570335186E+03  0.26758905550E+03 -0.52594279788E+03  0.62494454812E+03  0.46999998093E+01 0. -1.
       -5    1    3    3    0  502  0.20570335186E+03 -0.26758905550E+03  0.12464998085E+03  0.35982979215E+03  0.46999998093E+01 0.  1.
</event>
<event>
 5   0  0.4236284E-04  0.9000419E+03  0.7818609E-02  0.9425529E-01
       -2   -1    0    0    0  501  0.00000000000E+00  0.00000000000E+00  0.14491439965E+03  0.14491439967E+03  0.25500000920E-02 0. -1.
        2   -1    0    0  501    0  0.00000000000E+00  0.00000000000E+00 -0.13975066595E+04  0.13975066595E+04  0.25500000920E-02 0.  1.
    10030    2    1    2    0    0  0.00000000000E+00  0.00000000000E+00 -0.12525922598E+04  0.15424210591E+04  0.90004186255E+03 0.  0.
        2    1    3    3  502    0  0.26822367658E+03  0.24055804793E+03 -0.16420511578E+03  0.39594877845E+03  0.25500000920E-02 0. -1.
       -2    1    3    3    0  502 -0.26822367658E+03 -0.24055804793E+03 -0.10883871440E+04  0.11464722807E+04  0.25500000920E-02 0.  1.
</event>
<event>
 5   0  0.2351435E-04  0.9000808E+03  0.7818609E-02  0.9425480E-01
       -1   -1    0    0    0  501  0.00000000000E+00  0.00000000000E+00  0.55953298565E+03  0.55953298567E+03  0.50400001928E-02 0. -1.
        1   -1    0    0  501    0  0.00000000000E+00  0.00000000000E+00 -0.36197395635E+03  0.36197395638E+03  0.50400001928E-02 0.  1.
    10030    2    1    2    0    0  0.00000000000E+00  0.00000000000E+00  0.19755902930E+03  0.92150694205E+03  0.90008081537E+03 0.  0.
        4    1    3    3  502    0 -0.20583324616E+03 -0.19757256931E+03 -0.25754644616E+03  0.38436184800E+03  0.12699999809E+01 0.  1.
       -4    1    3    3    0  502  0.20583324616E+03  0.19757256931E+03  0.45510547546E+03  0.53714509405E+03  0.12699999809E+01 0. -1.
</event>
<event>
 5   0  0.4243516E-04  0.9020630E+03  0.7818609E-02  0.9423006E-01
       -2   -1    0    0    0  501  0.00000000000E+00  0.00000000000E+00  0.24060587544E+03  0.24060587545E+03  0.25500000920E-02 0. -1.
        2   -1    0    0  501    0  0.00000000000E+00  0.00000000000E+00 -0.84548808667E+03  0.84548808667E+03  0.25500000920E-02 0.  1.
    10030    2    1    2    0    0  0.00000000000E+00  0.00000000000E+00 -0.60488221123E+03  0.10860939621E+04  0.90206297181E+03 0.  0.
        1    1    3    3  502    0  0.16787558537E+03 -0.28250456001E+03 -0.67439750348E+03  0.75020199368E+03  0.50400001928E-02 0.  1.
       -1    1    3    3    0  502 -0.16787558537E+03  0.28250456001E+03  0.69515292254E+02  0.33589196845E+03  0.50400001928E-02 0. -1.
</event>
<event>
 5   0  0.3959804E-04  0.9002128E+03  0.7818609E-02  0.9425315E-01
       -2   -1    0    0    0  501  0.00000000000E+00  0.00000000000E+00  0.60344572082E+03  0.60344572082E+03  0.25500000920E-02 0.  1.
        2   -1    0    0  501    0  0.00000000000E+00  0.00000000000E+00 -0.33573155509E+03  0.33573155510E+03  0.25500000920E-02 0. -1.
    10030    2    1    2    0    0  0.00000000000E+00  0.00000000000E+00  0.26771416573E+03  0.93917727592E+03  0.90021279766E+03 0.  0.
        5    1    3    3  502    0 -0.34215469341E+03  0.28898145445E+03  0.18043902555E+03  0.48286690421E+03  0.46999998093E+01 0. -1.
       -5    1    3    3    0  502  0.34215469341E+03 -0.28898145445E+03  0.87275140178E+02  0.45631037171E+03  0.46999998093E+01 0.  1.
</event>
<event>
 5   0  0.4033144E-04  0.8999668E+03  0.7818609E-02  0.9425623E-01
       -2   -1    0    0    0  501  0.00000000000E+00  0.00000000000E+00  0.23548116870E+03  0.23548116872E+03  0.25500000920E-02 0. -1.
        2   -1    0    0  501    0  0.00000000000E+00  0.00000000000E+00 -0.85987789553E+03  0.85987789553E+03  0.25500000920E-02 0.  1.
    10030    2    1    2    0    0  0.00000000000E+00  0.00000000000E+00 -0.62439672683E+03  0.10953590643E+04  0.89996678115E+03 0.  0.
        4    1    3    3  502    0  0.44776012958E+03 -0.37066464183E+02 -0.34251351828E+03  0.56496033446E+03  0.12699999809E+01 0. -1.
       -4    1    3    3    0  502 -0.44776012958E+03  0.37066464183E+02 -0.28188320854E+03  0.53039872979E+03  0.12699999809E+01 0.  1.
</event>
<event>
 5   0  0.3959804E-04  0.8999590E+03  0.7818609E-02  0.9425633E-01
       -2   -1    0    0    0  501  0.00000000000E+00  0.00000000000E+00  0.23717211040E+03  0.23717211041E+03  0.25500000920E-02 0. -1.
        2   -1    0    0  501    0  0.00000000000E+00  0.00000000000E+00 -0.85373246992E+03  0.85373246992E+03  0.25500000920E-02 0.  1.
    10030    2    1    2    0    0  0.00000000000E+00  0.00000000000E+00 -0.61656035952E+03  0.10909045803E+04  0.89995895821E+03 0.  0.
        5    1    3    3  502    0  0.15178841142E+02 -0.24259876173E+03 -0.76726740955E+03  0.80486391655E+03  0.46999998093E+01 0.  1.
       -5    1    3    3    0  502 -0.15178841142E+02  0.24259876173E+03  0.15070705003E+03  0.28604066378E+03  0.46999998093E+01 0. -1.
</event>
<event>
 5   0  0.3959804E-04  0.9000344E+03  0.7818609E-02  0.9425538E-01
       -2   -1    0    0    0  501  0.00000000000E+00  0.00000000000E+00  0.65650374937E+02  0.65650374986E+02  0.25500000920E-02 0.  1.
        2   -1    0    0  501    0  0.00000000000E+00  0.00000000000E+00 -0.30847573279E+04  0.30847573279E+04  0.25500000920E-02 0. -1.
    10030    2    1    2    0    0  0.00000000000E+00  0.00000000000E+00 -0.30191069529E+04  0.31504077029E+04  0.90003438877E+03 0.  0.
        5    1    3    3  502    0 -0.32964741413E+03  0.25079516948E+03 -0.21251296821E+04  0.21651244515E+04  0.46999998093E+01 0. -1.
       -5    1    3    3    0  502  0.32964741413E+03 -0.25079516948E+03 -0.89397727085E+03  0.98528325139E+03  0.46999998093E+01 0.  1.
</event>
<event>
 5   0  0.2351435E-04  0.8996731E+03  0.7818609E-02  0.9425990E-01
       -1   -1    0    0    0  501  0.00000000000E+00  0.00000000000E+00  0.44752613637E+03  0.44752613640E+03  0.50400001928E-02 0.  1.
        1   -1    0    0  501    0  0.00000000000E+00  0.00000000000E+00 -0.45215891473E+03  0.45215891476E+03  0.50400001928E-02 0. -1.
    10030    2    1    2    0    0  0.00000000000E+00  0.00000000000E+00 -0.46327783562E+01  0.89968505116E+03  0.89967312322E+03 0.  0.
        4    1    3    3  502    0 -0.24849180996E+02 -0.16434217363E+03  0.41569093194E+03  0.44769006649E+03  0.12699999809E+01 0.  1.
       -4    1    3    3    0  502  0.24849180996E+02  0.16434217363E+03 -0.42032371030E+03  0.45199498467E+03  0.12699999809E+01 0. -1.
</event>
<event>
 5   0  0.2450427E-04  0.8995664E+03  0.7818609E-02  0.9426124E-01
        1   -1    0    0  501    0  0.00000000000E+00  0.00000000000E+00  0.68636383941E+03  0.68636383943E+03  0.50400001928E-02 0. -1.
       -1   -1    0    0    0  501  0.00000000000E+00  0.00000000000E+00 -0.29474880445E+03  0.29474880449E+03  0.50400001928E-02 0.  1.
    10030    2    1    2    0    0  0.00000000000E+00  0.00000000000E+00  0.39161503497E+03  0.98111264392E+03  0.89956638690E+03 0.  0.
        3    1    3    3  502    0  0.31635455370E+03 -0.29077476393E+03  0.34080558647E+03  0.54843288100E+03  0.10100000352E+00 0. -1.
       -3    1    3    3    0  502 -0.31635455370E+03  0.29077476393E+03  0.50809448493E+02  0.43267976292E+03  0.10100000352E+00 0.  1.
</event>
<event>
 5   0  0.2356918E-04  0.8999788E+03  0.7818609E-02  0.9425608E-01
        1   -1    0    0  501    0  0.00000000000E+00  0.00000000000E+00  0.55051080080E+03  0.55051080082E+03  0.50400001928E-02 0.  1.
       -1   -1    0    0    0  501  0.00000000000E+00  0.00000000000E+00 -0.36782288788E+03  0.36782288792E+03  0.50400001928E-02 0. -1.
    10030    2    1    2    0    0  0.00000000000E+00  0.00000000000E+00  0.18268791292E+03  0.91833368874E+03  0.89997882773E+03 0.  0.
        5    1    3    3  502    0  0.26485737260E+03  0.18948091774E+02 -0.27932759282E+03  0.38542762240E+03  0.46999998093E+01 0. -1.
       -5    1    3    3    0  502 -0.26485737260E+03 -0.18948091774E+02  0.46201550574E+03  0.53290606634E+03  0.46999998093E+01 0.  1.
</event>
<event>
 5   0  0.4243516E-04  0.8986316E+03  0.7818609E-02  0.9427294E-01
        2   -1    0    0  501    0  0.00000000000E+00  0.00000000000E+00  0.40693709139E+03  0.40693709140E+03  0.25500000920E-02 0.  1.
       -2   -1    0    0    0  501  0.00000000000E+00  0.00000000000E+00 -0.49610786079E+03  0.49610786080E+03  0.25500000920E-02 0. -1.
    10030    2    1    2    0    0  0.00000000000E+00  0.00000000000E+00 -0.89170769400E+02  0.90304495220E+03  0.89863160393E+03 0.  0.
        1    1    3    3  502    0 -0.33195522578E+03 -0.98741829503E+02 -0.33224368103E+03  0.47992716575E+03  0.50400001928E-02 0.  1.
       -1    1    3    3    0  502  0.33195522578E+03  0.98741829503E+02  0.24307291163E+03  0.42311778645E+03  0.50400001928E-02 0. -1.
</event>
<event>
 5   0  0.3959804E-04  0.8999258E+03  0.7818609E-02  0.9425674E-01
       -2   -1    0    0    0  501  0.00000000000E+00  0.00000000000E+00  0.19763252065E+03  0.19763252067E+03  0.25500000920E-02 0. -1.
        2   -1    0    0  501    0  0.00000000000E+00  0.00000000000E+00 -0.10244599039E+04  0.10244599039E+04  0.25500000920E-02 0.  1.
    10030    2    1    2    0    0  0.00000000000E+00  0.00000000000E+00 -0.82682738322E+03  0.12220924245E+04  0.89992575942E+03 0.  0.
        5    1    3    3  502    0 -0.25705329369E+03 -0.10303569842E+03 -0.89497811094E+03  0.93685679802E+03  0.46999998093E+01 0.  1.
       -5    1    3    3    0  502  0.25705329369E+03  0.10303569842E+03  0.68150727716E+02  0.28523562651E+03  0.46999998093E+01 0. -1.
</event>
<event>
 5   0  0.2356918E-04  0.8997586E+03  0.7818609E-02  0.9425883E-01
       -1   -1    0    0    0  501  0.00000000000E+00  0.00000000000E+00  0.25012086533E+03  0.25012086538E+03  0.50400001928E-02 0. -1.
        1   -1    0    0  501    0  0.00000000000E+00  0.00000000000E+00 -0.80917431842E+03  0.80917431843E+03  0.50400001928E-02 0.  1.
    10030    2    1    2    0    0  0.00000000000E+00  0.00000000000E+00 -0.55905345308E+03  0.10592951838E+04  0.89975859154E+03 0.  0.
        5    1    3    3  502    0  0.13556275092E+03  0.22818355778E+03  0.14808872223E+03  0.30396933255E+03  0.46999998093E+01 0. -1.
       -5    1    3    3    0  502 -0.13556275092E+03 -0.22818355778E+03 -0.70714217532E+03  0.75532585127E+03  0.46999998093E+01 0.  1.
</event>
<event>
 5   0  0.2308362E-04  0.8999015E+03  0.7818609E-02  0.9425705E-01
       -1   -1    0    0    0  501  0.00000000000E+00  0.00000000000E+00  0.19416154799E+03  0.19416154806E+03  0.50400001928E-02 0. -1.
        1   -1    0    0  501    0  0.00000000000E+00  0.00000000000E+00 -0.10427177466E+04  0.10427177467E+04  0.50400001928E-02 0.  1.
    10030    2    1    2    0    0  0.00000000000E+00  0.00000000000E+00 -0.84855619865E+03  0.12368792947E+04  0.89990153207E+03 0.  0.
        1    1    3    3  502    0 -0.42187797350E+03 -0.10566952840E+03 -0.26571621094E+03  0.50965888449E+03  0.50400001928E-02 0. -1.
       -1    1    3    3    0  502  0.42187797350E+03  0.10566952840E+03 -0.58283998770E+03  0.72722041022E+03  0.50400001928E-02 0.  1.
</event>
<event>
 5   0  0.4033144E-04  0.8999033E+03  0.7818609E-02  0.9425702E-01
       -2   -1    0    0    0  501  0.00000000000E+00  0.00000000000E+00  0.32299165536E+03  0.32299165537E+03  0.25500000920E-02 0. -1.
        2   -1    0    0  501    0  0.00000000000E+00  0.00000000000E+00 -0.62681650818E+03  0.62681650819E+03  0.25500000920E-02 0.  1.
    10030    2    1    2    0    0  0.00000000000E+00  0.00000000000E+00 -0.30382485283E+03  0.94980816355E+03  0.89990333168E+03 0.  0.
        4    1    3    3  502    0  0.18375185885E+03 -0.10345602440E+03  0.26760567675E+03  0.34070853489E+03  0.12699999809E+01 0. -1.
       -4    1    3    3    0  502 -0.18375185885E+03  0.10345602440E+03 -0.57143052957E+03  0.60909962867E+03  0.12699999809E+01 0.  1.
</event>
<event>
 5   0  0.2351435E-04  0.8997475E+03  0.7818609E-02  0.9425897E-01
        1   -1    0    0  501    0  0.00000000000E+00  0.00000000000E+00  0.11592497444E+04  0.11592497444E+04  0.50400001928E-02 0.  1.
       -1   -1    0    0    0  501  0.00000000000E+00  0.00000000000E+00 -0.17458394809E+03  0.17458394817E+03  0.50400001928E-02 0. -1.
    10030    2    1    2    0    0  0.00000000000E+00  0.00000000000E+00  0.98466579629E+03  0.13338336926E+04  0.89974751405E+03 0.  0.
        4    1    3    3  502    0  0.66038004332E+02 -0.11718137965E+03 -0.14407360974E+03  0.19710736078E+03  0.12699999809E+01 0. -1.
       -4    1    3    3    0  502 -0.66038004332E+02  0.11718137965E+03  0.11287394060E+04  0.11367263318E+04  0.12699999809E+01 0.  1.
</event>
<event>
 5   0  0.4033144E-04  0.8996989E+03  0.7818609E-02  0.9425958E-01
        2   -1    0    0  501    0  0.00000000000E+00  0.00000000000E+00  0.40675705769E+03  0.40675705770E+03  0.25500000920E-02 0.  1.
       -2   -1    0    0    0  501  0.00000000000E+00  0.00000000000E+00 -0.49750710441E+03  0.49750710442E+03  0.25500000920E-02 0. -1.
    10030    2    1    2    0    0  0.00000000000E+00  0.00000000000E+00 -0.90750046723E+02  0.90426416212E+03  0.89969889625E+03 0.  0.
        4    1    3    3  502    0  0.76262381294E+02 -0.15950993621E+03 -0.46112059514E+03  0.49385543099E+03  0.12699999809E+01 0. -1.
       -4    1    3    3    0  502 -0.76262381294E+02  0.15950993621E+03  0.37037054842E+03  0.41040873113E+03  0.12699999809E+01 0.  1.
</event>
<event>
 5   0  0.4243516E-04  0.8993026E+03  0.7818609E-02  0.9426454E-01
        2   -1    0    0  501    0  0.00000000000E+00  0.00000000000E+00  0.14507482198E+04  0.14507482198E+04  0.25500000920E-02 0.  1.
       -2   -1    0    0    0  501  0.00000000000E+00  0.00000000000E+00 -0.13936689763E+03  0.13936689765E+03  0.25500000920E-02 0. -1.
    10030    2    1    2    0    0  0.00000000000E+00  0.00000000000E+00  0.13113813222E+04  0.15901151175E+04  0.89930257124E+03 0.  0.
        1    1    3    3  502    0  0.15123279589E+03  0.41905463327E+03  0.54801923486E+03  0.70626002720E+03  0.50400001928E-02 0.  1.
       -1    1    3    3    0  502 -0.15123279589E+03 -0.41905463327E+03  0.76336208733E+03  0.88385509028E+03  0.50400001928E-02 0. -1.
</event>
<event>
 5   0  0.1596250E-04  0.8994136E+03  0.7818609E-02  0.9426315E-01
       -4   -1    0    0    0  501  0.00000000000E+00  0.00000000000E+00  0.27079873621E+03  0.27080171424E+03  0.12699999809E+01 0. -1.
        4   -1    0    0  501    0  0.00000000000E+00  0.00000000000E+00 -0.74680613478E+03  0.74680721464E+03  0.12699999809E+01 0.  1.
    10030    2    1    2    0    0  0.00000000000E+00  0.00000000000E+00 -0.47600739857E+03  0.10176089289E+04  0.89941363601E+03 0.  0.
        4    1    3    3  502    0  0.23955386851E+03 -0.22282376051E+03  0.11108487854E+03  0.34551113919E+03  0.12699999809E+01 0. -1.
       -4    1    3    3    0  502 -0.23955386851E+03  0.22282376051E+03 -0.58709227711E+03  0.67209778969E+03  0.12699999809E+01 0.  1.
</event>
<event>
 5   0  0.2308362E-04  0.9001436E+03  0.7818609E-02  0.9425402E-01
       -1   -1    0    0    0  501  0.00000000000E+00  0.00000000000E+00  0.22148090867E+03  0.22148090872E+03  0.50400001928E-02 0. -1.
        1   -1    0    0  501    0  0.00000000000E+00  0.00000000000E+00 -0.91459183811E+03  0.91459183812E+03  0.50400001928E-02 0.  1.
    10030    2    1    2    0    0  0.00000000000E+00  0.00000000000E+00 -0.69311092944E+03  0.11360727468E+04  0.90014361389E+03 0.  0.
        1    1    3    3  502    0 -0.23464387917E+03  0.23360844099E+03 -0.73130809710E+03  0.80277156567E+03  0.50400001928E-02 0. -1.
       -1    1    3    3    0  502  0.23464387917E+03 -0.23360844099E+03  0.38197167657E+02  0.33330118118E+03  0.50400001928E-02 0.  1.
</event>
<event>
 5   0  0.2356918E-04  0.8988384E+03  0.7818609E-02  0.9427035E-01
       -1   -1    0    0    0  501  0.00000000000E+00  0.00000000000E+00  0.24680140988E+03  0.24680140993E+03  0.50400001928E-02 0. -1.
        1   -1    0    0  501    0  0.00000000000E+00  0.00000000000E+00 -0.81838107487E+03  0.81838107488E+03  0.50400001928E-02 0.  1.
    10030    2    1    2    0    0  0.00000000000E+00  0.00000000000E+00 -0.57157966499E+03  0.10651824848E+04  0.89883836841E+03 0.  0.
        5    1    3    3  502    0  0.14140045402E+03  0.10745280289E+03  0.20342175014E+03  0.27007904708E+03  0.46999998093E+01 0. -1.
       -5    1    3    3    0  502 -0.14140045402E+03 -0.10745280289E+03 -0.77500141512E+03  0.79510343773E+03  0.46999998093E+01 0.  1.
</event>
<event>
 5   0  0.4033144E-04  0.9005836E+03  0.7818609E-02  0.9424852E-01
       -2   -1    0    0    0  501  0.00000000000E+00  0.00000000000E+00  0.14909172936E+03  0.14909172939E+03  0.25500000920E-02 0.  1.
        2   -1    0    0  501    0  0.00000000000E+00  0.00000000000E+00 -0.13599863734E+04  0.13599863734E+04  0.25500000920E-02 0. -1.
    10030    2    1    2    0    0  0.00000000000E+00  0.00000000000E+00 -0.12108946441E+04  0.15090781028E+04  0.90058363374E+03 0.  0.
        4    1    3    3  502    0  0.10899317051E+03 -0.29956489397E+03 -0.11383580289E+04  0.11821502662E+04  0.12699999809E+01 0. -1.
       -4    1    3    3    0  502 -0.10899317051E+03  0.29956489397E+03 -0.72536615116E+02  0.32692783661E+03  0.12699999809E+01 0.  1.
</event>
<event>
 5   0  0.1596250E-04  0.9005929E+03  0.7818609E-02  0.9424841E-01
       -3   -1    0    0    0  501  0.00000000000E+00  0.00000000000E+00  0.39949819026E+03  0.39949820302E+03  0.10100000352E+00 0. -1.
        3   -1    0    0  501    0  0.00000000000E+00  0.00000000000E+00 -0.50755395697E+03  0.50755396702E+03  0.10100000352E+00 0.  1.
    10030    2    1    2    0    0  0.00000000000E+00  0.00000000000E+00 -0.10805576672E+03  0.90705217005E+03  0.90059291051E+03 0.  0.
        5    1    3    3  502    0  0.12979931163E+03  0.43055271921E+03 -0.31032081263E+02  0.45078662956E+03  0.46999998093E+01 0.  1.
       -5    1    3    3    0  502 -0.12979931163E+03 -0.43055271921E+03 -0.77023685454E+02  0.45626554049E+03  0.46999998093E+01 0. -1.
</event>
<event>
 5   0  0.2351435E-04  0.9000275E+03  0.7818609E-02  0.9425547E-01
       -1   -1    0    0    0  501  0.00000000000E+00  0.00000000000E+00  0.64697973559E+03  0.64697973561E+03  0.50400001928E-02 0.  1.
        1   -1    0    0  501    0  0.00000000000E+00  0.00000000000E+00 -0.31301192649E+03  0.31301192653E+03  0.50400001928E-02 0. -1.
    10030    2    1    2    0    0  0.00000000000E+00  0.00000000000E+00  0.33396780910E+03  0.95999166214E+03  0.90002749617E+03 0.  0.
        4    1    3    3  502    0 -0.35655077130E+03 -0.72912591609E+02 -0.11535162779E+03  0.38177520803E+03  0.12699999809E+01 0.  1.
       -4    1    3    3    0  502  0.35655077130E+03  0.72912591609E+02  0.44931943690E+03  0.57821645411E+03  0.12699999809E+01 0. -1.
</event>
<event>
 5   0  0.4033144E-04  0.9000956E+03  0.7818609E-02  0.9425462E-01
        2   -1    0    0  501    0  0.00000000000E+00  0.00000000000E+00  0.89474148385E+03  0.89474148385E+03  0.25500000920E-02 0. -1.
       -2   -1    0    0    0  501  0.00000000000E+00  0.00000000000E+00 -0.22637046211E+03  0.22637046212E+03  0.25500000920E-02 0.  1.
    10030    2    1    2    0    0  0.00000000000E+00  0.00000000000E+00  0.66837102174E+03  0.11211119460E+04  0.90009564642E+03 0.  0.
        4    1    3    3  502    0  0.42752753264E+03  0.48076335023E+02  0.16964917119E+03  0.46246467901E+03  0.12699999809E+01 0.  1.
       -4    1    3    3    0  502 -0.42752753264E+03 -0.48076335023E+02  0.49872185055E+03  0.65864726696E+03  0.12699999809E+01 0. -1.
</event>
<event>
 5   0  0.2332791E-04  0.9000483E+03  0.7818609E-02  0.9425521E-01
       -1   -1    0    0    0  501  0.00000000000E+00  0.00000000000E+00  0.34078649421E+03  0.34078649425E+03  0.50400001928E-02 0. -1.
        1   -1    0    0  501    0  0.00000000000E+00  0.00000000000E+00 -0.59427743015E+03  0.59427743017E+03  0.50400001928E-02 0.  1.
    10030    2    1    2    0    0  0.00000000000E+00  0.00000000000E+00 -0.25349093594E+03  0.93506392441E+03  0.90004826989E+03 0.  0.
        2    1    3    3  502    0 -0.51340353746E+02 -0.10509062707E+03  0.32472009000E+03  0.34514201234E+03  0.25500000920E-02 0. -1.
       -2    1    3    3    0  502  0.51340353746E+02  0.10509062707E+03 -0.57821102594E+03  0.58992191208E+03  0.25500000920E-02 0.  1.
</event>
<event>
 5   0  0.4243516E-04  0.9004705E+03  0.7818609E-02  0.9424993E-01
       -2   -1    0    0    0  501  0.00000000000E+00  0.00000000000E+00  0.83263944479E+03  0.83263944480E+03  0.25500000920E-02 0.  1.
        2   -1    0    0  501    0  0.00000000000E+00  0.00000000000E+00 -0.24345685976E+03  0.24345685977E+03  0.25500000920E-02 0. -1.
    10030    2    1    2    0    0  0.00000000000E+00  0.00000000000E+00  0.58918258504E+03  0.10760963046E+04  0.90047050934E+03 0.  0.
        1    1    3    3  502    0  0.22337879037E+03 -0.12115178937E+03 -0.14956415859E+03  0.29486484635E+03  0.50400001928E-02 0. -1.
       -1    1    3    3    0  502 -0.22337879037E+03  0.12115178937E+03  0.73874674363E+03  0.78123145821E+03  0.50400001928E-02 0.  1.
</event>
<event>
 5   0  0.2308362E-04  0.9001087E+03  0.7818609E-02  0.9425446E-01
       -1   -1    0    0    0  501  0.00000000000E+00  0.00000000000E+00  0.24616162551E+03  0.24616162556E+03  0.50400001928E-02 0.  1.
        1   -1    0    0  501    0  0.00000000000E+00  0.00000000000E+00 -0.82282899253E+03  0.82282899255E+03  0.50400001928E-02 0. -1.
    10030    2    1    2    0    0  0.00000000000E+00  0.00000000000E+00 -0.57666736702E+03  0.10689906181E+04  0.90010870977E+03 0.  0.
        1    1    3    3  502    0  0.27081246260E+03  0.90502352378E+02 -0.70148149096E+03  0.75736803991E+03  0.50400001928E-02 0. -1.
       -1    1    3    3    0  502 -0.27081246260E+03 -0.90502352378E+02  0.12481412394E+03  0.31162257820E+03  0.50400001928E-02 0.  1.
</event>
<event>
 5   0  0.2308362E-04  0.8992848E+03  0.7818609E-02  0.9426476E-01
       -1   -1    0    0    0  501  0.00000000000E+00  0.00000000000E+00  0.51318596066E+03  0.51318596068E+03  0.50400001928E-02 0.  1.
        1   -1    0    0  501    0  0.00000000000E+00  0.00000000000E+00 -0.39396692455E+03  0.39396692458E+03  0.50400001928E-02 0. -1.
    10030    2    1    2    0    0  0.00000000000E+00  0.00000000000E+00  0.11921903611E+03  0.90715288526E+03  0.89928481510E+03 0.  0.
        1    1    3    3  502    0  0.33025842827E+03 -0.18750196463E+03  0.30244519257E+03  0.48549017572E+03  0.50400001928E-02 0. -1.
       -1    1    3    3    0  502 -0.33025842827E+03  0.18750196463E+03 -0.18322615646E+03  0.42166270954E+03  0.50400001928E-02 0.  1.
</event>
<event>
 5   0  0.2450427E-04  0.9000895E+03  0.7818609E-02  0.9425470E-01
       -1   -1    0    0    0  501  0.00000000000E+00  0.00000000000E+00  0.12120616241E+04  0.12120616241E+04  0.50400001928E-02 0. -1.
        1   -1    0    0  501    0  0.00000000000E+00  0.00000000000E+00 -0.16710393630E+03  0.16710393638E+03  0.50400001928E-02 0.  1.
    10030    2    1    2    0    0  0.00000000000E+00  0.00000000000E+00  0.10449576878E+04  0.13791655605E+04  0.90008948108E+03 0.  0.
        3    1    3    3  502    0 -0.64485708730E+02  0.33030796895E+03  0.98030874505E+03  0.10364685267E+04  0.10100000352E+00 0. -1.
       -3    1    3    3    0  502  0.64485708730E+02 -0.33030796895E+03  0.64648942759E+02  0.34269703381E+03  0.10100000352E+00 0.  1.
</event>
<event>
 5   0  0.4110039E-04  0.8994738E+03  0.7818609E-02  0.9426239E-01
        2   -1    0    0  501    0  0.00000000000E+00  0.00000000000E+00  0.44070654893E+03  0.44070654894E+03  0.25500000920E-02 0.  1.
       -2   -1    0    0    0  501  0.00000000000E+00  0.00000000000E+00 -0.45895231961E+03  0.45895231962E+03  0.25500000920E-02 0. -1.
    10030    2    1    2    0    0  0.00000000000E+00  0.00000000000E+00 -0.18245770680E+02  0.89965886855E+03  0.89947383043E+03 0.  0.
        3    1    3    3  502    0  0.22015037700E+03  0.36682864599E+03  0.12959176062E+03  0.44701619505E+03  0.10100000352E+00 0. -1.
       -3    1    3    3    0  502 -0.22015037700E+03 -0.36682864599E+03 -0.14783753130E+03  0.45264267350E+03  0.10100000352E+00 0.  1.
</event>
<event>
 5   0  0.4236284E-04  0.8998368E+03  0.7818609E-02  0.9425785E-01
        2   -1    0    0  501    0  0.00000000000E+00  0.00000000000E+00  0.92117163990E+03  0.92117163990E+03  0.25500000920E-02 0.  1.
       -2   -1    0    0    0  501  0.00000000000E+00  0.00000000000E+00 -0.21974900829E+03  0.21974900831E+03  0.25500000920E-02 0. -1.
    10030    2    1    2    0    0  0.00000000000E+00  0.00000000000E+00  0.70142263160E+03  0.11409206482E+04  0.89983677264E+03 0.  0.
        2    1    3    3  502    0 -0.22721803473E+03  0.92509339678E+02 -0.12748188946E+03  0.27647358894E+03  0.25500000920E-02 0. -1.
       -2    1    3    3    0  502  0.22721803473E+03 -0.92509339678E+02  0.82890452106E+03  0.86444705927E+03  0.25500000920E-02 0.  1.
</event>
<event>
 5   0  0.2332791E-04  0.8999804E+03  0.7818609E-02  0.9425606E-01
        1   -1    0    0  501    0  0.00000000000E+00  0.00000000000E+00  0.23724197366E+03  0.23724197372E+03  0.50400001928E-02 0.  1.
       -1   -1    0    0    0  501  0.00000000000E+00  0.00000000000E+00 -0.85352172567E+03  0.85352172569E+03  0.50400001928E-02 0. -1.
    10030    2    1    2    0    0  0.00000000000E+00  0.00000000000E+00 -0.61627975201E+03  0.10907636994E+04  0.89998039712E+03 0.  0.
        2    1    3    3  502    0 -0.40240244211E+03  0.12171348628E+03 -0.50262221834E+03  0.65526406321E+03  0.25500000920E-02 0.  1.
       -2    1    3    3    0  502  0.40240244211E+03 -0.12171348628E+03 -0.11365753367E+03  0.43549963619E+03  0.25500000920E-02 0. -1.
</event>
<event>
 5   0  0.4243516E-04  0.9001806E+03  0.7818609E-02  0.9425356E-01
       -2   -1    0    0    0  501  0.00000000000E+00  0.00000000000E+00  0.10898631239E+03  0.10898631242E+03  0.25500000920E-02 0. -1.
        2   -1    0    0  501    0  0.00000000000E+00  0.00000000000E+00 -0.18587774310E+04  0.18587774310E+04  0.25500000920E-02 0.  1.
    10030    2    1    2    0    0  0.00000000000E+00  0.00000000000E+00 -0.17497911187E+04  0.19677637435E+04  0.90018064364E+03 0.  0.
        1    1    3    3  502    0 -0.20028280575E+03  0.30178209928E+03 -0.14589847789E+04  0.15032705089E+04  0.50400001928E-02 0.  1.
       -1    1    3    3    0  502  0.20028280575E+03 -0.30178209928E+03 -0.29080633974E+03  0.46449323459E+03  0.50400001928E-02 0. -1.
</event>
<event>
 5   0  0.3959804E-04  0.8996562E+03  0.7818609E-02  0.9426011E-01
        2   -1    0    0  501    0  0.00000000000E+00  0.00000000000E+00  0.92246899637E+03  0.92246899637E+03  0.25500000920E-02 0. -1.
       -2   -1    0    0    0  501  0.00000000000E+00  0.00000000000E+00 -0.21935189237E+03  0.21935189238E+03  0.25500000920E-02 0.  1.
    10030    2    1    2    0    0  0.00000000000E+00  0.00000000000E+00  0.70311710400E+03  0.11418208888E+04  0.89965620103E+03 0.  0.
        5    1    3    3  502    0  0.33317104011E+03  0.56285857394E+02  0.72838203538E+03  0.80295299936E+03  0.46999998093E+01 0. -1.
       -5    1    3    3    0  502 -0.33317104011E+03 -0.56285857394E+02 -0.25264931377E+02  0.33886788940E+03  0.46999998093E+01 0.  1.
</event>
<event>
 5   0  0.2351435E-04  0.9003026E+03  0.7818609E-02  0.9425203E-01
       -1   -1    0    0    0  501  0.00000000000E+00  0.00000000000E+00  0.40953857725E+03  0.40953857728E+03  0.50400001928E-02 0. -1.
        1   -1    0    0  501    0  0.00000000000E+00  0.00000000000E+00 -0.49479147283E+03  0.49479147285E+03  0.50400001928E-02 0.  1.
    10030    2    1    2    0    0  0.00000000000E+00  0.00000000000E+00 -0.85252895576E+02  0.90433005013E+03  0.90030260655E+03 0.  0.
        4    1    3    3  502    0 -0.29158981178E+03 -0.18680029165E+03 -0.33151624769E+03  0.47939921013E+03  0.12699999809E+01 0.  1.
       -4    1    3    3    0  502  0.29158981178E+03  0.18680029165E+03  0.24626335211E+03  0.42493084000E+03  0.12699999809E+01 0. -1.
</event>
<event>
 5   0  0.4243516E-04  0.8999382E+03  0.7818609E-02  0.9425659E-01
       -2   -1    0    0    0  501  0.00000000000E+00  0.00000000000E+00  0.21743749094E+03  0.21743749095E+03  0.25500000920E-02 0. -1.
        2   -1    0    0  501    0  0.00000000000E+00  0.00000000000E+00 -0.93117427696E+03  0.93117427696E+03  0.25500000920E-02 0.  1.
    10030    2    1    2    0    0  0.00000000000E+00  0.00000000000E+00 -0.71373678602E+03  0.11486117679E+04  0.89993821659E+03 0.  0.
        1    1    3    3  502    0 -0.64195291074E+01  0.94546489726E+02 -0.91829374060E+03  0.92317043016E+03  0.50400001928E-02 0.  1.
       -1    1    3    3    0  502  0.64195291074E+01 -0.94546489726E+02  0.20455695458E+03  0.22544133775E+03  0.50400001928E-02 0. -1.
</event>
<event>
 5   0  0.2308362E-04  0.9001189E+03  0.7818609E-02  0.9425433E-01
       -1   -1    0    0    0  501  0.00000000000E+00  0.00000000000E+00  0.24764754683E+03  0.24764754688E+03  0.50400001928E-02 0.  1.
        1   -1    0    0  501    0  0.00000000000E+00  0.00000000000E+00 -0.81791043883E+03  0.81791043885E+03  0.50400001928E-02 0. -1.
    10030    2    1    2    0    0  0.00000000000E+00  0.00000000000E+00 -0.57026289201E+03  0.10655579857E+04  0.90011891156E+03 0.  0.
        1    1    3    3  502    0  0.19603153769E+03  0.32297460371E+03  0.43850941872E+01  0.37783619134E+03  0.50400001928E-02 0.  1.
       -1    1    3    3    0  502 -0.19603153769E+03 -0.32297460371E+03 -0.57464798619E+03  0.68772179439E+03  0.50400001928E-02 0. -1.
</event>
<event>
 5   0  0.4243516E-04  0.9002755E+03  0.7818609E-02  0.9425237E-01
        2   -1    0    0  501    0  0.00000000000E+00  0.00000000000E+00  0.21050868224E+04  0.21050868224E+04  0.25500000920E-02 0.  1.
       -2   -1    0    0    0  501  0.00000000000E+00  0.00000000000E+00 -0.96254469713E+02  0.96254469746E+02  0.25500000920E-02 0. -1.
    10030    2    1    2    0    0  0.00000000000E+00  0.00000000000E+00  0.20088323527E+04  0.22013412921E+04  0.90027554855E+03 0.  0.
        1    1    3    3  502    0 -0.41846781463E+03  0.16563455632E+03  0.10254359153E+04  0.11198521932E+04  0.50400001928E-02 0.  1.
       -1    1    3    3    0  502  0.41846781463E+03 -0.16563455632E+03  0.98339643737E+03  0.10814890990E+04  0.50400001928E-02 0. -1.
</event>
<event>
 5   0  0.2351435E-04  0.8996431E+03  0.7818609E-02  0.9426028E-01
       -1   -1    0    0    0  501  0.00000000000E+00  0.00000000000E+00  0.23551522657E+03  0.23551522662E+03  0.50400001928E-02 0. -1.
        1   -1    0    0  501    0  0.00000000000E+00  0.00000000000E+00 -0.85913521767E+03  0.85913521768E+03  0.50400001928E-02 0.  1.
    10030    2    1    2    0    0  0.00000000000E+00  0.00000000000E+00 -0.62361999110E+03  0.10946504443E+04  0.89964309696E+03 0.  0.
        4    1    3    3  502    0 -0.29576262990E+03 -0.80359714096E+01  0.10045057877E+03  0.31246126441E+03  0.12699999809E+01 0. -1.
       -4    1    3    3    0  502  0.29576262990E+03  0.80359714096E+01 -0.72407056987E+03  0.78218917989E+03  0.12699999809E+01 0.  1.
</event>
<event>
 5   0  0.4236284E-04  0.8997745E+03  0.7818609E-02  0.9425863E-01
       -2   -1    0    0    0  501  0.00000000000E+00  0.00000000000E+00  0.53010063416E+03  0.53010063417E+03  0.25500000920E-02 0. -1.
        2   -1    0    0  501    0  0.00000000000E+00  0.00000000000E+00 -0.38181157810E+03  0.38181157811E+03  0.25500000920E-02 0.  1.
    10030    2    1    2    0    0  0.00000000000E+00  0.00000000000E+00  0.14828905607E+03  0.91191221227E+03  0.89977454884E+03 0.  0.
        2    1    3    3  502    0 -0.43158970639E+03 -0.10971882469E+03  0.93234485043E+01  0.44541533635E+03  0.25500000920E-02 0.  1.
       -2    1    3    3    0  502  0.43158970639E+03  0.10971882469E+03  0.13896560756E+03  0.46649687592E+03  0.25500000920E-02 0. -1.
</event>
<event>
 5   0  0.4236284E-04  0.8997102E+03  0.7818609E-02  0.9425944E-01
       -2   -1    0    0    0  501  0.00000000000E+00  0.00000000000E+00  0.17254738506E+03  0.17254738508E+03  0.25500000920E-02 0. -1.
        2   -1    0    0  501    0  0.00000000000E+00  0.00000000000E+00 -0.11728351030E+04  0.11728351030E+04  0.25500000920E-02 0.  1.
    10030    2    1    2    0    0  0.00000000000E+00  0.00000000000E+00 -0.10002877180E+04  0.13453824881E+04  0.89971024257E+03 0.  0.
        2    1    3    3  502    0  0.39104854418E+03  0.79034646898E+02 -0.18932594341E+03  0.44159908534E+03  0.25500000920E-02 0. -1.
       -2    1    3    3    0  502 -0.39104854418E+03 -0.79034646898E+02 -0.81096177457E+03  0.90378340278E+03  0.25500000920E-02 0.  1.
</event>
<event>
 5   0  0.2351435E-04  0.8997009E+03  0.7818609E-02  0.9425955E-01
        1   -1    0    0  501    0  0.00000000000E+00  0.00000000000E+00  0.39353426345E+03  0.39353426349E+03  0.50400001928E-02 0.  1.
       -1   -1    0    0    0  501  0.00000000000E+00  0.00000000000E+00 -0.51422571296E+03  0.51422571299E+03  0.50400001928E-02 0. -1.
    10030    2    1    2    0    0  0.00000000000E+00  0.00000000000E+00 -0.12069144951E+03  0.90775997647E+03  0.89970092192E+03 0.  0.
        4    1    3    3  502    0 -0.70616365059E+02 -0.30677507420E+03 -0.38457481537E+03  0.49698794621E+03  0.12699999809E+01 0. -1.
       -4    1    3    3    0  502  0.70616365059E+02  0.30677507420E+03  0.26388336586E+03  0.41077203026E+03  0.12699999809E+01 0.  1.
</event>
<event>
 5   0  0.2356918E-04  0.8987189E+03  0.7818609E-02  0.9427184E-01
       -1   -1    0    0    0  501  0.00000000000E+00  0.00000000000E+00  0.59441552930E+03  0.59441552932E+03  0.50400001928E-02 0. -1.
        1   -1    0    0  501    0  0.00000000000E+00  0.00000000000E+00 -0.33970158169E+03  0.33970158172E+03  0.50400001928E-02 0.  1.
    10030    2    1    2    0    0  0.00000000000E+00  0.00000000000E+00  0.25471394761E+03  0.93411711104E+03  0.89871885595E+03 0.  0.
        5    1    3    3  502    0  0.20158128723E+03 -0.38090965985E+03  0.25954573506E+03  0.50310363039E+03  0.46999998093E+01 0. -1.
       -5    1    3    3    0  502 -0.20158128723E+03  0.38090965985E+03 -0.48317874482E+01  0.43101348065E+03  0.46999998093E+01 0.  1.
</event>
<event>
 5   0  0.2332791E-04  0.8992526E+03  0.7818609E-02  0.9426516E-01
       -1   -1    0    0    0  501  0.00000000000E+00  0.00000000000E+00  0.15736822996E+03  0.15736823004E+03  0.50400001928E-02 0. -1.
        1   -1    0    0  501    0  0.00000000000E+00  0.00000000000E+00 -0.12846544364E+04  0.12846544364E+04  0.50400001928E-02 0.  1.
    10030    2    1    2    0    0  0.00000000000E+00  0.00000000000E+00 -0.11272862064E+04  0.14420226664E+04  0.89925256703E+03 0.  0.
        2    1    3    3  502    0  0.34537767176E+03 -0.24307185181E+03 -0.81100075414E+03  0.91438060156E+03  0.25500000920E-02 0.  1.
       -2    1    3    3    0  502 -0.34537767176E+03  0.24307185181E+03 -0.31628545228E+03  0.52764206487E+03  0.25500000920E-02 0. -1.
</event>
<event>
 5   0  0.4110039E-04  0.8956081E+03  0.7818609E-02  0.9431088E-01
       -2   -1    0    0    0  501  0.00000000000E+00  0.00000000000E+00  0.37302260469E+03  0.37302260470E+03  0.25500000920E-02 0.  1.
        2   -1    0    0  501    0  0.00000000000E+00  0.00000000000E+00 -0.53757720800E+03  0.53757720801E+03  0.25500000920E-02 0. -1.
    10030    2    1    2    0    0  0.00000000000E+00  0.00000000000E+00 -0.16455460331E+03  0.91059981271E+03  0.89560806240E+03 0.  0.
        3    1    3    3  502    0 -0.13515126862E+03 -0.14969846723E+03 -0.48878603582E+03  0.52876014933E+03  0.10100000352E+00 0. -1.
       -3    1    3    3    0  502  0.13515126862E+03  0.14969846723E+03  0.32423143251E+03  0.38183966338E+03  0.10100000352E+00 0.  1.
</event>
<event>
 5   0  0.2332791E-04  0.9039004E+03  0.7818609E-02  0.9420719E-01
       -1   -1    0    0    0  501  0.00000000000E+00  0.00000000000E+00  0.60505898610E+03  0.60505898612E+03  0.50400001928E-02 0.  1.
        1   -1    0    0  501    0  0.00000000000E+00  0.00000000000E+00 -0.33758527453E+03  0.33758527456E+03  0.50400001928E-02 0. -1.
    10030    2    1    2    0    0  0.00000000000E+00  0.00000000000E+00  0.26747371158E+03  0.94264426069E+03  0.90390044575E+03 0.  0.
        2    1    3    3  502    0  0.29995129412E+03  0.10616796567E+03  0.46845619712E+03  0.56629817623E+03  0.25500000920E-02 0. -1.
       -2    1    3    3    0  502 -0.29995129412E+03 -0.10616796567E+03 -0.20098248554E+03  0.37634608445E+03  0.25500000920E-02 0.  1.
</event>
<event>
 5   0  0.2308362E-04  0.9000721E+03  0.7818609E-02  0.9425491E-01
        1   -1    0    0  501    0  0.00000000000E+00  0.00000000000E+00  0.75176422162E+03  0.75176422164E+03  0.50400001928E-02 0.  1.
       -1   -1    0    0    0  501  0.00000000000E+00  0.00000000000E+00 -0.26940955449E+03  0.26940955453E+03  0.50400001928E-02 0. -1.
    10030    2    1    2    0    0  0.00000000000E+00  0.00000000000E+00  0.48235466714E+03  0.10211737762E+04  0.90007213946E+03 0.  0.
        1    1    3    3  502    0 -0.25496318360E+03 -0.31231216518E+03  0.14303897048E+02  0.40342250186E+03  0.50400001928E-02 0. -1.
       -1    1    3    3    0  502  0.25496318360E+03  0.31231216518E+03  0.46805077009E+03  0.61775127431E+03  0.50400001928E-02 0.  1.
</event>
<event>
 5   0  0.4243516E-04  0.9001903E+03  0.7818609E-02  0.9425344E-01
       -2   -1    0    0    0  501  0.00000000000E+00  0.00000000000E+00  0.37588660716E+03  0.37588660717E+03  0.25500000920E-02 0. -1.
        2   -1    0    0  501    0  0.00000000000E+00  0.00000000000E+00 -0.53895415559E+03  0.53895415560E+03  0.25500000920E-02 0.  1.
    10030    2    1    2    0    0  0.00000000000E+00  0.00000000000E+00 -0.16306754843E+03  0.91484076276E+03  0.90019031091E+03 0.  0.
        1    1    3    3  502    0  0.33518821939E+03  0.14248912853E+03  0.18721540348E+03  0.40951666815E+03  0.50400001928E-02 0. -1.
       -1    1    3    3    0  502 -0.33518821939E+03 -0.14248912853E+03 -0.35028295191E+03  0.50532409461E+03  0.50400001928E-02 0.  1.
</event>
<event>
 5   0  0.2356918E-04  0.8994141E+03  0.7818609E-02  0.9426314E-01
        1   -1    0    0  501    0  0.00000000000E+00  0.00000000000E+00  0.18009770039E+04  0.18009770039E+04  0.50400001928E-02 0.  1.
       -1   -1    0    0    0  501  0.00000000000E+00  0.00000000000E+00 -0.11229263146E+03  0.11229263158E+03  0.50400001928E-02 0. -1.
    10030    2    1    2    0    0  0.00000000000E+00  0.00000000000E+00  0.16886843724E+04  0.19132696355E+04  0.89941413618E+03 0.  0.
        5    1    3    3  502    0 -0.20073211033E+03 -0.16726549905E+03  0.16228748770E+04  0.16437810328E+04  0.46999998093E+01 0.  1.
       -5    1    3    3    0  502  0.20073211033E+03  0.16726549905E+03  0.65809495395E+02  0.26948860268E+03  0.46999998093E+01 0. -1.
</event>
<event>
 5   0  0.2356918E-04  0.8996809E+03  0.7818609E-02  0.9425980E-01
       -1   -1    0    0    0  501  0.00000000000E+00  0.00000000000E+00  0.33825777068E+03  0.33825777072E+03  0.50400001928E-02 0. -1.
        1   -1    0    0  501    0  0.00000000000E+00  0.00000000000E+00 -0.59823138179E+03  0.59823138181E+03  0.50400001928E-02 0.  1.
    10030    2    1    2    0    0  0.00000000000E+00  0.00000000000E+00 -0.25997361111E+03  0.93648915253E+03  0.89968086249E+03 0.  0.
        5    1    3    3  502    0  0.23258040009E+03 -0.25112799270E+03  0.17380173757E+03  0.38391150699E+03  0.46999998093E+01 0. -1.
       -5    1    3    3    0  502 -0.23258040009E+03  0.25112799270E+03 -0.43377534868E+03  0.55257764554E+03  0.46999998093E+01 0.  1.
</event>
<event>
 5   0  0.4236284E-04  0.9006085E+03  0.7818609E-02  0.9424821E-01
       -2   -1    0    0    0  501  0.00000000000E+00  0.00000000000E+00  0.94241569443E+02  0.94241569478E+02  0.25500000920E-02 0.  1.
        2   -1    0    0  501    0  0.00000000000E+00  0.00000000000E+00 -0.21516398006E+04  0.21516398006E+04  0.25500000920E-02 0. -1.
    10030    2    1    2    0    0  0.00000000000E+00  0.00000000000E+00 -0.20573982311E+04  0.22458813700E+04  0.90060848702E+03 0.  0.
        2    1    3    3  502    0  0.64369086753E+02  0.36293025062E+03 -0.16737638804E+04  0.17138690946E+04  0.25500000920E-02 0. -1.
       -2    1    3    3    0  502 -0.64369086753E+02 -0.36293025062E+03 -0.38363435071E+03  0.53201227542E+03  0.25500000920E-02 0.  1.
</event>
<event>
 5   0  0.4236284E-04  0.8999740E+03  0.7818609E-02  0.9425614E-01
        2   -1    0    0  501    0  0.00000000000E+00  0.00000000000E+00  0.11318874605E+04  0.11318874605E+04  0.25500000920E-02 0. -1.
       -2   -1    0    0    0  501  0.00000000000E+00  0.00000000000E+00 -0.17889439204E+03  0.17889439206E+03  0.25500000920E-02 0.  1.
    10030    2    1    2    0    0  0.00000000000E+00  0.00000000000E+00  0.95299306842E+03  0.13107818525E+04  0.89997404209E+03 0.  0.
        2    1    3    3  502    0  0.22616257714E+03 -0.26877202123E+03  0.88612468947E+03  0.95320767726E+03  0.25500000920E-02 0. -1.
       -2    1    3    3    0  502 -0.22616257714E+03  0.26877202123E+03  0.66868378952E+02  0.35757417525E+03  0.25500000920E-02 0.  1.
</event>
<event>
 5   0  0.2308362E-04  0.8999156E+03  0.7818609E-02  0.9425687E-01
        1   -1    0    0  501    0  0.00000000000E+00  0.00000000000E+00  0.33128119502E+03  0.33128119506E+03  0.50400001928E-02 0.  1.
       -1   -1    0    0    0  501  0.00000000000E+00  0.00000000000E+00 -0.61114849116E+03  0.61114849118E+03  0.50400001928E-02 0. -1.
    10030    2    1    2    0    0  0.00000000000E+00  0.00000000000E+00 -0.27986729614E+03  0.94242968624E+03  0.89991555718E+03 0.  0.
        1    1    3    3  502    0 -0.12293675871E+03 -0.43244141894E+03 -0.15932814191E+03  0.47697430150E+03  0.50400001928E-02 0. -1.
       -1    1    3    3    0  502  0.12293675871E+03  0.43244141894E+03 -0.12053915422E+03  0.46545538474E+03  0.50400001928E-02 0.  1.
</event>
<event>
 5   0  0.3959804E-04  0.8994077E+03  0.7818609E-02  0.9426322E-01
       -2   -1    0    0    0  501  0.00000000000E+00  0.00000000000E+00  0.30444129164E+03  0.30444129165E+03  0.25500000920E-02 0. -1.
        2   -1    0    0  501    0  0.00000000000E+00  0.00000000000E+00 -0.66427770405E+03  0.66427770405E+03  0.25500000920E-02 0.  1.
    10030    2    1    2    0    0  0.00000000000E+00  0.00000000000E+00 -0.35983641240E+03  0.96871899570E+03  0.89940772119E+03 0.  0.
        5    1    3    3  502    0 -0.12708222810E+03 -0.57020784550E+02 -0.64043071121E+03  0.65541959722E+03  0.46999998093E+01 0.  1.
       -5    1    3    3    0  502  0.12708222810E+03  0.57020784550E+02  0.28059429880E+03  0.31329939848E+03  0.46999998093E+01 0. -1.
</event>
<event>
 5   0  0.2351435E-04  0.9003556E+03  0.7818609E-02  0.9425137E-01
       -1   -1    0    0    0  501  0.00000000000E+00  0.00000000000E+00  0.72401011899E+02  0.72401012075E+02  0.50400001928E-02 0. -1.
        1   -1    0    0  501    0  0.00000000000E+00  0.00000000000E+00 -0.27991325601E+04  0.27991325601E+04  0.50400001928E-02 0.  1.
    10030    2    1    2    0    0  0.00000000000E+00  0.00000000000E+00 -0.27267315482E+04  0.28715335722E+04  0.90035555210E+03 0.  0.
        4    1    3    3  502    0 -0.20519444260E+02  0.31960032527E+03 -0.23723902656E+04  0.23939094805E+04  0.12699999809E+01 0.  1.
       -4    1    3    3    0  502  0.20519444260E+02 -0.31960032527E+03 -0.35434128254E+03  0.47762409164E+03  0.12699999809E+01 0. -1.
</event>
<event>
 5   0  0.4236284E-04  0.9000653E+03  0.7818609E-02  0.9425500E-01
        2   -1    0    0  501    0  0.00000000000E+00  0.00000000000E+00  0.10060463268E+04  0.10060463268E+04  0.25500000920E-02 0.  1.
       -2   -1    0    0    0  501  0.00000000000E+00  0.00000000000E+00 -0.20131220467E+03  0.20131220469E+03  0.25500000920E-02 0. -1.
    10030    2    1    2    0    0  0.00000000000E+00  0.00000000000E+00  0.80473412209E+03  0.12073585315E+04  0.90006533997E+03 0.  0.
        2    1    3    3  502    0 -0.34926395122E+02  0.27356106193E+02  0.10031058447E+04  0.10040864233E+04  0.25500000920E-02 0.  1.
       -2    1    3    3    0  502  0.34926395122E+02 -0.27356106193E+02 -0.19837172264E+03  0.20327210820E+03  0.25500000920E-02 0. -1.
</event>
<event>
 5   0  0.2450427E-04  0.8998083E+03  0.7818609E-02  0.9425821E-01
       -1   -1    0    0    0  501  0.00000000000E+00  0.00000000000E+00  0.47433948972E+03  0.47433948974E+03  0.50400001928E-02 0. -1.
        1   -1    0    0  501    0  0.00000000000E+00  0.00000000000E+00 -0.42672755355E+03  0.42672755358E+03  0.50400001928E-02 0.  1.
    10030    2    1    2    0    0  0.00000000000E+00  0.00000000000E+00  0.47611936169E+02  0.90106704332E+03  0.89980826852E+03 0.  0.
        3    1    3    3  502    0 -0.98019793218E+02 -0.29958114815E+03 -0.29766800861E+03  0.43354699600E+03  0.10100000352E+00 0.  1.
       -3    1    3    3    0  502  0.98019793218E+02  0.29958114815E+03  0.34527994478E+03  0.46752004733E+03  0.10100000352E+00 0. -1.
</event>
<event>
 5   0  0.2356918E-04  0.8998066E+03  0.7818609E-02  0.9425823E-01
       -1   -1    0    0    0  501  0.00000000000E+00  0.00000000000E+00  0.55584404724E+03  0.55584404727E+03  0.50400001928E-02 0.  1.
        1   -1    0    0  501    0  0.00000000000E+00  0.00000000000E+00 -0.36415429119E+03  0.36415429123E+03  0.50400001928E-02 0. -1.
    10030    2    1    2    0    0  0.00000000000E+00  0.00000000000E+00  0.19168975605E+03  0.91999833849E+03  0.89980663492E+03 0.  0.
        5    1    3    3  502    0  0.35171868617E+03  0.93091658741E+02 -0.17470368199E+03  0.40362799410E+03  0.46999998093E+01 0. -1.
       -5    1    3    3    0  502 -0.35171868617E+03 -0.93091658741E+02  0.36639343804E+03  0.51637034439E+03  0.46999998093E+01 0.  1.
</event>
<event>
 5   0  0.2332791E-04  0.8975946E+03  0.7818609E-02  0.9428593E-01
        1   -1    0    0  501    0  0.00000000000E+00  0.00000000000E+00  0.80079553310E+03  0.80079553311E+03  0.50400001928E-02 0. -1.
       -1   -1    0    0    0  501  0.00000000000E+00  0.00000000000E+00 -0.25152363452E+03  0.25152363457E+03  0.50400001928E-02 0.  1.
    10030    2    1    2    0    0  0.00000000000E+00  0.00000000000E+00  0.54927189857E+03  0.10523191677E+04  0.89759457001E+03 0.  0.
        2    1    3    3  502    0 -0.41390790283E+03  0.23256679966E+02  0.73074458203E+02  0.42095189944E+03  0.25500000920E-02 0. -1.
       -2    1    3    3    0  502  0.41390790283E+03 -0.23256679966E+02  0.47619744037E+03  0.63136726825E+03  0.25500000920E-02 0.  1.
</event>
<event>
 5   0  0.2356918E-04  0.8996228E+03  0.7818609E-02  0.9426053E-01
        1   -1    0    0  501    0  0.00000000000E+00  0.00000000000E+00  0.71395622937E+03  0.71395622939E+03  0.50400001928E-02 0.  1.
       -1   -1    0    0    0  501  0.00000000000E+00  0.00000000000E+00 -0.28339314077E+03  0.28339314081E+03  0.50400001928E-02 0. -1.
    10030    2    1    2    0    0  0.00000000000E+00  0.00000000000E+00  0.43056308860E+03  0.99734937020E+03  0.89962280594E+03 0.  0.
        5    1    3    3  502    0 -0.27236340621E+03  0.52700199835E+02  0.60778855934E+03  0.66812286218E+03  0.46999998093E+01 0.  1.
       -5    1    3    3    0  502  0.27236340621E+03 -0.52700199835E+02 -0.17722547073E+03  0.32922650802E+03  0.46999998093E+01 0. -1.
</event>
<event>
 5   0  0.4236284E-04  0.8999220E+03  0.7818609E-02  0.9425679E-01
        2   -1    0    0  501    0  0.00000000000E+00  0.00000000000E+00  0.31022794927E+03  0.31022794928E+03  0.25500000920E-02 0. -1.
       -2   -1    0    0    0  501  0.00000000000E+00  0.00000000000E+00 -0.65263265774E+03  0.65263265775E+03  0.25500000920E-02 0.  1.
    10030    2    1    2    0    0  0.00000000000E+00  0.00000000000E+00 -0.34240470847E+03  0.96286060703E+03  0.89992197672E+03 0.  0.
        2    1    3    3  502    0 -0.57189676435E+02 -0.10845041896E+02 -0.64858726462E+03  0.65119406773E+03  0.25500000920E-02 0.  1.
       -2    1    3    3    0  502  0.57189676435E+02  0.10845041896E+02  0.30618255614E+03  0.31166653930E+03  0.25500000920E-02 0. -1.
</event>
<event>
 5   0  0.4236284E-04  0.9015136E+03  0.7818609E-02  0.9423691E-01
       -2   -1    0    0    0  501  0.00000000000E+00  0.00000000000E+00  0.43982027860E+03  0.43982027861E+03  0.25500000920E-02 0. -1.
        2   -1    0    0  501    0  0.00000000000E+00  0.00000000000E+00 -0.46196521811E+03  0.46196521811E+03  0.25500000920E-02 0.  1.
    10030    2    1    2    0    0  0.00000000000E+00  0.00000000000E+00 -0.22144939506E+02  0.90178549672E+03  0.90151355162E+03 0.  0.
        2    1    3    3  502    0  0.92299075071E+02  0.41879144813E+03 -0.14995337531E+03  0.45430321489E+03  0.25500000920E-02 0.  1.
       -2    1    3    3    0  502 -0.92299075071E+02 -0.41879144813E+03  0.12780843580E+03  0.44748228183E+03  0.25500000920E-02 0. -1.
</event>
<event>
 5   0  0.2332791E-04  0.9000438E+03  0.7818609E-02  0.9425527E-01
       -1   -1    0    0    0  501  0.00000000000E+00  0.00000000000E+00  0.39629389443E+03  0.39629389446E+03  0.50400001928E-02 0.  1.
        1   -1    0    0  501    0  0.00000000000E+00  0.00000000000E+00 -0.51103419467E+03  0.51103419470E+03  0.50400001928E-02 0. -1.
    10030    2    1    2    0    0  0.00000000000E+00  0.00000000000E+00 -0.11474030024E+03  0.90732808915E+03  0.90004384608E+03 0.  0.
        2    1    3    3  502    0 -0.10258544428E+03 -0.88682554792E+02  0.37520799330E+03  0.39896040799E+03  0.25500000920E-02 0.  1.
       -2    1    3    3    0  502  0.10258544428E+03  0.88682554792E+02 -0.48994829354E+03  0.50836768116E+03  0.25500000920E-02 0. -1.
</event>
<event>
 5   0  0.4033144E-04  0.8999527E+03  0.7818609E-02  0.9425641E-01
       -2   -1    0    0    0  501  0.00000000000E+00  0.00000000000E+00  0.17706134691E+03  0.17706134693E+03  0.25500000920E-02 0.  1.
        2   -1    0    0  501    0  0.00000000000E+00  0.00000000000E+00 -0.11435512129E+04  0.11435512129E+04  0.25500000920E-02 0. -1.
    10030    2    1    2    0    0  0.00000000000E+00  0.00000000000E+00 -0.96648986596E+03  0.13206125598E+04  0.89995270548E+03 0.  0.
        4    1    3    3  502    0  0.97372017919E+02  0.12019062501E+03  0.13681786339E+03  0.20651352706E+03  0.12699999809E+01 0.  1.
       -4    1    3    3    0  502 -0.97372017919E+02 -0.12019062501E+03 -0.11033077293E+04  0.11140990327E+04  0.12699999809E+01 0. -1.
</event>
<event>
 5   0  0.2356918E-04  0.8996246E+03  0.7818609E-02  0.9426051E-01
        1   -1    0    0  501    0  0.00000000000E+00  0.00000000000E+00  0.11338539803E+04  0.11338539803E+04  0.50400001928E-02 0.  1.
       -1   -1    0    0    0  501  0.00000000000E+00  0.00000000000E+00 -0.17844548590E+03  0.17844548597E+03  0.50400001928E-02 0. -1.
    10030    2    1    2    0    0  0.00000000000E+00  0.00000000000E+00  0.95540849438E+03  0.13122994663E+04  0.89962464285E+03 0.  0.
        5    1    3    3  502    0  0.38542294705E+03 -0.82211480049E+02  0.16146334662E+03  0.42591322809E+03  0.46999998093E+01 0.  1.
       -5    1    3    3    0  502 -0.38542294705E+03  0.82211480049E+02  0.79394514777E+03  0.88638623817E+03  0.46999998093E+01 0. -1.
</event>
<event>
 5   0  0.2356918E-04  0.9002138E+03  0.7818609E-02  0.9425314E-01
        1   -1    0    0  501    0  0.00000000000E+00  0.00000000000E+00  0.16414872443E+04  0.16414872443E+04  0.50400001928E-02 0. -1.
       -1   -1    0    0    0  501  0.00000000000E+00  0.00000000000E+00 -0.12342235545E+03  0.12342235555E+03  0.50400001928E-02 0.  1.
    10030    2    1    2    0    0  0.00000000000E+00  0.00000000000E+00  0.15180648888E+04  0.17649095998E+04  0.90021380178E+03 0.  0.
        5    1    3    3  502    0  0.33036211791E+03  0.21741720205E+03  0.33779001780E+03  0.52012840224E+03  0.46999998093E+01 0.  1.
       -5    1    3    3    0  502 -0.33036211791E+03 -0.21741720205E+03  0.11802748710E+04  0.12447811976E+04  0.46999998093E+01 0. -1.
</event>
<event>
 5   0  0.2450427E-04  0.8998163E+03  0.7818609E-02  0.9425811E-01
        1   -1    0    0  501    0  0.00000000000E+00  0.00000000000E+00  0.19343455902E+04  0.19343455902E+04  0.50400001928E-02 0. -1.
       -1   -1    0    0    0  501  0.00000000000E+00  0.00000000000E+00 -0.10464382780E+03  0.10464382792E+03  0.50400001928E-02 0.  1.
    10030    2    1    2    0    0  0.00000000000E+00  0.00000000000E+00  0.18297017624E+04  0.20389894181E+04  0.89981626341E+03 0.  0.
        3    1    3    3  502    0  0.10487741115E+03 -0.85970648913E+02 -0.57229137730E+02  0.14719173975E+03  0.10100000352E+00 0.  1.
       -3    1    3    3    0  502 -0.10487741115E+03  0.85970648913E+02  0.18869309001E+04  0.18917976783E+04  0.10100000352E+00 0. -1.
</event>
<event>
 5   0  0.4236284E-04  0.8990439E+03  0.7818609E-02  0.9426777E-01
        2   -1    0    0  501    0  0.00000000000E+00  0.00000000000E+00  0.12405406658E+04  0.12405406658E+04  0.25500000920E-02 0. -1.
       -2   -1    0    0    0  501  0.00000000000E+00  0.00000000000E+00 -0.16288865203E+03  0.16288865205E+03  0.25500000920E-02 0.  1.
    10030    2    1    2    0    0  0.00000000000E+00  0.00000000000E+00  0.10776520137E+04  0.14034293178E+04  0.89904392963E+03 0.  0.
        2    1    3    3  502    0 -0.44149814087E+03 -0.78665234915E+02  0.49042999559E+03  0.66455278809E+03  0.25500000920E-02 0.  1.
       -2    1    3    3    0  502  0.44149814087E+03  0.78665234915E+02  0.58722201814E+03  0.73887652972E+03  0.25500000920E-02 0. -1.
</event>
<event>
 5   0  0.2308362E-04  0.9038286E+03  0.7818609E-02  0.9420808E-01
        1   -1    0    0  501    0  0.00000000000E+00  0.00000000000E+00  0.52542601974E+03  0.52542601977E+03  0.50400001928E-02 0. -1.
       -1   -1    0    0    0  501  0.00000000000E+00  0.00000000000E+00 -0.38868751309E+03  0.38868751312E+03  0.50400001928E-02 0.  1.
    10030    2    1    2    0    0  0.00000000000E+00  0.00000000000E+00  0.13673850665E+03  0.91411353289E+03  0.90382859647E+03 0.  0.
        1    1    3    3  502    0 -0.44310703291E+03  0.43160052428E+02 -0.10101659700E+02  0.44531862334E+03  0.50400001928E-02 0. -1.
       -1    1    3    3    0  502  0.44310703291E+03 -0.43160052428E+02  0.14684016635E+03  0.46879490955E+03  0.50400001928E-02 0.  1.
</event>
<event>
 5   0  0.4236284E-04  0.9001905E+03  0.7818609E-02  0.9425343E-01
        2   -1    0    0  501    0  0.00000000000E+00  0.00000000000E+00  0.11148018415E+03  0.11148018418E+03  0.25500000920E-02 0. -1.
       -2   -1    0    0    0  501  0.00000000000E+00  0.00000000000E+00 -0.18172355575E+04  0.18172355575E+04  0.25500000920E-02 0.  1.
    10030    2    1    2    0    0  0.00000000000E+00  0.00000000000E+00 -0.17057553733E+04  0.19287157417E+04  0.90019054567E+03 0.  0.
        2    1    3    3  502    0  0.27953052691E+03  0.25476521880E+03 -0.33006083161E+03  0.50197886883E+03  0.25500000920E-02 0. -1.
       -2    1    3    3    0  502 -0.27953052691E+03 -0.25476521880E+03 -0.13756945417E+04  0.14267368728E+04  0.25500000920E-02 0.  1.
</event>
<event>
 5   0  0.4236284E-04  0.8991950E+03  0.7818609E-02  0.9426588E-01
       -2   -1    0    0    0  501  0.00000000000E+00  0.00000000000E+00  0.18386989441E+03  0.18386989442E+03  0.25500000920E-02 0.  1.
        2   -1    0    0  501    0  0.00000000000E+00  0.00000000000E+00 -0.10993529763E+04  0.10993529763E+04  0.25500000920E-02 0. -1.
    10030    2    1    2    0    0  0.00000000000E+00  0.00000000000E+00 -0.91548308187E+03  0.12832228707E+04  0.89919500816E+03 0.  0.
        2    1    3    3  502    0  0.20082869665E+03 -0.27554881401E+03 -0.39535130536E+02  0.34325259045E+03  0.25500000920E-02 0.  1.
       -2    1    3    3    0  502 -0.20082869665E+03  0.27554881401E+03 -0.87594795133E+03  0.93997028025E+03  0.25500000920E-02 0. -1.
</event>
<event>
 5   0  0.2450427E-04  0.9011888E+03  0.7818609E-02  0.9424097E-01
        1   -1    0    0  501    0  0.00000000000E+00  0.00000000000E+00  0.88548855912E+03  0.88548855914E+03  0.50400001928E-02 0. -1.
       -1   -1    0    0    0  501  0.00000000000E+00  0.00000000000E+00 -0.22929183365E+03  0.22929183370E+03  0.50400001928E-02 0.  1.
    10030    2    1    2    0    0  0.00000000000E+00  0.00000000000E+00  0.65619672548E+03  0.11147803928E+04  0.90118876032E+03 0.  0.
        3    1    3    3  502    0  0.14569520132E+02 -0.39246497588E+03  0.54849785206E+02  0.39654701782E+03  0.10100000352E+00 0.  1.
       -3    1    3    3    0  502 -0.14569520132E+02  0.39246497588E+03  0.60134694027E+03  0.71823337501E+03  0.10100000352E+00 0. -1.
</event>
<event>
 5   0  0.2308362E-04  0.9002251E+03  0.7818609E-02  0.9425300E-01
       -1   -1    0    0    0  501  0.00000000000E+00  0.00000000000E+00  0.15832547230E+03  0.15832547238E+03  0.50400001928E-02 0.  1.
        1   -1    0    0  501    0  0.00000000000E+00  0.00000000000E+00 -0.12796506092E+04  0.12796506092E+04  0.50400001928E-02 0. -1.
    10030    2    1    2    0    0  0.00000000000E+00  0.00000000000E+00 -0.11213251369E+04  0.14379760815E+04  0.90022505438E+03 0.  0.
        1    1    3    3  502    0 -0.31118002387E+03  0.96786899066E+02 -0.64709728967E+02  0.33224698665E+03  0.50400001928E-02 0.  1.
       -1    1    3    3    0  502  0.31118002387E+03 -0.96786899066E+02 -0.10566154079E+04  0.11057290949E+04  0.50400001928E-02 0. -1.
</event>
<event>
 5   0  0.2450427E-04  0.8994185E+03  0.7818609E-02  0.9426309E-01
       -1   -1    0    0    0  501  0.00000000000E+00  0.00000000000E+00  0.27546763587E+03  0.27546763591E+03  0.50400001928E-02 0. -1.
        1   -1    0    0  501    0  0.00000000000E+00  0.00000000000E+00 -0.73416390532E+03  0.73416390534E+03  0.50400001928E-02 0.  1.
    10030    2    1    2    0    0  0.00000000000E+00  0.00000000000E+00 -0.45869626945E+03  0.10096315412E+04  0.89941846850E+03 0.  0.
        3    1    3    3  502    0 -0.13224172254E+03 -0.16460284516E+03  0.21636653939E+03  0.30231847344E+03  0.10100000352E+00 0. -1.
       -3    1    3    3    0  502  0.13224172254E+03  0.16460284516E+03 -0.67506280884E+03  0.70731306781E+03  0.10100000352E+00 0.  1.
</event>
<event>
 5   0  0.2356918E-04  0.8982795E+03  0.7818609E-02  0.9427735E-01
        1   -1    0    0  501    0  0.00000000000E+00  0.00000000000E+00  0.71674011844E+03  0.71674011846E+03  0.50400001928E-02 0.  1.
       -1   -1    0    0    0  501  0.00000000000E+00  0.00000000000E+00 -0.28145002055E+03  0.28145002060E+03  0.50400001928E-02 0. -1.
    10030    2    1    2    0    0  0.00000000000E+00  0.00000000000E+00  0.43529009788E+03  0.99819013906E+03  0.89827951351E+03 0.  0.
        5    1    3    3  502    0 -0.17779453759E+03  0.40169195303E+03  0.11377612286E+03  0.45379997671E+03  0.46999998093E+01 0. -1.
       -5    1    3    3    0  502  0.17779453759E+03 -0.40169195303E+03  0.32151397503E+03  0.54439016235E+03  0.46999998093E+01 0.  1.
</event>
<event>
 5   0  0.2351435E-04  0.8998757E+03  0.7818609E-02  0.9425737E-01
       -1   -1    0    0    0  501  0.00000000000E+00  0.00000000000E+00  0.27890596408E+03  0.27890596413E+03  0.50400001928E-02 0. -1.
        1   -1    0    0  501    0  0.00000000000E+00  0.00000000000E+00 -0.72585056648E+03  0.72585056650E+03  0.50400001928E-02 0.  1.
    10030    2    1    2    0    0  0.00000000000E+00  0.00000000000E+00 -0.44694460240E+03  0.10047565306E+04  0.89987566264E+03 0.  0.
        4    1    3    3  502    0  0.20687304499E+03  0.39244549325E+03 -0.30726951834E+03  0.53965367757E+03  0.12699999809E+01 0. -1.
       -4    1    3    3    0  502 -0.20687304499E+03 -0.39244549325E+03 -0.13967508407E+03  0.46510285306E+03  0.12699999809E+01 0.  1.
</event>
<event>
 5   0  0.2351435E-04  0.8997950E+03  0.7818609E-02  0.9425838E-01
        1   -1    0    0  501    0  0.00000000000E+00  0.00000000000E+00  0.69436251224E+03  0.69436251226E+03  0.50400001928E-02 0. -1.
       -1   -1    0    0    0  501  0.00000000000E+00  0.00000000000E+00 -0.29150156624E+03  0.29150156628E+03  0.50400001928E-02 0.  1.
    10030    2    1    2    0    0  0.00000000000E+00  0.00000000000E+00  0.40286094601E+03  0.98586407854E+03  0.89979499862E+03 0.  0.
        4    1    3    3  502    0 -0.40771836981E+03 -0.70830851737E+02  0.80393977718E+01  0.41390521071E+03  0.12699999809E+01 0.  1.
       -4    1    3    3    0  502  0.40771836981E+03  0.70830851737E+02  0.39482154823E+03  0.57195886783E+03  0.12699999809E+01 0. -1.
</event>
<event>
 5   0  0.4243516E-04  0.9017949E+03  0.7818609E-02  0.9423340E-01
        2   -1    0    0  501    0  0.00000000000E+00  0.00000000000E+00  0.65253433609E+03  0.65253433609E+03  0.25500000920E-02 0. -1.
       -2   -1    0    0    0  501  0.00000000000E+00  0.00000000000E+00 -0.31156755493E+03  0.31156755494E+03  0.25500000920E-02 0.  1.
    10030    2    1    2    0    0  0.00000000000E+00  0.00000000000E+00  0.34096678116E+03  0.96410189103E+03  0.90179493813E+03 0.  0.
        1    1    3    3  502    0  0.19892533531E+03 -0.37530276428E+03  0.87531252765E+01  0.42485299944E+03  0.50400001928E-02 0.  1.
       -1    1    3    3    0  502 -0.19892533531E+03  0.37530276428E+03  0.33221365588E+03  0.53924889159E+03  0.50400001928E-02 0. -1.
</event>
<event>
 5   0  0.4110039E-04  0.9001074E+03  0.7818609E-02  0.9425447E-01
       -2   -1    0    0    0  501  0.00000000000E+00  0.00000000000E+00  0.13510887183E+03  0.13510887186E+03  0.25500000920E-02 0. -1.
        2   -1    0    0  501    0  0.00000000000E+00  0.00000000000E+00 -0.14991488895E+04  0.14991488895E+04  0.25500000920E-02 0.  1.
    10030    2    1    2    0    0  0.00000000000E+00  0.00000000000E+00 -0.13640400176E+04  0.16342577613E+04  0.90010736068E+03 0.  0.
        3    1    3    3  502    0 -0.14848064768E+03 -0.14045310894E+03 -0.14100263005E+04  0.14247623510E+04  0.10100000352E+00 0.  1.
       -3    1    3    3    0  502  0.14848064768E+03  0.14045310894E+03  0.45986282834E+02  0.20949541035E+03  0.10100000352E+00 0. -1.
</event>
<event>
 5   0  0.2356918E-04  0.8996283E+03  0.7818609E-02  0.9426046E-01
        1   -1    0    0  501    0  0.00000000000E+00  0.00000000000E+00  0.43500693824E+03  0.43500693827E+03  0.50400001928E-02 0. -1.
       -1   -1    0    0    0  501  0.00000000000E+00  0.00000000000E+00 -0.46512541487E+03  0.46512541490E+03  0.50400001928E-02 0.  1.
    10030    2    1    2    0    0  0.00000000000E+00  0.00000000000E+00 -0.30118476631E+02  0.90013235317E+03  0.89962832914E+03 0.  0.
        5    1    3    3  502    0  0.16284448446E+03 -0.37426686671E+03 -0.20415368916E+03  0.45639328701E+03  0.46999998093E+01 0.  1.
       -5    1    3    3    0  502 -0.16284448446E+03  0.37426686671E+03  0.17403521253E+03  0.44373906616E+03  0.46999998093E+01 0. -1.
</event>
<event>
 5   0  0.4236284E-04  0.8999269E+03  0.7818609E-02  0.9425673E-01
        2   -1    0    0  501    0  0.00000000000E+00  0.00000000000E+00  0.10900242213E+03  0.10900242216E+03  0.25500000920E-02 0.  1.
       -2   -1    0    0    0  501  0.00000000000E+00  0.00000000000E+00 -0.18574551721E+04  0.18574551721E+04  0.25500000920E-02 0. -1.
    10030    2    1    2    0    0  0.00000000000E+00  0.00000000000E+00 -0.17484527500E+04  0.19664575943E+04  0.89992691434E+03 0.  0.
        2    1    3    3  502    0  0.48139886199E+02 -0.32839982236E+03 -0.21035220314E+03  0.39295284875E+03  0.25500000920E-02 0.  1.
       -2    1    3    3    0  502 -0.48139886199E+02  0.32839982236E+03 -0.15381005469E+04  0.15735047455E+04  0.25500000920E-02 0. -1.
</event>
<event>
 5   0  0.4033144E-04  0.8997960E+03  0.7818609E-02  0.9425837E-01
        2   -1    0    0  501    0  0.00000000000E+00  0.00000000000E+00  0.62272375825E+03  0.62272375825E+03  0.25500000920E-02 0. -1.
       -2   -1    0    0    0  501  0.00000000000E+00  0.00000000000E+00 -0.32503689441E+03  0.32503689442E+03  0.25500000920E-02 0.  1.
    10030    2    1    2    0    0  0.00000000000E+00  0.00000000000E+00  0.29768686384E+03  0.94776065267E+03  0.89979596901E+03 0.  0.
        4    1    3    3  502    0  0.10526545362E+03  0.18711454311E+03  0.56528440474E+03  0.60468234562E+03  0.12699999809E+01 0. -1.
       -4    1    3    3    0  502 -0.10526545362E+03 -0.18711454311E+03 -0.26759754090E+03  0.34307830704E+03  0.12699999809E+01 0.  1.
</event>
<event>
 5   0  0.2351435E-04  0.9002336E+03  0.7818609E-02  0.9425289E-01
        1   -1    0    0  501    0  0.00000000000E+00  0.00000000000E+00  0.14813478982E+03  0.14813478991E+03  0.50400001928E-02 0.  1.
       -1   -1    0    0    0  501  0.00000000000E+00  0.00000000000E+00 -0.13677078820E+04  0.13677078820E+04  0.50400001928E-02 0. -1.
    10030    2    1    2    0    0  0.00000000000E+00  0.00000000000E+00 -0.12195730922E+04  0.15158426720E+04  0.90023356906E+03 0.  0.
        4    1    3    3  502    0  0.31964816561E+03 -0.25333252188E+02 -0.77879875484E+02  0.32997516778E+03  0.12699999809E+01 0. -1.
       -4    1    3    3    0  502 -0.31964816561E+03  0.25333252188E+02 -0.11416932167E+04  0.11858675042E+04  0.12699999809E+01 0.  1.
</event>
<event>
 5   0  0.3959804E-04  0.8985554E+03  0.7818609E-02  0.9427389E-01
        2   -1    0    0  501    0  0.00000000000E+00  0.00000000000E+00  0.21402594066E+04  0.21402594066E+04  0.25500000920E-02 0. -1.
       -2   -1    0    0    0  501  0.00000000000E+00  0.00000000000E+00 -0.94311212261E+02  0.94311212295E+02  0.25500000920E-02 0.  1.
    10030    2    1    2    0    0  0.00000000000E+00  0.00000000000E+00  0.20459481943E+04  0.22345706189E+04  0.89855541672E+03 0.  0.
        5    1    3    3  502    0 -0.15436405985E+03 -0.34172461904E+03  0.40763932914E+03  0.55389158767E+03  0.46999998093E+01 0.  1.
       -5    1    3    3    0  502  0.15436405985E+03  0.34172461904E+03  0.16383088652E+04  0.16806790312E+04  0.46999998093E+01 0. -1.
</event>
<event>
 5   0  0.4110039E-04  0.9011119E+03  0.7818609E-02  0.9424193E-01
       -2   -1    0    0    0  501  0.00000000000E+00  0.00000000000E+00  0.20785354708E+03  0.20785354710E+03  0.25500000920E-02 0. -1.
        2   -1    0    0  501    0  0.00000000000E+00  0.00000000000E+00 -0.97665238578E+03  0.97665238578E+03  0.25500000920E-02 0.  1.
    10030    2    1    2    0    0  0.00000000000E+00  0.00000000000E+00 -0.76879883870E+03  0.11845059329E+04  0.90111189686E+03 0.  0.
        3    1    3    3  502    0  0.26352237874E+03  0.36034524922E+03 -0.30435646806E+03  0.54030140901E+03  0.10100000352E+00 0. -1.
       -3    1    3    3    0  502 -0.26352237874E+03 -0.36034524922E+03 -0.46444237064E+03  0.64420452387E+03  0.10100000352E+00 0.  1.
</event>
<event>
 5   0  0.2351435E-04  0.9002144E+03  0.7818609E-02  0.9425313E-01
        1   -1    0    0  501    0  0.00000000000E+00  0.00000000000E+00  0.45909342430E+03  0.45909342432E+03  0.50400001928E-02 0. -1.
       -1   -1    0    0    0  501  0.00000000000E+00  0.00000000000E+00 -0.44129690347E+03  0.44129690350E+03  0.50400001928E-02 0.  1.
    10030    2    1    2    0    0  0.00000000000E+00  0.00000000000E+00  0.17796520824E+02  0.90039032783E+03  0.90021443350E+03 0.  0.
        4    1    3    3  502    0 -0.88759243129E+02  0.44059705550E+03 -0.15415440736E+02  0.44971459535E+03  0.12699999809E+01 0. -1.
       -4    1    3    3    0  502  0.88759243129E+02 -0.44059705550E+03  0.33211961559E+02  0.45067573248E+03  0.12699999809E+01 0.  1.
</event>
<event>
 5   0  0.1596250E-04  0.9002406E+03  0.7818609E-02  0.9425281E-01
        3   -1    0    0  501    0  0.00000000000E+00  0.00000000000E+00  0.44088022098E+03  0.44088023254E+03  0.10100000352E+00 0.  1.
       -3   -1    0    0    0  501  0.00000000000E+00  0.00000000000E+00 -0.45955401282E+03  0.45955402392E+03  0.10100000352E+00 0. -1.
    10030    2    1    2    0    0  0.00000000000E+00  0.00000000000E+00 -0.18673791844E+02  0.90043425646E+03  0.90024060101E+03 0.  0.
        1    1    3    3  502    0  0.43803028247E+03 -0.40648213713E+02 -0.10467518062E+03  0.45219431565E+03  0.50400001928E-02 0.  1.
       -1    1    3    3    0  502 -0.43803028247E+03  0.40648213713E+02  0.86001388775E+02  0.44823994081E+03  0.50400001928E-02 0. -1.
</event>
<event>
 5   0  0.2308362E-04  0.8994890E+03  0.7818609E-02  0.9426220E-01
        1   -1    0    0  501    0  0.00000000000E+00  0.00000000000E+00  0.30005243859E+03  0.30005243863E+03  0.50400001928E-02 0.  1.
       -1   -1    0    0    0  501  0.00000000000E+00  0.00000000000E+00 -0.67411588786E+03  0.67411588788E+03  0.50400001928E-02 0. -1.
    10030    2    1    2    0    0  0.00000000000E+00  0.00000000000E+00 -0.37406344927E+03  0.97416832651E+03  0.89948900177E+03 0.  0.
        1    1    3    3  502    0  0.23250769909E+02  0.67844117825E+02  0.29381965470E+03  0.30244571768E+03  0.50400001928E-02 0.  1.
       -1    1    3    3    0  502 -0.23250769909E+02 -0.67844117825E+02 -0.66788310397E+03  0.67172260883E+03  0.50400001928E-02 0. -1.
</event>
<event>
 5   0  0.4033144E-04  0.8998010E+03  0.7818609E-02  0.9425830E-01
        2   -1    0    0  501    0  0.00000000000E+00  0.00000000000E+00  0.41524029905E+03  0.41524029906E+03  0.25500000920E-02 0.  1.
       -2   -1    0    0    0  501  0.00000000000E+00  0.00000000000E+00 -0.48745375698E+03  0.48745375699E+03  0.25500000920E-02 0. -1.
    10030    2    1    2    0    0  0.00000000000E+00  0.00000000000E+00 -0.72213457932E+02  0.90269405604E+03  0.89980096428E+03 0.  0.
        4    1    3    3  502    0  0.37509423448E+03 -0.27575634714E+02 -0.28378659922E+03  0.47116085063E+03  0.12699999809E+01 0. -1.
       -4    1    3    3    0  502 -0.37509423448E+03  0.27575634714E+02  0.21157314128E+03  0.43153320542E+03  0.12699999809E+01 0.  1.
</event>
<event>
 5   0  0.4110039E-04  0.8999574E+03  0.7818609E-02  0.9425635E-01
       -2   -1    0    0    0  501  0.00000000000E+00  0.00000000000E+00  0.83510966352E+03  0.83510966352E+03  0.25500000920E-02 0. -1.
        2   -1    0    0  501    0  0.00000000000E+00  0.00000000000E+00 -0.24246014527E+03  0.24246014528E+03  0.25500000920E-02 0.  1.
    10030    2    1    2    0    0  0.00000000000E+00  0.00000000000E+00  0.59264951825E+03  0.10775698088E+04  0.89995735530E+03 0.  0.
        3    1    3    3  502    0 -0.13648140064E+03  0.15082463674E+03 -0.18426968253E+03  0.27446415043E+03  0.10100000352E+00 0.  1.
       -3    1    3    3    0  502  0.13648140064E+03 -0.15082463674E+03  0.77691920078E+03  0.80310565837E+03  0.10100000352E+00 0. -1.
</event>
<event>
 5   0  0.4236284E-04  0.8999134E+03  0.7818609E-02  0.9425690E-01
        2   -1    0    0  501    0  0.00000000000E+00  0.00000000000E+00  0.10179725425E+04  0.10179725425E+04  0.25500000920E-02 0. -1.
       -2   -1    0    0    0  501  0.00000000000E+00  0.00000000000E+00 -0.19888655251E+03  0.19888655252E+03  0.25500000920E-02 0.  1.
    10030    2    1    2    0    0  0.00000000000E+00  0.00000000000E+00  0.81908598999E+03  0.12168590950E+04  0.89991343924E+03 0.  0.
        2    1    3    3  502    0 -0.42653483316E+03  0.13677553903E+03  0.35183199241E+03  0.56958341169E+03  0.25500000920E-02 0. -1.
       -2    1    3    3    0  502  0.42653483316E+03 -0.13677553903E+03  0.46725399757E+03  0.64727568333E+03  0.25500000920E-02 0.  1.
</event>
<event>
 5   0  0.4236284E-04  0.8988829E+03  0.7818609E-02  0.9426979E-01
        2   -1    0    0  501    0  0.00000000000E+00  0.00000000000E+00  0.18052875470E+04  0.18052875470E+04  0.25500000920E-02 0.  1.
       -2   -1    0    0    0  501  0.00000000000E+00  0.00000000000E+00 -0.11189221990E+03  0.11189221993E+03  0.25500000920E-02 0. -1.
    10030    2    1    2    0    0  0.00000000000E+00  0.00000000000E+00  0.16933953271E+04  0.19171797669E+04  0.89888293169E+03 0.  0.
        2    1    3    3  502    0  0.42137787720E+03 -0.12383825320E+03  0.64321016666E+03  0.77885463782E+03  0.25500000920E-02 0. -1.
       -2    1    3    3    0  502 -0.42137787720E+03  0.12383825320E+03  0.10501851604E+04  0.11383251291E+04  0.25500000920E-02 0.  1.
</event>
<event>
 5   0  0.4033144E-04  0.9010815E+03  0.7818609E-02  0.9424231E-01
       -2   -1    0    0    0  501  0.00000000000E+00  0.00000000000E+00  0.63418086364E+03  0.63418086365E+03  0.25500000920E-02 0.  1.
        2   -1    0    0  501    0  0.00000000000E+00  0.00000000000E+00 -0.32007740534E+03  0.32007740535E+03  0.25500000920E-02 0. -1.
    10030    2    1    2    0    0  0.00000000000E+00  0.00000000000E+00  0.31410345830E+03  0.95425826900E+03  0.90108149545E+03 0.  0.
        4    1    3    3  502    0  0.10378318767E+03 -0.28600437827E+01 -0.30723426486E+03  0.32430485087E+03  0.12699999809E+01 0. -1.
       -4    1    3    3    0  502 -0.10378318767E+03  0.28600437827E+01  0.62133772316E+03  0.62995341813E+03  0.12699999809E+01 0.  1.
</event>
<event>
 5   0  0.3959804E-04  0.8997505E+03  0.7818609E-02  0.9425893E-01
        2   -1    0    0  501    0  0.00000000000E+00  0.00000000000E+00  0.33977692848E+03  0.33977692849E+03  0.25500000920E-02 0. -1.
       -2   -1    0    0    0  501  0.00000000000E+00  0.00000000000E+00 -0.59564883366E+03  0.59564883367E+03  0.25500000920E-02 0.  1.
    10030    2    1    2    0    0  0.00000000000E+00  0.00000000000E+00 -0.25587190518E+03  0.93542576215E+03  0.89975047910E+03 0.  0.
        5    1    3    3  502    0  0.24696531726E+03 -0.11637043068E+03 -0.49964789595E+03  0.56938919466E+03  0.46999998093E+01 0.  1.
       -5    1    3    3    0  502 -0.24696531726E+03  0.11637043068E+03  0.24377599077E+03  0.36603656749E+03  0.46999998093E+01 0. -1.
</event>
<event>
 5   0  0.3959804E-04  0.8995487E+03  0.7818609E-02  0.9426146E-01
        2   -1    0    0  501    0  0.00000000000E+00  0.00000000000E+00  0.28231273840E+03  0.28231273842E+03  0.25500000920E-02 0. -1.
       -2   -1    0    0    0  501  0.00000000000E+00  0.00000000000E+00 -0.71657052490E+03  0.71657052491E+03  0.25500000920E-02 0.  1.
    10030    2    1    2    0    0  0.00000000000E+00  0.00000000000E+00 -0.43425778650E+03  0.99888326332E+03  0.89954874721E+03 0.  0.
        5    1    3    3  502    0  0.16832228170E+03  0.41256718643E+03 -0.28495429496E+03  0.52892826929E+03  0.46999998093E+01 0.  1.
       -5    1    3    3    0  502 -0.16832228170E+03 -0.41256718643E+03 -0.14930349154E+03  0.46995499404E+03  0.46999998093E+01 0. -1.
</event>
<event>
 5   0  0.4110039E-04  0.9002415E+03  0.7818609E-02  0.9425280E-01
        2   -1    0    0  501    0  0.00000000000E+00  0.00000000000E+00  0.12353030971E+04  0.12353030971E+04  0.25500000920E-02 0. -1.
       -2   -1    0    0    0  501  0.00000000000E+00  0.00000000000E+00 -0.16401536100E+03  0.16401536102E+03  0.25500000920E-02 0.  1.
    10030    2    1    2    0    0  0.00000000000E+00  0.00000000000E+00  0.10712877361E+04  0.13993184581E+04  0.90024148635E+03 0.  0.
        3    1    3    3  502    0  0.13351800272E+03 -0.27513237772E+03  0.22265398331E+02  0.30662785340E+03  0.10100000352E+00 0.  1.
       -3    1    3    3    0  502 -0.13351800272E+03  0.27513237772E+03  0.10490223378E+04  0.10926906047E+04  0.10100000352E+00 0. -1.
</event>
<event>
 5   0  0.2351435E-04  0.8969599E+03  0.7818609E-02  0.9429390E-01
       -1   -1    0    0    0  501  0.00000000000E+00  0.00000000000E+00  0.10865979630E+03  0.10865979642E+03  0.50400001928E-02 0. -1.
        1   -1    0    0  501    0  0.00000000000E+00  0.00000000000E+00 -0.18510459868E+04  0.18510459868E+04  0.50400001928E-02 0.  1.
    10030    2    1    2    0    0  0.00000000000E+00  0.00000000000E+00 -0.17423861905E+04  0.19597057832E+04  0.89695993220E+03 0.  0.
        4    1    3    3  502    0  0.27738353555E+03  0.34556261662E+03 -0.72017845381E+03  0.84558486625E+03  0.12699999809E+01 0. -1.
       -4    1    3    3    0  502 -0.27738353555E+03 -0.34556261662E+03 -0.10222077367E+04  0.11141209170E+04  0.12699999809E+01 0.  1.
</event>
<event>
 5   0  0.2308362E-04  0.8999733E+03  0.7818609E-02  0.9425615E-01
       -1   -1    0    0    0  501  0.00000000000E+00  0.00000000000E+00  0.17137434278E+03  0.17137434285E+03  0.50400001928E-02 0. -1.
        1   -1    0    0  501    0  0.00000000000E+00  0.00000000000E+00 -0.11815537251E+04  0.11815537251E+04  0.50400001928E-02 0.  1.
    10030    2    1    2    0    0  0.00000000000E+00  0.00000000000E+00 -0.10101793823E+04  0.13529280680E+04  0.89997331773E+03 0.  0.
        1    1    3    3  502    0  0.14004253045E+03  0.26796215408E+03 -0.10061016428E+04  0.10505503996E+04  0.50400001928E-02 0.  1.
       -1    1    3    3    0  502 -0.14004253045E+03 -0.26796215408E+03 -0.40777395099E+01  0.30237766839E+03  0.50400001928E-02 0. -1.
</event>
<event>
 5   0  0.4236284E-04  0.8994780E+03  0.7818609E-02  0.9426234E-01
       -2   -1    0    0    0  501  0.00000000000E+00  0.00000000000E+00  0.52090783385E+03  0.52090783386E+03  0.25500000920E-02 0. -1.
        2   -1    0    0  501    0  0.00000000000E+00  0.00000000000E+00 -0.38829354788E+03  0.38829354789E+03  0.25500000920E-02 0.  1.
    10030    2    1    2    0    0  0.00000000000E+00  0.00000000000E+00  0.13261428597E+03  0.90920138175E+03  0.89947796178E+03 0.  0.
        2    1    3    3  502    0  0.19278331960E+03 -0.20546465947E+03 -0.28803047279E+03  0.40291771848E+03  0.25500000920E-02 0.  1.
       -2    1    3    3    0  502 -0.19278331960E+03  0.20546465947E+03  0.42064475876E+03  0.50628366326E+03  0.25500000920E-02 0. -1.
</event>
<event>
 5   0  0.4033144E-04  0.8999683E+03  0.7818609E-02  0.9425621E-01
       -2   -1    0    0    0  501  0.00000000000E+00  0.00000000000E+00  0.11725213649E+03  0.11725213652E+03  0.25500000920E-02 0. -1.
        2   -1    0    0  501    0  0.00000000000E+00  0.00000000000E+00 -0.17269256582E+04  0.17269256582E+04  0.25500000920E-02 0.  1.
    10030    2    1    2    0    0  0.00000000000E+00  0.00000000000E+00 -0.16096735217E+04  0.18441777947E+04  0.89996827280E+03 0.  0.
        4    1    3    3  502    0  0.30559566529E+03  0.20571310869E+03 -0.27530657689E+03  0.45989337667E+03  0.12699999809E+01 0. -1.
       -4    1    3    3    0  502 -0.30559566529E+03 -0.20571310869E+03 -0.13343669448E+04  0.13842844180E+04  0.12699999809E+01 0.  1.
</event>
<event>
 5   0  0.2356918E-04  0.9002642E+03  0.7818609E-02  0.9425251E-01
        1   -1    0    0  501    0  0.00000000000E+00  0.00000000000E+00  0.21477826403E+04  0.21477826403E+04  0.50400001928E-02 0. -1.
       -1   -1    0    0    0  501  0.00000000000E+00  0.00000000000E+00 -0.94338642868E+02  0.94338643003E+02  0.50400001928E-02 0.  1.
    10030    2    1    2    0    0  0.00000000000E+00  0.00000000000E+00  0.20534439974E+04  0.22421212833E+04  0.90026418261E+03 0.  0.
        5    1    3    3  502    0  0.36993408162E+03 -0.10303836997E+03  0.16114823564E+04  0.16566126902E+04  0.46999998093E+01 0. -1.
       -5    1    3    3    0  502 -0.36993408162E+03  0.10303836997E+03  0.44196164103E+03  0.58550859308E+03  0.46999998093E+01 0.  1.
</event>
<event>
 5   0  0.1596250E-04  0.8952706E+03  0.7818609E-02  0.9431513E-01
       -3   -1    0    0    0  501  0.00000000000E+00  0.00000000000E+00  0.55539549082E+03  0.55539550000E+03  0.10100000352E+00 0. -1.
        3   -1    0    0  501    0  0.00000000000E+00  0.00000000000E+00 -0.36078319274E+03  0.36078320688E+03  0.10100000352E+00 0.  1.
    10030    2    1    2    0    0  0.00000000000E+00  0.00000000000E+00  0.19461229808E+03  0.91617870688E+03  0.89527061629E+03 0.  0.
        2    1    3    3  502    0  0.41414836307E+03 -0.16418707455E+03  0.52686192339E+02  0.44861129829E+03  0.25500000920E-02 0.  1.
       -2    1    3    3    0  502 -0.41414836307E+03  0.16418707455E+03  0.14192610574E+03  0.46756740859E+03  0.25500000920E-02 0. -1.
</event>
<event>
 5   0  0.4243516E-04  0.8993800E+03  0.7818609E-02  0.9426357E-01
        2   -1    0    0  501    0  0.00000000000E+00  0.00000000000E+00  0.95491981736E+03  0.95491981736E+03  0.25500000920E-02 0.  1.
       -2   -1    0    0    0  501  0.00000000000E+00  0.00000000000E+00 -0.21176762902E+03  0.21176762904E+03  0.25500000920E-02 0. -1.
    10030    2    1    2    0    0  0.00000000000E+00  0.00000000000E+00  0.74315218834E+03  0.11666874464E+04  0.89938002122E+03 0.  0.
        1    1    3    3  502    0 -0.43938642790E+03  0.76968517548E+02  0.44537508613E+03  0.63035192796E+03  0.50400001928E-02 0.  1.
       -1    1    3    3    0  502  0.43938642790E+03 -0.76968517548E+02  0.29777710221E+03  0.53633551844E+03  0.50400001928E-02 0. -1.
</event>
<event>
 5   0  0.2356918E-04  0.9003670E+03  0.7818609E-02  0.9425123E-01
        1   -1    0    0  501    0  0.00000000000E+00  0.00000000000E+00  0.86606089461E+03  0.86606089463E+03  0.50400001928E-02 0. -1.
       -1   -1    0    0    0  501  0.00000000000E+00  0.00000000000E+00 -0.23400799736E+03  0.23400799742E+03  0.50400001928E-02 0.  1.
    10030    2    1    2    0    0  0.00000000000E+00  0.00000000000E+00  0.63205289725E+03  0.11000688920E+04  0.90036698203E+03 0.  0.
        5    1    3    3  502    0 -0.10557704724E+02  0.16454013127E+03  0.82781093353E+03  0.84408409036E+03  0.46999998093E+01 0. -1.
       -5    1    3    3    0  502  0.10557704724E+02 -0.16454013127E+03 -0.19575803628E+03  0.25598480169E+03  0.46999998093E+01 0.  1.
</event>
<event>
 5   0  0.2351435E-04  0.9001257E+03  0.7818609E-02  0.9425424E-01
       -1   -1    0    0    0  501  0.00000000000E+00  0.00000000000E+00  0.28416440318E+03  0.28416440322E+03  0.50400001928E-02 0. -1.
        1   -1    0    0  501    0  0.00000000000E+00  0.00000000000E+00 -0.71281465783E+03  0.71281465784E+03  0.50400001928E-02 0.  1.
    10030    2    1    2    0    0  0.00000000000E+00  0.00000000000E+00 -0.42865025465E+03  0.99697906107E+03  0.90012566200E+03 0.  0.
        4    1    3    3  502    0 -0.18441367775E+03 -0.40964486256E+03 -0.18424362477E+03  0.48555601544E+03  0.12699999809E+01 0. -1.
       -4    1    3    3    0  502  0.18441367775E+03  0.40964486256E+03 -0.24440662988E+03  0.51142304562E+03  0.12699999809E+01 0.  1.
</event>
<event>
 5   0  0.2351435E-04  0.9002022E+03  0.7818609E-02  0.9425329E-01
       -1   -1    0    0    0  501  0.00000000000E+00  0.00000000000E+00  0.90421475446E+02  0.90421475587E+02  0.50400001928E-02 0. -1.
        1   -1    0    0  501    0  0.00000000000E+00  0.00000000000E+00 -0.22405186093E+04  0.22405186093E+04  0.50400001928E-02 0.  1.
    10030    2    1    2    0    0  0.00000000000E+00  0.00000000000E+00 -0.21500971339E+04  0.23309400849E+04  0.90020219637E+03 0.  0.
        4    1    3    3  502    0 -0.63238929156E+02 -0.44107979457E+03 -0.12396066720E+04  0.13172611212E+04  0.12699999809E+01 0.  1.
       -4    1    3    3    0  502  0.63238929156E+02  0.44107979457E+03 -0.91049046186E+03  0.10136789637E+04  0.12699999809E+01 0. -1.
</event>
<event>
 5   0  0.2308362E-04  0.8998076E+03  0.7818609E-02  0.9425822E-01
       -1   -1    0    0    0  501  0.00000000000E+00  0.00000000000E+00  0.57024081286E+03  0.57024081288E+03  0.50400001928E-02 0. -1.
        1   -1    0    0  501    0  0.00000000000E+00  0.00000000000E+00 -0.35496135274E+03  0.35496135278E+03  0.50400001928E-02 0.  1.
    10030    2    1    2    0    0  0.00000000000E+00  0.00000000000E+00  0.21527946012E+03  0.92520216566E+03  0.89980764688E+03 0.  0.
        1    1    3    3  502    0  0.23764957959E+03  0.72064145504E+02 -0.27810516562E+03  0.37284453451E+03  0.50400001928E-02 0.  1.
       -1    1    3    3    0  502 -0.23764957959E+03 -0.72064145504E+02  0.49338462574E+03  0.55235763115E+03  0.50400001928E-02 0. -1.
</event>
<event>
 5   0  0.2308362E-04  0.9001476E+03  0.7818609E-02  0.9425397E-01
       -1   -1    0    0    0  501  0.00000000000E+00  0.00000000000E+00  0.33540720922E+03  0.33540720926E+03  0.50400001928E-02 0.  1.
        1   -1    0    0  501    0  0.00000000000E+00  0.00000000000E+00 -0.60394182506E+03  0.60394182508E+03  0.50400001928E-02 0. -1.
    10030    2    1    2    0    0  0.00000000000E+00  0.00000000000E+00 -0.26853461584E+03  0.93934903434E+03  0.90014763701E+03 0.  0.
        1    1    3    3  502    0 -0.39361120813E+03  0.37653456945E+02 -0.35861568785E+03  0.53380968292E+03  0.50400001928E-02 0. -1.
       -1    1    3    3    0  502  0.39361120813E+03 -0.37653456945E+02  0.90081072017E+02  0.40553935142E+03  0.50400001928E-02 0.  1.
</event>
<event>
 5   0  0.1596250E-04  0.9001577E+03  0.7818609E-02  0.9425384E-01
       -4   -1    0    0    0  501  0.00000000000E+00  0.00000000000E+00  0.46853564180E+03  0.46853736301E+03  0.12699999809E+01 0.  1.
        4   -1    0    0  501    0  0.00000000000E+00  0.00000000000E+00 -0.43234562547E+03  0.43234749076E+03  0.12699999809E+01 0. -1.
    10030    2    1    2    0    0  0.00000000000E+00  0.00000000000E+00  0.36190016324E+02  0.90088485376E+03  0.90015765422E+03 0.  0.
        5    1    3    3  502    0  0.33739607079E+02  0.42763946622E+03 -0.11815823339E+03  0.44496891158E+03  0.46999998093E+01 0. -1.
       -5    1    3    3    0  502 -0.33739607079E+02 -0.42763946622E+03  0.15434824972E+03  0.45591594219E+03  0.46999998093E+01 0.  1.
</event>
<event>
 5   0  0.2356918E-04  0.8998819E+03  0.7818609E-02  0.9425729E-01
       -1   -1    0    0    0  501  0.00000000000E+00  0.00000000000E+00  0.76324761977E+03  0.76324761979E+03  0.50400001928E-02 0.  1.
        1   -1    0    0  501    0  0.00000000000E+00  0.00000000000E+00 -0.26524399955E+03  0.26524399959E+03  0.50400001928E-02 0. -1.
    10030    2    1    2    0    0  0.00000000000E+00  0.00000000000E+00  0.49800362022E+03  0.10284916194E+04  0.89988188413E+03 0.  0.
        5    1    3    3  502    0 -0.42709745412E+03  0.32972754520E+02  0.40623234942E+03  0.59037805648E+03  0.46999998093E+01 0.  1.
       -5    1    3    3    0  502  0.42709745412E+03 -0.32972754520E+02  0.91771270801E+02  0.43811356290E+03  0.46999998093E+01 0. -1.
</event>
<event>
 5   0  0.4110039E-04  0.9000116E+03  0.7818609E-02  0.9425567E-01
        2   -1    0    0  501    0  0.00000000000E+00  0.00000000000E+00  0.21994026153E+03  0.21994026154E+03  0.25500000920E-02 0.  1.
       -2   -1    0    0    0  501  0.00000000000E+00  0.00000000000E+00 -0.92072822766E+03  0.92072822767E+03  0.25500000920E-02 0. -1.
    10030    2    1    2    0    0  0.00000000000E+00  0.00000000000E+00 -0.70078796613E+03  0.11406684892E+04  0.90001157148E+03 0.  0.
        3    1    3    3  502    0  0.74177521320E+02  0.15590271864E+03  0.17629476801E+03  0.24675456993E+03  0.10100000352E+00 0.  1.
       -3    1    3    3    0  502 -0.74177521320E+02 -0.15590271864E+03 -0.87708273415E+03  0.89391391928E+03  0.10100000352E+00 0. -1.
</event>
<event>
 5   0  0.2450427E-04  0.9003115E+03  0.7818609E-02  0.9425192E-01
        1   -1    0    0  501    0  0.00000000000E+00  0.00000000000E+00  0.11479016321E+04  0.11479016321E+04  0.50400001928E-02 0.  1.
       -1   -1    0    0    0  501  0.00000000000E+00  0.00000000000E+00 -0.17653096140E+03  0.17653096148E+03  0.50400001928E-02 0. -1.
    10030    2    1    2    0    0  0.00000000000E+00  0.00000000000E+00  0.97137067067E+03  0.13244325936E+04  0.90031145447E+03 0.  0.
        3    1    3    3  502    0 -0.20656841498E+03  0.18712708871E+03 -0.34323378633E+02  0.28082941783E+03  0.10100000352E+00 0. -1.
       -3    1    3    3    0  502  0.20656841498E+03 -0.18712708871E+03  0.10056940493E+04  0.10436031757E+04  0.10100000352E+00 0.  1.
</event>
<event>
 5   0  0.2332791E-04  0.8992264E+03  0.7818609E-02  0.9426549E-01
        1   -1    0    0  501    0  0.00000000000E+00  0.00000000000E+00  0.13184816230E+04  0.13184816230E+04  0.50400001928E-02 0. -1.
       -1   -1    0    0    0  501  0.00000000000E+00  0.00000000000E+00 -0.15332183636E+03  0.15332183645E+03  0.50400001928E-02 0.  1.
    10030    2    1    2    0    0  0.00000000000E+00  0.00000000000E+00  0.11651597866E+04  0.14718034595E+04  0.89922638688E+03 0.  0.
        2    1    3    3  502    0 -0.19225571528E+03  0.72819935884E+01  0.12477039033E+04  0.12624501249E+04  0.25500000920E-02 0. -1.
       -2    1    3    3    0  502  0.19225571528E+03 -0.72819935884E+01 -0.82544116675E+02  0.20935333456E+03  0.25500000920E-02 0.  1.
</event>
<event>
 5   0  0.3959804E-04  0.8998191E+03  0.7818609E-02  0.9425808E-01
       -2   -1    0    0    0  501  0.00000000000E+00  0.00000000000E+00  0.10637650951E+03  0.10637650954E+03  0.25500000920E-02 0. -1.
        2   -1    0    0  501    0  0.00000000000E+00  0.00000000000E+00 -0.19028505262E+04  0.19028505262E+04  0.25500000920E-02 0.  1.
    10030    2    1    2    0    0  0.00000000000E+00  0.00000000000E+00 -0.17964740167E+04  0.20092270358E+04  0.89981908655E+03 0.  0.
        5    1    3    3  502    0 -0.36020109289E+03  0.45090768014E+02 -0.30485678990E+03  0.47406514007E+03  0.46999998093E+01 0. -1.
       -5    1    3    3    0  502  0.36020109289E+03 -0.45090768014E+02 -0.14916172268E+04  0.15351618957E+04  0.46999998093E+01 0.  1.
</event>
<event>
 5   0  0.4110039E-04  0.9005480E+03  0.7818609E-02  0.9424897E-01
        2   -1    0    0  501    0  0.00000000000E+00  0.00000000000E+00  0.13544376223E+04  0.13544376223E+04  0.25500000920E-02 0.  1.
       -2   -1    0    0    0  501  0.00000000000E+00  0.00000000000E+00 -0.14969065848E+03  0.14969065850E+03  0.25500000920E-02 0. -1.
    10030    2    1    2    0    0  0.00000000000E+00  0.00000000000E+00  0.12047469639E+04  0.15041282808E+04  0.90054796558E+03 0.  0.
        3    1    3    3  502    0 -0.99865721160E+02 -0.36145458217E+03  0.18607197281E+03  0.41862317961E+03  0.10100000352E+00 0. -1.
       -3    1    3    3    0  502  0.99865721160E+02  0.36145458217E+03  0.10186749910E+04  0.10855051012E+04  0.10100000352E+00 0.  1.
</event>
<event>
 5   0  0.2308362E-04  0.9035599E+03  0.7818609E-02  0.9421142E-01
       -1   -1    0    0    0  501  0.00000000000E+00  0.00000000000E+00  0.18958630708E+03  0.18958630715E+03  0.50400001928E-02 0.  1.
        1   -1    0    0  501    0  0.00000000000E+00  0.00000000000E+00 -0.10765815323E+04  0.10765815323E+04  0.50400001928E-02 0. -1.
    10030    2    1    2    0    0  0.00000000000E+00  0.00000000000E+00 -0.88699522524E+03  0.12661678395E+04  0.90355988630E+03 0.  0.
        1    1    3    3  502    0  0.39914835034E+03 -0.59648962758E+02 -0.72802819745E+03  0.83240762889E+03  0.50400001928E-02 0. -1.
       -1    1    3    3    0  502 -0.39914835034E+03  0.59648962758E+02 -0.15896702779E+03  0.43376021058E+03  0.50400001928E-02 0.  1.
</event>
<event>
 5   0  0.4033144E-04  0.9002625E+03  0.7818609E-02  0.9425253E-01
        2   -1    0    0  501    0  0.00000000000E+00  0.00000000000E+00  0.66648113824E+03  0.66648113825E+03  0.25500000920E-02 0.  1.
       -2   -1    0    0    0  501  0.00000000000E+00  0.00000000000E+00 -0.30401183974E+03  0.30401183975E+03  0.25500000920E-02 0. -1.
    10030    2    1    2    0    0  0.00000000000E+00  0.00000000000E+00  0.36246929851E+03  0.97049297800E+03  0.90026253281E+03 0.  0.
        4    1    3    3  502    0 -0.14072231084E+03  0.37419534180E+03  0.40423348371E+03  0.56853429522E+03  0.12699999809E+01 0.  1.
       -4    1    3    3    0  502  0.14072231084E+03 -0.37419534180E+03 -0.41764185197E+02  0.40195868278E+03  0.12699999809E+01 0. -1.
</event>
<event>
 5   0  0.4243516E-04  0.8999389E+03  0.7818609E-02  0.9425658E-01
       -2   -1    0    0    0  501  0.00000000000E+00  0.00000000000E+00  0.23043631443E+03  0.23043631444E+03  0.25500000920E-02 0.  1.
        2   -1    0    0  501    0  0.00000000000E+00  0.00000000000E+00 -0.87864850942E+03  0.87864850942E+03  0.25500000920E-02 0. -1.
    10030    2    1    2    0    0  0.00000000000E+00  0.00000000000E+00 -0.64821219499E+03  0.11090848239E+04  0.89993894059E+03 0.  0.
        1    1    3    3  502    0  0.13251595108E+03  0.16608177015E+03  0.16472177521E+03  0.26884362540E+03  0.50400001928E-02 0.  1.
       -1    1    3    3    0  502 -0.13251595108E+03 -0.16608177015E+03 -0.81293397020E+03  0.84024119846E+03  0.50400001928E-02 0. -1.
</event>
<event>
 5   0  0.4110039E-04  0.8999267E+03  0.7818609E-02  0.9425673E-01
        2   -1    0    0  501    0  0.00000000000E+00  0.00000000000E+00  0.14401148812E+04  0.14401148812E+04  0.25500000920E-02 0. -1.
       -2   -1    0    0    0  501  0.00000000000E+00  0.00000000000E+00 -0.14059086495E+03  0.14059086498E+03  0.25500000920E-02 0.  1.
    10030    2    1    2    0    0  0.00000000000E+00  0.00000000000E+00  0.12995240162E+04  0.15807057462E+04  0.89992665656E+03 0.  0.
        3    1    3    3  502    0  0.20986625564E+03 -0.39370215429E+03  0.75250882447E+03  0.87482270927E+03  0.10100000352E+00 0. -1.
       -3    1    3    3    0  502 -0.20986625564E+03  0.39370215429E+03  0.54701519176E+03  0.70588303689E+03  0.10100000352E+00 0.  1.
</event>
<event>
 5   0  0.2356918E-04  0.8996631E+03  0.7818609E-02  0.9426003E-01
        1   -1    0    0  501    0  0.00000000000E+00  0.00000000000E+00  0.80086717069E+03  0.80086717071E+03  0.50400001928E-02 0. -1.
       -1   -1    0    0    0  501  0.00000000000E+00  0.00000000000E+00 -0.25266165424E+03  0.25266165429E+03  0.50400001928E-02 0.  1.
    10030    2    1    2    0    0  0.00000000000E+00  0.00000000000E+00  0.54820551645E+03  0.10535288250E+04  0.89966310185E+03 0.  0.
        5    1    3    3  502    0 -0.16119620625E+03 -0.35135749406E+03  0.47921784868E+01  0.38662819415E+03  0.46999998093E+01 0. -1.
       -5    1    3    3    0  502  0.16119620625E+03  0.35135749406E+03  0.54341333796E+03  0.66690063084E+03  0.46999998093E+01 0.  1.
</event>
<event>
 5   0  0.2332791E-04  0.9000219E+03  0.7818609E-02  0.9425554E-01
        1   -1    0    0  501    0  0.00000000000E+00  0.00000000000E+00  0.26289003474E+03  0.26289003479E+03  0.50400001928E-02 0.  1.
       -1   -1    0    0    0  501  0.00000000000E+00  0.00000000000E+00 -0.77032159869E+03  0.77032159871E+03  0.50400001928E-02 0. -1.
    10030    2    1    2    0    0  0.00000000000E+00  0.00000000000E+00 -0.50743156395E+03  0.10332116335E+04  0.90002193723E+03 0.  0.
        2    1    3    3  502    0  0.12910866806E+03 -0.10970914113E+03 -0.73230949098E+03  0.75165306785E+03  0.25500000920E-02 0. -1.
       -2    1    3    3    0  502 -0.12910866806E+03  0.10970914113E+03  0.22487792703E+03  0.28155856565E+03  0.25500000920E-02 0.  1.
</event>
<event>
 5   0  0.2308362E-04  0.9004105E+03  0.7818609E-02  0.9425068E-01
       -1   -1    0    0    0  501  0.00000000000E+00  0.00000000000E+00  0.33540360106E+03  0.33540360110E+03  0.50400001928E-02 0. -1.
        1   -1    0    0  501    0  0.00000000000E+00  0.00000000000E+00 -0.60430112389E+03  0.60430112391E+03  0.50400001928E-02 0.  1.
    10030    2    1    2    0    0  0.00000000000E+00  0.00000000000E+00 -0.26889752283E+03  0.93970472501E+03  0.90041051328E+03 0.  0.
        1    1    3    3  502    0  0.16882236700E+03  0.24625762193E+03  0.21721461705E+03  0.36922350663E+03  0.50400001928E-02 0. -1.
       -1    1    3    3    0  502 -0.16882236700E+03 -0.24625762193E+03 -0.48611213988E+03  0.57048121838E+03  0.50400001928E-02 0.  1.
</event>
<event>
 5   0  0.4236284E-04  0.9001067E+03  0.7818609E-02  0.9425448E-01
       -2   -1    0    0    0  501  0.00000000000E+00  0.00000000000E+00  0.48607077209E+03  0.48607077210E+03  0.25500000920E-02 0. -1.
        2   -1    0    0  501    0  0.00000000000E+00  0.00000000000E+00 -0.41670476143E+03  0.41670476144E+03  0.25500000920E-02 0.  1.
    10030    2    1    2    0    0  0.00000000000E+00  0.00000000000E+00  0.69366010663E+02  0.90277553354E+03  0.90010667175E+03 0.  0.
        2    1    3    3  502    0  0.27320534031E+03 -0.32652495700E+03  0.18102072614E+03  0.46263182858E+03  0.25500000920E-02 0. -1.
       -2    1    3    3    0  502 -0.27320534031E+03  0.32652495700E+03 -0.11165471548E+03  0.44014370496E+03  0.25500000920E-02 0.  1.
</event>
<event>
 5   0  0.4033144E-04  0.9001077E+03  0.7818609E-02  0.9425447E-01
       -2   -1    0    0    0  501  0.00000000000E+00  0.00000000000E+00  0.19760649246E+03  0.19760649248E+03  0.25500000920E-02 0. -1.
        2   -1    0    0  501    0  0.00000000000E+00  0.00000000000E+00 -0.10250091208E+04  0.10250091208E+04  0.25500000920E-02 0.  1.
    10030    2    1    2    0    0  0.00000000000E+00  0.00000000000E+00 -0.82740262837E+03  0.12226156133E+04  0.90010767604E+03 0.  0.
        4    1    3    3  502    0 -0.29642485087E+03  0.30753060904E+03 -0.60629300074E+03  0.74164383862E+03  0.12699999809E+01 0.  1.
       -4    1    3    3    0  502  0.29642485087E+03 -0.30753060904E+03 -0.22110962763E+03  0.48097177469E+03  0.12699999809E+01 0. -1.
</event>
<event>
 5   0  0.2332791E-04  0.9000306E+03  0.7818609E-02  0.9425543E-01
       -1   -1    0    0    0  501  0.00000000000E+00  0.00000000000E+00  0.14404809074E+03  0.14404809083E+03  0.50400001928E-02 0.  1.
        1   -1    0    0  501    0  0.00000000000E+00  0.00000000000E+00 -0.14058760921E+04  0.14058760921E+04  0.50400001928E-02 0. -1.
    10030    2    1    2    0    0  0.00000000000E+00  0.00000000000E+00 -0.12618280014E+04  0.15499241830E+04  0.90003059273E+03 0.  0.
        2    1    3    3  502    0 -0.39402717848E+03 -0.21684004260E+03 -0.60441716314E+03  0.75339042240E+03  0.25500000920E-02 0. -1.
       -2    1    3    3    0  502  0.39402717848E+03  0.21684004260E+03 -0.65741083825E+03  0.79653376057E+03  0.25500000920E-02 0.  1.
</event>
<event>
 5   0  0.1596250E-04  0.8995593E+03  0.7818609E-02  0.9426132E-01
       -3   -1    0    0    0  501  0.00000000000E+00  0.00000000000E+00  0.15690978214E+03  0.15690981465E+03  0.10100000352E+00 0.  1.
        3   -1    0    0  501    0  0.00000000000E+00  0.00000000000E+00 -0.12892867833E+04  0.12892867872E+04  0.10100000352E+00 0. -1.
    10030    2    1    2    0    0  0.00000000000E+00  0.00000000000E+00 -0.11323770011E+04  0.14461966019E+04  0.89955930243E+03 0.  0.
        3    1    3    3  502    0  0.22874213074E+03 -0.13047098447E+03  0.20019370983E+02  0.26409548572E+03  0.10100000352E+00 0.  1.
       -3    1    3    3    0  502 -0.22874213074E+03  0.13047098447E+03 -0.11523963721E+04  0.11821011161E+04  0.10100000352E+00 0. -1.
</event>
<event>
 5   0  0.2356918E-04  0.8998963E+03  0.7818609E-02  0.9425711E-01
       -1   -1    0    0    0  501  0.00000000000E+00  0.00000000000E+00  0.60809898719E+03  0.60809898721E+03  0.50400001928E-02 0. -1.
        1   -1    0    0  501    0  0.00000000000E+00  0.00000000000E+00 -0.33292824038E+03  0.33292824042E+03  0.50400001928E-02 0.  1.
    10030    2    1    2    0    0  0.00000000000E+00  0.00000000000E+00  0.27517074681E+03  0.94102722764E+03  0.89989627361E+03 0.  0.
        5    1    3    3  502    0  0.19223355001E+03  0.11126254752E+03 -0.27157606654E+03  0.35086855394E+03  0.46999998093E+01 0.  1.
       -5    1    3    3    0  502 -0.19223355001E+03 -0.11126254752E+03  0.54674681335E+03  0.59015867369E+03  0.46999998093E+01 0. -1.
</event>
<event>
 5   0  0.2332791E-04  0.9007194E+03  0.7818609E-02  0.9424683E-01
        1   -1    0    0  501    0  0.00000000000E+00  0.00000000000E+00  0.66288248980E+03  0.66288248982E+03  0.50400001928E-02 0.  1.
       -1   -1    0    0    0  501  0.00000000000E+00  0.00000000000E+00 -0.30597260101E+03  0.30597260105E+03  0.50400001928E-02 0. -1.
    10030    2    1    2    0    0  0.00000000000E+00  0.00000000000E+00  0.35690988880E+03  0.96885509087E+03  0.90071944488E+03 0.  0.
        2    1    3    3  502    0  0.70209428552E+02 -0.44484185089E+03  0.17501230107E+03  0.48315933365E+03  0.25500000920E-02 0. -1.
       -2    1    3    3    0  502 -0.70209428552E+02  0.44484185089E+03  0.18189758773E+03  0.48569575723E+03  0.25500000920E-02 0.  1.
</event>
<event>
 5   0  0.1596250E-04  0.8997673E+03  0.7818609E-02  0.9425872E-01
        3   -1    0    0  501    0  0.00000000000E+00  0.00000000000E+00  0.36588287878E+03  0.36588289272E+03  0.10100000352E+00 0.  1.
       -3   -1    0    0    0  501  0.00000000000E+00  0.00000000000E+00 -0.55316965537E+03  0.55316966459E+03  0.10100000352E+00 0. -1.
    10030    2    1    2    0    0  0.00000000000E+00  0.00000000000E+00 -0.18728677660E+03  0.91905255731E+03  0.89976734016E+03 0.  0.
        2    1    3    3  502    0  0.37237941390E+03 -0.23969303076E+03 -0.17456349077E+03  0.47601637493E+03  0.25500000920E-02 0.  1.
       -2    1    3    3    0  502 -0.37237941390E+03  0.23969303076E+03 -0.12723285828E+02  0.44303618238E+03  0.25500000920E-02 0. -1.
</event>
<event>
 5   0  0.4236284E-04  0.9001416E+03  0.7818609E-02  0.9425404E-01
       -2   -1    0    0    0  501  0.00000000000E+00  0.00000000000E+00  0.40749185030E+03  0.40749185030E+03  0.25500000920E-02 0. -1.
        2   -1    0    0  501    0  0.00000000000E+00  0.00000000000E+00 -0.49709888330E+03  0.49709888331E+03  0.25500000920E-02 0.  1.
    10030    2    1    2    0    0  0.00000000000E+00  0.00000000000E+00 -0.89607033003E+02  0.90459073361E+03  0.90014164161E+03 0.  0.
        2    1    3    3  502    0 -0.20240274537E+03  0.75510287608E+02  0.35198351615E+03  0.41299040003E+03  0.25500000920E-02 0. -1.
       -2    1    3    3    0  502  0.20240274537E+03 -0.75510287608E+02 -0.44159054915E+03  0.49160033358E+03  0.25500000920E-02 0.  1.
</event>
<event>
 5   0  0.4110039E-04  0.9000328E+03  0.7818609E-02  0.9425540E-01
       -2   -1    0    0    0  501  0.00000000000E+00  0.00000000000E+00  0.29034077627E+03  0.29034077628E+03  0.25500000920E-02 0.  1.
        2   -1    0    0  501    0  0.00000000000E+00  0.00000000000E+00 -0.69750717600E+03  0.69750717600E+03  0.25500000920E-02 0. -1.
    10030    2    1    2    0    0  0.00000000000E+00  0.00000000000E+00 -0.40716639973E+03  0.98784795228E+03  0.90003283260E+03 0.  0.
        3    1    3    3  502    0 -0.15105157888E+03  0.21440551515E+03 -0.60495205866E+03  0.65935825459E+03  0.10100000352E+00 0. -1.
       -3    1    3    3    0  502  0.15105157888E+03 -0.21440551515E+03  0.19778565894E+03  0.32848969769E+03  0.10100000352E+00 0.  1.
</event>
<event>
 5   0  0.4236284E-04  0.8995204E+03  0.7818609E-02  0.9426181E-01
        2   -1    0    0  501    0  0.00000000000E+00  0.00000000000E+00  0.68308088080E+03  0.68308088080E+03  0.25500000920E-02 0. -1.
       -2   -1    0    0    0  501  0.00000000000E+00  0.00000000000E+00 -0.29613513597E+03  0.29613513598E+03  0.25500000920E-02 0.  1.
    10030    2    1    2    0    0  0.00000000000E+00  0.00000000000E+00  0.38694574483E+03  0.97921601678E+03  0.89952042672E+03 0.  0.
        2    1    3    3  502    0 -0.34358435173E+03 -0.15025404690E+03  0.46378240691E+03  0.59642317723E+03  0.25500000920E-02 0. -1.
       -2    1    3    3    0  502  0.34358435173E+03  0.15025404690E+03 -0.76836662085E+02  0.38279283955E+03  0.25500000920E-02 0.  1.
</event>
<event>
 5   0  0.2450427E-04  0.9001023E+03  0.7818609E-02  0.9425454E-01
        1   -1    0    0  501    0  0.00000000000E+00  0.00000000000E+00  0.12203335014E+04  0.12203335014E+04  0.50400001928E-02 0. -1.
       -1   -1    0    0    0  501  0.00000000000E+00  0.00000000000E+00 -0.16597597205E+03  0.16597597212E+03  0.50400001928E-02 0.  1.
    10030    2    1    2    0    0  0.00000000000E+00  0.00000000000E+00  0.10543575294E+04  0.13863094735E+04  0.90010230347E+03 0.  0.
        3    1    3    3  502    0 -0.91647916741E+01 -0.39069079327E+03  0.18339756702E+03  0.43169198179E+03  0.10100000352E+00 0.  1.
       -3    1    3    3    0  502  0.91647916741E+01  0.39069079327E+03  0.87095996234E+03  0.95461749175E+03  0.10100000352E+00 0. -1.
</event>
<event>
 5   0  0.2356918E-04  0.8999613E+03  0.7818609E-02  0.9425630E-01
       -1   -1    0    0    0  501  0.00000000000E+00  0.00000000000E+00  0.26423445298E+03  0.26423445303E+03  0.50400001928E-02 0. -1.
        1   -1    0    0  501    0  0.00000000000E+00  0.00000000000E+00 -0.76629899546E+03  0.76629899547E+03  0.50400001928E-02 0.  1.
    10030    2    1    2    0    0  0.00000000000E+00  0.00000000000E+00 -0.50206454247E+03  0.10305334485E+04  0.89996132344E+03 0.  0.
        5    1    3    3  502    0 -0.90382441349E+02  0.22743473894E+03 -0.68339141156E+03  0.72590733401E+03  0.46999998093E+01 0.  1.
       -5    1    3    3    0  502  0.90382441349E+02 -0.22743473894E+03  0.18132686908E+03  0.30462611449E+03  0.46999998093E+01 0. -1.
</event>
<event>
 5   0  0.3959804E-04  0.8997673E+03  0.7818609E-02  0.9425872E-01
       -2   -1    0    0    0  501  0.00000000000E+00  0.00000000000E+00  0.17568816135E+03  0.17568816137E+03  0.25500000920E-02 0.  1.
        2   -1    0    0  501    0  0.00000000000E+00  0.00000000000E+00 -0.11520145514E+04  0.11520145514E+04  0.25500000920E-02 0. -1.
    10030    2    1    2    0    0  0.00000000000E+00  0.00000000000E+00 -0.97632639009E+03  0.13277027128E+04  0.89976734417E+03 0.  0.
        5    1    3    3  502    0 -0.36939694746E+03  0.24435923005E+03 -0.60442461874E+03  0.74934421185E+03  0.46999998093E+01 0.  1.
       -5    1    3    3    0  502  0.36939694746E+03 -0.24435923005E+03 -0.37190177135E+03  0.57835850096E+03  0.46999998093E+01 0. -1.
</event>
<event>
 5   0  0.2356918E-04  0.9000147E+03  0.7818609E-02  0.9425563E-01
       -1   -1    0    0    0  501  0.00000000000E+00  0.00000000000E+00  0.94943426551E+03  0.94943426553E+03  0.50400001928E-02 0.  1.
        1   -1    0    0  501    0  0.00000000000E+00  0.00000000000E+00 -0.21329186182E+03  0.21329186188E+03  0.50400001928E-02 0. -1.
    10030    2    1    2    0    0  0.00000000000E+00  0.00000000000E+00  0.73614240369E+03  0.11627261274E+04  0.90001467147E+03 0.  0.
        5    1    3    3  502    0 -0.36217510535E+01  0.13749370921E+03 -0.18543819705E+03  0.23092650796E+03  0.46999998093E+01 0. -1.
       -5    1    3    3    0  502  0.36217510535E+01 -0.13749370921E+03  0.92158060074E+03  0.93179961945E+03  0.46999998093E+01 0.  1.
</event>
<event>
 5   0  0.2332791E-04  0.8986037E+03  0.7818609E-02  0.9427329E-01
        1   -1    0    0  501    0  0.00000000000E+00  0.00000000000E+00  0.11373389226E+04  0.11373389226E+04  0.50400001928E-02 0. -1.
       -1   -1    0    0    0  501  0.00000000000E+00  0.00000000000E+00 -0.17749517180E+03  0.17749517187E+03  0.50400001928E-02 0.  1.
    10030    2    1    2    0    0  0.00000000000E+00  0.00000000000E+00  0.95984375080E+03  0.13148340945E+04  0.89860373360E+03 0.  0.
        2    1    3    3  502    0 -0.35134210737E+03 -0.87229746685E+02  0.90530426650E+02  0.37315688828E+03  0.25500000920E-02 0.  1.
       -2    1    3    3    0  502  0.35134210737E+03  0.87229746685E+02  0.86931332415E+03  0.94167720620E+03  0.25500000920E-02 0. -1.
</event>
<event>
 5   0  0.3959804E-04  0.8996647E+03  0.7818609E-02  0.9426001E-01
        2   -1    0    0  501    0  0.00000000000E+00  0.00000000000E+00  0.12195060647E+04  0.12195060647E+04  0.25500000920E-02 0.  1.
       -2   -1    0    0    0  501  0.00000000000E+00  0.00000000000E+00 -0.16592711619E+03  0.16592711621E+03  0.25500000920E-02 0. -1.
    10030    2    1    2    0    0  0.00000000000E+00  0.00000000000E+00  0.10535789485E+04  0.13854331809E+04  0.89966465867E+03 0.  0.
        5    1    3    3  502    0 -0.23853458252E+03 -0.10748891813E+03 -0.36658374693E+02  0.26423198333E+03  0.46999998093E+01 0. -1.
       -5    1    3    3    0  502  0.23853458252E+03  0.10748891813E+03  0.10902373232E+04  0.11212011976E+04  0.46999998093E+01 0.  1.
</event>
<event>
 5   0  0.2308362E-04  0.9000070E+03  0.7818609E-02  0.9425573E-01
       -1   -1    0    0    0  501  0.00000000000E+00  0.00000000000E+00  0.37095287705E+03  0.37095287709E+03  0.50400001928E-02 0.  1.
        1   -1    0    0  501    0  0.00000000000E+00  0.00000000000E+00 -0.54589990720E+03  0.54589990722E+03  0.50400001928E-02 0. -1.
    10030    2    1    2    0    0  0.00000000000E+00  0.00000000000E+00 -0.17494703014E+03  0.91685278431E+03  0.90000698039E+03 0.  0.
        1    1    3    3  502    0  0.29688266891E+03 -0.11440446310E+03  0.23672110356E+03  0.39656598590E+03  0.50400001928E-02 0.  1.
       -1    1    3    3    0  502 -0.29688266891E+03  0.11440446310E+03 -0.41166813370E+03  0.52028679842E+03  0.50400001928E-02 0. -1.
</event>
<event>
 5   0  0.4110039E-04  0.8999658E+03  0.7818609E-02  0.9425624E-01
        2   -1    0    0  501    0  0.00000000000E+00  0.00000000000E+00  0.12202702968E+04  0.12202702968E+04  0.25500000920E-02 0. -1.
       -2   -1    0    0    0  501  0.00000000000E+00  0.00000000000E+00 -0.16593422148E+03  0.16593422150E+03  0.25500000920E-02 0.  1.
    10030    2    1    2    0    0  0.00000000000E+00  0.00000000000E+00  0.10543360754E+04  0.13862045183E+04  0.89996578095E+03 0.  0.
        3    1    3    3  502    0 -0.27326027272E+03  0.49138936568E+02 -0.18273199081E+02  0.27824401474E+03  0.10100000352E+00 0.  1.
       -3    1    3    3    0  502  0.27326027272E+03 -0.49138936568E+02  0.10726092744E+04  0.11079605036E+04  0.10100000352E+00 0. -1.
</event>
<event>
 5   0  0.4243516E-04  0.8997052E+03  0.7818609E-02  0.9425950E-01
        2   -1    0    0  501    0  0.00000000000E+00  0.00000000000E+00  0.89957293412E+03  0.89957293412E+03  0.25500000920E-02 0.  1.
       -2   -1    0    0    0  501  0.00000000000E+00  0.00000000000E+00 -0.22495939621E+03  0.22495939623E+03  0.25500000920E-02 0. -1.
    10030    2    1    2    0    0  0.00000000000E+00  0.00000000000E+00  0.67461353790E+03  0.11245323303E+04  0.89970524978E+03 0.  0.
        1    1    3    3  502    0  0.40734770914E+03  0.12517689396E+02  0.57537232458E+03  0.70508308773E+03  0.50400001928E-02 0.  1.
       -1    1    3    3    0  502 -0.40734770914E+03 -0.12517689396E+02  0.99241213321E+02  0.41944924262E+03  0.50400001928E-02 0. -1.
</event>
<event>
 5   0  0.4110039E-04  0.8999717E+03  0.7818609E-02  0.9425617E-01
       -2   -1    0    0    0  501  0.00000000000E+00  0.00000000000E+00  0.42222878466E+03  0.42222878466E+03  0.25500000920E-02 0. -1.
        2   -1    0    0  501    0  0.00000000000E+00  0.00000000000E+00 -0.47956759752E+03  0.47956759752E+03  0.25500000920E-02 0.  1.
    10030    2    1    2    0    0  0.00000000000E+00  0.00000000000E+00 -0.57338812862E+02  0.90179638219E+03  0.89997165259E+03 0.  0.
        3    1    3    3  502    0  0.41995423419E+03 -0.16106339267E+03 -0.42271109765E+02  0.45176302659E+03  0.10100000352E+00 0. -1.
       -3    1    3    3    0  502 -0.41995423419E+03  0.16106339267E+03 -0.15067703097E+02  0.45003335560E+03  0.10100000352E+00 0.  1.
</event>
<event>
 5   0  0.1596250E-04  0.8998707E+03  0.7818609E-02  0.9425743E-01
       -4   -1    0    0    0  501  0.00000000000E+00  0.00000000000E+00  0.44499801058E+03  0.44499982283E+03  0.12699999809E+01 0.  1.
        4   -1    0    0  501    0  0.00000000000E+00  0.00000000000E+00 -0.45492384233E+03  0.45492561505E+03  0.12699999809E+01 0. -1.
    10030    2    1    2    0    0  0.00000000000E+00  0.00000000000E+00 -0.99258317519E+01  0.89992543788E+03  0.89987069716E+03 0.  0.
        5    1    3    3  502    0  0.32744436455E+03  0.16483660017E+03  0.25587628392E+03  0.44708576280E+03  0.46999998093E+01 0.  1.
       -5    1    3    3    0  502 -0.32744436455E+03 -0.16483660017E+03 -0.26580211567E+03  0.45283967508E+03  0.46999998093E+01 0. -1.
</event>
<event>
 5   0  0.4033144E-04  0.9011234E+03  0.7818609E-02  0.9424178E-01
        2   -1    0    0  501    0  0.00000000000E+00  0.00000000000E+00  0.13964823245E+04  0.13964823245E+04  0.25500000920E-02 0. -1.
       -2   -1    0    0    0  501  0.00000000000E+00  0.00000000000E+00 -0.14536945018E+03  0.14536945021E+03  0.25500000920E-02 0.  1.
    10030    2    1    2    0    0  0.00000000000E+00  0.00000000000E+00  0.12511128743E+04  0.15418517747E+04  0.90112344930E+03 0.  0.
        4    1    3    3  502    0  0.13302087060E+03  0.33727188245E+03  0.16785155000E+03  0.39952800959E+03  0.12699999809E+01 0.  1.
       -4    1    3    3    0  502 -0.13302087060E+03 -0.33727188245E+03  0.10832613243E+04  0.11423237651E+04  0.12699999809E+01 0. -1.
</event>
<event>
 5   0  0.2356918E-04  0.8996359E+03  0.7818609E-02  0.9426037E-01
        1   -1    0    0  501    0  0.00000000000E+00  0.00000000000E+00  0.79089548227E+03  0.79089548228E+03  0.50400001928E-02 0. -1.
       -1   -1    0    0    0  501  0.00000000000E+00  0.00000000000E+00 -0.25583176002E+03  0.25583176007E+03  0.50400001928E-02 0.  1.
    10030    2    1    2    0    0  0.00000000000E+00  0.00000000000E+00  0.53506372225E+03  0.10467272424E+04  0.89963588914E+03 0.  0.
        5    1    3    3  502    0  0.73311532749E+02 -0.37968663819E+03  0.23648448832E+00  0.38672816031E+03  0.46999998093E+01 0.  1.
       -5    1    3    3    0  502 -0.73311532749E+02  0.37968663819E+03  0.53482723776E+03  0.65999908204E+03  0.46999998093E+01 0. -1.
</event>
<event>
 5   0  0.1596250E-04  0.9003222E+03  0.7818609E-02  0.9425179E-01
        4   -1    0    0  501    0  0.00000000000E+00  0.00000000000E+00  0.25315157276E+03  0.25315475838E+03  0.12699999809E+01 0. -1.
       -4   -1    0    0    0  501  0.00000000000E+00  0.00000000000E+00 -0.80048021710E+03  0.80048122456E+03  0.12699999809E+01 0.  1.
    10030    2    1    2    0    0  0.00000000000E+00  0.00000000000E+00 -0.54732864435E+03  0.10536359829E+04  0.90032224210E+03 0.  0.
        1    1    3    3  502    0 -0.36878891894E+03  0.24091372642E+03 -0.38219450642E+03  0.58319579137E+03  0.50400001928E-02 0.  1.
       -1    1    3    3    0  502  0.36878891894E+03 -0.24091372642E+03 -0.16513413793E+03  0.47044019157E+03  0.50400001928E-02 0. -1.
</event>
<event>
 5   0  0.1596250E-04  0.8994725E+03  0.7818609E-02  0.9426241E-01
        3   -1    0    0  501    0  0.00000000000E+00  0.00000000000E+00  0.46428966914E+03  0.46428968012E+03  0.10100000352E+00 0.  1.
       -3   -1    0    0    0  501  0.00000000000E+00  0.00000000000E+00 -0.43563903715E+03  0.43563904885E+03  0.10100000352E+00 0. -1.
    10030    2    1    2    0    0  0.00000000000E+00  0.00000000000E+00  0.28650631991E+02  0.89992872898E+03  0.89947254462E+03 0.  0.
        1    1    3    3  502    0  0.14781352332E+03  0.19260664015E+03  0.39308905148E+03  0.46202289762E+03  0.50400001928E-02 0.  1.
       -1    1    3    3    0  502 -0.14781352332E+03 -0.19260664015E+03 -0.36443841949E+03  0.43790583135E+03  0.50400001928E-02 0. -1.
</event>
<event>
 5   0  0.1596250E-04  0.9003175E+03  0.7818609E-02  0.9425185E-01
       -3   -1    0    0    0  501  0.00000000000E+00  0.00000000000E+00  0.36464638889E+03  0.36464640288E+03  0.10100000352E+00 0. -1.
        3   -1    0    0  501    0  0.00000000000E+00  0.00000000000E+00 -0.55572434422E+03  0.55572435339E+03  0.10100000352E+00 0.  1.
    10030    2    1    2    0    0  0.00000000000E+00  0.00000000000E+00 -0.19107795532E+03  0.92037075627E+03  0.90031746845E+03 0.  0.
        1    1    3    3  502    0 -0.68373680611E+00 -0.39121659201E+03  0.13211378824E+03  0.41292244118E+03  0.50400001928E-02 0.  1.
       -1    1    3    3    0  502  0.68373680611E+00  0.39121659201E+03 -0.32319174356E+03  0.50744831510E+03  0.50400001928E-02 0. -1.
</event>
<event>
 5   0  0.2356918E-04  0.9002393E+03  0.7818609E-02  0.9425282E-01
        1   -1    0    0  501    0  0.00000000000E+00  0.00000000000E+00  0.21828848068E+03  0.21828848074E+03  0.50400001928E-02 0.  1.
       -1   -1    0    0    0  501  0.00000000000E+00  0.00000000000E+00 -0.92816476792E+03  0.92816476794E+03  0.50400001928E-02 0. -1.
    10030    2    1    2    0    0  0.00000000000E+00  0.00000000000E+00 -0.70987628724E+03  0.11464532487E+04  0.90023925053E+03 0.  0.
        5    1    3    3  502    0 -0.43104437661E+02 -0.72654417263E+02 -0.91794677600E+03  0.92183785476E+03  0.46999998093E+01 0. -1.
       -5    1    3    3    0  502  0.43104437661E+02  0.72654417263E+02  0.20807048876E+03  0.22461539392E+03  0.46999998093E+01 0.  1.
</event>
<event>
 5   0  0.2332791E-04  0.9000254E+03  0.7818609E-02  0.9425550E-01
        1   -1    0    0  501    0  0.00000000000E+00  0.00000000000E+00  0.37755290799E+03  0.37755290802E+03  0.50400001928E-02 0. -1.
       -1   -1    0    0    0  501  0.00000000000E+00  0.00000000000E+00 -0.53637890214E+03  0.53637890216E+03  0.50400001928E-02 0.  1.
    10030    2    1    2    0    0  0.00000000000E+00  0.00000000000E+00 -0.15882599415E+03  0.91393181019E+03  0.90002536478E+03 0.  0.
        2    1    3    3  502    0  0.35334997457E+03  0.12599809065E+03  0.17298267882E+03  0.41310377698E+03  0.25500000920E-02 0. -1.
       -2    1    3    3    0  502 -0.35334997457E+03 -0.12599809065E+03 -0.33180867297E+03  0.50082803320E+03  0.25500000920E-02 0.  1.
</event>
<event>
 5   0  0.2450427E-04  0.8999991E+03  0.7818609E-02  0.9425583E-01
        1   -1    0    0  501    0  0.00000000000E+00  0.00000000000E+00  0.80749902433E+03  0.80749902434E+03  0.50400001928E-02 0. -1.
       -1   -1    0    0    0  501  0.00000000000E+00  0.00000000000E+00 -0.25077378044E+03  0.25077378049E+03  0.50400001928E-02 0.  1.
    10030    2    1    2    0    0  0.00000000000E+00  0.00000000000E+00  0.55672524388E+03  0.10582728048E+04  0.89999907349E+03 0.  0.
        3    1    3    3  502    0 -0.70844105534E+02 -0.38134826340E+03  0.54663960262E+03  0.67026878985E+03  0.10100000352E+00 0. -1.
       -3    1    3    3    0  502  0.70844105534E+02  0.38134826340E+03  0.10085641264E+02  0.38800401499E+03  0.10100000352E+00 0.  1.
</event>
<event>
 5   0  0.2356918E-04  0.9005508E+03  0.7818609E-02  0.9424893E-01
       -1   -1    0    0    0  501  0.00000000000E+00  0.00000000000E+00  0.27619682043E+03  0.27619682048E+03  0.50400001928E-02 0.  1.
        1   -1    0    0  501    0  0.00000000000E+00  0.00000000000E+00 -0.73407049529E+03  0.73407049531E+03  0.50400001928E-02 0. -1.
    10030    2    1    2    0    0  0.00000000000E+00  0.00000000000E+00 -0.45787367486E+03  0.10102673158E+04  0.90055080213E+03 0.  0.
        5    1    3    3  502    0 -0.85565062428E+02  0.84936439194E+02 -0.71559797405E+03  0.72569837334E+03  0.46999998093E+01 0. -1.
       -5    1    3    3    0  502  0.85565062428E+02 -0.84936439194E+02  0.25772429919E+03  0.28456894244E+03  0.46999998093E+01 0.  1.
</event>
<event>
 5   0  0.3959804E-04  0.9003104E+03  0.7818609E-02  0.9425194E-01
       -2   -1    0    0    0  501  0.00000000000E+00  0.00000000000E+00  0.21443692004E+03  0.21443692005E+03  0.25500000920E-02 0. -1.
        2   -1    0    0  501    0  0.00000000000E+00  0.00000000000E+00 -0.94498510240E+03  0.94498510240E+03  0.25500000920E-02 0.  1.
    10030    2    1    2    0    0  0.00000000000E+00  0.00000000000E+00 -0.73054818236E+03  0.11594220225E+04  0.90031037948E+03 0.  0.
        5    1    3    3  502    0 -0.20321914393E+03  0.40112915245E+03 -0.39150822714E+03  0.59624105807E+03  0.46999998093E+01 0.  1.
       -5    1    3    3    0  502  0.20321914393E+03 -0.40112915245E+03 -0.33903995523E+03  0.56318096439E+03  0.46999998093E+01 0. -1.
</event>
<event>
 5   0  0.2308362E-04  0.9012623E+03  0.7818609E-02  0.9424005E-01
       -1   -1    0    0    0  501  0.00000000000E+00  0.00000000000E+00  0.26341543634E+03  0.26341543639E+03  0.50400001928E-02 0.  1.
        1   -1    0    0  501    0  0.00000000000E+00  0.00000000000E+00 -0.77090563313E+03  0.77090563315E+03  0.50400001928E-02 0. -1.
    10030    2    1    2    0    0  0.00000000000E+00  0.00000000000E+00 -0.50749019679E+03  0.10343210695E+04  0.90126232311E+03 0.  0.
        1    1    3    3  502    0  0.87400294829E+02  0.44016123942E+03 -0.20659812956E+03  0.49402784880E+03  0.50400001928E-02 0. -1.
       -1    1    3    3    0  502 -0.87400294829E+02 -0.44016123942E+03 -0.30089206723E+03  0.54029322074E+03  0.50400001928E-02 0.  1.
</event>
<event>
 5   0  0.2356918E-04  0.8998741E+03  0.7818609E-02  0.9425739E-01
       -1   -1    0    0    0  501  0.00000000000E+00  0.00000000000E+00  0.27827611628E+03  0.27827611632E+03  0.50400001928E-02 0.  1.
        1   -1    0    0  501    0  0.00000000000E+00  0.00000000000E+00 -0.72749089990E+03  0.72749089991E+03  0.50400001928E-02 0. -1.
    10030    2    1    2    0    0  0.00000000000E+00  0.00000000000E+00 -0.44921478362E+03  0.10057670162E+04  0.89987408515E+03 0.  0.
        5    1    3    3  502    0  0.26918537288E+03  0.90664669636E+02  0.16536423935E+03  0.32870696516E+03  0.46999998093E+01 0.  1.
       -5    1    3    3    0  502 -0.26918537288E+03 -0.90664669636E+02 -0.61457902297E+03  0.67706005108E+03  0.46999998093E+01 0. -1.
</event>
<event>
 5   0  0.2351435E-04  0.9006463E+03  0.7818609E-02  0.9424774E-01
        1   -1    0    0  501    0  0.00000000000E+00  0.00000000000E+00  0.25495327458E+03  0.25495327463E+03  0.50400001928E-02 0.  1.
       -1   -1    0    0    0  501  0.00000000000E+00  0.00000000000E+00 -0.79540433520E+03  0.79540433521E+03  0.50400001928E-02 0. -1.
    10030    2    1    2    0    0  0.00000000000E+00  0.00000000000E+00 -0.54045106062E+03  0.10503576098E+04  0.90064630106E+03 0.  0.
        4    1    3    3  502    0  0.31447962642E+03  0.91971466985E+02  0.90048140993E+02  0.33980357086E+03  0.12699999809E+01 0.  1.
       -4    1    3    3    0  502 -0.31447962642E+03 -0.91971466985E+02 -0.63049920161E+03  0.71055403898E+03  0.12699999809E+01 0. -1.
</event>
<event>
 5   0  0.2332791E-04  0.9004945E+03  0.7818609E-02  0.9424964E-01
        1   -1    0    0  501    0  0.00000000000E+00  0.00000000000E+00  0.10796826223E+04  0.10796826223E+04  0.50400001928E-02 0.  1.
       -1   -1    0    0    0  501  0.00000000000E+00  0.00000000000E+00 -0.18776125460E+03  0.18776125467E+03  0.50400001928E-02 0. -1.
    10030    2    1    2    0    0  0.00000000000E+00  0.00000000000E+00  0.89192136772E+03  0.12674438770E+04  0.90049445037E+03 0.  0.
        2    1    3    3  502    0 -0.21092707510E+02 -0.31975071285E+02  0.10773850151E+04  0.10780657579E+04  0.25500000920E-02 0.  1.
       -2    1    3    3    0  502  0.21092707510E+02  0.31975071285E+02 -0.18546364739E+03  0.18937811913E+03  0.25500000920E-02 0. -1.
</event>
<event>
 5   0  0.4236284E-04  0.9000507E+03  0.7818609E-02  0.9425518E-01
        2   -1    0    0  501    0  0.00000000000E+00  0.00000000000E+00  0.82473973761E+03  0.82473973761E+03  0.25500000920E-02 0. -1.
       -2   -1    0    0    0  501  0.00000000000E+00  0.00000000000E+00 -0.24555967230E+03  0.24555967232E+03  0.25500000920E-02 0.  1.
    10030    2    1    2    0    0  0.00000000000E+00  0.00000000000E+00  0.57918006530E+03  0.10702994099E+04  0.90005070904E+03 0.  0.
        2    1    3    3  502    0  0.14764611938E+03 -0.28185190106E+03  0.66803826112E+03  0.73994255792E+03  0.25500000920E-02 0. -1.
       -2    1    3    3    0  502 -0.14764611938E+03  0.28185190106E+03 -0.88858195818E+02  0.33035685200E+03  0.25500000920E-02 0.  1.
</event>
<event>
 5   0  0.4110039E-04  0.9001077E+03  0.7818609E-02  0.9425447E-01
       -2   -1    0    0    0  501  0.00000000000E+00  0.00000000000E+00  0.14673504888E+03  0.14673504890E+03  0.25500000920E-02 0. -1.
        2   -1    0    0  501    0  0.00000000000E+00  0.00000000000E+00 -0.13803686250E+04  0.13803686250E+04  0.25500000920E-02 0.  1.
    10030    2    1    2    0    0  0.00000000000E+00  0.00000000000E+00 -0.12336335761E+04  0.15271036739E+04  0.90010767729E+03 0.  0.
        3    1    3    3  502    0  0.37280612234E+02  0.36895585826E+03 -0.10494616274E+04  0.11130534520E+04  0.10100000352E+00 0.  1.
       -3    1    3    3    0  502 -0.37280612234E+02 -0.36895585826E+03 -0.18417194877E+03  0.41405022196E+03  0.10100000352E+00 0. -1.
</event>
<event>
 5   0  0.4033144E-04  0.8995800E+03  0.7818609E-02  0.9426107E-01
       -2   -1    0    0    0  501  0.00000000000E+00  0.00000000000E+00  0.71303896963E+02  0.71303897009E+02  0.25500000920E-02 0.  1.
        2   -1    0    0  501    0  0.00000000000E+00  0.00000000000E+00 -0.28373072684E+04  0.28373072684E+04  0.25500000920E-02 0. -1.
    10030    2    1    2    0    0  0.00000000000E+00  0.00000000000E+00 -0.27660033714E+04  0.29086111654E+04  0.89958004688E+03 0.  0.
        4    1    3    3  502    0  0.10777711138E+03  0.11924767779E+03 -0.24733122674E+02  0.16263226818E+03  0.12699999809E+01 0.  1.
       -4    1    3    3    0  502 -0.10777711138E+03 -0.11924767779E+03 -0.27412702487E+04  0.27459788972E+04  0.12699999809E+01 0. -1.
</event>
<event>
 5   0  0.2450427E-04  0.8995235E+03  0.7818609E-02  0.9426177E-01
        1   -1    0    0  501    0  0.00000000000E+00  0.00000000000E+00  0.82257062354E+03  0.82257062355E+03  0.50400001928E-02 0.  1.
       -1   -1    0    0    0  501  0.00000000000E+00  0.00000000000E+00 -0.24591887177E+03  0.24591887182E+03  0.50400001928E-02 0. -1.
    10030    2    1    2    0    0  0.00000000000E+00  0.00000000000E+00  0.57665175177E+03  0.10684894954E+04  0.89952351770E+03 0.  0.
        3    1    3    3  502    0  0.17562472206E+03 -0.33841993846E+03  0.57170346613E+03  0.68718044292E+03  0.10100000352E+00 0.  1.
       -3    1    3    3    0  502 -0.17562472206E+03  0.33841993846E+03  0.49482856392E+01  0.38130905245E+03  0.10100000352E+00 0. -1.
</event>
<event>
 5   0  0.4243516E-04  0.9010470E+03  0.7818609E-02  0.9424274E-01
        2   -1    0    0  501    0  0.00000000000E+00  0.00000000000E+00  0.28775432688E+03  0.28775432690E+03  0.25500000920E-02 0. -1.
       -2   -1    0    0    0  501  0.00000000000E+00  0.00000000000E+00 -0.70536359139E+03  0.70536359139E+03  0.25500000920E-02 0.  1.
    10030    2    1    2    0    0  0.00000000000E+00  0.00000000000E+00 -0.41760926450E+03  0.99311791829E+03  0.90104700312E+03 0.  0.
        1    1    3    3  502    0  0.38525461771E+03  0.20631821772E+03 -0.32945757717E+03  0.54729390880E+03  0.50400001928E-02 0.  1.
       -1    1    3    3    0  502 -0.38525461771E+03 -0.20631821772E+03 -0.88151687333E+02  0.44582400949E+03  0.50400001928E-02 0. -1.
</event>
<event>
 5   0  0.3959804E-04  0.9000712E+03  0.7818609E-02  0.9425492E-01
       -2   -1    0    0    0  501  0.00000000000E+00  0.00000000000E+00  0.20660307489E+03  0.20660307490E+03  0.25500000920E-02 0.  1.
        2   -1    0    0  501    0  0.00000000000E+00  0.00000000000E+00 -0.98029539975E+03  0.98029539975E+03  0.25500000920E-02 0. -1.
    10030    2    1    2    0    0  0.00000000000E+00  0.00000000000E+00 -0.77369232486E+03  0.11868984747E+04  0.90007120585E+03 0.  0.
        5    1    3    3  502    0  0.64541927326E+02  0.12564040608E+03  0.17658137328E+03  0.22617303865E+03  0.46999998093E+01 0.  1.
       -5    1    3    3    0  502 -0.64541927326E+02 -0.12564040608E+03 -0.95027369814E+03  0.96072543601E+03  0.46999998093E+01 0. -1.
</event>
<event>
 5   0  0.2351435E-04  0.9000471E+03  0.7818609E-02  0.9425523E-01
        1   -1    0    0  501    0  0.00000000000E+00  0.00000000000E+00  0.95778524024E+03  0.95778524025E+03  0.50400001928E-02 0. -1.
       -1   -1    0    0    0  501  0.00000000000E+00  0.00000000000E+00 -0.21144740249E+03  0.21144740255E+03  0.50400001928E-02 0.  1.
    10030    2    1    2    0    0  0.00000000000E+00  0.00000000000E+00  0.74633783776E+03  0.11692326428E+04  0.90004711261E+03 0.  0.
        4    1    3    3  502    0 -0.22103640930E+03 -0.84397166239E+02 -0.12412506790E+03  0.26718649159E+03  0.12699999809E+01 0. -1.
       -4    1    3    3    0  502  0.22103640930E+03  0.84397166239E+02  0.87046290565E+03  0.90204615122E+03  0.12699999809E+01 0.  1.
</event>
<event>
 5   0  0.2332791E-04  0.8998553E+03  0.7818609E-02  0.9425762E-01
       -1   -1    0    0    0  501  0.00000000000E+00  0.00000000000E+00  0.54203743011E+03  0.54203743013E+03  0.50400001928E-02 0. -1.
        1   -1    0    0  501    0  0.00000000000E+00  0.00000000000E+00 -0.37347031201E+03  0.37347031205E+03  0.50400001928E-02 0.  1.
    10030    2    1    2    0    0  0.00000000000E+00  0.00000000000E+00  0.16856711809E+03  0.91550774218E+03  0.89985529542E+03 0.  0.
        2    1    3    3  502    0 -0.23550067164E+03  0.36413425781E+03  0.20628846823E+03  0.48021792572E+03  0.25500000920E-02 0. -1.
       -2    1    3    3    0  502  0.23550067164E+03 -0.36413425781E+03 -0.37721350136E+02  0.43528981646E+03  0.25500000920E-02 0.  1.
</event>
<event>
 5   0  0.2332791E-04  0.8997607E+03  0.7818609E-02  0.9425881E-01
       -1   -1    0    0    0  501  0.00000000000E+00  0.00000000000E+00  0.19659646337E+03  0.19659646343E+03  0.50400001928E-02 0.  1.
        1   -1    0    0  501    0  0.00000000000E+00  0.00000000000E+00 -0.10294811072E+04  0.10294811072E+04  0.50400001928E-02 0. -1.
    10030    2    1    2    0    0  0.00000000000E+00  0.00000000000E+00 -0.83288464386E+03  0.12260775707E+04  0.89976073449E+03 0.  0.
        2    1    3    3  502    0 -0.33058854921E+03  0.16208357339E+03 -0.64165012262E+02  0.37373389255E+03  0.25500000920E-02 0.  1.
       -2    1    3    3    0  502  0.33058854921E+03 -0.16208357339E+03 -0.76871963160E+03  0.85234367813E+03  0.25500000920E-02 0. -1.
</event>
<event>
 5   0  0.2450427E-04  0.8992902E+03  0.7818609E-02  0.9426469E-01
       -1   -1    0    0    0  501  0.00000000000E+00  0.00000000000E+00  0.50315046379E+03  0.50315046381E+03  0.50400001928E-02 0.  1.
        1   -1    0    0  501    0  0.00000000000E+00  0.00000000000E+00 -0.40182955754E+03  0.40182955757E+03  0.50400001928E-02 0. -1.
    10030    2    1    2    0    0  0.00000000000E+00  0.00000000000E+00  0.10132090625E+03  0.90498002138E+03  0.89929022738E+03 0.  0.
        3    1    3    3  502    0  0.18990644813E+03 -0.26351231498E+03 -0.26223688306E+03  0.41745825207E+03  0.10100000352E+00 0. -1.
       -3    1    3    3    0  502 -0.18990644813E+03  0.26351231498E+03  0.36355778931E+03  0.48752176931E+03  0.10100000352E+00 0.  1.
</event>
<event>
 5   0  0.2332791E-04  0.8999514E+03  0.7818609E-02  0.9425642E-01
        1   -1    0    0  501    0  0.00000000000E+00  0.00000000000E+00  0.67223982973E+03  0.67223982975E+03  0.50400001928E-02 0. -1.
       -1   -1    0    0    0  501  0.00000000000E+00  0.00000000000E+00 -0.30119922748E+03  0.30119922752E+03  0.50400001928E-02 0.  1.
    10030    2    1    2    0    0  0.00000000000E+00  0.00000000000E+00  0.37104060225E+03  0.97343905727E+03  0.89995137074E+03 0.  0.
        2    1    3    3  502    0 -0.43400614589E+03  0.15681727447E+02  0.58128488981E+02  0.43816226729E+03  0.25500000920E-02 0.  1.
       -2    1    3    3    0  502  0.43400614589E+03 -0.15681727447E+02  0.31291211327E+03  0.53527678997E+03  0.25500000920E-02 0. -1.
</event>
<event>
 5   0  0.4236284E-04  0.9029963E+03  0.7818609E-02  0.9421844E-01
       -2   -1    0    0    0  501  0.00000000000E+00  0.00000000000E+00  0.17046934536E+03  0.17046934538E+03  0.25500000920E-02 0. -1.
        2   -1    0    0  501    0  0.00000000000E+00  0.00000000000E+00 -0.11958194849E+04  0.11958194849E+04  0.25500000920E-02 0.  1.
    10030    2    1    2    0    0  0.00000000000E+00  0.00000000000E+00 -0.10253501395E+04  0.13662888303E+04  0.90299626748E+03 0.  0.
        2    1    3    3  502    0  0.75710856711E+02  0.15214259251E+03  0.12023160700E+03  0.20817094323E+03  0.25500000920E-02 0. -1.
       -2    1    3    3    0  502 -0.75710856711E+02 -0.15214259251E+03 -0.11455817465E+04  0.11581178870E+04  0.25500000920E-02 0.  1.
</event>
<event>
 5   0  0.4236284E-04  0.8992715E+03  0.7818609E-02  0.9426492E-01
       -2   -1    0    0    0  501  0.00000000000E+00  0.00000000000E+00  0.10293599630E+03  0.10293599633E+03  0.25500000920E-02 0. -1.
        2   -1    0    0  501    0  0.00000000000E+00  0.00000000000E+00 -0.19640585478E+04  0.19640585478E+04  0.25500000920E-02 0.  1.
    10030    2    1    2    0    0  0.00000000000E+00  0.00000000000E+00 -0.18611225515E+04  0.20669945442E+04  0.89927153506E+03 0.  0.
        2    1    3    3  502    0 -0.39510070719E+03  0.70678960592E+02 -0.13963861480E+04  0.14529261367E+04  0.25500000920E-02 0.  1.
       -2    1    3    3    0  502  0.39510070719E+03 -0.70678960592E+02 -0.46473640350E+03  0.61406840746E+03  0.25500000920E-02 0. -1.
</event>
<event>
 5   0  0.4110039E-04  0.8999325E+03  0.7818609E-02  0.9425666E-01
       -2   -1    0    0    0  501  0.00000000000E+00  0.00000000000E+00  0.27336007071E+03  0.27336007072E+03  0.25500000920E-02 0.  1.
        2   -1    0    0  501    0  0.00000000000E+00  0.00000000000E+00 -0.74067004872E+03  0.74067004873E+03  0.25500000920E-02 0. -1.
    10030    2    1    2    0    0  0.00000000000E+00  0.00000000000E+00 -0.46730997801E+03  0.10140301195E+04  0.89993247947E+03 0.  0.
        3    1    3    3  502    0 -0.14506779200E+03  0.42585209594E+03 -0.24340898827E+03  0.51151013447E+03  0.10100000352E+00 0. -1.
       -3    1    3    3    0  502  0.14506779200E+03 -0.42585209594E+03 -0.22390098974E+03  0.50251998498E+03  0.10100000352E+00 0.  1.
</event>
<event>
 5   0  0.1596250E-04  0.9020326E+03  0.7818609E-02  0.9423044E-01
        3   -1    0    0  501    0  0.00000000000E+00  0.00000000000E+00  0.46526124524E+03  0.46526125621E+03  0.10100000352E+00 0.  1.
       -3   -1    0    0    0  501  0.00000000000E+00  0.00000000000E+00 -0.43720745276E+03  0.43720746443E+03  0.10100000352E+00 0. -1.
    10030    2    1    2    0    0  0.00000000000E+00  0.00000000000E+00  0.28053792480E+02  0.90246872064E+03  0.90203258059E+03 0.  0.
        1    1    3    3  502    0  0.39475360119E+03 -0.11511623827E+03 -0.17135581394E+03  0.44547162532E+03  0.50400001928E-02 0. -1.
       -1    1    3    3    0  502 -0.39475360119E+03  0.11511623827E+03  0.19940960642E+03  0.45699709532E+03  0.50400001928E-02 0.  1.
</event>
<event>
 5   0  0.2308362E-04  0.9001120E+03  0.7818609E-02  0.9425441E-01
       -1   -1    0    0    0  501  0.00000000000E+00  0.00000000000E+00  0.31225085827E+03  0.31225085831E+03  0.50400001928E-02 0. -1.
        1   -1    0    0  501    0  0.00000000000E+00  0.00000000000E+00 -0.64867847357E+03  0.64867847359E+03  0.50400001928E-02 0.  1.
    10030    2    1    2    0    0  0.00000000000E+00  0.00000000000E+00 -0.33642761529E+03  0.96092933190E+03  0.90011201557E+03 0.  0.
        1    1    3    3  502    0  0.15218942070E+03 -0.40010150353E+03 -0.31655398071E+03  0.53239952632E+03  0.50400001928E-02 0.  1.
       -1    1    3    3    0  502 -0.15218942070E+03  0.40010150353E+03 -0.19873634583E+02  0.42852980558E+03  0.50400001928E-02 0. -1.
</event>
<event>
 5   0  0.2332791E-04  0.8997855E+03  0.7818609E-02  0.9425850E-01
       -1   -1    0    0    0  501  0.00000000000E+00  0.00000000000E+00  0.44348791938E+03  0.44348791941E+03  0.50400001928E-02 0.  1.
        1   -1    0    0  501    0  0.00000000000E+00  0.00000000000E+00 -0.45639005694E+03  0.45639005697E+03  0.50400001928E-02 0. -1.
    10030    2    1    2    0    0  0.00000000000E+00  0.00000000000E+00 -0.12902137560E+02  0.89987797638E+03  0.89978547844E+03 0.  0.
        2    1    3    3  502    0 -0.49832144337E+02 -0.41971021310E+03  0.14771915288E+03  0.44772854915E+03  0.25500000920E-02 0.  1.
       -2    1    3    3    0  502  0.49832144337E+02  0.41971021310E+03 -0.16062129044E+03  0.45214942723E+03  0.25500000920E-02 0. -1.
</event>
<event>
 5   0  0.2332791E-04  0.9000569E+03  0.7818609E-02  0.9425510E-01
        1   -1    0    0  501    0  0.00000000000E+00  0.00000000000E+00  0.91624769431E+03  0.91624769432E+03  0.50400001928E-02 0.  1.
       -1   -1    0    0    0  501  0.00000000000E+00  0.00000000000E+00 -0.22103805557E+03  0.22103805563E+03  0.50400001928E-02 0. -1.
    10030    2    1    2    0    0  0.00000000000E+00  0.00000000000E+00  0.69520963874E+03  0.11372857500E+04  0.90005690668E+03 0.  0.
        2    1    3    3  502    0  0.82216314618E+02  0.27890253692E+03 -0.86408275550E+02  0.30333568464E+03  0.25500000920E-02 0. -1.
       -2    1    3    3    0  502 -0.82216314618E+02 -0.27890253692E+03  0.78161791429E+03  0.83395006531E+03  0.25500000920E-02 0.  1.
</event>
<event>
 5   0  0.4110039E-04  0.8999318E+03  0.7818609E-02  0.9425667E-01
        2   -1    0    0  501    0  0.00000000000E+00  0.00000000000E+00  0.15613079548E+04  0.15613079548E+04  0.25500000920E-02 0.  1.
       -2   -1    0    0    0  501  0.00000000000E+00  0.00000000000E+00 -0.12967930390E+03  0.12967930392E+03  0.25500000920E-02 0. -1.
    10030    2    1    2    0    0  0.00000000000E+00  0.00000000000E+00  0.14316286509E+04  0.16909872587E+04  0.89993183914E+03 0.  0.
        3    1    3    3  502    0 -0.24599462150E+03  0.37211409764E+03  0.60485581404E+03  0.75155360517E+03  0.10100000352E+00 0.  1.
       -3    1    3    3    0  502  0.24599462150E+03 -0.37211409764E+03  0.82677283687E+03  0.93943365357E+03  0.10100000352E+00 0. -1.
</event>
<event>
 5   0  0.4236284E-04  0.8995112E+03  0.7818609E-02  0.9426193E-01
        2   -1    0    0  501    0  0.00000000000E+00  0.00000000000E+00  0.13079140840E+04  0.13079140840E+04  0.25500000920E-02 0. -1.
       -2   -1    0    0    0  501  0.00000000000E+00  0.00000000000E+00 -0.15465854076E+03  0.15465854078E+03  0.25500000920E-02 0.  1.
    10030    2    1    2    0    0  0.00000000000E+00  0.00000000000E+00  0.11532555432E+04  0.14625726247E+04  0.89951116431E+03 0.  0.
        2    1    3    3  502    0  0.54262139361E+02  0.42851961877E+03  0.78040353578E+03  0.89196587497E+03  0.25500000920E-02 0. -1.
       -2    1    3    3    0  502 -0.54262139361E+02 -0.42851961877E+03  0.37285200743E+03  0.57060674978E+03  0.25500000920E-02 0.  1.
</event>
<event>
 5   0  0.4236284E-04  0.8998750E+03  0.7818609E-02  0.9425738E-01
        2   -1    0    0  501    0  0.00000000000E+00  0.00000000000E+00  0.22085333908E+03  0.22085333909E+03  0.25500000920E-02 0.  1.
       -2   -1    0    0    0  501  0.00000000000E+00  0.00000000000E+00 -0.91664348094E+03  0.91664348094E+03  0.25500000920E-02 0. -1.
    10030    2    1    2    0    0  0.00000000000E+00  0.00000000000E+00 -0.69579014186E+03  0.11374968200E+04  0.89987504359E+03 0.  0.
        2    1    3    3  502    0  0.27135413762E+02 -0.18367006205E+03  0.17017368496E+03  0.25185334112E+03  0.25500000920E-02 0.  1.
       -2    1    3    3    0  502 -0.27135413762E+02  0.18367006205E+03 -0.86596382682E+03  0.88564347892E+03  0.25500000920E-02 0. -1.
</event>
<event>
 5   0  0.2351435E-04  0.9000487E+03  0.7818609E-02  0.9425521E-01
        1   -1    0    0  501    0  0.00000000000E+00  0.00000000000E+00  0.60371538386E+03  0.60371538388E+03  0.50400001928E-02 0.  1.
       -1   -1    0    0    0  501  0.00000000000E+00  0.00000000000E+00 -0.33545924296E+03  0.33545924299E+03  0.50400001928E-02 0. -1.
    10030    2    1    2    0    0  0.00000000000E+00  0.00000000000E+00  0.26825614090E+03  0.93917462687E+03  0.90004867792E+03 0.  0.
        4    1    3    3  502    0  0.53796556506E+02 -0.39797169882E+03  0.34604453089E+03  0.53011694259E+03  0.12699999809E+01 0. -1.
       -4    1    3    3    0  502 -0.53796556506E+02  0.39797169882E+03 -0.77788389992E+02  0.40905768429E+03  0.12699999809E+01 0.  1.
</event>
<event>
 5   0  0.2356918E-04  0.8998315E+03  0.7818609E-02  0.9425792E-01
       -1   -1    0    0    0  501  0.00000000000E+00  0.00000000000E+00  0.11674666486E+04  0.11674666487E+04  0.50400001928E-02 0. -1.
        1   -1    0    0  501    0  0.00000000000E+00  0.00000000000E+00 -0.17338754995E+03  0.17338755002E+03  0.50400001928E-02 0.  1.
    10030    2    1    2    0    0  0.00000000000E+00  0.00000000000E+00  0.99407909870E+03  0.13408541987E+04  0.89983149959E+03 0.  0.
        5    1    3    3  502    0  0.42176934023E+03 -0.15644027231E+03  0.48771508860E+03  0.66351415418E+03  0.46999998093E+01 0. -1.
       -5    1    3    3    0  502 -0.42176934023E+03  0.15644027231E+03  0.50636401010E+03  0.67734004449E+03  0.46999998093E+01 0.  1.
</event>
<event>
 5   0  0.4243516E-04  0.8997307E+03  0.7818609E-02  0.9425918E-01
        2   -1    0    0  501    0  0.00000000000E+00  0.00000000000E+00  0.58250295166E+03  0.58250295167E+03  0.25500000920E-02 0.  1.
       -2   -1    0    0    0  501  0.00000000000E+00  0.00000000000E+00 -0.34742973332E+03  0.34742973333E+03  0.25500000920E-02 0. -1.
    10030    2    1    2    0    0  0.00000000000E+00  0.00000000000E+00  0.23507321835E+03  0.92993268499E+03  0.89973072674E+03 0.  0.
        1    1    3    3  502    0  0.10114892037E+03  0.41387988229E+03 -0.31709947881E+02  0.42723902195E+03  0.50400001928E-02 0. -1.
       -1    1    3    3    0  502 -0.10114892037E+03 -0.41387988229E+03  0.26678316623E+03  0.50269366304E+03  0.50400001928E-02 0.  1.
</event>
<event>
 5   0  0.4110039E-04  0.8994459E+03  0.7818609E-02  0.9426274E-01
        2   -1    0    0  501    0  0.00000000000E+00  0.00000000000E+00  0.57050680349E+03  0.57050680350E+03  0.25500000920E-02 0. -1.
       -2   -1    0    0    0  501  0.00000000000E+00  0.00000000000E+00 -0.35451067068E+03  0.35451067069E+03  0.25500000920E-02 0.  1.
    10030    2    1    2    0    0  0.00000000000E+00  0.00000000000E+00  0.21599613281E+03  0.92501747418E+03  0.89944593954E+03 0.  0.
        3    1    3    3  502    0  0.37327954497E+03  0.23743841717E+03  0.24853315513E+02  0.44309402855E+03  0.10100000352E+00 0.  1.
       -3    1    3    3    0  502 -0.37327954497E+03 -0.23743841717E+03  0.19114281730E+03  0.48192344563E+03  0.10100000352E+00 0. -1.
</event>
<event>
 5   0  0.1596250E-04  0.9008583E+03  0.7818609E-02  0.9424509E-01
       -4   -1    0    0    0  501  0.00000000000E+00  0.00000000000E+00  0.38502765079E+03  0.38502974531E+03  0.12699999809E+01 0.  1.
        4   -1    0    0  501    0  0.00000000000E+00  0.00000000000E+00 -0.52693559579E+03  0.52693712624E+03  0.12699999809E+01 0. -1.
    10030    2    1    2    0    0  0.00000000000E+00  0.00000000000E+00 -0.14190794499E+03  0.91196687155E+03  0.90085831847E+03 0.  0.
        5    1    3    3  502    0 -0.81275568174E+02  0.12311123203E+03 -0.50176269222E+03  0.52302005959E+03  0.46999998093E+01 0. -1.
       -5    1    3    3    0  502  0.81275568174E+02 -0.12311123203E+03  0.35985474723E+03  0.38894681196E+03  0.46999998093E+01 0.  1.
</event>
<event>
 5   0  0.4110039E-04  0.9014496E+03  0.7818609E-02  0.9423771E-01
        2   -1    0    0  501    0  0.00000000000E+00  0.00000000000E+00  0.11783191177E+04  0.11783191177E+04  0.25500000920E-02 0.  1.
       -2   -1    0    0    0  501  0.00000000000E+00  0.00000000000E+00 -0.17240900856E+03  0.17240900858E+03  0.25500000920E-02 0. -1.
    10030    2    1    2    0    0  0.00000000000E+00  0.00000000000E+00  0.10059101092E+04  0.13507281263E+04  0.90144956790E+03 0.  0.
        3    1    3    3  502    0 -0.39626052405E+03  0.85669788387E+02  0.79807093818E+03  0.89514185922E+03  0.10100000352E+00 0.  1.
       -3    1    3    3    0  502  0.39626052405E+03 -0.85669788387E+02  0.20783917100E+03  0.45558626710E+03  0.10100000352E+00 0. -1.
</event>
<event>
 5   0  0.4236284E-04  0.9001116E+03  0.7818609E-02  0.9425442E-01
       -2   -1    0    0    0  501  0.00000000000E+00  0.00000000000E+00  0.60487551035E+03  0.60487551035E+03  0.25500000920E-02 0. -1.
        2   -1    0    0  501    0  0.00000000000E+00  0.00000000000E+00 -0.33486267948E+03  0.33486267949E+03  0.25500000920E-02 0.  1.
    10030    2    1    2    0    0  0.00000000000E+00  0.00000000000E+00  0.27001283087E+03  0.93973818984E+03  0.90011162453E+03 0.  0.
        2    1    3    3  502    0 -0.30002297281E+03  0.76799269804E+02 -0.20592510672E+03  0.37191001820E+03  0.25500000920E-02 0.  1.
       -2    1    3    3    0  502  0.30002297281E+03 -0.76799269804E+02  0.47593793760E+03  0.56782817164E+03  0.25500000920E-02 0. -1.
</event>
<event>
 5   0  0.3959804E-04  0.9001713E+03  0.7818609E-02  0.9425367E-01
        2   -1    0    0  501    0  0.00000000000E+00  0.00000000000E+00  0.68158671051E+03  0.68158671051E+03  0.25500000920E-02 0.  1.
       -2   -1    0    0    0  501  0.00000000000E+00  0.00000000000E+00 -0.29721394261E+03  0.29721394263E+03  0.25500000920E-02 0. -1.
    10030    2    1    2    0    0  0.00000000000E+00  0.00000000000E+00  0.38437276789E+03  0.97880065314E+03  0.90017125809E+03 0.  0.
        5    1    3    3  502    0  0.55459421221E+02  0.10757628657E+03 -0.27915991461E+03  0.30430371795E+03  0.46999998093E+01 0. -1.
       -5    1    3    3    0  502 -0.55459421221E+02 -0.10757628657E+03  0.66353268250E+03  0.67449693519E+03  0.46999998093E+01 0.  1.
</event>
<event>
 5   0  0.2450427E-04  0.9000891E+03  0.7818609E-02  0.9425470E-01
       -1   -1    0    0    0  501  0.00000000000E+00  0.00000000000E+00  0.10220090169E+03  0.10220090182E+03  0.50400001928E-02 0.  1.
        1   -1    0    0  501    0  0.00000000000E+00  0.00000000000E+00 -0.19817838432E+04  0.19817838432E+04  0.50400001928E-02 0. -1.
    10030    2    1    2    0    0  0.00000000000E+00  0.00000000000E+00 -0.18795829415E+04  0.20839847450E+04  0.90008909751E+03 0.  0.
        3    1    3    3  502    0  0.22928115329E+03 -0.40646733002E+02 -0.18314654307E+04  0.18462089910E+04  0.10100000352E+00 0. -1.
       -3    1    3    3    0  502 -0.22928115329E+03  0.40646733002E+02 -0.48117510740E+02  0.23777575402E+03  0.10100000352E+00 0.  1.
</event>
<event>
 5   0  0.2356918E-04  0.9003423E+03  0.7818609E-02  0.9425154E-01
        1   -1    0    0  501    0  0.00000000000E+00  0.00000000000E+00  0.21426552940E+04  0.21426552941E+04  0.50400001928E-02 0.  1.
       -1   -1    0    0    0  501  0.00000000000E+00  0.00000000000E+00 -0.94580805024E+02  0.94580805159E+02  0.50400001928E-02 0. -1.
    10030    2    1    2    0    0  0.00000000000E+00  0.00000000000E+00  0.20480744890E+04  0.22372360992E+04  0.90034229659E+03 0.  0.
        5    1    3    3  502    0  0.20979631901E+03  0.42145535334E+02  0.39948450144E+02  0.21773541349E+03  0.46999998093E+01 0. -1.
       -5    1    3    3    0  502 -0.20979631901E+03 -0.42145535334E+02  0.20081260389E+04  0.20195006857E+04  0.46999998093E+01 0.  1.
</event>
<event>
 5   0  0.4243516E-04  0.8996417E+03  0.7818609E-02  0.9426029E-01
       -2   -1    0    0    0  501  0.00000000000E+00  0.00000000000E+00  0.20681039863E+03  0.20681039864E+03  0.25500000920E-02 0.  1.
        2   -1    0    0  501    0  0.00000000000E+00  0.00000000000E+00 -0.97837815738E+03  0.97837815739E+03  0.25500000920E-02 0. -1.
    10030    2    1    2    0    0  0.00000000000E+00  0.00000000000E+00 -0.77156775876E+03  0.11851885560E+04  0.89964165477E+03 0.  0.
        1    1    3    3  502    0 -0.11674726226E+03  0.20380245614E+03  0.11961302024E+03  0.26357662834E+03  0.50400001928E-02 0.  1.
       -1    1    3    3    0  502  0.11674726226E+03 -0.20380245614E+03 -0.89118077900E+03  0.92161192768E+03  0.50400001928E-02 0. -1.
</event>
<event>
 5   0  0.2332791E-04  0.8999898E+03  0.7818609E-02  0.9425594E-01
        1   -1    0    0  501    0  0.00000000000E+00  0.00000000000E+00  0.57428590460E+03  0.57428590462E+03  0.50400001928E-02 0.  1.
       -1   -1    0    0    0  501  0.00000000000E+00  0.00000000000E+00 -0.35260383717E+03  0.35260383720E+03  0.50400001928E-02 0. -1.
    10030    2    1    2    0    0  0.00000000000E+00  0.00000000000E+00  0.22168206743E+03  0.92688974183E+03  0.89998980799E+03 0.  0.
        2    1    3    3  502    0  0.24447615510E+03  0.34194197397E+03 -0.54591704788E+02  0.42387870696E+03  0.25500000920E-02 0. -1.
       -2    1    3    3    0  502 -0.24447615510E+03 -0.34194197397E+03  0.27627377222E+03  0.50301103487E+03  0.25500000920E-02 0.  1.
</event>
<event>
 5   0  0.4236284E-04  0.8998620E+03  0.7818609E-02  0.9425754E-01
        2   -1    0    0  501    0  0.00000000000E+00  0.00000000000E+00  0.89394240646E+03  0.89394240646E+03  0.25500000920E-02 0. -1.
       -2   -1    0    0    0  501  0.00000000000E+00  0.00000000000E+00 -0.22645522319E+03  0.22645522321E+03  0.25500000920E-02 0.  1.
    10030    2    1    2    0    0  0.00000000000E+00  0.00000000000E+00  0.66748718326E+03  0.11203976297E+04  0.89986204984E+03 0.  0.
        2    1    3    3  502    0  0.15580659506E+03  0.34682253063E+02  0.85750443924E+03  0.87223415266E+03  0.25500000920E-02 0. -1.
       -2    1    3    3    0  502 -0.15580659506E+03 -0.34682253063E+02 -0.19001725598E+03  0.24816347700E+03  0.25500000920E-02 0.  1.
</event>
<event>
 5   0  0.2308362E-04  0.8996234E+03  0.7818609E-02  0.9426052E-01
       -1   -1    0    0    0  501  0.00000000000E+00  0.00000000000E+00  0.15759501831E+03  0.15759501840E+03  0.50400001928E-02 0.  1.
        1   -1    0    0  501    0  0.00000000000E+00  0.00000000000E+00 -0.12838640136E+04  0.12838640136E+04  0.50400001928E-02 0. -1.
    10030    2    1    2    0    0  0.00000000000E+00  0.00000000000E+00 -0.11262689952E+04  0.14414590320E+04  0.89962341631E+03 0.  0.
        1    1    3    3  502    0 -0.44736445827E+03 -0.11440133754E+02 -0.49032735546E+03  0.66384241407E+03  0.50400001928E-02 0.  1.
       -1    1    3    3    0  502  0.44736445827E+03  0.11440133754E+02 -0.63594163979E+03  0.77761661789E+03  0.50400001928E-02 0. -1.
</event>
<event>
 5   0  0.4033144E-04  0.9005508E+03  0.7818609E-02  0.9424893E-01
        2   -1    0    0  501    0  0.00000000000E+00  0.00000000000E+00  0.28632890900E+03  0.28632890901E+03  0.25500000920E-02 0.  1.
       -2   -1    0    0    0  501  0.00000000000E+00  0.00000000000E+00 -0.70809458886E+03  0.70809458886E+03  0.25500000920E-02 0. -1.
    10030    2    1    2    0    0  0.00000000000E+00  0.00000000000E+00 -0.42176567986E+03  0.99442349787E+03  0.90055083389E+03 0.  0.
        4    1    3    3  502    0  0.13225718756E+03  0.16772419246E+03  0.22682364886E+03  0.31156692536E+03  0.12699999809E+01 0.  1.
       -4    1    3    3    0  502 -0.13225718756E+03 -0.16772419246E+03 -0.64858932872E+03  0.68285657251E+03  0.12699999809E+01 0. -1.
</event>
<event>
 5   0  0.2351435E-04  0.9008274E+03  0.7818609E-02  0.9424548E-01
       -1   -1    0    0    0  501  0.00000000000E+00  0.00000000000E+00  0.72898809850E+03  0.72898809852E+03  0.50400001928E-02 0.  1.
        1   -1    0    0  501    0  0.00000000000E+00  0.00000000000E+00 -0.27829329140E+03  0.27829329145E+03  0.50400001928E-02 0. -1.
    10030    2    1    2    0    0  0.00000000000E+00  0.00000000000E+00  0.45069480710E+03  0.10072813900E+04  0.90082739158E+03 0.  0.
        4    1    3    3  502    0  0.41970986100E+03  0.99908424857E+02  0.36998921236E+03  0.56835876956E+03  0.12699999809E+01 0.  1.
       -4    1    3    3    0  502 -0.41970986100E+03 -0.99908424857E+02  0.80705594734E+02  0.43892262040E+03  0.12699999809E+01 0. -1.
</event>
<event>
 5   0  0.1596250E-04  0.8996115E+03  0.7818609E-02  0.9426067E-01
       -4   -1    0    0    0  501  0.00000000000E+00  0.00000000000E+00  0.27732130628E+03  0.27732421427E+03  0.12699999809E+01 0. -1.
        4   -1    0    0  501    0  0.00000000000E+00  0.00000000000E+00 -0.72956239921E+03  0.72956350460E+03  0.12699999809E+01 0.  1.
    10030    2    1    2    0    0  0.00000000000E+00  0.00000000000E+00 -0.45224109292E+03  0.10068877189E+04  0.89961151186E+03 0.  0.
        2    1    3    3  502    0 -0.12635349454E+03 -0.41381669971E+03 -0.36372766840E+03  0.56524975303E+03  0.25500000920E-02 0. -1.
       -2    1    3    3    0  502  0.12635349454E+03  0.41381669971E+03 -0.88513424528E+02  0.44163796583E+03  0.25500000920E-02 0.  1.
</event>
<event>
 5   0  0.2332791E-04  0.8997223E+03  0.7818609E-02  0.9425929E-01
        1   -1    0    0  501    0  0.00000000000E+00  0.00000000000E+00  0.77900842688E+03  0.77900842689E+03  0.50400001928E-02 0. -1.
       -1   -1    0    0    0  501  0.00000000000E+00  0.00000000000E+00 -0.25978546271E+03  0.25978546276E+03  0.50400001928E-02 0.  1.
    10030    2    1    2    0    0  0.00000000000E+00  0.00000000000E+00  0.51922296417E+03  0.10387938897E+04  0.89972232309E+03 0.  0.
        2    1    3    3  502    0  0.43283946002E+03  0.85122763542E+02  0.36144431986E+03  0.57029630841E+03  0.25500000920E-02 0.  1.
       -2    1    3    3    0  502 -0.43283946002E+03 -0.85122763542E+02  0.15777864431E+03  0.46849758124E+03  0.25500000920E-02 0. -1.
</event>
<event>
 5   0  0.2450427E-04  0.9029705E+03  0.7818609E-02  0.9421876E-01
       -1   -1    0    0    0  501  0.00000000000E+00  0.00000000000E+00  0.36177780370E+03  0.36177780374E+03  0.50400001928E-02 0.  1.
        1   -1    0    0  501    0  0.00000000000E+00  0.00000000000E+00 -0.56343679940E+03  0.56343679942E+03  0.50400001928E-02 0. -1.
    10030    2    1    2    0    0  0.00000000000E+00  0.00000000000E+00 -0.20165899570E+03  0.92521460315E+03  0.90297049306E+03 0.  0.
        3    1    3    3  502    0  0.47604731664E+02  0.43736869225E+03  0.30652654793E+01  0.43996248646E+03  0.10100000352E+00 0.  1.
       -3    1    3    3    0  502 -0.47604731664E+02 -0.43736869225E+03 -0.20472426117E+03  0.48525211669E+03  0.10100000352E+00 0. -1.
</event>
<event>
 5   0  0.4243516E-04  0.9000690E+03  0.7818609E-02  0.9425495E-01
       -2   -1    0    0    0  501  0.00000000000E+00  0.00000000000E+00  0.57578191770E+03  0.57578191770E+03  0.25500000920E-02 0. -1.
        2   -1    0    0  501    0  0.00000000000E+00  0.00000000000E+00 -0.35174958592E+03  0.35174958593E+03  0.25500000920E-02 0.  1.
    10030    2    1    2    0    0  0.00000000000E+00  0.00000000000E+00  0.22403233177E+03  0.92753150363E+03  0.90006899989E+03 0.  0.
        1    1    3    3  502    0 -0.13516456492E+03 -0.40147352605E+03  0.26857457762E+03  0.50158025828E+03  0.50400001928E-02 0. -1.
       -1    1    3    3    0  502  0.13516456492E+03  0.40147352605E+03 -0.44542245850E+02  0.42595124535E+03  0.50400001928E-02 0.  1.
</event>
<event>
 5   0  0.2450427E-04  0.9000009E+03  0.7818609E-02  0.9425580E-01
        1   -1    0    0  501    0  0.00000000000E+00  0.00000000000E+00  0.98320581674E+03  0.98320581675E+03  0.50400001928E-02 0. -1.
       -1   -1    0    0    0  501  0.00000000000E+00  0.00000000000E+00 -0.20595934028E+03  0.20595934034E+03  0.50400001928E-02 0.  1.
    10030    2    1    2    0    0  0.00000000000E+00  0.00000000000E+00  0.77724647646E+03  0.11891651571E+04  0.90000093649E+03 0.  0.
        3    1    3    3  502    0  0.22108661279E+03 -0.25491333289E+03  0.78200557546E+03  0.85169996354E+03  0.10100000352E+00 0. -1.
       -3    1    3    3    0  502 -0.22108661279E+03  0.25491333289E+03 -0.47590990045E+01  0.33746519356E+03  0.10100000352E+00 0.  1.
</event>
<event>
 5   0  0.4243516E-04  0.8998681E+03  0.7818609E-02  0.9425746E-01
        2   -1    0    0  501    0  0.00000000000E+00  0.00000000000E+00  0.12106484720E+04  0.12106484720E+04  0.25500000920E-02 0. -1.
       -2   -1    0    0    0  501  0.00000000000E+00  0.00000000000E+00 -0.16721670135E+03  0.16721670136E+03  0.25500000920E-02 0.  1.
    10030    2    1    2    0    0  0.00000000000E+00  0.00000000000E+00  0.10434317706E+04  0.13778651734E+04  0.89986808809E+03 0.  0.
        1    1    3    3  502    0 -0.32809266997E+03 -0.30783920754E+03  0.53022274509E+03  0.69537467399E+03  0.50400001928E-02 0. -1.
       -1    1    3    3    0  502  0.32809266997E+03  0.30783920754E+03  0.51320902555E+03  0.68249049936E+03  0.50400001928E-02 0.  1.
</event>
<event>
 5   0  0.2450427E-04  0.9003501E+03  0.7818609E-02  0.9425144E-01
       -1   -1    0    0    0  501  0.00000000000E+00  0.00000000000E+00  0.16798130893E+03  0.16798130901E+03  0.50400001928E-02 0.  1.
        1   -1    0    0  501    0  0.00000000000E+00  0.00000000000E+00 -0.12064293027E+04  0.12064293027E+04  0.50400001928E-02 0. -1.
    10030    2    1    2    0    0  0.00000000000E+00  0.00000000000E+00 -0.10384479937E+04  0.13744106117E+04  0.90035009515E+03 0.  0.
        3    1    3    3  502    0 -0.31569994331E+03 -0.28349025106E+03 -0.74883542061E+03  0.86069023116E+03  0.10100000352E+00 0. -1.
       -3    1    3    3    0  502  0.31569994331E+03  0.28349025106E+03 -0.28961257312E+03  0.51372038052E+03  0.10100000352E+00 0.  1.
</event>
<event>
 5   0  0.2356918E-04  0.9004877E+03  0.7818609E-02  0.9424972E-01
       -1   -1    0    0    0  501  0.00000000000E+00  0.00000000000E+00  0.60680834860E+03  0.60680834862E+03  0.50400001928E-02 0.  1.
        1   -1    0    0  501    0  0.00000000000E+00  0.00000000000E+00 -0.33407505044E+03  0.33407505048E+03  0.50400001928E-02 0. -1.
    10030    2    1    2    0    0  0.00000000000E+00  0.00000000000E+00  0.27273329815E+03  0.94088339910E+03  0.90048771162E+03 0.  0.
        5    1    3    3  502    0 -0.36272801399E+03 -0.10866508941E+03 -0.11811136196E+03  0.39667631340E+03  0.46999998093E+01 0. -1.
       -5    1    3    3    0  502  0.36272801399E+03  0.10866508941E+03  0.39084466012E+03  0.54420708570E+03  0.46999998093E+01 0.  1.
</event>
<event>
 5   0  0.4033144E-04  0.8995483E+03  0.7818609E-02  0.9426146E-01
       -2   -1    0    0    0  501  0.00000000000E+00  0.00000000000E+00  0.13563602355E+03  0.13563602357E+03  0.25500000920E-02 0. -1.
        2   -1    0    0  501    0  0.00000000000E+00  0.00000000000E+00 -0.14914680402E+04  0.14914680402E+04  0.25500000920E-02 0.  1.
    10030    2    1    2    0    0  0.00000000000E+00  0.00000000000E+00 -0.13558320167E+04  0.16271040638E+04  0.89954831831E+03 0.  0.
        4    1    3    3  502    0  0.82512502581E+02 -0.40876750220E+03 -0.98271912098E+03  0.10675381340E+04  0.12699999809E+01 0.  1.
       -4    1    3    3    0  502 -0.82512502581E+02  0.40876750220E+03 -0.37311289568E+03  0.55956592977E+03  0.12699999809E+01 0. -1.
</event>
<event>
 5   0  0.4236284E-04  0.9001974E+03  0.7818609E-02  0.9425335E-01
       -2   -1    0    0    0  501  0.00000000000E+00  0.00000000000E+00  0.16187107497E+03  0.16187107499E+03  0.25500000920E-02 0. -1.
        2   -1    0    0  501    0  0.00000000000E+00  0.00000000000E+00 -0.12515444726E+04  0.12515444726E+04  0.25500000920E-02 0.  1.
    10030    2    1    2    0    0  0.00000000000E+00  0.00000000000E+00 -0.10896733976E+04  0.14134155476E+04  0.90019742093E+03 0.  0.
        2    1    3    3  502    0  0.26364108419E+03 -0.30547566152E+03 -0.85794363251E+03  0.94809771523E+03  0.25500000920E-02 0.  1.
       -2    1    3    3    0  502 -0.26364108419E+03  0.30547566152E+03 -0.23172976510E+03  0.46531783234E+03  0.25500000920E-02 0. -1.
</event>
<event>
 5   0  0.2351435E-04  0.9022419E+03  0.7818609E-02  0.9422783E-01
        1   -1    0    0  501    0  0.00000000000E+00  0.00000000000E+00  0.99778687140E+03  0.99778687142E+03  0.50400001928E-02 0. -1.
       -1   -1    0    0    0  501  0.00000000000E+00  0.00000000000E+00 -0.20396149675E+03  0.20396149681E+03  0.50400001928E-02 0.  1.
    10030    2    1    2    0    0  0.00000000000E+00  0.00000000000E+00  0.79382537465E+03  0.12017483682E+04  0.90224188281E+03 0.  0.
        4    1    3    3  502    0 -0.24670996894E+03 -0.19937944903E+02 -0.10544066796E+03  0.26904029026E+03  0.12699999809E+01 0.  1.
       -4    1    3    3    0  502  0.24670996894E+03  0.19937944903E+02  0.89926604261E+03  0.93270807797E+03  0.12699999809E+01 0. -1.
</event>
<event>
 5   0  0.1596250E-04  0.8995900E+03  0.7818609E-02  0.9426094E-01
       -3   -1    0    0    0  501  0.00000000000E+00  0.00000000000E+00  0.14285055853E+03  0.14285059424E+03  0.10100000352E+00 0.  1.
        3   -1    0    0  501    0  0.00000000000E+00  0.00000000000E+00 -0.14162738577E+04  0.14162738613E+04  0.10100000352E+00 0. -1.
    10030    2    1    2    0    0  0.00000000000E+00  0.00000000000E+00 -0.12734232991E+04  0.15591244555E+04  0.89959000049E+03 0.  0.
        4    1    3    3  502    0 -0.42683087441E+03 -0.36547318496E+02 -0.39911436562E+03  0.58550336599E+03  0.12699999809E+01 0.  1.
       -4    1    3    3    0  502  0.42683087441E+03  0.36547318496E+02 -0.87430893351E+03  0.97362108952E+03  0.12699999809E+01 0. -1.
</event>
<event>
 5   0  0.3959804E-04  0.8978862E+03  0.7818609E-02  0.9428228E-01
       -2   -1    0    0    0  501  0.00000000000E+00  0.00000000000E+00  0.46222057819E+03  0.46222057820E+03  0.25500000920E-02 0. -1.
        2   -1    0    0  501    0  0.00000000000E+00  0.00000000000E+00 -0.43604699146E+03  0.43604699146E+03  0.25500000920E-02 0.  1.
    10030    2    1    2    0    0  0.00000000000E+00  0.00000000000E+00  0.26173586732E+02  0.89826756966E+03  0.89788616765E+03 0.  0.
        5    1    3    3  502    0 -0.20483655561E+03  0.24711239315E+03 -0.30090199082E+03  0.43998482638E+03  0.46999998093E+01 0.  1.
       -5    1    3    3    0  502  0.20483655561E+03 -0.24711239315E+03  0.32707557755E+03  0.45828274328E+03  0.46999998093E+01 0. -1.
</event>
<event>
 5   0  0.2351435E-04  0.9005790E+03  0.7818609E-02  0.9424858E-01
       -1   -1    0    0    0  501  0.00000000000E+00  0.00000000000E+00  0.92138782154E+03  0.92138782156E+03  0.50400001928E-02 0. -1.
        1   -1    0    0  501    0  0.00000000000E+00  0.00000000000E+00 -0.22006005183E+03  0.22006005189E+03  0.50400001928E-02 0.  1.
    10030    2    1    2    0    0  0.00000000000E+00  0.00000000000E+00  0.70132776971E+03  0.11414478734E+04  0.90057903997E+03 0.  0.
        4    1    3    3  502    0 -0.15417497555E+03  0.60031534811E+02  0.88146384461E+03  0.89685775378E+03  0.12699999809E+01 0. -1.
       -4    1    3    3    0  502  0.15417497555E+03 -0.60031534811E+02 -0.18013607490E+03  0.24459011967E+03  0.12699999809E+01 0.  1.
</event>
<event>
 5   0  0.4033144E-04  0.8997805E+03  0.7818609E-02  0.9425856E-01
       -2   -1    0    0    0  501  0.00000000000E+00  0.00000000000E+00  0.26419598384E+03  0.26419598385E+03  0.25500000920E-02 0.  1.
        2   -1    0    0  501    0  0.00000000000E+00  0.00000000000E+00 -0.76610271112E+03  0.76610271112E+03  0.25500000920E-02 0. -1.
    10030    2    1    2    0    0  0.00000000000E+00  0.00000000000E+00 -0.50190672728E+03  0.10302986950E+04  0.89978054990E+03 0.  0.
        4    1    3    3  502    0  0.67408358993E+02 -0.37917537258E+03 -0.51724167509E+03  0.64487085016E+03  0.12699999809E+01 0. -1.
       -4    1    3    3    0  502 -0.67408358993E+02  0.37917537258E+03  0.15334947808E+02  0.38542784482E+03  0.12699999809E+01 0.  1.
</event>
<event>
 5   0  0.2332791E-04  0.9000222E+03  0.7818609E-02  0.9425554E-01
       -1   -1    0    0    0  501  0.00000000000E+00  0.00000000000E+00  0.80076617536E+03  0.80076617538E+03  0.50400001928E-02 0.  1.
        1   -1    0    0  501    0  0.00000000000E+00  0.00000000000E+00 -0.25289529425E+03  0.25289529430E+03  0.50400001928E-02 0. -1.
    10030    2    1    2    0    0  0.00000000000E+00  0.00000000000E+00  0.54787088111E+03  0.10536614697E+04  0.90002221657E+03 0.  0.
        2    1    3    3  502    0 -0.34740916895E+03  0.10758025589E+03 -0.36342209613E+02  0.36549609893E+03  0.25500000920E-02 0. -1.
       -2    1    3    3    0  502  0.34740916895E+03 -0.10758025589E+03  0.58421309072E+03  0.68816537075E+03  0.25500000920E-02 0.  1.
</event>
<event>
 5   0  0.2332791E-04  0.8998048E+03  0.7818609E-02  0.9425825E-01
       -1   -1    0    0    0  501  0.00000000000E+00  0.00000000000E+00  0.26454786666E+03  0.26454786671E+03  0.50400001928E-02 0. -1.
        1   -1    0    0  501    0  0.00000000000E+00  0.00000000000E+00 -0.76512496692E+03  0.76512496694E+03  0.50400001928E-02 0.  1.
    10030    2    1    2    0    0  0.00000000000E+00  0.00000000000E+00 -0.50057710026E+03  0.10296728336E+04  0.89980481830E+03 0.  0.
        2    1    3    3  502    0 -0.36169436254E+03  0.26549886632E+03 -0.28823678471E+03  0.53328501195E+03  0.25500000920E-02 0. -1.
       -2    1    3    3    0  502  0.36169436254E+03 -0.26549886632E+03 -0.21234031556E+03  0.49638782169E+03  0.25500000920E-02 0.  1.
</event>
<event>
 5   0  0.4236284E-04  0.9000745E+03  0.7818609E-02  0.9425488E-01
        2   -1    0    0  501    0  0.00000000000E+00  0.00000000000E+00  0.86168524592E+03  0.86168524593E+03  0.25500000920E-02 0.  1.
       -2   -1    0    0    0  501  0.00000000000E+00  0.00000000000E+00 -0.23504349964E+03  0.23504349965E+03  0.25500000920E-02 0. -1.
    10030    2    1    2    0    0  0.00000000000E+00  0.00000000000E+00  0.62664174629E+03  0.10967287456E+04  0.90007447647E+03 0.  0.
        2    1    3    3  502    0 -0.21340702626E+03 -0.13029053569E+03 -0.14262005531E+03  0.28785180689E+03  0.25500000920E-02 0. -1.
       -2    1    3    3    0  502  0.21340702626E+03  0.13029053569E+03  0.76926180159E+03  0.80887693869E+03  0.25500000920E-02 0.  1.
</event>
<event>
 5   0  0.2356918E-04  0.8991731E+03  0.7818609E-02  0.9426616E-01
        1   -1    0    0  501    0  0.00000000000E+00  0.00000000000E+00  0.17447103885E+04  0.17447103885E+04  0.50400001928E-02 0. -1.
       -1   -1    0    0    0  501  0.00000000000E+00  0.00000000000E+00 -0.11585193107E+03  0.11585193118E+03  0.50400001928E-02 0.  1.
    10030    2    1    2    0    0  0.00000000000E+00  0.00000000000E+00  0.16288584574E+04  0.18605623197E+04  0.89917310408E+03 0.  0.
        5    1    3    3  502    0 -0.24077675727E+03 -0.37691410108E+03  0.90853294422E+03  0.10126657332E+04  0.46999998093E+01 0. -1.
       -5    1    3    3    0  502  0.24077675727E+03  0.37691410108E+03  0.72032551321E+03  0.84789658650E+03  0.46999998093E+01 0.  1.
</event>
<event>
 5   0  0.2351435E-04  0.9001860E+03  0.7818609E-02  0.9425349E-01
       -1   -1    0    0    0  501  0.00000000000E+00  0.00000000000E+00  0.22242419878E+03  0.22242419884E+03  0.50400001928E-02 0. -1.
        1   -1    0    0  501    0  0.00000000000E+00  0.00000000000E+00 -0.91079894553E+03  0.91079894554E+03  0.50400001928E-02 0.  1.
    10030    2    1    2    0    0  0.00000000000E+00  0.00000000000E+00 -0.68837474674E+03  0.11332231444E+04  0.90018603800E+03 0.  0.
        4    1    3    3  502    0  0.35604859148E+03 -0.24580837527E+03 -0.50035788399E+03  0.66147712116E+03  0.12699999809E+01 0.  1.
       -4    1    3    3    0  502 -0.35604859148E+03  0.24580837527E+03 -0.18801686276E+03  0.47174602322E+03  0.12699999809E+01 0. -1.
</event>
<event>
 5   0  0.2356918E-04  0.9000505E+03  0.7818609E-02  0.9425518E-01
       -1   -1    0    0    0  501  0.00000000000E+00  0.00000000000E+00  0.25371318109E+03  0.25371318115E+03  0.50400001928E-02 0.  1.
        1   -1    0    0  501    0  0.00000000000E+00  0.00000000000E+00 -0.79823500537E+03  0.79823500539E+03  0.50400001928E-02 0. -1.
    10030    2    1    2    0    0  0.00000000000E+00  0.00000000000E+00 -0.54452182428E+03  0.10519481865E+04  0.90005053749E+03 0.  0.
        5    1    3    3  502    0 -0.52091822684E+02  0.18508965022E+03  0.20325427164E+03  0.27983231684E+03  0.46999998093E+01 0.  1.
       -5    1    3    3    0  502  0.52091822684E+02 -0.18508965022E+03 -0.74777609592E+03  0.77211586969E+03  0.46999998093E+01 0. -1.
</event>
<event>
 5   0  0.4236284E-04  0.9007010E+03  0.7818609E-02  0.9424706E-01
       -2   -1    0    0    0  501  0.00000000000E+00  0.00000000000E+00  0.15419172933E+03  0.15419172935E+03  0.25500000920E-02 0.  1.
        2   -1    0    0  501    0  0.00000000000E+00  0.00000000000E+00 -0.13153466729E+04  0.13153466729E+04  0.25500000920E-02 0. -1.
    10030    2    1    2    0    0  0.00000000000E+00  0.00000000000E+00 -0.11611549436E+04  0.14695384023E+04  0.90070101185E+03 0.  0.
        2    1    3    3  502    0 -0.70943255860E+02  0.25264551557E+03 -0.11777176733E+04  0.12065991962E+04  0.25500000920E-02 0. -1.
       -2    1    3    3    0  502  0.70943255860E+02 -0.25264551557E+03  0.16562729741E+02  0.26293920612E+03  0.25500000920E-02 0.  1.
</event>
<event>
 5   0  0.4236284E-04  0.8999841E+03  0.7818609E-02  0.9425601E-01
       -2   -1    0    0    0  501  0.00000000000E+00  0.00000000000E+00  0.15776394181E+03  0.15776394183E+03  0.25500000920E-02 0.  1.
        2   -1    0    0  501    0  0.00000000000E+00  0.00000000000E+00 -0.12835179805E+04  0.12835179805E+04  0.25500000920E-02 0. -1.
    10030    2    1    2    0    0  0.00000000000E+00  0.00000000000E+00 -0.11257540387E+04  0.14412819223E+04  0.89998412431E+03 0.  0.
        2    1    3    3  502    0 -0.16680941352E+03 -0.23135865812E+03 -0.11202668424E+04  0.11560060585E+04  0.25500000920E-02 0. -1.
       -2    1    3    3    0  502  0.16680941352E+03  0.23135865812E+03 -0.54871962402E+01  0.28527586378E+03  0.25500000920E-02 0.  1.
</event>
<event>
 5   0  0.2351435E-04  0.8995050E+03  0.7818609E-02  0.9426200E-01
        1   -1    0    0  501    0  0.00000000000E+00  0.00000000000E+00  0.17249972061E+04  0.17249972061E+04  0.50400001928E-02 0. -1.
       -1   -1    0    0    0  501  0.00000000000E+00  0.00000000000E+00 -0.11726239733E+03  0.11726239744E+03  0.50400001928E-02 0.  1.
    10030    2    1    2    0    0  0.00000000000E+00  0.00000000000E+00  0.16077348087E+04  0.18422596035E+04  0.89950499248E+03 0.  0.
        4    1    3    3  502    0  0.11220964109E+03 -0.68034776492E+02  0.16849138228E+04  0.16900165495E+04  0.12699999809E+01 0. -1.
       -4    1    3    3    0  502 -0.11220964109E+03  0.68034776492E+02 -0.77179014109E+02  0.15224305398E+03  0.12699999809E+01 0.  1.
</event>
<event>
 5   0  0.4110039E-04  0.8997592E+03  0.7818609E-02  0.9425883E-01
        2   -1    0    0  501    0  0.00000000000E+00  0.00000000000E+00  0.49470103243E+03  0.49470103244E+03  0.25500000920E-02 0.  1.
       -2   -1    0    0    0  501  0.00000000000E+00  0.00000000000E+00 -0.40911911547E+03  0.40911911548E+03  0.25500000920E-02 0. -1.
    10030    2    1    2    0    0  0.00000000000E+00  0.00000000000E+00  0.85581916960E+02  0.90382014792E+03  0.89975918738E+03 0.  0.
        3    1    3    3  502    0 -0.31733586006E+03 -0.14461283806E+03  0.32828617053E+03  0.47894335883E+03  0.10100000352E+00 0.  1.
       -3    1    3    3    0  502  0.31733586006E+03  0.14461283806E+03 -0.24270425357E+03  0.42487678909E+03  0.10100000352E+00 0. -1.
</event>
<event>
 5   0  0.4110039E-04  0.9003850E+03  0.7818609E-02  0.9425100E-01
        2   -1    0    0  501    0  0.00000000000E+00  0.00000000000E+00  0.45476933380E+03  0.45476933380E+03  0.25500000920E-02 0.  1.
       -2   -1    0    0    0  501  0.00000000000E+00  0.00000000000E+00 -0.44566176038E+03  0.44566176038E+03  0.25500000920E-02 0. -1.
    10030    2    1    2    0    0  0.00000000000E+00  0.00000000000E+00  0.91075734207E+01  0.90043109419E+03  0.90038503291E+03 0.  0.
        3    1    3    3  502    0  0.35610270005E+02 -0.23851083456E+02  0.45272437385E+03  0.45474864969E+03  0.10100000352E+00 0.  1.
       -3    1    3    3    0  502 -0.35610270005E+02  0.23851083456E+02 -0.44361680043E+03  0.44568244450E+03  0.10100000352E+00 0. -1.
</event>
<event>
 5   0  0.4033144E-04  0.9003215E+03  0.7818609E-02  0.9425180E-01
       -2   -1    0    0    0  501  0.00000000000E+00  0.00000000000E+00  0.35197272793E+03  0.35197272794E+03  0.25500000920E-02 0. -1.
        2   -1    0    0  501    0  0.00000000000E+00  0.00000000000E+00 -0.57573973987E+03  0.57573973988E+03  0.25500000920E-02 0.  1.
    10030    2    1    2    0    0  0.00000000000E+00  0.00000000000E+00 -0.22376701194E+03  0.92771246782E+03  0.90032146888E+03 0.  0.
        4    1    3    3  502    0 -0.18105620937E+03 -0.29089079143E+03 -0.41273237694E+03  0.53642187816E+03  0.12699999809E+01 0.  1.
       -4    1    3    3    0  502  0.18105620937E+03  0.29089079143E+03  0.18896536500E+03  0.39129058966E+03  0.12699999809E+01 0. -1.
</event>
<event>
 5   0  0.2351435E-04  0.8999313E+03  0.7818609E-02  0.9425667E-01
        1   -1    0    0  501    0  0.00000000000E+00  0.00000000000E+00  0.12465516955E+04  0.12465516955E+04  0.50400001928E-02 0.  1.
       -1   -1    0    0    0  501  0.00000000000E+00  0.00000000000E+00 -0.16242333317E+03  0.16242333324E+03  0.50400001928E-02 0. -1.
    10030    2    1    2    0    0  0.00000000000E+00  0.00000000000E+00  0.10841283623E+04  0.14089750287E+04  0.89993128938E+03 0.  0.
        4    1    3    3  502    0  0.61287067236E+02 -0.11655650102E+03  0.12157037506E+04  0.12228159079E+04  0.12699999809E+01 0.  1.
       -4    1    3    3    0  502 -0.61287067236E+02  0.11655650102E+03 -0.13157538832E+03  0.18615912079E+03  0.12699999809E+01 0. -1.
</event>
<event>
 5   0  0.2351435E-04  0.8988927E+03  0.7818609E-02  0.9426967E-01
        1   -1    0    0  501    0  0.00000000000E+00  0.00000000000E+00  0.74306620598E+03  0.74306620600E+03  0.50400001928E-02 0. -1.
       -1   -1    0    0    0  501  0.00000000000E+00  0.00000000000E+00 -0.27184928734E+03  0.27184928739E+03  0.50400001928E-02 0.  1.
    10030    2    1    2    0    0  0.00000000000E+00  0.00000000000E+00  0.47121691864E+03  0.10149154934E+04  0.89889269343E+03 0.  0.
        4    1    3    3  502    0 -0.10068614715E+03 -0.42571109933E+02  0.72782525966E+03  0.73598995994E+03  0.12699999809E+01 0. -1.
       -4    1    3    3    0  502  0.10068614715E+03  0.42571109933E+02 -0.25660834102E+03  0.27892553345E+03  0.12699999809E+01 0.  1.
</event>
<event>
 5   0  0.3959804E-04  0.9015744E+03  0.7818609E-02  0.9423615E-01
        2   -1    0    0  501    0  0.00000000000E+00  0.00000000000E+00  0.51055771631E+03  0.51055771632E+03  0.25500000920E-02 0. -1.
       -2   -1    0    0    0  501  0.00000000000E+00  0.00000000000E+00 -0.39801397769E+03  0.39801397770E+03  0.25500000920E-02 0.  1.
    10030    2    1    2    0    0  0.00000000000E+00  0.00000000000E+00  0.11254373862E+03  0.90857169401E+03  0.90157441737E+03 0.  0.
        5    1    3    3  502    0 -0.36565122231E+03  0.10177887243E+03 -0.18877632570E+03  0.42393200681E+03  0.46999998093E+01 0.  1.
       -5    1    3    3    0  502  0.36565122231E+03 -0.10177887243E+03  0.30132006432E+03  0.48463968721E+03  0.46999998093E+01 0. -1.
</event>
<event>
 5   0  0.2351435E-04  0.9001068E+03  0.7818609E-02  0.9425448E-01
       -1   -1    0    0    0  501  0.00000000000E+00  0.00000000000E+00  0.33757638871E+03  0.33757638874E+03  0.50400001928E-02 0. -1.
        1   -1    0    0  501    0  0.00000000000E+00  0.00000000000E+00 -0.60000665807E+03  0.60000665809E+03  0.50400001928E-02 0.  1.
    10030    2    1    2    0    0  0.00000000000E+00  0.00000000000E+00 -0.26243026937E+03  0.93758304684E+03  0.90010684001E+03 0.  0.
        4    1    3    3  502    0  0.10575763080E+03  0.36936972798E+03 -0.37533986061E+03  0.53712223588E+03  0.12699999809E+01 0.  1.
       -4    1    3    3    0  502 -0.10575763080E+03 -0.36936972798E+03  0.11290959124E+03  0.40046081096E+03  0.12699999809E+01 0. -1.
</event>
<event>
 5   0  0.4110039E-04  0.9010972E+03  0.7818609E-02  0.9424211E-01
        2   -1    0    0  501    0  0.00000000000E+00  0.00000000000E+00  0.12031479309E+04  0.12031479309E+04  0.25500000920E-02 0. -1.
       -2   -1    0    0    0  501  0.00000000000E+00  0.00000000000E+00 -0.16871910151E+03  0.16871910153E+03  0.25500000920E-02 0.  1.
    10030    2    1    2    0    0  0.00000000000E+00  0.00000000000E+00  0.10344288294E+04  0.13718670324E+04  0.90109719322E+03 0.  0.
        3    1    3    3  502    0 -0.10452915392E+03  0.36973325588E+03  0.87544119302E+03  0.95604723584E+03  0.10100000352E+00 0. -1.
       -3    1    3    3    0  502  0.10452915392E+03 -0.36973325588E+03  0.15898763637E+03  0.41581979659E+03  0.10100000352E+00 0.  1.
</event>
<event>
 5   0  0.3959804E-04  0.8990758E+03  0.7818609E-02  0.9426737E-01
        2   -1    0    0  501    0  0.00000000000E+00  0.00000000000E+00  0.11606218776E+04  0.11606218776E+04  0.25500000920E-02 0. -1.
       -2   -1    0    0    0  501  0.00000000000E+00  0.00000000000E+00 -0.17411728114E+03  0.17411728116E+03  0.25500000920E-02 0.  1.
    10030    2    1    2    0    0  0.00000000000E+00  0.00000000000E+00  0.98650459645E+03  0.13347391588E+04  0.89907580497E+03 0.  0.
        5    1    3    3  502    0  0.20928864666E+03 -0.37673188836E+03  0.30352019716E+03  0.52713874209E+03  0.46999998093E+01 0. -1.
       -5    1    3    3    0  502 -0.20928864666E+03  0.37673188836E+03  0.68298439929E+03  0.80760041666E+03  0.46999998093E+01 0.  1.
</event>
<event>
 5   0  0.2351435E-04  0.9000059E+03  0.7818609E-02  0.9425574E-01
       -1   -1    0    0    0  501  0.00000000000E+00  0.00000000000E+00  0.15178758949E+03  0.15178758958E+03  0.50400001928E-02 0.  1.
        1   -1    0    0  501    0  0.00000000000E+00  0.00000000000E+00 -0.13341187317E+04  0.13341187317E+04  0.50400001928E-02 0. -1.
    10030    2    1    2    0    0  0.00000000000E+00  0.00000000000E+00 -0.11823311422E+04  0.14859063213E+04  0.90000592543E+03 0.  0.
        4    1    3    3  502    0 -0.32765575857E+03 -0.47079822022E+02 -0.10944520492E+04  0.11434166811E+04  0.12699999809E+01 0. -1.
       -4    1    3    3    0  502  0.32765575857E+03  0.47079822022E+02 -0.87879093077E+02  0.34248964023E+03  0.12699999809E+01 0.  1.
</event>
<event>
 5   0  0.2450427E-04  0.8998481E+03  0.7818609E-02  0.9425771E-01
        1   -1    0    0  501    0  0.00000000000E+00  0.00000000000E+00  0.10362219970E+04  0.10362219970E+04  0.50400001928E-02 0.  1.
       -1   -1    0    0    0  501  0.00000000000E+00  0.00000000000E+00 -0.19535550044E+03  0.19535550050E+03  0.50400001928E-02 0. -1.
    10030    2    1    2    0    0  0.00000000000E+00  0.00000000000E+00  0.84086649659E+03  0.12315774975E+04  0.89984813572E+03 0.  0.
        3    1    3    3  502    0 -0.29560766708E+03 -0.12907457745E+03  0.84973486576E+03  0.90889685425E+03  0.10100000352E+00 0.  1.
       -3    1    3    3    0  502  0.29560766708E+03  0.12907457745E+03 -0.88683691697E+01  0.32268064329E+03  0.10100000352E+00 0. -1.
</event>
<event>
 5   0  0.2351435E-04  0.9005179E+03  0.7818609E-02  0.9424934E-01
        1   -1    0    0  501    0  0.00000000000E+00  0.00000000000E+00  0.43199493318E+03  0.43199493321E+03  0.50400001928E-02 0. -1.
       -1   -1    0    0    0  501  0.00000000000E+00  0.00000000000E+00 -0.46929518764E+03  0.46929518767E+03  0.50400001928E-02 0.  1.
    10030    2    1    2    0    0  0.00000000000E+00  0.00000000000E+00 -0.37300254458E+02  0.90129012088E+03  0.90051794708E+03 0.  0.
        4    1    3    3  502    0 -0.17561093083E+03 -0.30306755685E+03 -0.30181035615E+03  0.46236376050E+03  0.12699999809E+01 0.  1.
       -4    1    3    3    0  502  0.17561093083E+03  0.30306755685E+03  0.26451010169E+03  0.43892636038E+03  0.12699999809E+01 0. -1.
</event>
<event>
 5   0  0.3959804E-04  0.8997972E+03  0.7818609E-02  0.9425835E-01
       -2   -1    0    0    0  501  0.00000000000E+00  0.00000000000E+00  0.65368260365E+03  0.65368260365E+03  0.25500000920E-02 0. -1.
        2   -1    0    0  501    0  0.00000000000E+00  0.00000000000E+00 -0.30964378380E+03  0.30964378381E+03  0.25500000920E-02 0.  1.
    10030    2    1    2    0    0  0.00000000000E+00  0.00000000000E+00  0.34403881985E+03  0.96332638746E+03  0.89979721005E+03 0.  0.
        5    1    3    3  502    0 -0.24388784837E+03  0.30275045651E+03  0.41438186321E+03  0.56821962309E+03  0.46999998093E+01 0. -1.
       -5    1    3    3    0  502  0.24388784837E+03 -0.30275045651E+03 -0.70343043361E+02  0.39510676437E+03  0.46999998093E+01 0.  1.
</event>
<event>
 5   0  0.2351435E-04  0.8994385E+03  0.7818609E-02  0.9426284E-01
       -1   -1    0    0    0  501  0.00000000000E+00  0.00000000000E+00  0.42090574091E+03  0.42090574094E+03  0.50400001928E-02 0. -1.
        1   -1    0    0  501    0  0.00000000000E+00  0.00000000000E+00 -0.48050517725E+03  0.48050517727E+03  0.50400001928E-02 0.  1.
    10030    2    1    2    0    0  0.00000000000E+00  0.00000000000E+00 -0.59599436337E+02  0.90141091822E+03  0.89943846408E+03 0.  0.
        4    1    3    3  502    0  0.13128257279E+02 -0.21584390769E+03  0.36538065885E+03  0.42457694519E+03  0.12699999809E+01 0. -1.
       -4    1    3    3    0  502 -0.13128257279E+02  0.21584390769E+03 -0.42498009519E+03  0.47683397303E+03  0.12699999809E+01 0.  1.
</event>
<event>
 5   0  0.1596250E-04  0.8998631E+03  0.7818609E-02  0.9425753E-01
       -3   -1    0    0    0  501  0.00000000000E+00  0.00000000000E+00  0.17105443646E+03  0.17105446628E+03  0.10100000352E+00 0. -1.
        3   -1    0    0  501    0  0.00000000000E+00  0.00000000000E+00 -0.11834733062E+04  0.11834733105E+04  0.10100000352E+00 0.  1.
    10030    2    1    2    0    0  0.00000000000E+00  0.00000000000E+00 -0.10124188697E+04  0.13545277768E+04  0.89986306196E+03 0.  0.
        2    1    3    3  502    0 -0.37429867011E+03  0.24460230149E+03 -0.43081706548E+03  0.62091313745E+03  0.25500000920E-02 0. -1.
       -2    1    3    3    0  502  0.37429867011E+03 -0.24460230149E+03 -0.58160180423E+03  0.73361463932E+03  0.25500000920E-02 0.  1.
</event>
<event>
 5   0  0.2332791E-04  0.9000169E+03  0.7818609E-02  0.9425560E-01
       -1   -1    0    0    0  501  0.00000000000E+00  0.00000000000E+00  0.57328486254E+03  0.57328486257E+03  0.50400001928E-02 0. -1.
        1   -1    0    0  501    0  0.00000000000E+00  0.00000000000E+00 -0.35324083111E+03  0.35324083115E+03  0.50400001928E-02 0.  1.
    10030    2    1    2    0    0  0.00000000000E+00  0.00000000000E+00  0.22004403143E+03  0.92652569372E+03  0.90001693615E+03 0.  0.
        2    1    3    3  502    0 -0.26204230521E+03  0.10021544032E+03 -0.25219108663E+03  0.37723951063E+03  0.25500000920E-02 0.  1.
       -2    1    3    3    0  502  0.26204230521E+03 -0.10021544032E+03  0.47223511806E+03  0.54928618309E+03  0.25500000920E-02 0. -1.
</event>
<event>
 5   0  0.2356918E-04  0.8993951E+03  0.7818609E-02  0.9426338E-01
        1   -1    0    0  501    0  0.00000000000E+00  0.00000000000E+00  0.19414990205E+03  0.19414990212E+03  0.50400001928E-02 0. -1.
       -1   -1    0    0    0  501  0.00000000000E+00  0.00000000000E+00 -0.10416069590E+04  0.10416069590E+04  0.50400001928E-02 0.  1.
    10030    2    1    2    0    0  0.00000000000E+00  0.00000000000E+00 -0.84745705690E+03  0.12357568611E+04  0.89939510585E+03 0.  0.
        5    1    3    3  502    0  0.41550843364E+02  0.32597228930E+03 -0.19764116026E+01  0.32864936053E+03  0.46999998093E+01 0. -1.
       -5    1    3    3    0  502 -0.41550843364E+02 -0.32597228930E+03 -0.84548064530E+03  0.90710750055E+03  0.46999998093E+01 0.  1.
</event>
<event>
 5   0  0.4236284E-04  0.9029598E+03  0.7818609E-02  0.9421889E-01
        2   -1    0    0  501    0  0.00000000000E+00  0.00000000000E+00  0.12410477732E+04  0.12410477732E+04  0.25500000920E-02 0. -1.
       -2   -1    0    0    0  501  0.00000000000E+00  0.00000000000E+00 -0.16424354772E+03  0.16424354774E+03  0.25500000920E-02 0.  1.
    10030    2    1    2    0    0  0.00000000000E+00  0.00000000000E+00  0.10768042254E+04  0.14052913209E+04  0.90295977577E+03 0.  0.
        2    1    3    3  502    0 -0.40418162617E+03  0.56493484231E+02  0.83889533416E+03  0.93289853809E+03  0.25500000920E-02 0. -1.
       -2    1    3    3    0  502  0.40418162617E+03 -0.56493484231E+02  0.23790889127E+03  0.47239278280E+03  0.25500000920E-02 0.  1.
</event>
<event>
 5   0  0.4033144E-04  0.9001029E+03  0.7818609E-02  0.9425453E-01
       -2   -1    0    0    0  501  0.00000000000E+00  0.00000000000E+00  0.40551253879E+03  0.40551253880E+03  0.25500000920E-02 0. -1.
        2   -1    0    0  501    0  0.00000000000E+00  0.00000000000E+00 -0.49948222497E+03  0.49948222498E+03  0.25500000920E-02 0.  1.
    10030    2    1    2    0    0  0.00000000000E+00  0.00000000000E+00 -0.93969686176E+02  0.90499476378E+03  0.90010289442E+03 0.  0.
        4    1    3    3  502    0  0.38303155645E+03  0.23166302616E+03 -0.93753896942E+02  0.45735362359E+03  0.12699999809E+01 0. -1.
       -4    1    3    3    0  502 -0.38303155645E+03 -0.23166302616E+03 -0.21578923427E+00  0.44764114019E+03  0.12699999809E+01 0.  1.
</event>
<event>
 5   0  0.4110039E-04  0.8997344E+03  0.7818609E-02  0.9425914E-01
       -2   -1    0    0    0  501  0.00000000000E+00  0.00000000000E+00  0.42122614909E+03  0.42122614910E+03  0.25500000920E-02 0. -1.
        2   -1    0    0  501    0  0.00000000000E+00  0.00000000000E+00 -0.48045563589E+03  0.48045563590E+03  0.25500000920E-02 0.  1.
    10030    2    1    2    0    0  0.00000000000E+00  0.00000000000E+00 -0.59229486803E+02  0.90168178500E+03  0.89973435485E+03 0.  0.
        3    1    3    3  502    0  0.17530571548E+01  0.44126550879E+03  0.58108396209E+02  0.44507855303E+03  0.10100000352E+00 0. -1.
       -3    1    3    3    0  502 -0.17530571548E+01 -0.44126550879E+03 -0.11733788301E+03  0.45660323197E+03  0.10100000352E+00 0.  1.
</event>
<event>
 5   0  0.2351435E-04  0.8997909E+03  0.7818609E-02  0.9425843E-01
        1   -1    0    0  501    0  0.00000000000E+00  0.00000000000E+00  0.12282441595E+04  0.12282441595E+04  0.50400001928E-02 0.  1.
       -1   -1    0    0    0  501  0.00000000000E+00  0.00000000000E+00 -0.16479291401E+03  0.16479291409E+03  0.50400001928E-02 0. -1.
    10030    2    1    2    0    0  0.00000000000E+00  0.00000000000E+00  0.10634512455E+04  0.13930370736E+04  0.89979094066E+03 0.  0.
        4    1    3    3  502    0 -0.36694801616E+03 -0.13048098376E+03  0.18303061334E+03  0.43032307864E+03  0.12699999809E+01 0.  1.
       -4    1    3    3    0  502  0.36694801616E+03  0.13048098376E+03  0.88042063214E+03  0.96271399496E+03  0.12699999809E+01 0. -1.
</event>
<event>
 5   0  0.2450427E-04  0.8975803E+03  0.7818609E-02  0.9428611E-01
       -1   -1    0    0    0  501  0.00000000000E+00  0.00000000000E+00  0.39358374365E+03  0.39358374369E+03  0.50400001928E-02 0. -1.
        1   -1    0    0  501    0  0.00000000000E+00  0.00000000000E+00 -0.51174009835E+03  0.51174009838E+03  0.50400001928E-02 0.  1.
    10030    2    1    2    0    0  0.00000000000E+00  0.00000000000E+00 -0.11815635470E+03  0.90532384206E+03  0.89758026652E+03 0.  0.
        3    1    3    3  502    0 -0.44549323640E+03 -0.41728318341E+02 -0.24035135489E+02  0.44808835532E+03  0.10100000352E+00 0. -1.
       -3    1    3    3    0  502  0.44549323640E+03  0.41728318341E+02 -0.94121219208E+02  0.45723548674E+03  0.10100000352E+00 0.  1.
</event>
<event>
 5   0  0.2356918E-04  0.8997371E+03  0.7818609E-02  0.9425910E-01
       -1   -1    0    0    0  501  0.00000000000E+00  0.00000000000E+00  0.54865747461E+03  0.54865747463E+03  0.50400001928E-02 0. -1.
        1   -1    0    0  501    0  0.00000000000E+00  0.00000000000E+00 -0.36886712631E+03  0.36886712635E+03  0.50400001928E-02 0.  1.
    10030    2    1    2    0    0  0.00000000000E+00  0.00000000000E+00  0.17979034830E+03  0.91752460098E+03  0.89973708608E+03 0.  0.
        5    1    3    3  502    0 -0.46495906730E+02  0.36620512520E+03  0.35206039304E+03  0.51013397594E+03  0.46999998093E+01 0. -1.
       -5    1    3    3    0  502  0.46495906730E+02 -0.36620512520E+03 -0.17227004474E+03  0.40739062504E+03  0.46999998093E+01 0.  1.
</event>
<event>
 5   0  0.2356918E-04  0.8998817E+03  0.7818609E-02  0.9425729E-01
       -1   -1    0    0    0  501  0.00000000000E+00  0.00000000000E+00  0.61884003235E+03  0.61884003238E+03  0.50400001928E-02 0.  1.
        1   -1    0    0  501    0  0.00000000000E+00  0.00000000000E+00 -0.32713909347E+03  0.32713909351E+03  0.50400001928E-02 0. -1.
    10030    2    1    2    0    0  0.00000000000E+00  0.00000000000E+00  0.29170093888E+03  0.94597912589E+03  0.89988169715E+03 0.  0.
        5    1    3    3  502    0  0.16743849019E+03  0.19067073923E+03 -0.24471037118E+03  0.35255671112E+03  0.46999998093E+01 0. -1.
       -5    1    3    3    0  502 -0.16743849019E+03 -0.19067073923E+03  0.53641131006E+03  0.59342241477E+03  0.46999998093E+01 0.  1.
</event>
<event>
 5   0  0.4236284E-04  0.9001676E+03  0.7818609E-02  0.9425372E-01
       -2   -1    0    0    0  501  0.00000000000E+00  0.00000000000E+00  0.55729238531E+03  0.55729238532E+03  0.25500000920E-02 0. -1.
        2   -1    0    0  501    0  0.00000000000E+00  0.00000000000E+00 -0.36349934391E+03  0.36349934392E+03  0.25500000920E-02 0.  1.
    10030    2    1    2    0    0  0.00000000000E+00  0.00000000000E+00  0.19379304140E+03  0.92079172923E+03  0.90016757647E+03 0.  0.
        2    1    3    3  502    0 -0.23899056866E+03  0.12555596683E+03  0.46527905439E+03  0.53792693851E+03  0.25500000920E-02 0. -1.
       -2    1    3    3    0  502  0.23899056866E+03 -0.12555596683E+03 -0.27148601299E+03  0.38286479072E+03  0.25500000920E-02 0.  1.
</event>
<event>
 5   0  0.4236284E-04  0.9002161E+03  0.7818609E-02  0.9425311E-01
        2   -1    0    0  501    0  0.00000000000E+00  0.00000000000E+00  0.12604272424E+04  0.12604272424E+04  0.25500000920E-02 0. -1.
       -2   -1    0    0    0  501  0.00000000000E+00  0.00000000000E+00 -0.16073698715E+03  0.16073698717E+03  0.25500000920E-02 0.  1.
    10030    2    1    2    0    0  0.00000000000E+00  0.00000000000E+00  0.10996902553E+04  0.14211642296E+04  0.90021614623E+03 0.  0.
        2    1    3    3  502    0 -0.16563195535E+03  0.14201240061E+03 -0.71678223395E+02  0.22965024336E+03  0.25500000920E-02 0.  1.
       -2    1    3    3    0  502  0.16563195535E+03 -0.14201240061E+03  0.11713684787E+04  0.11915139862E+04  0.25500000920E-02 0. -1.
</event>
<event>
 5   0  0.2450427E-04  0.9053739E+03  0.7818609E-02  0.9418889E-01
        1   -1    0    0  501    0  0.00000000000E+00  0.00000000000E+00  0.28860304891E+03  0.28860304896E+03  0.50400001928E-02 0.  1.
       -1   -1    0    0    0  501  0.00000000000E+00  0.00000000000E+00 -0.71005999217E+03  0.71005999218E+03  0.50400001928E-02 0. -1.
    10030    2    1    2    0    0  0.00000000000E+00  0.00000000000E+00 -0.42145694325E+03  0.99866304114E+03  0.90537390879E+03 0.  0.
        3    1    3    3  502    0 -0.30473030769E+03 -0.97577314091E+02 -0.56394842737E+03  0.64839781892E+03  0.10100000352E+00 0. -1.
       -3    1    3    3    0  502  0.30473030769E+03  0.97577314091E+02  0.14249148412E+03  0.35026522222E+03  0.10100000352E+00 0.  1.
</event>
<event>
 5   0  0.2308362E-04  0.9000690E+03  0.7818609E-02  0.9425495E-01
        1   -1    0    0  501    0  0.00000000000E+00  0.00000000000E+00  0.39770925205E+03  0.39770925208E+03  0.50400001928E-02 0. -1.
       -1   -1    0    0    0  501  0.00000000000E+00  0.00000000000E+00 -0.50924404747E+03  0.50924404750E+03  0.50400001928E-02 0.  1.
    10030    2    1    2    0    0  0.00000000000E+00  0.00000000000E+00 -0.11153479543E+03  0.90695329958E+03  0.90006904014E+03 0.  0.
        1    1    3    3  502    0  0.15397597565E+03 -0.36652352607E+03 -0.26829043026E+03  0.47961218838E+03  0.50400001928E-02 0.  1.
       -1    1    3    3    0  502 -0.15397597565E+03  0.36652352607E+03  0.15675563484E+03  0.42734111120E+03  0.50400001928E-02 0. -1.
</event>
<event>
 5   0  0.4110039E-04  0.8998311E+03  0.7818609E-02  0.9425793E-01
        2   -1    0    0  501    0  0.00000000000E+00  0.00000000000E+00  0.23140336252E+03  0.23140336253E+03  0.25500000920E-02 0.  1.
       -2   -1    0    0    0  501  0.00000000000E+00  0.00000000000E+00 -0.87476682584E+03  0.87476682584E+03  0.25500000920E-02 0. -1.
    10030    2    1    2    0    0  0.00000000000E+00  0.00000000000E+00 -0.64336346332E+03  0.11061701884E+04  0.89983106176E+03 0.  0.
        3    1    3    3  502    0 -0.25383405473E+03 -0.31324508108E+03 -0.56714291052E+03  0.69584861810E+03  0.10100000352E+00 0. -1.
       -3    1    3    3    0  502  0.25383405473E+03  0.31324508108E+03 -0.76220552801E+02  0.41032157027E+03  0.10100000352E+00 0.  1.
</event>
<event>
 5   0  0.3959804E-04  0.8990217E+03  0.7818609E-02  0.9426805E-01
       -2   -1    0    0    0  501  0.00000000000E+00  0.00000000000E+00  0.13671979548E+03  0.13671979551E+03  0.25500000920E-02 0.  1.
        2   -1    0    0  501    0  0.00000000000E+00  0.00000000000E+00 -0.14779132700E+04  0.14779132700E+04  0.25500000920E-02 0. -1.
    10030    2    1    2    0    0  0.00000000000E+00  0.00000000000E+00 -0.13411934746E+04  0.16146330656E+04  0.89902169060E+03 0.  0.
        5    1    3    3  502    0  0.37546113683E+03  0.94900849394E+01 -0.22710459822E+03  0.43893019435E+03  0.46999998093E+01 0.  1.
       -5    1    3    3    0  502 -0.37546113683E+03 -0.94900849394E+01 -0.11140888763E+04  0.11757028712E+04  0.46999998093E+01 0. -1.
</event>
<event>
 5   0  0.2332791E-04  0.9004200E+03  0.7818609E-02  0.9425057E-01
       -1   -1    0    0    0  501  0.00000000000E+00  0.00000000000E+00  0.34181896491E+03  0.34181896494E+03  0.50400001928E-02 0.  1.
        1   -1    0    0  501    0  0.00000000000E+00  0.00000000000E+00 -0.59297188099E+03  0.59297188101E+03  0.50400001928E-02 0. -1.
    10030    2    1    2    0    0  0.00000000000E+00  0.00000000000E+00 -0.25115291609E+03  0.93479084596E+03  0.90041997891E+03 0.  0.
        2    1    3    3  502    0  0.32138287106E+03 -0.30995260153E+03 -0.65654326336E+02  0.45129597337E+03  0.25500000920E-02 0. -1.
       -2    1    3    3    0  502 -0.32138287106E+03  0.30995260153E+03 -0.18549858975E+03  0.48349487258E+03  0.25500000920E-02 0.  1.
</event>
<event>
 5   0  0.2332791E-04  0.8999246E+03  0.7818609E-02  0.9425676E-01
       -1   -1    0    0    0  501  0.00000000000E+00  0.00000000000E+00  0.30388353362E+03  0.30388353366E+03  0.50400001928E-02 0.  1.
        1   -1    0    0  501    0  0.00000000000E+00  0.00000000000E+00 -0.66626209887E+03  0.66626209889E+03  0.50400001928E-02 0. -1.
    10030    2    1    2    0    0  0.00000000000E+00  0.00000000000E+00 -0.36237856524E+03  0.97014563255E+03  0.89992462118E+03 0.  0.
        2    1    3    3  502    0  0.20893997249E+02  0.39299561434E+01 -0.66572033603E+03  0.66605973418E+03  0.25500000920E-02 0. -1.
       -2    1    3    3    0  502 -0.20893997249E+02 -0.39299561434E+01  0.30334177079E+03  0.30408589837E+03  0.25500000920E-02 0.  1.
</event>
<event>
 5   0  0.2450427E-04  0.8999750E+03  0.7818609E-02  0.9425613E-01
       -1   -1    0    0    0  501  0.00000000000E+00  0.00000000000E+00  0.40039285187E+03  0.40039285190E+03  0.50400001928E-02 0.  1.
        1   -1    0    0  501    0  0.00000000000E+00  0.00000000000E+00 -0.50572519190E+03  0.50572519192E+03  0.50400001928E-02 0. -1.
    10030    2    1    2    0    0  0.00000000000E+00  0.00000000000E+00 -0.10533234003E+03  0.90611804382E+03  0.89997500381E+03 0.  0.
        3    1    3    3  502    0 -0.43878047435E+03  0.98968981271E+02 -0.39710636125E+02  0.45155299661E+03  0.10100000352E+00 0. -1.
       -3    1    3    3    0  502  0.43878047435E+03 -0.98968981271E+02 -0.65621703904E+02  0.45456504721E+03  0.10100000352E+00 0.  1.
</event>
<event>
 5   0  0.4110039E-04  0.9015330E+03  0.7818609E-02  0.9423667E-01
        2   -1    0    0  501    0  0.00000000000E+00  0.00000000000E+00  0.64480457545E+03  0.64480457545E+03  0.25500000920E-02 0. -1.
       -2   -1    0    0    0  501  0.00000000000E+00  0.00000000000E+00 -0.31511943823E+03  0.31511943824E+03  0.25500000920E-02 0.  1.
    10030    2    1    2    0    0  0.00000000000E+00  0.00000000000E+00  0.32968513721E+03  0.95992401370E+03  0.90153304009E+03 0.  0.
        3    1    3    3  502    0  0.31599689101E+03  0.83225384018E+02  0.49545267678E+03  0.59350978493E+03  0.10100000352E+00 0. -1.
       -3    1    3    3    0  502 -0.31599689101E+03 -0.83225384018E+02 -0.16576753957E+03  0.36641422877E+03  0.10100000352E+00 0.  1.
</event>
<event>
 5   0  0.2356918E-04  0.8998646E+03  0.7818609E-02  0.9425751E-01
        1   -1    0    0  501    0  0.00000000000E+00  0.00000000000E+00  0.48485810490E+03  0.48485810493E+03  0.50400001928E-02 0.  1.
       -1   -1    0    0    0  501  0.00000000000E+00  0.00000000000E+00 -0.41752228224E+03  0.41752228227E+03  0.50400001928E-02 0. -1.
    10030    2    1    2    0    0  0.00000000000E+00  0.00000000000E+00  0.67335822657E+02  0.90238038720E+03  0.89986457325E+03 0.  0.
        5    1    3    3  502    0  0.36013816914E+03  0.26806645689E+03  0.42970115184E+01  0.44899853061E+03  0.46999998093E+01 0.  1.
       -5    1    3    3    0  502 -0.36013816914E+03 -0.26806645689E+03  0.63038811139E+02  0.45338185659E+03  0.46999998093E+01 0. -1.
</event>
<event>
 5   0  0.2332791E-04  0.9002645E+03  0.7818609E-02  0.9425251E-01
       -1   -1    0    0    0  501  0.00000000000E+00  0.00000000000E+00  0.42009564853E+03  0.42009564856E+03  0.50400001928E-02 0.  1.
        1   -1    0    0  501    0  0.00000000000E+00  0.00000000000E+00 -0.48231649427E+03  0.48231649429E+03  0.50400001928E-02 0. -1.
    10030    2    1    2    0    0  0.00000000000E+00  0.00000000000E+00 -0.62220845739E+02  0.90241214285E+03  0.90026453997E+03 0.  0.
        2    1    3    3  502    0 -0.17428574555E+03 -0.71415717097E+02  0.37869652540E+03  0.42295009647E+03  0.25500000920E-02 0.  1.
       -2    1    3    3    0  502  0.17428574555E+03  0.71415717097E+02 -0.44091737113E+03  0.47946204638E+03  0.25500000920E-02 0. -1.
</event>
<event>
 5   0  0.4110039E-04  0.9001218E+03  0.7818609E-02  0.9425429E-01
        2   -1    0    0  501    0  0.00000000000E+00  0.00000000000E+00  0.17042974917E+03  0.17042974919E+03  0.25500000920E-02 0.  1.
       -2   -1    0    0    0  501  0.00000000000E+00  0.00000000000E+00 -0.11884943997E+04  0.11884943997E+04  0.25500000920E-02 0. -1.
    10030    2    1    2    0    0  0.00000000000E+00  0.00000000000E+00 -0.10180646505E+04  0.13589241489E+04  0.90012177498E+03 0.  0.
        3    1    3    3  502    0  0.30097476695E+03  0.32656923866E+03 -0.61916382774E+03  0.76196924725E+03  0.10100000352E+00 0.  1.
       -3    1    3    3    0  502 -0.30097476695E+03 -0.32656923866E+03 -0.39890082280E+03  0.59695490165E+03  0.10100000352E+00 0. -1.
</event>
<event>
 5   0  0.3959804E-04  0.9005006E+03  0.7818609E-02  0.9424956E-01
       -2   -1    0    0    0  501  0.00000000000E+00  0.00000000000E+00  0.67399465823E+03  0.67399465823E+03  0.25500000920E-02 0. -1.
        2   -1    0    0  501    0  0.00000000000E+00  0.00000000000E+00 -0.30078181814E+03  0.30078181815E+03  0.25500000920E-02 0.  1.
    10030    2    1    2    0    0  0.00000000000E+00  0.00000000000E+00  0.37321284009E+03  0.97477647638E+03  0.90050061349E+03 0.  0.
        5    1    3    3  502    0 -0.41205578171E+03 -0.16151465690E+03  0.27604267801E+03  0.52163071393E+03  0.46999998093E+01 0. -1.
       -5    1    3    3    0  502  0.41205578171E+03  0.16151465690E+03  0.97170162074E+02  0.45314576245E+03  0.46999998093E+01 0.  1.
</event>
<event>
 5   0  0.3959804E-04  0.8999680E+03  0.7818609E-02  0.9425621E-01
        2   -1    0    0  501    0  0.00000000000E+00  0.00000000000E+00  0.96133902840E+03  0.96133902840E+03  0.25500000920E-02 0.  1.
       -2   -1    0    0    0  501  0.00000000000E+00  0.00000000000E+00 -0.21062871408E+03  0.21062871410E+03  0.25500000920E-02 0. -1.
    10030    2    1    2    0    0  0.00000000000E+00  0.00000000000E+00  0.75071031432E+03  0.11719677425E+04  0.89996800690E+03 0.  0.
        5    1    3    3  502    0  0.17057698380E+02 -0.12697652917E+03 -0.18634280959E+03  0.22618518236E+03  0.46999998093E+01 0. -1.
       -5    1    3    3    0  502 -0.17057698380E+02  0.12697652917E+03  0.93705312391E+03  0.94578256014E+03  0.46999998093E+01 0.  1.
</event>
<event>
 5   0  0.3959804E-04  0.8997855E+03  0.7818609E-02  0.9425850E-01
        2   -1    0    0  501    0  0.00000000000E+00  0.00000000000E+00  0.10752283397E+04  0.10752283397E+04  0.25500000920E-02 0.  1.
       -2   -1    0    0    0  501  0.00000000000E+00  0.00000000000E+00 -0.18824231856E+03  0.18824231858E+03  0.25500000920E-02 0. -1.
    10030    2    1    2    0    0  0.00000000000E+00  0.00000000000E+00  0.88698602115E+03  0.12634706583E+04  0.89978547591E+03 0.  0.
        5    1    3    3  502    0 -0.39301528958E+03 -0.15388172577E+03  0.22486817406E+03  0.47825556878E+03  0.46999998093E+01 0. -1.
       -5    1    3    3    0  502  0.39301528958E+03  0.15388172577E+03  0.66211784709E+03  0.78521508952E+03  0.46999998093E+01 0.  1.
</event>
<event>
 5   0  0.4236284E-04  0.8998532E+03  0.7818609E-02  0.9425765E-01
        2   -1    0    0  501    0  0.00000000000E+00  0.00000000000E+00  0.70364350781E+03  0.70364350781E+03  0.25500000920E-02 0.  1.
       -2   -1    0    0    0  501  0.00000000000E+00  0.00000000000E+00 -0.28769391218E+03  0.28769391219E+03  0.25500000920E-02 0. -1.
    10030    2    1    2    0    0  0.00000000000E+00  0.00000000000E+00  0.41594959562E+03  0.99133742001E+03  0.89985321814E+03 0.  0.
        2    1    3    3  502    0 -0.31508301452E+02  0.21860535235E+03 -0.22386252883E+03  0.31447655709E+03  0.25500000920E-02 0. -1.
       -2    1    3    3    0  502  0.31508301452E+02 -0.21860535235E+03  0.63981212446E+03  0.67686086292E+03  0.25500000920E-02 0.  1.
</event>
<event>
 5   0  0.4033144E-04  0.8987983E+03  0.7818609E-02  0.9427085E-01
       -2   -1    0    0    0  501  0.00000000000E+00  0.00000000000E+00  0.11556208075E+03  0.11556208078E+03  0.25500000920E-02 0.  1.
        2   -1    0    0  501    0  0.00000000000E+00  0.00000000000E+00 -0.17476287027E+04  0.17476287027E+04  0.25500000920E-02 0. -1.
    10030    2    1    2    0    0  0.00000000000E+00  0.00000000000E+00 -0.16320666220E+04  0.18631907835E+04  0.89879832955E+03 0.  0.
        4    1    3    3  502    0  0.31863279410E+03 -0.10523900508E+01 -0.15909155066E+03  0.35614561544E+03  0.12699999809E+01 0.  1.
       -4    1    3    3    0  502 -0.31863279410E+03  0.10523900508E+01 -0.14729750713E+04  0.15070451681E+04  0.12699999809E+01 0. -1.
</event>
<event>
 5   0  0.3959804E-04  0.9000828E+03  0.7818609E-02  0.9425478E-01
        2   -1    0    0  501    0  0.00000000000E+00  0.00000000000E+00  0.58967043404E+03  0.58967043404E+03  0.25500000920E-02 0.  1.
       -2   -1    0    0    0  501  0.00000000000E+00  0.00000000000E+00 -0.34347532878E+03  0.34347532878E+03  0.25500000920E-02 0. -1.
    10030    2    1    2    0    0  0.00000000000E+00  0.00000000000E+00  0.24619510526E+03  0.93314576283E+03  0.90008276554E+03 0.  0.
        5    1    3    3  502    0  0.28707618602E+03  0.21449565549E+03 -0.15910352037E+03  0.39211878684E+03  0.46999998093E+01 0. -1.
       -5    1    3    3    0  502 -0.28707618602E+03 -0.21449565549E+03  0.40529862563E+03  0.54102697598E+03  0.46999998093E+01 0.  1.
</event>
<event>
 5   0  0.3959804E-04  0.8969332E+03  0.7818609E-02  0.9429423E-01
        2   -1    0    0  501    0  0.00000000000E+00  0.00000000000E+00  0.98019771229E+03  0.98019771229E+03  0.25500000920E-02 0. -1.
       -2   -1    0    0    0  501  0.00000000000E+00  0.00000000000E+00 -0.20518543204E+03  0.20518543205E+03  0.25500000920E-02 0.  1.
    10030    2    1    2    0    0  0.00000000000E+00  0.00000000000E+00  0.77501228025E+03  0.11853831443E+04  0.89693319949E+03 0.  0.
        5    1    3    3  502    0  0.15347518238E+03 -0.21944140098E+02 -0.16860784030E+03  0.22910013247E+03  0.46999998093E+01 0.  1.
       -5    1    3    3    0  502 -0.15347518238E+03  0.21944140098E+02  0.94362012054E+03  0.95628301187E+03  0.46999998093E+01 0. -1.
</event>
<event>
 5   0  0.4243516E-04  0.9002440E+03  0.7818609E-02  0.9425277E-01
        2   -1    0    0  501    0  0.00000000000E+00  0.00000000000E+00  0.33294723850E+03  0.33294723851E+03  0.25500000920E-02 0.  1.
       -2   -1    0    0    0  501  0.00000000000E+00  0.00000000000E+00 -0.60853423643E+03  0.60853423643E+03  0.25500000920E-02 0. -1.
    10030    2    1    2    0    0  0.00000000000E+00  0.00000000000E+00 -0.27558699793E+03  0.94148147494E+03  0.90024395262E+03 0.  0.
        1    1    3    3  502    0 -0.10051346896E+03 -0.79226545624E+02 -0.58910497500E+03  0.60284697442E+03  0.50400001928E-02 0. -1.
       -1    1    3    3    0  502  0.10051346896E+03  0.79226545624E+02  0.31351797707E+03  0.33863450052E+03  0.50400001928E-02 0.  1.
</event>
<event>
 5   0  0.2356918E-04  0.9000301E+03  0.7818609E-02  0.9425544E-01
       -1   -1    0    0    0  501  0.00000000000E+00  0.00000000000E+00  0.12091186506E+03  0.12091186517E+03  0.50400001928E-02 0.  1.
        1   -1    0    0  501    0  0.00000000000E+00  0.00000000000E+00 -0.16748856972E+04  0.16748856972E+04  0.50400001928E-02 0. -1.
    10030    2    1    2    0    0  0.00000000000E+00  0.00000000000E+00 -0.15539738321E+04  0.17957975623E+04  0.90003011842E+03 0.  0.
        5    1    3    3  502    0 -0.18383751503E+03  0.37028697153E+03 -0.11315761809E+04  0.12047387337E+04  0.46999998093E+01 0. -1.
       -5    1    3    3    0  502  0.18383751503E+03 -0.37028697153E+03 -0.42239765119E+03  0.59105882866E+03  0.46999998093E+01 0.  1.
</event>
<event>
 5   0  0.4243516E-04  0.9004644E+03  0.7818609E-02  0.9425001E-01
        2   -1    0    0  501    0  0.00000000000E+00  0.00000000000E+00  0.34616277928E+03  0.34616277929E+03  0.25500000920E-02 0. -1.
       -2   -1    0    0    0  501  0.00000000000E+00  0.00000000000E+00 -0.58558874692E+03  0.58558874693E+03  0.25500000920E-02 0.  1.
    10030    2    1    2    0    0  0.00000000000E+00  0.00000000000E+00 -0.23942596764E+03  0.93175152622E+03  0.90046438721E+03 0.  0.
        1    1    3    3  502    0 -0.16048614005E+03  0.34490561168E+02 -0.55352150233E+03  0.57734864122E+03  0.50400001928E-02 0.  1.
       -1    1    3    3    0  502  0.16048614005E+03 -0.34490561168E+02  0.31409553469E+03  0.35440288500E+03  0.50400001928E-02 0. -1.
</event>
<event>
 5   0  0.2332791E-04  0.9001125E+03  0.7818609E-02  0.9425441E-01
       -1   -1    0    0    0  501  0.00000000000E+00  0.00000000000E+00  0.58556765956E+03  0.58556765958E+03  0.50400001928E-02 0.  1.
        1   -1    0    0  501    0  0.00000000000E+00  0.00000000000E+00 -0.34590471406E+03  0.34590471409E+03  0.50400001928E-02 0. -1.
    10030    2    1    2    0    0  0.00000000000E+00  0.00000000000E+00  0.23966294551E+03  0.93147237368E+03  0.90011246824E+03 0.  0.
        2    1    3    3  502    0  0.18378203556E+03  0.26594540305E+03  0.44386665909E+03  0.54910873701E+03  0.25500000920E-02 0.  1.
       -2    1    3    3    0  502 -0.18378203556E+03 -0.26594540305E+03 -0.20420371359E+03  0.38236363667E+03  0.25500000920E-02 0. -1.
</event>
<event>
 5   0  0.4110039E-04  0.8998978E+03  0.7818609E-02  0.9425709E-01
       -2   -1    0    0    0  501  0.00000000000E+00  0.00000000000E+00  0.19637359227E+03  0.19637359228E+03  0.25500000920E-02 0.  1.
        2   -1    0    0  501    0  0.00000000000E+00  0.00000000000E+00 -0.10309635086E+04  0.10309635086E+04  0.25500000920E-02 0. -1.
    10030    2    1    2    0    0  0.00000000000E+00  0.00000000000E+00 -0.83458991631E+03  0.12273371009E+04  0.89989778906E+03 0.  0.
        3    1    3    3  502    0 -0.19851325610E+03  0.65565024680E+02 -0.96070094061E+03  0.98318492299E+03  0.10100000352E+00 0. -1.
       -3    1    3    3    0  502  0.19851325610E+03 -0.65565024680E+02  0.12611102430E+03  0.24415217787E+03  0.10100000352E+00 0.  1.
</event>
<event>
 5   0  0.2351435E-04  0.9000971E+03  0.7818609E-02  0.9425460E-01
        1   -1    0    0  501    0  0.00000000000E+00  0.00000000000E+00  0.65021948533E+03  0.65021948535E+03  0.50400001928E-02 0.  1.
       -1   -1    0    0    0  501  0.00000000000E+00  0.00000000000E+00 -0.31150049703E+03  0.31150049707E+03  0.50400001928E-02 0. -1.
    10030    2    1    2    0    0  0.00000000000E+00  0.00000000000E+00  0.33871898830E+03  0.96171998241E+03  0.90009709006E+03 0.  0.
        4    1    3    3  502    0  0.24850163916E+03 -0.20048562001E+03 -0.16952091931E+03  0.36150588305E+03  0.12699999809E+01 0. -1.
       -4    1    3    3    0  502 -0.24850163916E+03  0.20048562001E+03  0.50823990761E+03  0.60021409937E+03  0.12699999809E+01 0.  1.
</event>
<event>
 5   0  0.2308362E-04  0.8998336E+03  0.7818609E-02  0.9425789E-01
        1   -1    0    0  501    0  0.00000000000E+00  0.00000000000E+00  0.55322564276E+03  0.55322564278E+03  0.50400001928E-02 0. -1.
       -1   -1    0    0    0  501  0.00000000000E+00  0.00000000000E+00 -0.36589978321E+03  0.36589978325E+03  0.50400001928E-02 0.  1.
    10030    2    1    2    0    0  0.00000000000E+00  0.00000000000E+00  0.18732585955E+03  0.91912542603E+03  0.89983363525E+03 0.  0.
        1    1    3    3  502    0  0.20638275614E+03 -0.10269189911E+03  0.48832157884E+03  0.53999762273E+03  0.50400001928E-02 0. -1.
       -1    1    3    3    0  502 -0.20638275614E+03  0.10269189911E+03 -0.30099571929E+03  0.37912780330E+03  0.50400001928E-02 0.  1.
</event>
<event>
 5   0  0.2356918E-04  0.8956442E+03  0.7818609E-02  0.9431043E-01
       -1   -1    0    0    0  501  0.00000000000E+00  0.00000000000E+00  0.68392223564E+03  0.68392223566E+03  0.50400001928E-02 0. -1.
        1   -1    0    0  501    0  0.00000000000E+00  0.00000000000E+00 -0.29322724978E+03  0.29322724982E+03  0.50400001928E-02 0.  1.
    10030    2    1    2    0    0  0.00000000000E+00  0.00000000000E+00  0.39069498586E+03  0.97714948548E+03  0.89564420670E+03 0.  0.
        5    1    3    3  502    0 -0.20044167815E+03 -0.62212817514E+02  0.62691457076E+03  0.66112878475E+03  0.46999998093E+01 0. -1.
       -5    1    3    3    0  502  0.20044167815E+03  0.62212817514E+02 -0.23621958489E+03  0.31602070073E+03  0.46999998093E+01 0.  1.
</event>
<event>
 5   0  0.4033144E-04  0.8996129E+03  0.7818609E-02  0.9426065E-01
        2   -1    0    0  501    0  0.00000000000E+00  0.00000000000E+00  0.12577665822E+04  0.12577665822E+04  0.25500000920E-02 0.  1.
       -2   -1    0    0    0  501  0.00000000000E+00  0.00000000000E+00 -0.16086120549E+03  0.16086120551E+03  0.25500000920E-02 0. -1.
    10030    2    1    2    0    0  0.00000000000E+00  0.00000000000E+00  0.10969053767E+04  0.14186277877E+04  0.89961291376E+03 0.  0.
        4    1    3    3  502    0 -0.29153980125E+03  0.43547651035E+02  0.12684886125E+02  0.29504978031E+03  0.12699999809E+01 0. -1.
       -4    1    3    3    0  502  0.29153980125E+03 -0.43547651035E+02  0.10842204905E+04  0.11235780074E+04  0.12699999809E+01 0.  1.
</event>
<event>
 5   0  0.2332791E-04  0.8999704E+03  0.7818609E-02  0.9425618E-01
        1   -1    0    0  501    0  0.00000000000E+00  0.00000000000E+00  0.26103692340E+03  0.26103692345E+03  0.50400001928E-02 0.  1.
       -1   -1    0    0    0  501  0.00000000000E+00  0.00000000000E+00 -0.77570130109E+03  0.77570130111E+03  0.50400001928E-02 0. -1.
    10030    2    1    2    0    0  0.00000000000E+00  0.00000000000E+00 -0.51466437769E+03  0.10367382246E+04  0.89997040206E+03 0.  0.
        2    1    3    3  502    0 -0.32053219286E+03 -0.24237478125E+03 -0.49058892226E+03  0.63416394717E+03  0.25500000920E-02 0. -1.
       -2    1    3    3    0  502  0.32053219286E+03  0.24237478125E+03 -0.24075455432E+02  0.40257427738E+03  0.25500000920E-02 0.  1.
</event>
<event>
 5   0  0.4236284E-04  0.9004623E+03  0.7818609E-02  0.9425004E-01
       -2   -1    0    0    0  501  0.00000000000E+00  0.00000000000E+00  0.22284337104E+03  0.22284337105E+03  0.25500000920E-02 0. -1.
        2   -1    0    0  501    0  0.00000000000E+00  0.00000000000E+00 -0.90964383933E+03  0.90964383933E+03  0.25500000920E-02 0.  1.
    10030    2    1    2    0    0  0.00000000000E+00  0.00000000000E+00 -0.68680046829E+03  0.11324872104E+04  0.90046232483E+03 0.  0.
        2    1    3    3  502    0  0.33038285722E+03  0.23616704764E+02 -0.72693385404E+03  0.79883878802E+03  0.25500000920E-02 0.  1.
       -2    1    3    3    0  502 -0.33038285722E+03 -0.23616704764E+02  0.40133385746E+02  0.33364842237E+03  0.25500000920E-02 0. -1.
</event>
<event>
 5   0  0.1596250E-04  0.9000179E+03  0.7818609E-02  0.9425559E-01
       -3   -1    0    0    0  501  0.00000000000E+00  0.00000000000E+00  0.14730612645E+04  0.14730612679E+04  0.10100000352E+00 0. -1.
        3   -1    0    0  501    0  0.00000000000E+00  0.00000000000E+00 -0.13747426486E+03  0.13747430196E+03  0.10100000352E+00 0.  1.
    10030    2    1    2    0    0  0.00000000000E+00  0.00000000000E+00  0.13355869996E+04  0.16105355699E+04  0.90001788225E+03 0.  0.
        5    1    3    3  502    0  0.74459807470E+02  0.13361209712E+02  0.14615569372E+04  0.14635209447E+04  0.46999998093E+01 0. -1.
       -5    1    3    3    0  502 -0.74459807470E+02 -0.13361209712E+02 -0.12596993759E+03  0.14701462521E+03  0.46999998093E+01 0.  1.
</event>
<event>
 5   0  0.4243516E-04  0.9003399E+03  0.7818609E-02  0.9425157E-01
       -2   -1    0    0    0  501  0.00000000000E+00  0.00000000000E+00  0.35399516636E+03  0.35399516636E+03  0.25500000920E-02 0.  1.
        2   -1    0    0  501    0  0.00000000000E+00  0.00000000000E+00 -0.57247392246E+03  0.57247392247E+03  0.25500000920E-02 0. -1.
    10030    2    1    2    0    0  0.00000000000E+00  0.00000000000E+00 -0.21847875611E+03  0.92646908883E+03  0.90033993896E+03 0.  0.
        1    1    3    3  502    0  0.52080200364E+01  0.37631149176E+03  0.14494253526E+03  0.40329369057E+03  0.50400001928E-02 0.  1.
       -1    1    3    3    0  502 -0.52080200364E+01 -0.37631149176E+03 -0.36342129137E+03  0.52317539826E+03  0.50400001928E-02 0. -1.
</event>
<event>
 5   0  0.3959804E-04  0.9001756E+03  0.7818609E-02  0.9425362E-01
       -2   -1    0    0    0  501  0.00000000000E+00  0.00000000000E+00  0.21420535273E+03  0.21420535275E+03  0.25500000920E-02 0.  1.
        2   -1    0    0  501    0  0.00000000000E+00  0.00000000000E+00 -0.94572352098E+03  0.94572352098E+03  0.25500000920E-02 0. -1.
    10030    2    1    2    0    0  0.00000000000E+00  0.00000000000E+00 -0.73151816825E+03  0.11599288737E+04  0.90017562822E+03 0.  0.
        5    1    3    3  502    0  0.21434124752E+03  0.12663618890E+02  0.14392141491E+03  0.25853046493E+03  0.46999998093E+01 0.  1.
       -5    1    3    3    0  502 -0.21434124752E+03 -0.12663618890E+02 -0.87543958315E+03  0.90139840880E+03  0.46999998093E+01 0. -1.
</event>
<event>
 5   0  0.2332791E-04  0.8999592E+03  0.7818609E-02  0.9425632E-01
       -1   -1    0    0    0  501  0.00000000000E+00  0.00000000000E+00  0.27227314321E+03  0.27227314326E+03  0.50400001928E-02 0. -1.
        1   -1    0    0  501    0  0.00000000000E+00  0.00000000000E+00 -0.74367102587E+03  0.74367102589E+03  0.50400001928E-02 0.  1.
    10030    2    1    2    0    0  0.00000000000E+00  0.00000000000E+00 -0.47139788266E+03  0.10159441691E+04  0.89995921632E+03 0.  0.
        2    1    3    3  502    0 -0.13799655024E+03  0.85736819880E+02  0.23801006747E+03  0.28817120325E+03  0.25500000920E-02 0. -1.
       -2    1    3    3    0  502  0.13799655024E+03 -0.85736819880E+02 -0.70940795013E+03  0.72777296589E+03  0.25500000920E-02 0.  1.
</event>
<event>
 5   0  0.2351435E-04  0.8999697E+03  0.7818609E-02  0.9425619E-01
       -1   -1    0    0    0  501  0.00000000000E+00  0.00000000000E+00  0.48664582155E+03  0.48664582158E+03  0.50400001928E-02 0. -1.
        1   -1    0    0  501    0  0.00000000000E+00  0.00000000000E+00 -0.41608570497E+03  0.41608570500E+03  0.50400001928E-02 0.  1.
    10030    2    1    2    0    0  0.00000000000E+00  0.00000000000E+00  0.70560116581E+02  0.90273152658E+03  0.89996971006E+03 0.  0.
        4    1    3    3  502    0  0.39823875882E+03 -0.20337132206E+03 -0.15180913941E+02  0.44742158722E+03  0.12699999809E+01 0.  1.
       -4    1    3    3    0  502 -0.39823875882E+03  0.20337132206E+03  0.85741030522E+02  0.45530993936E+03  0.12699999809E+01 0. -1.
</event>
<event>
 5   0  0.4033144E-04  0.8998785E+03  0.7818609E-02  0.9425733E-01
       -2   -1    0    0    0  501  0.00000000000E+00  0.00000000000E+00  0.21040948367E+03  0.21040948369E+03  0.25500000920E-02 0. -1.
        2   -1    0    0  501    0  0.00000000000E+00  0.00000000000E+00 -0.96214933867E+03  0.96214933867E+03  0.25500000920E-02 0.  1.
    10030    2    1    2    0    0  0.00000000000E+00  0.00000000000E+00 -0.75173985500E+03  0.11725588224E+04  0.89987853752E+03 0.  0.
        4    1    3    3  502    0  0.17316995114E+03 -0.10452211942E+02  0.16507390101E+03  0.23947460493E+03  0.12699999809E+01 0. -1.
       -4    1    3    3    0  502 -0.17316995114E+03  0.10452211942E+02 -0.91681375600E+03  0.93308421743E+03  0.12699999809E+01 0.  1.
</event>
<event>
 5   0  0.4110039E-04  0.9000123E+03  0.7818609E-02  0.9425566E-01
       -2   -1    0    0    0  501  0.00000000000E+00  0.00000000000E+00  0.65279640221E+03  0.65279640221E+03  0.25500000920E-02 0.  1.
        2   -1    0    0  501    0  0.00000000000E+00  0.00000000000E+00 -0.31021239215E+03  0.31021239216E+03  0.25500000920E-02 0. -1.
    10030    2    1    2    0    0  0.00000000000E+00  0.00000000000E+00  0.34258401006E+03  0.96300879438E+03  0.90001229664E+03 0.  0.
        3    1    3    3  502    0  0.13006917389E+03  0.28979105278E+03  0.51236490420E+03  0.60283882550E+03  0.10100000352E+00 0.  1.
       -3    1    3    3    0  502 -0.13006917389E+03 -0.28979105278E+03 -0.16978089414E+03  0.36016996888E+03  0.10100000352E+00 0. -1.
</event>
<event>
 5   0  0.2308362E-04  0.9015901E+03  0.7818609E-02  0.9423596E-01
       -1   -1    0    0    0  501  0.00000000000E+00  0.00000000000E+00  0.13134523159E+03  0.13134523169E+03  0.50400001928E-02 0. -1.
        1   -1    0    0  501    0  0.00000000000E+00  0.00000000000E+00 -0.15471910784E+04  0.15471910784E+04  0.50400001928E-02 0.  1.
    10030    2    1    2    0    0  0.00000000000E+00  0.00000000000E+00 -0.14158458468E+04  0.16785363101E+04  0.90159008556E+03 0.  0.
        1    1    3    3  502    0 -0.16978042401E+03 -0.38923757941E+02 -0.14820078541E+04  0.14922090105E+04  0.50400001928E-02 0.  1.
       -1    1    3    3    0  502  0.16978042401E+03  0.38923757941E+02  0.66162007378E+02  0.18632729954E+03  0.50400001928E-02 0. -1.
</event>
<event>
 5   0  0.2308362E-04  0.8995043E+03  0.7818609E-02  0.9426201E-01
        1   -1    0    0  501    0  0.00000000000E+00  0.00000000000E+00  0.47417029182E+03  0.47417029184E+03  0.50400001928E-02 0.  1.
       -1   -1    0    0    0  501  0.00000000000E+00  0.00000000000E+00 -0.42659141183E+03  0.42659141186E+03  0.50400001928E-02 0. -1.
    10030    2    1    2    0    0  0.00000000000E+00  0.00000000000E+00  0.47578879984E+02  0.90076170371E+03  0.89950425071E+03 0.  0.
        1    1    3    3  502    0  0.26904115737E+03 -0.35861327915E+03 -0.12182160857E+02  0.44848080607E+03  0.50400001928E-02 0.  1.
       -1    1    3    3    0  502 -0.26904115737E+03  0.35861327915E+03  0.59761040841E+02  0.45228089764E+03  0.50400001928E-02 0. -1.
</event>
<event>
 5   0  0.2332791E-04  0.8998817E+03  0.7818609E-02  0.9425729E-01
       -1   -1    0    0    0  501  0.00000000000E+00  0.00000000000E+00  0.15927599871E+04  0.15927599872E+04  0.50400001928E-02 0.  1.
        1   -1    0    0  501    0  0.00000000000E+00  0.00000000000E+00 -0.12710438664E+03  0.12710438674E+03  0.50400001928E-02 0. -1.
    10030    2    1    2    0    0  0.00000000000E+00  0.00000000000E+00  0.14656556005E+04  0.17198643739E+04  0.89988172849E+03 0.  0.
        2    1    3    3  502    0  0.44658929796E+03  0.16254031662E+01  0.83754646973E+03  0.94917265655E+03  0.25500000920E-02 0.  1.
       -2    1    3    3    0  502 -0.44658929796E+03 -0.16254031662E+01  0.62810913078E+03  0.77069171733E+03  0.25500000920E-02 0. -1.
</event>
<event>
 5   0  0.2332791E-04  0.9008493E+03  0.7818609E-02  0.9424520E-01
       -1   -1    0    0    0  501  0.00000000000E+00  0.00000000000E+00  0.48813546988E+03  0.48813546990E+03  0.50400001928E-02 0. -1.
        1   -1    0    0  501    0  0.00000000000E+00  0.00000000000E+00 -0.41562719671E+03  0.41562719674E+03  0.50400001928E-02 0.  1.
    10030    2    1    2    0    0  0.00000000000E+00  0.00000000000E+00  0.72508273169E+02  0.90376266664E+03  0.90084932588E+03 0.  0.
        2    1    3    3  502    0  0.81831452162E+02 -0.36852464027E+03  0.28276320301E+03  0.47165859054E+03  0.25500000920E-02 0. -1.
       -2    1    3    3    0  502 -0.81831452162E+02  0.36852464027E+03 -0.21025492984E+03  0.43210407610E+03  0.25500000920E-02 0.  1.
</event>
<event>
 5   0  0.3959804E-04  0.9005591E+03  0.7818609E-02  0.9424883E-01
        2   -1    0    0  501    0  0.00000000000E+00  0.00000000000E+00  0.82957009671E+03  0.82957009672E+03  0.25500000920E-02 0.  1.
       -2   -1    0    0    0  501  0.00000000000E+00  0.00000000000E+00 -0.24440574127E+03  0.24440574129E+03  0.25500000920E-02 0. -1.
    10030    2    1    2    0    0  0.00000000000E+00  0.00000000000E+00  0.58516435544E+03  0.10739758380E+04  0.90055914727E+03 0.  0.
        5    1    3    3  502    0 -0.21546489292E+01  0.34015260273E+02  0.82800019372E+03  0.82871472247E+03  0.46999998093E+01 0.  1.
       -5    1    3    3    0  502  0.21546489292E+01 -0.34015260273E+02 -0.24283583828E+03  0.24526111553E+03  0.46999998093E+01 0. -1.
</event>
<event>
 5   0  0.2356918E-04  0.9001399E+03  0.7818609E-02  0.9425407E-01
       -1   -1    0    0    0  501  0.00000000000E+00  0.00000000000E+00  0.16314446485E+03  0.16314446492E+03  0.50400001928E-02 0.  1.
        1   -1    0    0  501    0  0.00000000000E+00  0.00000000000E+00 -0.12416172048E+04  0.12416172048E+04  0.50400001928E-02 0. -1.
    10030    2    1    2    0    0  0.00000000000E+00  0.00000000000E+00 -0.10784727399E+04  0.14047616697E+04  0.90013993241E+03 0.  0.
        5    1    3    3  502    0 -0.17893634487E+03 -0.76974654670E+02 -0.11723830468E+04  0.11884643080E+04  0.46999998093E+01 0. -1.
       -5    1    3    3    0  502  0.17893634487E+03  0.76974654670E+02  0.93910306824E+02  0.21629736175E+03  0.46999998093E+01 0.  1.
</event>
<event>
 5   0  0.2450427E-04  0.9002483E+03  0.7818609E-02  0.9425271E-01
       -1   -1    0    0    0  501  0.00000000000E+00  0.00000000000E+00  0.30259951859E+03  0.30259951863E+03  0.50400001928E-02 0.  1.
        1   -1    0    0  501    0  0.00000000000E+00  0.00000000000E+00 -0.66957063085E+03  0.66957063087E+03  0.50400001928E-02 0. -1.
    10030    2    1    2    0    0  0.00000000000E+00  0.00000000000E+00 -0.36697111225E+03  0.97217014950E+03  0.90024830039E+03 0.  0.
        3    1    3    3  502    0  0.15003834869E+03 -0.31423838916E+03 -0.49149971408E+03  0.60235309449E+03  0.10100000352E+00 0. -1.
       -3    1    3    3    0  502 -0.15003834869E+03  0.31423838916E+03  0.12452860183E+03  0.36981705501E+03  0.10100000352E+00 0.  1.
</event>
<event>
 5   0  0.2450427E-04  0.8999536E+03  0.7818609E-02  0.9425639E-01
       -1   -1    0    0    0  501  0.00000000000E+00  0.00000000000E+00  0.91035989432E+03  0.91035989433E+03  0.50400001928E-02 0.  1.
        1   -1    0    0  501    0  0.00000000000E+00  0.00000000000E+00 -0.22241656102E+03  0.22241656108E+03  0.50400001928E-02 0. -1.
    10030    2    1    2    0    0  0.00000000000E+00  0.00000000000E+00  0.68794333330E+03  0.11327764554E+04  0.89995359220E+03 0.  0.
        3    1    3    3  502    0 -0.38458949177E+03 -0.65246997918E+02  0.62630593688E+03  0.73785187178E+03  0.10100000352E+00 0.  1.
       -3    1    3    3    0  502  0.38458949177E+03  0.65246997918E+02  0.61637396415E+02  0.39492458363E+03  0.10100000352E+00 0. -1.
</event>
<event>
 5   0  0.2351435E-04  0.8996724E+03  0.7818609E-02  0.9425991E-01
       -1   -1    0    0    0  501  0.00000000000E+00  0.00000000000E+00  0.69481066970E+02  0.69481067152E+02  0.50400001928E-02 0. -1.
        1   -1    0    0  501    0  0.00000000000E+00  0.00000000000E+00 -0.29123417254E+04  0.29123417254E+04  0.50400001928E-02 0.  1.
    10030    2    1    2    0    0  0.00000000000E+00  0.00000000000E+00 -0.28428606585E+04  0.29818227926E+04  0.89967240870E+03 0.  0.
        4    1    3    3  502    0  0.17295749471E+03 -0.52638886879E+02 -0.56235459377E+02  0.18933881583E+03  0.12699999809E+01 0. -1.
       -4    1    3    3    0  502 -0.17295749471E+03  0.52638886879E+02 -0.27866251991E+04  0.27924839768E+04  0.12699999809E+01 0.  1.
</event>
<event>
 5   0  0.4236284E-04  0.8994841E+03  0.7818609E-02  0.9426227E-01
        2   -1    0    0  501    0  0.00000000000E+00  0.00000000000E+00  0.57465291895E+03  0.57465291896E+03  0.25500000920E-02 0. -1.
       -2   -1    0    0    0  501  0.00000000000E+00  0.00000000000E+00 -0.35198275241E+03  0.35198275242E+03  0.25500000920E-02 0.  1.
    10030    2    1    2    0    0  0.00000000000E+00  0.00000000000E+00  0.22267016654E+03  0.92663567138E+03  0.89948411015E+03 0.  0.
        2    1    3    3  502    0 -0.37848691771E+02  0.16443975501E+03 -0.31813617769E+03  0.36011607026E+03  0.25500000920E-02 0.  1.
       -2    1    3    3    0  502  0.37848691771E+02 -0.16443975501E+03  0.54080634423E+03  0.56651960113E+03  0.25500000920E-02 0. -1.
</event>
<event>
 5   0  0.4243516E-04  0.9000568E+03  0.7818609E-02  0.9425510E-01
       -2   -1    0    0    0  501  0.00000000000E+00  0.00000000000E+00  0.25154364113E+03  0.25154364115E+03  0.25500000920E-02 0. -1.
        2   -1    0    0  501    0  0.00000000000E+00  0.00000000000E+00 -0.80513096350E+03  0.80513096351E+03  0.25500000920E-02 0.  1.
    10030    2    1    2    0    0  0.00000000000E+00  0.00000000000E+00 -0.55358732237E+03  0.10566746047E+04  0.90005682967E+03 0.  0.
        1    1    3    3  502    0 -0.59140732925E+02  0.30684937333E+03  0.10339564038E+03  0.32915774741E+03  0.50400001928E-02 0. -1.
       -1    1    3    3    0  502  0.59140732925E+02 -0.30684937333E+03 -0.65698296275E+03  0.72751685725E+03  0.50400001928E-02 0.  1.
</event>
<event>
 5   0  0.2356918E-04  0.8998765E+03  0.7818609E-02  0.9425736E-01
        1   -1    0    0  501    0  0.00000000000E+00  0.00000000000E+00  0.12389257196E+04  0.12389257196E+04  0.50400001928E-02 0.  1.
       -1   -1    0    0    0  501  0.00000000000E+00  0.00000000000E+00 -0.16340321043E+03  0.16340321051E+03  0.50400001928E-02 0. -1.
    10030    2    1    2    0    0  0.00000000000E+00  0.00000000000E+00  0.10755225092E+04  0.14023289301E+04  0.89987652515E+03 0.  0.
        5    1    3    3  502    0 -0.30381325253E+03  0.31453224617E+03  0.70260364078E+03  0.82759107797E+03  0.46999998093E+01 0. -1.
       -5    1    3    3    0  502  0.30381325253E+03 -0.31453224617E+03  0.37291886840E+03  0.57473785216E+03  0.46999998093E+01 0.  1.
</event>
<event>
 5   0  0.2332791E-04  0.8997156E+03  0.7818609E-02  0.9425937E-01
       -1   -1    0    0    0  501  0.00000000000E+00  0.00000000000E+00  0.87631293948E+03  0.87631293949E+03  0.50400001928E-02 0. -1.
        1   -1    0    0  501    0  0.00000000000E+00  0.00000000000E+00 -0.23093579669E+03  0.23093579674E+03  0.50400001928E-02 0.  1.
    10030    2    1    2    0    0  0.00000000000E+00  0.00000000000E+00  0.64537714279E+03  0.11072487362E+04  0.89971557031E+03 0.  0.
        2    1    3    3  502    0 -0.16818135609E+03  0.32426171232E+03 -0.44345704974E+00  0.36528184088E+03  0.25500000920E-02 0. -1.
       -2    1    3    3    0  502  0.16818135609E+03 -0.32426171232E+03  0.64582059984E+03  0.74196689535E+03  0.25500000920E-02 0.  1.
</event>
<event>
 5   0  0.2450427E-04  0.9004876E+03  0.7818609E-02  0.9424972E-01
       -1   -1    0    0    0  501  0.00000000000E+00  0.00000000000E+00  0.20105361408E+03  0.20105361414E+03  0.50400001928E-02 0.  1.
        1   -1    0    0  501    0  0.00000000000E+00  0.00000000000E+00 -0.10082856366E+04  0.10082856366E+04  0.50400001928E-02 0. -1.
    10030    2    1    2    0    0  0.00000000000E+00  0.00000000000E+00 -0.80723202249E+03  0.12093392507E+04  0.90048758192E+03 0.  0.
        3    1    3    3  502    0 -0.89020274934E+02  0.37716962432E+03 -0.95788887919E+02  0.39919551113E+03  0.10100000352E+00 0.  1.
       -3    1    3    3    0  502  0.89020274934E+02 -0.37716962432E+03 -0.71144313457E+03  0.81014373959E+03  0.10100000352E+00 0. -1.
</event>
<event>
 5   0  0.4236284E-04  0.9000912E+03  0.7818609E-02  0.9425467E-01
        2   -1    0    0  501    0  0.00000000000E+00  0.00000000000E+00  0.17823192306E+03  0.17823192308E+03  0.25500000920E-02 0. -1.
       -2   -1    0    0    0  501  0.00000000000E+00  0.00000000000E+00 -0.11363904269E+04  0.11363904269E+04  0.25500000920E-02 0.  1.
    10030    2    1    2    0    0  0.00000000000E+00  0.00000000000E+00 -0.95815850389E+03  0.13146223500E+04  0.90009122017E+03 0.  0.
        2    1    3    3  502    0 -0.40982005176E+03 -0.12922836464E+03 -0.28373405538E+03  0.51493442227E+03  0.25500000920E-02 0. -1.
       -2    1    3    3    0  502  0.40982005176E+03  0.12922836464E+03 -0.67442444851E+03  0.79968792776E+03  0.25500000920E-02 0.  1.
</event>
<event>
 5   0  0.4110039E-04  0.8997480E+03  0.7818609E-02  0.9425896E-01
        2   -1    0    0  501    0  0.00000000000E+00  0.00000000000E+00  0.13080089081E+04  0.13080089081E+04  0.25500000920E-02 0.  1.
       -2   -1    0    0    0  501  0.00000000000E+00  0.00000000000E+00 -0.15472877459E+03  0.15472877461E+03  0.25500000920E-02 0. -1.
    10030    2    1    2    0    0  0.00000000000E+00  0.00000000000E+00  0.11532801335E+04  0.14627376827E+04  0.89974799920E+03 0.  0.
        3    1    3    3  502    0 -0.31094635709E+03  0.31401188974E+03  0.71358220544E+03  0.83933942956E+03  0.10100000352E+00 0. -1.
       -3    1    3    3    0  502  0.31094635709E+03 -0.31401188974E+03  0.43969792808E+03  0.62339825316E+03  0.10100000352E+00 0.  1.
</event>
<event>
 5   0  0.2308362E-04  0.9003075E+03  0.7818609E-02  0.9425197E-01
        1   -1    0    0  501    0  0.00000000000E+00  0.00000000000E+00  0.56329766233E+03  0.56329766235E+03  0.50400001928E-02 0.  1.
       -1   -1    0    0    0  501  0.00000000000E+00  0.00000000000E+00 -0.35973592718E+03  0.35973592721E+03  0.50400001928E-02 0. -1.
    10030    2    1    2    0    0  0.00000000000E+00  0.00000000000E+00  0.20356173515E+03  0.92303358956E+03  0.90030751826E+03 0.  0.
        1    1    3    3  502    0  0.67173567209E+02 -0.25657773677E+03 -0.27112281805E+03  0.37927826939E+03  0.50400001928E-02 0. -1.
       -1    1    3    3    0  502 -0.67173567209E+02  0.25657773677E+03  0.47468455320E+03  0.54375532017E+03  0.50400001928E-02 0.  1.
</event>
<event>
 5   0  0.4236284E-04  0.9001516E+03  0.7818609E-02  0.9425392E-01
        2   -1    0    0  501    0  0.00000000000E+00  0.00000000000E+00  0.69211887828E+03  0.69211887829E+03  0.25500000920E-02 0. -1.
       -2   -1    0    0    0  501  0.00000000000E+00  0.00000000000E+00 -0.29267839599E+03  0.29267839600E+03  0.25500000920E-02 0.  1.
    10030    2    1    2    0    0  0.00000000000E+00  0.00000000000E+00  0.39944048229E+03  0.98479727428E+03  0.90015163864E+03 0.  0.
        2    1    3    3  502    0  0.40004887593E+03 -0.88951222240E+02 -0.38314649115E+01  0.40983667869E+03  0.25500000920E-02 0.  1.
       -2    1    3    3    0  502 -0.40004887593E+03  0.88951222240E+02  0.40327194721E+03  0.57496059559E+03  0.25500000920E-02 0. -1.
</event>
<event>
 5   0  0.2351435E-04  0.8999828E+03  0.7818609E-02  0.9425603E-01
       -1   -1    0    0    0  501  0.00000000000E+00  0.00000000000E+00  0.24768043477E+03  0.24768043483E+03  0.50400001928E-02 0. -1.
        1   -1    0    0  501    0  0.00000000000E+00  0.00000000000E+00 -0.81755450425E+03  0.81755450426E+03  0.50400001928E-02 0.  1.
    10030    2    1    2    0    0  0.00000000000E+00  0.00000000000E+00 -0.56987406947E+03  0.10652349391E+04  0.89998278894E+03 0.  0.
        4    1    3    3  502    0 -0.17628142541E+03  0.46587886621E+02  0.20199596949E+03  0.27212048198E+03  0.12699999809E+01 0. -1.
       -4    1    3    3    0  502  0.17628142541E+03 -0.46587886621E+02 -0.77187003896E+03  0.79311445710E+03  0.12699999809E+01 0.  1.
</event>
<event>
 5   0  0.1596250E-04  0.9002937E+03  0.7818609E-02  0.9425214E-01
        3   -1    0    0  501    0  0.00000000000E+00  0.00000000000E+00  0.17394953309E+04  0.17394953339E+04  0.10100000352E+00 0.  1.
       -3   -1    0    0    0  501  0.00000000000E+00  0.00000000000E+00 -0.11648905237E+03  0.11648909616E+03  0.10100000352E+00 0. -1.
    10030    2    1    2    0    0  0.00000000000E+00  0.00000000000E+00  0.16230062786E+04  0.18559844300E+04  0.90029374331E+03 0.  0.
        4    1    3    3  502    0 -0.95913905642E+02  0.21670610977E+03  0.16004791738E+04  0.16179296072E+04  0.12699999809E+01 0.  1.
       -4    1    3    3    0  502  0.95913905642E+02 -0.21670610977E+03  0.22527104767E+02  0.23805482279E+03  0.12699999809E+01 0. -1.
</event>
<event>
 5   0  0.2450427E-04  0.9001260E+03  0.7818609E-02  0.9425424E-01
        1   -1    0    0  501    0  0.00000000000E+00  0.00000000000E+00  0.62922890833E+03  0.62922890835E+03  0.50400001928E-02 0.  1.
       -1   -1    0    0    0  501  0.00000000000E+00  0.00000000000E+00 -0.32191259162E+03  0.32191259166E+03  0.50400001928E-02 0. -1.
    10030    2    1    2    0    0  0.00000000000E+00  0.00000000000E+00  0.30731631671E+03  0.95114150001E+03  0.90012601035E+03 0.  0.
        3    1    3    3  502    0 -0.43078777738E+03  0.24285732674E+02  0.28893245912E+03  0.51927823186E+03  0.10100000352E+00 0.  1.
       -3    1    3    3    0  502  0.43078777738E+03 -0.24285732674E+02  0.18383857585E+02  0.43186326814E+03  0.10100000352E+00 0. -1.
</event>
<event>
 5   0  0.3959804E-04  0.8998598E+03  0.7818609E-02  0.9425757E-01
       -2   -1    0    0    0  501  0.00000000000E+00  0.00000000000E+00  0.18304430703E+03  0.18304430704E+03  0.25500000920E-02 0. -1.
        2   -1    0    0  501    0  0.00000000000E+00  0.00000000000E+00 -0.11059448279E+04  0.11059448280E+04  0.25500000920E-02 0.  1.
    10030    2    1    2    0    0  0.00000000000E+00  0.00000000000E+00 -0.92290052092E+03  0.12889891350E+04  0.89985977720E+03 0.  0.
        5    1    3    3  502    0 -0.41954648892E+03 -0.90652796626E+02 -0.65457727708E+03  0.78277115913E+03  0.46999998093E+01 0.  1.
       -5    1    3    3    0  502  0.41954648892E+03  0.90652796626E+02 -0.26832324384E+03  0.50621797586E+03  0.46999998093E+01 0. -1.
</event>
<event>
 5   0  0.4236284E-04  0.8999320E+03  0.7818609E-02  0.9425666E-01
       -2   -1    0    0    0  501  0.00000000000E+00  0.00000000000E+00  0.50177742843E+03  0.50177742844E+03  0.25500000920E-02 0. -1.
        2   -1    0    0  501    0  0.00000000000E+00  0.00000000000E+00 -0.40350436405E+03  0.40350436405E+03  0.25500000920E-02 0.  1.
    10030    2    1    2    0    0  0.00000000000E+00  0.00000000000E+00  0.98273064386E+02  0.90528179249E+03  0.89993195778E+03 0.  0.
        2    1    3    3  502    0 -0.10046639234E+02 -0.41402624233E+03  0.22611053519E+03  0.47185234812E+03  0.25500000920E-02 0. -1.
       -2    1    3    3    0  502  0.10046639234E+02  0.41402624233E+03 -0.12783747081E+03  0.43342944437E+03  0.25500000920E-02 0.  1.
</event>
<event>
 5   0  0.2356918E-04  0.8940367E+03  0.7818609E-02  0.9433067E-01
       -1   -1    0    0    0  501  0.00000000000E+00  0.00000000000E+00  0.30633285921E+03  0.30633285925E+03  0.50400001928E-02 0. -1.
        1   -1    0    0  501    0  0.00000000000E+00  0.00000000000E+00 -0.65231462912E+03  0.65231462913E+03  0.50400001928E-02 0.  1.
    10030    2    1    2    0    0  0.00000000000E+00  0.00000000000E+00 -0.34598176991E+03  0.95864748838E+03  0.89403670052E+03 0.  0.
        5    1    3    3  502    0 -0.71422331569E+02  0.19116282682E+03 -0.59942354947E+03  0.63322591345E+03  0.46999998093E+01 0.  1.
       -5    1    3    3    0  502  0.71422331569E+02 -0.19116282682E+03  0.25344177957E+03  0.32542157493E+03  0.46999998093E+01 0. -1.
</event>
<event>
 5   0  0.2356918E-04  0.9015880E+03  0.7818609E-02  0.9423599E-01
        1   -1    0    0  501    0  0.00000000000E+00  0.00000000000E+00  0.45705863174E+03  0.45705863177E+03  0.50400001928E-02 0. -1.
       -1   -1    0    0    0  501  0.00000000000E+00  0.00000000000E+00 -0.44461524499E+03  0.44461524502E+03  0.50400001928E-02 0.  1.
    10030    2    1    2    0    0  0.00000000000E+00  0.00000000000E+00  0.12443386750E+02  0.90167387679E+03  0.90158801136E+03 0.  0.
        5    1    3    3  502    0  0.41357809749E+03  0.76958902417E+02 -0.15573084715E+03  0.44860194174E+03  0.46999998093E+01 0.  1.
       -5    1    3    3    0  502 -0.41357809749E+03 -0.76958902417E+02  0.16817423390E+03  0.45307193505E+03  0.46999998093E+01 0. -1.
</event>
<event>
 5   0  0.2332791E-04  0.9002629E+03  0.7818609E-02  0.9425253E-01
       -1   -1    0    0    0  501  0.00000000000E+00  0.00000000000E+00  0.57565687595E+03  0.57565687597E+03  0.50400001928E-02 0.  1.
        1   -1    0    0  501    0  0.00000000000E+00  0.00000000000E+00 -0.35197759786E+03  0.35197759789E+03  0.50400001928E-02 0. -1.
    10030    2    1    2    0    0  0.00000000000E+00  0.00000000000E+00  0.22367927809E+03  0.92763447386E+03  0.90026290474E+03 0.  0.
        2    1    3    3  502    0 -0.16950878424E+03 -0.41376329664E+03  0.16523237341E+03  0.47669175660E+03  0.25500000920E-02 0.  1.
       -2    1    3    3    0  502  0.16950878424E+03  0.41376329664E+03  0.58446904680E+02  0.45094271726E+03  0.25500000920E-02 0. -1.
</event>
<event>
 5   0  0.2308362E-04  0.8995643E+03  0.7818609E-02  0.9426126E-01
        1   -1    0    0  501    0  0.00000000000E+00  0.00000000000E+00  0.32202578719E+03  0.32202578723E+03  0.50400001928E-02 0.  1.
       -1   -1    0    0    0  501  0.00000000000E+00  0.00000000000E+00 -0.62822291441E+03  0.62822291443E+03  0.50400001928E-02 0. -1.
    10030    2    1    2    0    0  0.00000000000E+00  0.00000000000E+00 -0.30619712722E+03  0.95024870166E+03  0.89956429136E+03 0.  0.
        1    1    3    3  502    0 -0.25172325810E+03 -0.33040797278E+03  0.29162600660E+02  0.41639462586E+03  0.50400001928E-02 0.  1.
       -1    1    3    3    0  502  0.25172325810E+03  0.33040797278E+03 -0.33535972788E+03  0.53385407580E+03  0.50400001928E-02 0. -1.
</event>
<event>
 5   0  0.4236284E-04  0.9002635E+03  0.7818609E-02  0.9425252E-01
        2   -1    0    0  501    0  0.00000000000E+00  0.00000000000E+00  0.16957754137E+04  0.16957754137E+04  0.25500000920E-02 0. -1.
       -2   -1    0    0    0  501  0.00000000000E+00  0.00000000000E+00 -0.11948434389E+03  0.11948434392E+03  0.25500000920E-02 0.  1.
    10030    2    1    2    0    0  0.00000000000E+00  0.00000000000E+00  0.15762910698E+04  0.18152597576E+04  0.90026354523E+03 0.  0.
        2    1    3    3  502    0 -0.35781167720E+02  0.40206231045E+03  0.38646754436E+03  0.55883052556E+03  0.25500000920E-02 0.  1.
       -2    1    3    3    0  502  0.35781167720E+02 -0.40206231045E+03  0.11898235255E+04  0.12564292321E+04  0.25500000920E-02 0. -1.
</event>
<event>
 5   0  0.2308362E-04  0.8999993E+03  0.7818609E-02  0.9425582E-01
        1   -1    0    0  501    0  0.00000000000E+00  0.00000000000E+00  0.17215392931E+03  0.17215392938E+03  0.50400001928E-02 0.  1.
       -1   -1    0    0    0  501  0.00000000000E+00  0.00000000000E+00 -0.11762711030E+04  0.11762711030E+04  0.50400001928E-02 0. -1.
    10030    2    1    2    0    0  0.00000000000E+00  0.00000000000E+00 -0.10041171737E+04  0.13484250324E+04  0.89999931637E+03 0.  0.
        1    1    3    3  502    0 -0.95092793074E+02 -0.82116494264E+02  0.14534185566E+03  0.19211978804E+03  0.50400001928E-02 0.  1.
       -1    1    3    3    0  502  0.95092793074E+02  0.82116494264E+02 -0.11494590293E+04  0.11563052443E+04  0.50400001928E-02 0. -1.
</event>
<event>
 5   0  0.1596250E-04  0.8999508E+03  0.7818609E-02  0.9425643E-01
        3   -1    0    0  501    0  0.00000000000E+00  0.00000000000E+00  0.43734705705E+03  0.43734706871E+03  0.10100000352E+00 0. -1.
       -3   -1    0    0    0  501  0.00000000000E+00  0.00000000000E+00 -0.46296840657E+03  0.46296841758E+03  0.10100000352E+00 0.  1.
    10030    2    1    2    0    0  0.00000000000E+00  0.00000000000E+00 -0.25621349516E+02  0.90031548630E+03  0.89995084383E+03 0.  0.
        3    1    3    3  502    0  0.53756716122E+02 -0.48464627723E+02 -0.45710689669E+03  0.46280160962E+03  0.10100000352E+00 0.  1.
       -3    1    3    3    0  502 -0.53756716122E+02  0.48464627723E+02  0.43148554717E+03  0.43751387668E+03  0.10100000352E+00 0. -1.
</event>
<event>
 5   0  0.3959804E-04  0.8996259E+03  0.7818609E-02  0.9426049E-01
        2   -1    0    0  501    0  0.00000000000E+00  0.00000000000E+00  0.81609702597E+03  0.81609702598E+03  0.25500000920E-02 0.  1.
       -2   -1    0    0    0  501  0.00000000000E+00  0.00000000000E+00 -0.24792601199E+03  0.24792601200E+03  0.25500000920E-02 0. -1.
    10030    2    1    2    0    0  0.00000000000E+00  0.00000000000E+00  0.56817101399E+03  0.10640230380E+04  0.89962588014E+03 0.  0.
        5    1    3    3  502    0 -0.33385090766E+03 -0.18329707208E+03  0.56709246420E+03  0.68313263583E+03  0.46999998093E+01 0.  1.
       -5    1    3    3    0  502  0.33385090766E+03  0.18329707208E+03  0.10785497872E+01  0.38089040215E+03  0.46999998093E+01 0. -1.
</event>
<event>
 5   0  0.2450427E-04  0.9001020E+03  0.7818609E-02  0.9425454E-01
       -1   -1    0    0    0  501  0.00000000000E+00  0.00000000000E+00  0.24603080361E+03  0.24603080366E+03  0.50400001928E-02 0. -1.
        1   -1    0    0  501    0  0.00000000000E+00  0.00000000000E+00 -0.82325418547E+03  0.82325418548E+03  0.50400001928E-02 0.  1.
    10030    2    1    2    0    0  0.00000000000E+00  0.00000000000E+00 -0.57722338186E+03  0.10692849891E+04  0.90010196947E+03 0.  0.
        3    1    3    3  502    0 -0.24956713415E+03 -0.19943806033E+03 -0.66519043289E+03  0.73792792098E+03  0.10100000352E+00 0.  1.
       -3    1    3    3    0  502  0.24956713415E+03  0.19943806033E+03  0.87967051027E+02  0.33135706816E+03  0.10100000352E+00 0. -1.
</event>
<event>
 5   0  0.2356918E-04  0.8997267E+03  0.7818609E-02  0.9425923E-01
        1   -1    0    0  501    0  0.00000000000E+00  0.00000000000E+00  0.40092763457E+03  0.40092763460E+03  0.50400001928E-02 0. -1.
       -1   -1    0    0    0  501  0.00000000000E+00  0.00000000000E+00 -0.50477196508E+03  0.50477196511E+03  0.50400001928E-02 0.  1.
    10030    2    1    2    0    0  0.00000000000E+00  0.00000000000E+00 -0.10384433051E+03  0.90569959971E+03  0.89972669180E+03 0.  0.
        5    1    3    3  502    0  0.20188033229E+03 -0.13386625177E+03  0.32964444828E+03  0.40910071402E+03  0.46999998093E+01 0. -1.
       -5    1    3    3    0  502 -0.20188033229E+03  0.13386625177E+03 -0.43348877879E+03  0.49659888569E+03  0.46999998093E+01 0.  1.
</event>
<event>
 5   0  0.2356918E-04  0.8977710E+03  0.7818609E-02  0.9428372E-01
        1   -1    0    0  501    0  0.00000000000E+00  0.00000000000E+00  0.67954629622E+03  0.67954629624E+03  0.50400001928E-02 0. -1.
       -1   -1    0    0    0  501  0.00000000000E+00  0.00000000000E+00 -0.29651870408E+03  0.29651870412E+03  0.50400001928E-02 0.  1.
    10030    2    1    2    0    0  0.00000000000E+00  0.00000000000E+00  0.38302759214E+03  0.97606500036E+03  0.89777098894E+03 0.  0.
        5    1    3    3  502    0 -0.16499261981E+03 -0.27663650165E+02 -0.26132978102E+03  0.31032754725E+03  0.46999998093E+01 0.  1.
       -5    1    3    3    0  502  0.16499261981E+03  0.27663650165E+02  0.64435737316E+03  0.66573745311E+03  0.46999998093E+01 0. -1.
</event>
<event>
 5   0  0.4236284E-04  0.9001252E+03  0.7818609E-02  0.9425425E-01
       -2   -1    0    0    0  501  0.00000000000E+00  0.00000000000E+00  0.10585170764E+03  0.10585170767E+03  0.25500000920E-02 0. -1.
        2   -1    0    0  501    0  0.00000000000E+00  0.00000000000E+00 -0.19135857989E+04  0.19135857989E+04  0.25500000920E-02 0.  1.
    10030    2    1    2    0    0  0.00000000000E+00  0.00000000000E+00 -0.18077340912E+04  0.20194375065E+04  0.90012515699E+03 0.  0.
        2    1    3    3  502    0  0.76389237513E+02  0.74752112227E+02 -0.18847010300E+04  0.18877291030E+04  0.25500000920E-02 0.  1.
       -2    1    3    3    0  502 -0.76389237513E+02 -0.74752112227E+02  0.76966938770E+02  0.13170840353E+03  0.25500000920E-02 0. -1.
</event>
<event>
 5   0  0.2356918E-04  0.8999319E+03  0.7818609E-02  0.9425667E-01
       -1   -1    0    0    0  501  0.00000000000E+00  0.00000000000E+00  0.22595858634E+03  0.22595858640E+03  0.50400001928E-02 0. -1.
        1   -1    0    0  501    0  0.00000000000E+00  0.00000000000E+00 -0.89604636035E+03  0.89604636036E+03  0.50400001928E-02 0.  1.
    10030    2    1    2    0    0  0.00000000000E+00  0.00000000000E+00 -0.67008777400E+03  0.11220049468E+04  0.89993192836E+03 0.  0.
        5    1    3    3  502    0 -0.61398479155E+02  0.39004195531E+03 -0.60402426319E+03  0.72164388771E+03  0.46999998093E+01 0.  1.
       -5    1    3    3    0  502  0.61398479155E+02 -0.39004195531E+03 -0.66063510814E+02  0.40036105905E+03  0.46999998093E+01 0. -1.
</event>
<event>
 5   0  0.2308362E-04  0.9000927E+03  0.7818609E-02  0.9425466E-01
        1   -1    0    0  501    0  0.00000000000E+00  0.00000000000E+00  0.14682175921E+04  0.14682175921E+04  0.50400001928E-02 0. -1.
       -1   -1    0    0    0  501  0.00000000000E+00  0.00000000000E+00 -0.13795073903E+03  0.13795073912E+03  0.50400001928E-02 0.  1.
    10030    2    1    2    0    0  0.00000000000E+00  0.00000000000E+00  0.13302668531E+04  0.16061683312E+04  0.90009266627E+03 0.  0.
        1    1    3    3  502    0  0.22455425163E+03  0.33816999326E+03  0.10118775938E+04  0.10902659406E+04  0.50400001928E-02 0.  1.
       -1    1    3    3    0  502 -0.22455425163E+03 -0.33816999326E+03  0.31838925928E+03  0.51590239069E+03  0.50400001928E-02 0. -1.
</event>
<event>
 5   0  0.4236284E-04  0.9045839E+03  0.7818609E-02  0.9419869E-01
       -2   -1    0    0    0  501  0.00000000000E+00  0.00000000000E+00  0.18567838827E+03  0.18567838829E+03  0.25500000920E-02 0.  1.
        2   -1    0    0  501    0  0.00000000000E+00  0.00000000000E+00 -0.11017329623E+04  0.11017329623E+04  0.25500000920E-02 0. -1.
    10030    2    1    2    0    0  0.00000000000E+00  0.00000000000E+00 -0.91605457399E+03  0.12874113506E+04  0.90458388391E+03 0.  0.
        2    1    3    3  502    0  0.40642609080E+03  0.59035133715E+02 -0.18836521690E+03  0.45182825192E+03  0.25500000920E-02 0.  1.
       -2    1    3    3    0  502 -0.40642609080E+03 -0.59035133715E+02 -0.72768935709E+03  0.83558309864E+03  0.25500000920E-02 0. -1.
</event>
<event>
 5   0  0.2332791E-04  0.9008660E+03  0.7818609E-02  0.9424500E-01
       -1   -1    0    0    0  501  0.00000000000E+00  0.00000000000E+00  0.22316859098E+03  0.22316859104E+03  0.50400001928E-02 0. -1.
        1   -1    0    0  501    0  0.00000000000E+00  0.00000000000E+00 -0.90913285408E+03  0.90913285410E+03  0.50400001928E-02 0.  1.
    10030    2    1    2    0    0  0.00000000000E+00  0.00000000000E+00 -0.68596426310E+03  0.11323014451E+04  0.90086602356E+03 0.  0.
        2    1    3    3  502    0 -0.84228962613E+01  0.40207635426E+03 -0.59796179861E+03  0.72062101859E+03  0.25500000920E-02 0. -1.
       -2    1    3    3    0  502  0.84228962613E+01 -0.40207635426E+03 -0.88002464490E+02  0.41168042654E+03  0.25500000920E-02 0.  1.
</event>
<event>
 5   0  0.2332791E-04  0.9003175E+03  0.7818609E-02  0.9425185E-01
        1   -1    0    0  501    0  0.00000000000E+00  0.00000000000E+00  0.21982346454E+03  0.21982346460E+03  0.50400001928E-02 0. -1.
       -1   -1    0    0    0  501  0.00000000000E+00  0.00000000000E+00 -0.92184387030E+03  0.92184387032E+03  0.50400001928E-02 0.  1.
    10030    2    1    2    0    0  0.00000000000E+00  0.00000000000E+00 -0.70202040576E+03  0.11416673349E+04  0.90031752927E+03 0.  0.
        2    1    3    3  502    0 -0.36927656768E+03 -0.35603871131E+01 -0.24583148486E+02  0.37011105224E+03  0.25500000920E-02 0. -1.
       -2    1    3    3    0  502  0.36927656768E+03  0.35603871131E+01 -0.67743725727E+03  0.77155628268E+03  0.25500000920E-02 0.  1.
</event>
<event>
 5   0  0.2351435E-04  0.9010258E+03  0.7818609E-02  0.9424300E-01
       -1   -1    0    0    0  501  0.00000000000E+00  0.00000000000E+00  0.15883001589E+03  0.15883001597E+03  0.50400001928E-02 0.  1.
        1   -1    0    0  501    0  0.00000000000E+00  0.00000000000E+00 -0.12778559584E+04  0.12778559584E+04  0.50400001928E-02 0. -1.
    10030    2    1    2    0    0  0.00000000000E+00  0.00000000000E+00 -0.11190259425E+04  0.14366859744E+04  0.90102582036E+03 0.  0.
        4    1    3    3  502    0 -0.30429993878E+03  0.24804317461E+03 -0.20714499102E+03  0.44388571662E+03  0.12699999809E+01 0. -1.
       -4    1    3    3    0  502  0.30429993878E+03 -0.24804317461E+03 -0.91188095147E+03  0.99280025774E+03  0.12699999809E+01 0.  1.
</event>
<event>
 5   0  0.2351435E-04  0.8994878E+03  0.7818609E-02  0.9426222E-01
        1   -1    0    0  501    0  0.00000000000E+00  0.00000000000E+00  0.84810022488E+03  0.84810022490E+03  0.50400001928E-02 0.  1.
       -1   -1    0    0    0  501  0.00000000000E+00  0.00000000000E+00 -0.23849725191E+03  0.23849725196E+03  0.50400001928E-02 0. -1.
    10030    2    1    2    0    0  0.00000000000E+00  0.00000000000E+00  0.60960297298E+03  0.10865974769E+04  0.89948779427E+03 0.  0.
        4    1    3    3  502    0  0.30037545675E+03 -0.35588000979E+01 -0.99532598226E+02  0.31645920919E+03  0.12699999809E+01 0. -1.
       -4    1    3    3    0  502 -0.30037545675E+03  0.35588000979E+01  0.70913557120E+03  0.77013826766E+03  0.12699999809E+01 0.  1.
</event>
<event>
 5   0  0.2356918E-04  0.9004403E+03  0.7818609E-02  0.9425031E-01
        1   -1    0    0  501    0  0.00000000000E+00  0.00000000000E+00  0.91871250996E+03  0.91871250998E+03  0.50400001928E-02 0.  1.
       -1   -1    0    0    0  501  0.00000000000E+00  0.00000000000E+00 -0.22063288106E+03  0.22063288112E+03  0.50400001928E-02 0. -1.
    10030    2    1    2    0    0  0.00000000000E+00  0.00000000000E+00  0.69807962890E+03  0.11393453911E+04  0.90044031002E+03 0.  0.
        5    1    3    3  502    0 -0.12255595880E+03 -0.43007251696E+03  0.41471182796E+03  0.60991009430E+03  0.46999998093E+01 0. -1.
       -5    1    3    3    0  502  0.12255595880E+03  0.43007251696E+03  0.28336780094E+03  0.52943529679E+03  0.46999998093E+01 0.  1.
</event>
<event>
 5   0  0.2450427E-04  0.9001069E+03  0.7818609E-02  0.9425448E-01
       -1   -1    0    0    0  501  0.00000000000E+00  0.00000000000E+00  0.25019287668E+03  0.25019287673E+03  0.50400001928E-02 0. -1.
        1   -1    0    0  501    0  0.00000000000E+00  0.00000000000E+00 -0.80956779405E+03  0.80956779407E+03  0.50400001928E-02 0.  1.
    10030    2    1    2    0    0  0.00000000000E+00  0.00000000000E+00 -0.55937491737E+03  0.10597606708E+04  0.90010687209E+03 0.  0.
        3    1    3    3  502    0 -0.92894280689E+02 -0.20032498323E+03 -0.74140443963E+03  0.77358903792E+03  0.10100000352E+00 0.  1.
       -3    1    3    3    0  502  0.92894280689E+02  0.20032498323E+03  0.18202952226E+03  0.28617163288E+03  0.10100000352E+00 0. -1.
</event>
<event>
 5   0  0.3959804E-04  0.9004453E+03  0.7818609E-02  0.9425025E-01
       -2   -1    0    0    0  501  0.00000000000E+00  0.00000000000E+00  0.16263939942E+03  0.16263939944E+03  0.25500000920E-02 0. -1.
        2   -1    0    0  501    0  0.00000000000E+00  0.00000000000E+00 -0.12463182641E+04  0.12463182641E+04  0.25500000920E-02 0.  1.
    10030    2    1    2    0    0  0.00000000000E+00  0.00000000000E+00 -0.10836788647E+04  0.14089576636E+04  0.90044534309E+03 0.  0.
        5    1    3    3  502    0  0.37730320255E+03  0.21324281232E+03 -0.73250703726E+03  0.85112798879E+03  0.46999998093E+01 0.  1.
       -5    1    3    3    0  502 -0.37730320255E+03 -0.21324281232E+03 -0.35117182743E+03  0.55782967476E+03  0.46999998093E+01 0. -1.
</event>
<event>
 5   0  0.2356918E-04  0.9045324E+03  0.7818609E-02  0.9419933E-01
        1   -1    0    0  501    0  0.00000000000E+00  0.00000000000E+00  0.12267215328E+04  0.12267215328E+04  0.50400001928E-02 0. -1.
       -1   -1    0    0    0  501  0.00000000000E+00  0.00000000000E+00 -0.16674096709E+03  0.16674096717E+03  0.50400001928E-02 0.  1.
    10030    2    1    2    0    0  0.00000000000E+00  0.00000000000E+00  0.10599805657E+04  0.13934625000E+04  0.90453244230E+03 0.  0.
        5    1    3    3  502    0  0.25389608808E+03 -0.24936492914E+02  0.11052461750E+04  0.11343175259E+04  0.46999998093E+01 0. -1.
       -5    1    3    3    0  502 -0.25389608808E+03  0.24936492914E+02 -0.45265609265E+02  0.25914497410E+03  0.46999998093E+01 0.  1.
</event>
<event>
 5   0  0.4243516E-04  0.8997717E+03  0.7818609E-02  0.9425867E-01
        2   -1    0    0  501    0  0.00000000000E+00  0.00000000000E+00  0.19655240898E+03  0.19655240899E+03  0.25500000920E-02 0. -1.
       -2   -1    0    0    0  501  0.00000000000E+00  0.00000000000E+00 -0.10297368896E+04  0.10297368896E+04  0.25500000920E-02 0.  1.
    10030    2    1    2    0    0  0.00000000000E+00  0.00000000000E+00 -0.83318448066E+03  0.12262892986E+04  0.89977167389E+03 0.  0.
        1    1    3    3  502    0  0.27206785447E+03  0.11841576942E+03 -0.87747069390E+03  0.92628183107E+03  0.50400001928E-02 0.  1.
       -1    1    3    3    0  502 -0.27206785447E+03 -0.11841576942E+03  0.44286213243E+02  0.30000746756E+03  0.50400001928E-02 0. -1.
</event>
<event>
 5   0  0.2450427E-04  0.8993867E+03  0.7818609E-02  0.9426348E-01
       -1   -1    0    0    0  501  0.00000000000E+00  0.00000000000E+00  0.21598137761E+03  0.21598137767E+03  0.50400001928E-02 0.  1.
        1   -1    0    0  501    0  0.00000000000E+00  0.00000000000E+00 -0.93630342123E+03  0.93630342125E+03  0.50400001928E-02 0. -1.
    10030    2    1    2    0    0  0.00000000000E+00  0.00000000000E+00 -0.72032204362E+03  0.11522847989E+04  0.89938668619E+03 0.  0.
        3    1    3    3  502    0 -0.87436753421E+02 -0.32388520390E+03 -0.74382815367E+03  0.81598231816E+03  0.10100000352E+00 0. -1.
       -3    1    3    3    0  502  0.87436753421E+02  0.32388520390E+03  0.23506110047E+02  0.33630248076E+03  0.10100000352E+00 0.  1.
</event>
<event>
 5   0  0.2332791E-04  0.9002032E+03  0.7818609E-02  0.9425327E-01
        1   -1    0    0  501    0  0.00000000000E+00  0.00000000000E+00  0.80318455058E+03  0.80318455059E+03  0.50400001928E-02 0.  1.
       -1   -1    0    0    0  501  0.00000000000E+00  0.00000000000E+00 -0.25223525287E+03  0.25223525292E+03  0.50400001928E-02 0. -1.
    10030    2    1    2    0    0  0.00000000000E+00  0.00000000000E+00  0.55094929771E+03  0.10554198035E+04  0.90020321761E+03 0.  0.
        2    1    3    3  502    0  0.43404995598E+03 -0.10075594324E+03  0.34999815933E+03  0.56661259775E+03  0.25500000920E-02 0. -1.
       -2    1    3    3    0  502 -0.43404995598E+03  0.10075594324E+03  0.20095113838E+03  0.48880720576E+03  0.25500000920E-02 0.  1.
</event>
<event>
 5   0  0.1596250E-04  0.8997957E+03  0.7818609E-02  0.9425837E-01
       -3   -1    0    0    0  501  0.00000000000E+00  0.00000000000E+00  0.16965178832E+03  0.16965181839E+03  0.10100000352E+00 0. -1.
        3   -1    0    0  501    0  0.00000000000E+00  0.00000000000E+00 -0.11930794621E+04  0.11930794664E+04  0.10100000352E+00 0.  1.
    10030    2    1    2    0    0  0.00000000000E+00  0.00000000000E+00 -0.10234276738E+04  0.13627312848E+04  0.89979572738E+03 0.  0.
        4    1    3    3  502    0  0.12539824550E+03 -0.23728780783E+03  0.35132798348E+02  0.27067720654E+03  0.12699999809E+01 0. -1.
       -4    1    3    3    0  502 -0.12539824550E+03  0.23728780783E+03 -0.10585604721E+04  0.10920540782E+04  0.12699999809E+01 0.  1.
</event>
<event>
 5   0  0.4243516E-04  0.9001864E+03  0.7818609E-02  0.9425348E-01
        2   -1    0    0  501    0  0.00000000000E+00  0.00000000000E+00  0.13244461577E+04  0.13244461577E+04  0.25500000920E-02 0.  1.
       -2   -1    0    0    0  501  0.00000000000E+00  0.00000000000E+00 -0.15295744052E+03  0.15295744054E+03  0.25500000920E-02 0. -1.
    10030    2    1    2    0    0  0.00000000000E+00  0.00000000000E+00  0.11714887172E+04  0.14774035983E+04  0.90018641272E+03 0.  0.
        1    1    3    3  502    0  0.29474792291E+03  0.39496359059E+02  0.11402424808E+04  0.11783841545E+04  0.50400001928E-02 0.  1.
       -1    1    3    3    0  502 -0.29474792291E+03 -0.39496359059E+02  0.31246236370E+02  0.29901944377E+03  0.50400001928E-02 0. -1.
</event>
<event>
 5   0  0.4110039E-04  0.9000446E+03  0.7818609E-02  0.9425526E-01
        2   -1    0    0  501    0  0.00000000000E+00  0.00000000000E+00  0.38931529096E+03  0.38931529097E+03  0.25500000920E-02 0. -1.
       -2   -1    0    0    0  501  0.00000000000E+00  0.00000000000E+00 -0.52019547712E+03  0.52019547712E+03  0.25500000920E-02 0.  1.
    10030    2    1    2    0    0  0.00000000000E+00  0.00000000000E+00 -0.13088018616E+03  0.90951076809E+03  0.90004456231E+03 0.  0.
        3    1    3    3  502    0  0.26014775876E+03  0.21103988471E+03  0.23822899309E+03  0.41105687280E+03  0.10100000352E+00 0. -1.
       -3    1    3    3    0  502 -0.26014775876E+03 -0.21103988471E+03 -0.36910917925E+03  0.49845389529E+03  0.10100000352E+00 0.  1.
</event>
<event>
 5   0  0.4243516E-04  0.9002028E+03  0.7818609E-02  0.9425328E-01
        2   -1    0    0  501    0  0.00000000000E+00  0.00000000000E+00  0.20131512774E+04  0.20131512774E+04  0.25500000920E-02 0.  1.
       -2   -1    0    0    0  501  0.00000000000E+00  0.00000000000E+00 -0.10063390364E+03  0.10063390367E+03  0.25500000920E-02 0. -1.
    10030    2    1    2    0    0  0.00000000000E+00  0.00000000000E+00  0.19125173738E+04  0.21137851811E+04  0.90020280313E+03 0.  0.
        1    1    3    3  502    0  0.39473897594E+03  0.28062529898E+02  0.45272544819E+03  0.60130416277E+03  0.50400001928E-02 0. -1.
       -1    1    3    3    0  502 -0.39473897594E+03 -0.28062529898E+02  0.14597919256E+04  0.15124810183E+04  0.50400001928E-02 0.  1.
</event>
<event>
 5   0  0.4110039E-04  0.8998152E+03  0.7818609E-02  0.9425812E-01
        2   -1    0    0  501    0  0.00000000000E+00  0.00000000000E+00  0.12277142736E+04  0.12277142736E+04  0.25500000920E-02 0. -1.
       -2   -1    0    0    0  501  0.00000000000E+00  0.00000000000E+00 -0.16487292071E+03  0.16487292073E+03  0.25500000920E-02 0.  1.
    10030    2    1    2    0    0  0.00000000000E+00  0.00000000000E+00  0.10628413529E+04  0.13925871943E+04  0.89981517680E+03 0.  0.
        3    1    3    3  502    0  0.15625977336E+03 -0.20144154157E+02 -0.12078283867E+03  0.19852306675E+03  0.10100000352E+00 0.  1.
       -3    1    3    3    0  502 -0.15625977336E+03  0.20144154157E+02  0.11836241916E+04  0.11940641276E+04  0.10100000352E+00 0. -1.
</event>
<event>
 5   0  0.4236284E-04  0.8997194E+03  0.7818609E-02  0.9425932E-01
       -2   -1    0    0    0  501  0.00000000000E+00  0.00000000000E+00  0.17347143446E+03  0.17347143447E+03  0.25500000920E-02 0.  1.
        2   -1    0    0  501    0  0.00000000000E+00  0.00000000000E+00 -0.11666114364E+04  0.11666114364E+04  0.25500000920E-02 0. -1.
    10030    2    1    2    0    0  0.00000000000E+00  0.00000000000E+00 -0.99314000191E+03  0.13400828708E+04  0.89971942145E+03 0.  0.
        2    1    3    3  502    0 -0.31919958510E+03 -0.75284562791E+02 -0.95520699560E+03  0.10099388818E+04  0.25500000920E-02 0. -1.
       -2    1    3    3    0  502  0.31919958510E+03  0.75284562791E+02 -0.37933006308E+02  0.33014398904E+03  0.25500000920E-02 0.  1.
</event>
<event>
 5   0  0.4243516E-04  0.8988726E+03  0.7818609E-02  0.9426992E-01
        2   -1    0    0  501    0  0.00000000000E+00  0.00000000000E+00  0.17664255456E+03  0.17664255458E+03  0.25500000920E-02 0.  1.
       -2   -1    0    0    0  501  0.00000000000E+00  0.00000000000E+00 -0.11435124821E+04  0.11435124821E+04  0.25500000920E-02 0. -1.
    10030    2    1    2    0    0  0.00000000000E+00  0.00000000000E+00 -0.96686992755E+03  0.13201550367E+04  0.89887255165E+03 0.  0.
        1    1    3    3  502    0  0.32574408196E+03  0.30281859659E+03 -0.57844221038E+03  0.72965998942E+03  0.50400001928E-02 0. -1.
       -1    1    3    3    0  502 -0.32574408196E+03 -0.30281859659E+03 -0.38842771716E+03  0.59049504728E+03  0.50400001928E-02 0.  1.
</event>
<event>
 5   0  0.2356918E-04  0.9003640E+03  0.7818609E-02  0.9425126E-01
       -1   -1    0    0    0  501  0.00000000000E+00  0.00000000000E+00  0.98963216121E+02  0.98963216250E+02  0.50400001928E-02 0.  1.
        1   -1    0    0  501    0  0.00000000000E+00  0.00000000000E+00 -0.20478705257E+04  0.20478705257E+04  0.50400001928E-02 0. -1.
    10030    2    1    2    0    0  0.00000000000E+00  0.00000000000E+00 -0.19489073096E+04  0.21468337420E+04  0.90036404542E+03 0.  0.
        5    1    3    3  502    0 -0.24390283250E+03 -0.25475084862E+03 -0.30743680076E+03  0.46789535479E+03  0.46999998093E+01 0.  1.
       -5    1    3    3    0  502  0.24390283250E+03  0.25475084862E+03 -0.16414705089E+04  0.16789383872E+04  0.46999998093E+01 0. -1.
</event>
<event>
 5   0  0.2450427E-04  0.8996654E+03  0.7818609E-02  0.9426000E-01
        1   -1    0    0  501    0  0.00000000000E+00  0.00000000000E+00  0.28921362983E+03  0.28921362987E+03  0.50400001928E-02 0. -1.
       -1   -1    0    0    0  501  0.00000000000E+00  0.00000000000E+00 -0.69965388091E+03  0.69965388093E+03  0.50400001928E-02 0.  1.
    10030    2    1    2    0    0  0.00000000000E+00  0.00000000000E+00 -0.41044025108E+03  0.98886751080E+03  0.89966535679E+03 0.  0.
        3    1    3    3  502    0 -0.18675000152E+03  0.33248114582E+03 -0.46747784854E+03  0.60328668514E+03  0.10100000352E+00 0.  1.
       -3    1    3    3    0  502  0.18675000152E+03 -0.33248114582E+03  0.57037597457E+02  0.38558082566E+03  0.10100000352E+00 0. -1.
</event>
<event>
 5   0  0.4236284E-04  0.9001947E+03  0.7818609E-02  0.9425338E-01
       -2   -1    0    0    0  501  0.00000000000E+00  0.00000000000E+00  0.30184352138E+03  0.30184352139E+03  0.25500000920E-02 0.  1.
        2   -1    0    0  501    0  0.00000000000E+00  0.00000000000E+00 -0.67116774639E+03  0.67116774640E+03  0.25500000920E-02 0. -1.
    10030    2    1    2    0    0  0.00000000000E+00  0.00000000000E+00 -0.36932422501E+03  0.97301126779E+03  0.90019472563E+03 0.  0.
        2    1    3    3  502    0  0.34322288481E+03 -0.12645051504E+03 -0.46816850523E+03  0.59411567115E+03  0.25500000920E-02 0. -1.
       -2    1    3    3    0  502 -0.34322288481E+03  0.12645051504E+03  0.98844280217E+02  0.37889559664E+03  0.25500000920E-02 0.  1.
</event>
<event>
 5   0  0.2450427E-04  0.9002225E+03  0.7818609E-02  0.9425303E-01
       -1   -1    0    0    0  501  0.00000000000E+00  0.00000000000E+00  0.13631330051E+03  0.13631330060E+03  0.50400001928E-02 0. -1.
        1   -1    0    0  501    0  0.00000000000E+00  0.00000000000E+00 -0.14862831014E+04  0.14862831014E+04  0.50400001928E-02 0.  1.
    10030    2    1    2    0    0  0.00000000000E+00  0.00000000000E+00 -0.13499698009E+04  0.16225964021E+04  0.90022253944E+03 0.  0.
        3    1    3    3  502    0  0.30074953827E+03 -0.17724641434E+03 -0.16284607461E+03  0.38520829480E+03  0.10100000352E+00 0. -1.
       -3    1    3    3    0  502 -0.30074953827E+03  0.17724641434E+03 -0.11871237263E+04  0.12373881073E+04  0.10100000352E+00 0.  1.
</event>
<event>
 5   0  0.2450427E-04  0.9006249E+03  0.7818609E-02  0.9424801E-01
       -1   -1    0    0    0  501  0.00000000000E+00  0.00000000000E+00  0.16387778608E+03  0.16387778616E+03  0.50400001928E-02 0. -1.
        1   -1    0    0  501    0  0.00000000000E+00  0.00000000000E+00 -0.12373934707E+04  0.12373934707E+04  0.50400001928E-02 0.  1.
    10030    2    1    2    0    0  0.00000000000E+00  0.00000000000E+00 -0.10735156846E+04  0.14012712569E+04  0.90062489984E+03 0.  0.
        3    1    3    3  502    0  0.10718061032E+03 -0.35165371097E+03 -0.94138821421E+03  0.10106234688E+04  0.10100000352E+00 0.  1.
       -3    1    3    3    0  502 -0.10718061032E+03  0.35165371097E+03 -0.13212747039E+03  0.39064778804E+03  0.10100000352E+00 0. -1.
</event>
<event>
 5   0  0.1596250E-04  0.9006035E+03  0.7818609E-02  0.9424827E-01
        4   -1    0    0  501    0  0.00000000000E+00  0.00000000000E+00  0.52070536074E+03  0.52070690950E+03  0.12699999809E+01 0. -1.
       -4   -1    0    0    0  501  0.00000000000E+00  0.00000000000E+00 -0.38941415765E+03  0.38941622858E+03  0.12699999809E+01 0.  1.
    10030    2    1    2    0    0  0.00000000000E+00  0.00000000000E+00  0.13129120309E+03  0.91012313808E+03  0.90060354566E+03 0.  0.
        2    1    3    3  502    0 -0.35390237771E+03 -0.27702360957E+03  0.93918340845E+02  0.45914009622E+03  0.25500000920E-02 0. -1.
       -2    1    3    3    0  502  0.35390237771E+03  0.27702360957E+03  0.37372862242E+02  0.45098304186E+03  0.25500000920E-02 0.  1.
</event>
<event>
 5   0  0.4110039E-04  0.8977993E+03  0.7818609E-02  0.9428337E-01
       -2   -1    0    0    0  501  0.00000000000E+00  0.00000000000E+00  0.29615079331E+03  0.29615079333E+03  0.25500000920E-02 0.  1.
        2   -1    0    0  501    0  0.00000000000E+00  0.00000000000E+00 -0.68043347204E+03  0.68043347204E+03  0.25500000920E-02 0. -1.
    10030    2    1    2    0    0  0.00000000000E+00  0.00000000000E+00 -0.38428267872E+03  0.97658426537E+03  0.89779933738E+03 0.  0.
        3    1    3    3  502    0 -0.27595705297E+03  0.26463657722E+02  0.19191152714E+03  0.33716859983E+03  0.10100000352E+00 0.  1.
       -3    1    3    3    0  502  0.27595705297E+03 -0.26463657722E+02 -0.57619420586E+03  0.63941566554E+03  0.10100000352E+00 0. -1.
</event>
<event>
 5   0  0.2356918E-04  0.9006895E+03  0.7818609E-02  0.9424720E-01
       -1   -1    0    0    0  501  0.00000000000E+00  0.00000000000E+00  0.49548927865E+03  0.49548927868E+03  0.50400001928E-02 0. -1.
        1   -1    0    0  501    0  0.00000000000E+00  0.00000000000E+00 -0.40931336760E+03  0.40931336763E+03  0.50400001928E-02 0.  1.
    10030    2    1    2    0    0  0.00000000000E+00  0.00000000000E+00  0.86175911059E+02  0.90480264631E+03  0.90068948096E+03 0.  0.
        5    1    3    3  502    0  0.39203767306E+03  0.21944441462E+03  0.73869476631E+02  0.45533304051E+03  0.46999998093E+01 0.  1.
       -5    1    3    3    0  502 -0.39203767306E+03 -0.21944441462E+03  0.12306434429E+02  0.44946960579E+03  0.46999998093E+01 0. -1.
</event>
<event>
 5   0  0.4236284E-04  0.9017409E+03  0.7818609E-02  0.9423408E-01
        2   -1    0    0  501    0  0.00000000000E+00  0.00000000000E+00  0.14290001112E+04  0.14290001112E+04  0.25500000920E-02 0. -1.
       -2   -1    0    0    0  501  0.00000000000E+00  0.00000000000E+00 -0.14225621867E+03  0.14225621869E+03  0.25500000920E-02 0.  1.
    10030    2    1    2    0    0  0.00000000000E+00  0.00000000000E+00  0.12867438925E+04  0.15712563299E+04  0.90174087700E+03 0.  0.
        2    1    3    3  502    0 -0.41347533896E+03 -0.75408597535E+02  0.35899231934E+03  0.55274207173E+03  0.25500000920E-02 0.  1.
       -2    1    3    3    0  502  0.41347533896E+03  0.75408597535E+02  0.92775157320E+03  0.10185142582E+04  0.25500000920E-02 0. -1.
</event>
<event>
 5   0  0.2308362E-04  0.9001605E+03  0.7818609E-02  0.9425381E-01
        1   -1    0    0  501    0  0.00000000000E+00  0.00000000000E+00  0.46335232816E+03  0.46335232819E+03  0.50400001928E-02 0.  1.
       -1   -1    0    0    0  501  0.00000000000E+00  0.00000000000E+00 -0.43718831393E+03  0.43718831396E+03  0.50400001928E-02 0. -1.
    10030    2    1    2    0    0  0.00000000000E+00  0.00000000000E+00  0.26164014229E+02  0.90054064215E+03  0.90016048154E+03 0.  0.
        1    1    3    3  502    0 -0.17758510595E+03  0.41356259613E+03  0.11765271001E+02  0.45023206506E+03  0.50400001928E-02 0. -1.
       -1    1    3    3    0  502  0.17758510595E+03 -0.41356259613E+03  0.14398743228E+02  0.45030857710E+03  0.50400001928E-02 0.  1.
</event>
<event>
 5   0  0.1596250E-04  0.8953155E+03  0.7818609E-02  0.9431456E-01
        3   -1    0    0  501    0  0.00000000000E+00  0.00000000000E+00  0.15505992283E+03  0.15505995572E+03  0.10100000352E+00 0.  1.
       -3   -1    0    0    0  501  0.00000000000E+00  0.00000000000E+00 -0.12923870910E+04  0.12923870950E+04  0.10100000352E+00 0. -1.
    10030    2    1    2    0    0  0.00000000000E+00  0.00000000000E+00 -0.11373271682E+04  0.14474470507E+04  0.89531551816E+03 0.  0.
        2    1    3    3  502    0 -0.33741669008E+03  0.25930962220E+03 -0.34403121053E+03  0.54721931320E+03  0.25500000920E-02 0.  1.
       -2    1    3    3    0  502  0.33741669008E+03 -0.25930962220E+03 -0.79329595768E+03  0.90022773751E+03  0.25500000920E-02 0. -1.
</event>
<event>
 5   0  0.4110039E-04  0.8984168E+03  0.7818609E-02  0.9427563E-01
        2   -1    0    0  501    0  0.00000000000E+00  0.00000000000E+00  0.51985365394E+03  0.51985365395E+03  0.25500000920E-02 0. -1.
       -2   -1    0    0    0  501  0.00000000000E+00  0.00000000000E+00 -0.38816346419E+03  0.38816346420E+03  0.25500000920E-02 0.  1.
    10030    2    1    2    0    0  0.00000000000E+00  0.00000000000E+00  0.13169018975E+03  0.90801711815E+03  0.89841681907E+03 0.  0.
        3    1    3    3  502    0 -0.67077200329E+02  0.94728381957E+01 -0.38297121026E+03  0.38891649946E+03  0.10100000352E+00 0.  1.
       -3    1    3    3    0  502  0.67077200329E+02 -0.94728381957E+01  0.51466140001E+03  0.51910061869E+03  0.10100000352E+00 0. -1.
</event>
<event>
 5   0  0.2332791E-04  0.9000175E+03  0.7818609E-02  0.9425560E-01
       -1   -1    0    0    0  501  0.00000000000E+00  0.00000000000E+00  0.16873395442E+03  0.16873395449E+03  0.50400001928E-02 0. -1.
        1   -1    0    0  501    0  0.00000000000E+00  0.00000000000E+00 -0.12001608394E+04  0.12001608394E+04  0.50400001928E-02 0.  1.
    10030    2    1    2    0    0  0.00000000000E+00  0.00000000000E+00 -0.10314268850E+04  0.13688947939E+04  0.90001752079E+03 0.  0.
        2    1    3    3  502    0 -0.12860334050E+02  0.99938247684E+02  0.15135542183E+03  0.18182823011E+03  0.25500000920E-02 0. -1.
       -2    1    3    3    0  502  0.12860334050E+02 -0.99938247684E+02 -0.11827823068E+04  0.11870665638E+04  0.25500000920E-02 0.  1.
</event>
<event>
 5   0  0.2450427E-04  0.8999525E+03  0.7818609E-02  0.9425641E-01
        1   -1    0    0  501    0  0.00000000000E+00  0.00000000000E+00  0.14969669679E+04  0.14969669679E+04  0.50400001928E-02 0.  1.
       -1   -1    0    0    0  501  0.00000000000E+00  0.00000000000E+00 -0.13525925449E+03  0.13525925459E+03  0.50400001928E-02 0. -1.
    10030    2    1    2    0    0  0.00000000000E+00  0.00000000000E+00  0.13617077134E+04  0.16322262225E+04  0.89995252354E+03 0.  0.
        3    1    3    3  502    0 -0.36784036872E+03  0.20317769052E+03  0.97268689221E+03  0.10595789311E+04  0.10100000352E+00 0. -1.
       -3    1    3    3    0  502  0.36784036872E+03 -0.20317769052E+03  0.38902082118E+03  0.57264729136E+03  0.10100000352E+00 0.  1.
</event>
<event>
 5   0  0.2356918E-04  0.9009408E+03  0.7818609E-02  0.9424406E-01
        1   -1    0    0  501    0  0.00000000000E+00  0.00000000000E+00  0.25974927206E+04  0.25974927206E+04  0.50400001928E-02 0.  1.
       -1   -1    0    0    0  501  0.00000000000E+00  0.00000000000E+00 -0.78122862482E+02  0.78122862645E+02  0.50400001928E-02 0. -1.
    10030    2    1    2    0    0  0.00000000000E+00  0.00000000000E+00  0.25193698581E+04  0.26756155833E+04  0.90094076794E+03 0.  0.
        5    1    3    3  502    0  0.20685187948E+03 -0.28343591072E+03  0.42086513133E+03  0.54797186451E+03  0.46999998093E+01 0. -1.
       -5    1    3    3    0  502 -0.20685187948E+03  0.28343591072E+03  0.20985047268E+04  0.21276437188E+04  0.46999998093E+01 0.  1.
</event>
<event>
 5   0  0.2332791E-04  0.9000188E+03  0.7818609E-02  0.9425558E-01
       -1   -1    0    0    0  501  0.00000000000E+00  0.00000000000E+00  0.46880481964E+03  0.46880481967E+03  0.50400001928E-02 0.  1.
        1   -1    0    0  501    0  0.00000000000E+00  0.00000000000E+00 -0.43196748419E+03  0.43196748422E+03  0.50400001928E-02 0. -1.
    10030    2    1    2    0    0  0.00000000000E+00  0.00000000000E+00  0.36837335450E+02  0.90077230389E+03  0.90001875212E+03 0.  0.
        2    1    3    3  502    0 -0.28360648405E+03  0.18987011943E+03 -0.27512732527E+03  0.43838150641E+03  0.25500000920E-02 0. -1.
       -2    1    3    3    0  502  0.28360648405E+03 -0.18987011943E+03  0.31196466072E+03  0.46239079748E+03  0.25500000920E-02 0.  1.
</event>
<event>
 5   0  0.1596250E-04  0.9011376E+03  0.7818609E-02  0.9424160E-01
       -3   -1    0    0    0  501  0.00000000000E+00  0.00000000000E+00  0.26110361156E+03  0.26110363109E+03  0.10100000352E+00 0.  1.
        3   -1    0    0  501    0  0.00000000000E+00  0.00000000000E+00 -0.77751602769E+03  0.77751603425E+03  0.10100000352E+00 0. -1.
    10030    2    1    2    0    0  0.00000000000E+00  0.00000000000E+00 -0.51641241613E+03  0.10386196653E+04  0.90113762861E+03 0.  0.
        5    1    3    3  502    0 -0.38058646536E+03  0.13299928741E+03 -0.49002739267E+03  0.63457371804E+03  0.46999998093E+01 0. -1.
       -5    1    3    3    0  502  0.38058646536E+03 -0.13299928741E+03 -0.26385023458E+02  0.40404594730E+03  0.46999998093E+01 0.  1.
</event>
<event>
 5   0  0.4033144E-04  0.9002925E+03  0.7818609E-02  0.9425216E-01
       -2   -1    0    0    0  501  0.00000000000E+00  0.00000000000E+00  0.28929702914E+03  0.28929702915E+03  0.25500000920E-02 0. -1.
        2   -1    0    0  501    0  0.00000000000E+00  0.00000000000E+00 -0.70042769168E+03  0.70042769168E+03  0.25500000920E-02 0.  1.
    10030    2    1    2    0    0  0.00000000000E+00  0.00000000000E+00 -0.41113066254E+03  0.98972472083E+03  0.90029250877E+03 0.  0.
        4    1    3    3  502    0  0.38879269356E+03 -0.71529406461E+02  0.31121208215E+02  0.39654300783E+03  0.12699999809E+01 0. -1.
       -4    1    3    3    0  502 -0.38879269356E+03  0.71529406461E+02 -0.44225187076E+03  0.59318171301E+03  0.12699999809E+01 0.  1.
</event>
<event>
 5   0  0.2351435E-04  0.8997408E+03  0.7818609E-02  0.9425905E-01
        1   -1    0    0  501    0  0.00000000000E+00  0.00000000000E+00  0.37302832104E+03  0.37302832108E+03  0.50400001928E-02 0.  1.
       -1   -1    0    0    0  501  0.00000000000E+00  0.00000000000E+00 -0.54254160952E+03  0.54254160954E+03  0.50400001928E-02 0. -1.
    10030    2    1    2    0    0  0.00000000000E+00  0.00000000000E+00 -0.16951328847E+03  0.91556993062E+03  0.89974081984E+03 0.  0.
        4    1    3    3  502    0 -0.31619533634E+03 -0.50741322574E+02  0.23675700334E+03  0.39825828814E+03  0.12699999809E+01 0.  1.
       -4    1    3    3    0  502  0.31619533634E+03  0.50741322574E+02 -0.40627029181E+03  0.51731164248E+03  0.12699999809E+01 0. -1.
</event>
<event>
 5   0  0.2450427E-04  0.9002804E+03  0.7818609E-02  0.9425231E-01
        1   -1    0    0  501    0  0.00000000000E+00  0.00000000000E+00  0.47952207607E+03  0.47952207609E+03  0.50400001928E-02 0. -1.
       -1   -1    0    0    0  501  0.00000000000E+00  0.00000000000E+00 -0.42255861805E+03  0.42255861808E+03  0.50400001928E-02 0.  1.
    10030    2    1    2    0    0  0.00000000000E+00  0.00000000000E+00  0.56963458020E+02  0.90208069417E+03  0.90028036925E+03 0.  0.
        3    1    3    3  502    0 -0.11652642330E+03 -0.11853601293E+03 -0.39068122019E+03  0.42457157194E+03  0.10100000352E+00 0.  1.
       -3    1    3    3    0  502  0.11652642330E+03  0.11853601293E+03  0.44764467821E+03  0.47750912223E+03  0.10100000352E+00 0. -1.
</event>
<event>
 5   0  0.1596250E-04  0.9004131E+03  0.7818609E-02  0.9425065E-01
       -4   -1    0    0    0  501  0.00000000000E+00  0.00000000000E+00  0.53877787646E+03  0.53877937327E+03  0.12699999809E+01 0. -1.
        4   -1    0    0  501    0  0.00000000000E+00  0.00000000000E+00 -0.37619262740E+03  0.37619477111E+03  0.12699999809E+01 0.  1.
    10030    2    1    2    0    0  0.00000000000E+00  0.00000000000E+00  0.16258524906E+03  0.91497414438E+03  0.90041308390E+03 0.  0.
        1    1    3    3  502    0  0.32947471708E+03 -0.26351006613E+03  0.24097966069E+03  0.48586247132E+03  0.50400001928E-02 0. -1.
       -1    1    3    3    0  502 -0.32947471708E+03  0.26351006613E+03 -0.78394411624E+02  0.42911167305E+03  0.50400001928E-02 0.  1.
</event>
<event>
 5   0  0.4243516E-04  0.9002789E+03  0.7818609E-02  0.9425233E-01
       -2   -1    0    0    0  501  0.00000000000E+00  0.00000000000E+00  0.88901275151E+02  0.88901275188E+02  0.25500000920E-02 0.  1.
        2   -1    0    0  501    0  0.00000000000E+00  0.00000000000E+00 -0.22792193355E+04  0.22792193355E+04  0.25500000920E-02 0. -1.
    10030    2    1    2    0    0  0.00000000000E+00  0.00000000000E+00 -0.21903180604E+04  0.23681206107E+04  0.90027885752E+03 0.  0.
        1    1    3    3  502    0 -0.55604714717E+02 -0.43028430025E+03 -0.77962754184E+03  0.89221946144E+03  0.50400001928E-02 0.  1.
       -1    1    3    3    0  502  0.55604714717E+02  0.43028430025E+03 -0.14106905185E+04  0.14759011493E+04  0.50400001928E-02 0. -1.
</event>
<event>
 5   0  0.4110039E-04  0.9000514E+03  0.7818609E-02  0.9425517E-01
        2   -1    0    0  501    0  0.00000000000E+00  0.00000000000E+00  0.36964183664E+03  0.36964183665E+03  0.25500000920E-02 0. -1.
       -2   -1    0    0    0  501  0.00000000000E+00  0.00000000000E+00 -0.54789011844E+03  0.54789011845E+03  0.25500000920E-02 0.  1.
    10030    2    1    2    0    0  0.00000000000E+00  0.00000000000E+00 -0.17824828180E+03  0.91753195510E+03  0.90005135335E+03 0.  0.
        3    1    3    3  502    0 -0.29695406374E+03 -0.33173158132E+03 -0.22310849541E+02  0.44578620685E+03  0.10100000352E+00 0. -1.
       -3    1    3    3    0  502  0.29695406374E+03  0.33173158132E+03 -0.15593743226E+03  0.47174574825E+03  0.10100000352E+00 0.  1.
</event>
<event>
 5   0  0.4110039E-04  0.9000454E+03  0.7818609E-02  0.9425525E-01
       -2   -1    0    0    0  501  0.00000000000E+00  0.00000000000E+00  0.26021784039E+03  0.26021784040E+03  0.25500000920E-02 0.  1.
        2   -1    0    0  501    0  0.00000000000E+00  0.00000000000E+00 -0.77827269091E+03  0.77827269092E+03  0.25500000920E-02 0. -1.
    10030    2    1    2    0    0  0.00000000000E+00  0.00000000000E+00 -0.51805485052E+03  0.10384905313E+04  0.90004541857E+03 0.  0.
        3    1    3    3  502    0 -0.24515935906E+03 -0.20261803531E+03  0.10832116456E+03  0.33599206011E+03  0.10100000352E+00 0.  1.
       -3    1    3    3    0  502  0.24515935906E+03  0.20261803531E+03 -0.62637601509E+03  0.70249847120E+03  0.10100000352E+00 0. -1.
</event>
<event>
 5   0  0.2351435E-04  0.8997205E+03  0.7818609E-02  0.9425931E-01
       -1   -1    0    0    0  501  0.00000000000E+00  0.00000000000E+00  0.86270822751E+03  0.86270822753E+03  0.50400001928E-02 0.  1.
        1   -1    0    0  501    0  0.00000000000E+00  0.00000000000E+00 -0.23458018929E+03  0.23458018935E+03  0.50400001928E-02 0. -1.
    10030    2    1    2    0    0  0.00000000000E+00  0.00000000000E+00  0.62812803822E+03  0.10972884169E+04  0.89972053295E+03 0.  0.
        4    1    3    3  502    0  0.12696645324E+03  0.42104396877E+03  0.19853006284E+03  0.48250834463E+03  0.12699999809E+01 0. -1.
       -4    1    3    3    0  502 -0.12696645324E+03 -0.42104396877E+03  0.42959797538E+03  0.61478007225E+03  0.12699999809E+01 0.  1.
</event>
<event>
 5   0  0.4243516E-04  0.8999668E+03  0.7818609E-02  0.9425623E-01
       -2   -1    0    0    0  501  0.00000000000E+00  0.00000000000E+00  0.73924698542E+03  0.73924698543E+03  0.25500000920E-02 0. -1.
        2   -1    0    0  501    0  0.00000000000E+00  0.00000000000E+00 -0.27390717010E+03  0.27390717011E+03  0.25500000920E-02 0.  1.
    10030    2    1    2    0    0  0.00000000000E+00  0.00000000000E+00  0.46533981532E+03  0.10131541555E+04  0.89996677670E+03 0.  0.
        1    1    3    3  502    0  0.16365649517E+03 -0.10360427236E+03  0.68991450889E+03  0.71658867090E+03  0.50400001928E-02 0. -1.
       -1    1    3    3    0  502 -0.16365649517E+03  0.10360427236E+03 -0.22457469357E+03  0.29656548464E+03  0.50400001928E-02 0.  1.
</event>
<event>
 5   0  0.2332791E-04  0.9003728E+03  0.7818609E-02  0.9425116E-01
       -1   -1    0    0    0  501  0.00000000000E+00  0.00000000000E+00  0.39250588489E+03  0.39250588493E+03  0.50400001928E-02 0. -1.
        1   -1    0    0  501    0  0.00000000000E+00  0.00000000000E+00 -0.51634331805E+03  0.51634331807E+03  0.50400001928E-02 0.  1.
    10030    2    1    2    0    0  0.00000000000E+00  0.00000000000E+00 -0.12383743315E+03  0.90884920300E+03  0.90037279165E+03 0.  0.
        2    1    3    3  502    0 -0.12398560592E+03 -0.36772537784E+03 -0.29226301382E+03  0.48581071750E+03  0.25500000920E-02 0.  1.
       -2    1    3    3    0  502  0.12398560592E+03  0.36772537784E+03  0.16842558067E+03  0.42303848550E+03  0.25500000920E-02 0. -1.
</event>
<event>
 5   0  0.2308362E-04  0.9006989E+03  0.7818609E-02  0.9424708E-01
       -1   -1    0    0    0  501  0.00000000000E+00  0.00000000000E+00  0.39276926390E+03  0.39276926393E+03  0.50400001928E-02 0. -1.
        1   -1    0    0  501    0  0.00000000000E+00  0.00000000000E+00 -0.51637087960E+03  0.51637087962E+03  0.50400001928E-02 0.  1.
    10030    2    1    2    0    0  0.00000000000E+00  0.00000000000E+00 -0.12360161570E+03  0.90914014356E+03  0.90069886267E+03 0.  0.
        1    1    3    3  502    0  0.43451156279E+03 -0.11095634920E+03 -0.20146624150E+02  0.44890700163E+03  0.50400001928E-02 0. -1.
       -1    1    3    3    0  502 -0.43451156279E+03  0.11095634920E+03 -0.10345499155E+03  0.46023314192E+03  0.50400001928E-02 0.  1.
</event>
<event>
 5   0  0.2356918E-04  0.9001398E+03  0.7818609E-02  0.9425407E-01
        1   -1    0    0  501    0  0.00000000000E+00  0.00000000000E+00  0.77296273614E+03  0.77296273615E+03  0.50400001928E-02 0. -1.
       -1   -1    0    0    0  501  0.00000000000E+00  0.00000000000E+00 -0.26206036439E+03  0.26206036443E+03  0.50400001928E-02 0.  1.
    10030    2    1    2    0    0  0.00000000000E+00  0.00000000000E+00  0.51090237175E+03  0.10350231006E+04  0.90013975875E+03 0.  0.
        5    1    3    3  502    0 -0.27758754213E+03 -0.17526768346E+03 -0.98520991327E+02  0.34278576421E+03  0.46999998093E+01 0.  1.
       -5    1    3    3    0  502  0.27758754213E+03  0.17526768346E+03  0.60942336308E+03  0.69223733638E+03  0.46999998093E+01 0. -1.
</event>
<event>
 5   0  0.4236284E-04  0.8999701E+03  0.7818609E-02  0.9425619E-01
        2   -1    0    0  501    0  0.00000000000E+00  0.00000000000E+00  0.16901084455E+04  0.16901084455E+04  0.25500000920E-02 0. -1.
       -2   -1    0    0    0  501  0.00000000000E+00  0.00000000000E+00 -0.11980682559E+03  0.11980682562E+03  0.25500000920E-02 0.  1.
    10030    2    1    2    0    0  0.00000000000E+00  0.00000000000E+00  0.15703016199E+04  0.18099152711E+04  0.89997006124E+03 0.  0.
        2    1    3    3  502    0 -0.12328181479E+03 -0.18095603406E+03  0.15757473357E+04  0.15908875378E+04  0.25500000920E-02 0. -1.
       -2    1    3    3    0  502  0.12328181479E+03  0.18095603406E+03 -0.54457157763E+01  0.21902773328E+03  0.25500000920E-02 0.  1.
</event>
<event>
 5   0  0.4243516E-04  0.9005565E+03  0.7818609E-02  0.9424886E-01
        2   -1    0    0  501    0  0.00000000000E+00  0.00000000000E+00  0.39055900429E+03  0.39055900430E+03  0.25500000920E-02 0. -1.
       -2   -1    0    0    0  501  0.00000000000E+00  0.00000000000E+00 -0.51912902906E+03  0.51912902907E+03  0.25500000920E-02 0.  1.
    10030    2    1    2    0    0  0.00000000000E+00  0.00000000000E+00 -0.12857002477E+03  0.90968803336E+03  0.90055653169E+03 0.  0.
        1    1    3    3  502    0 -0.14583394383E+03  0.17759304809E+02 -0.49423876949E+03  0.51561118430E+03  0.50400001928E-02 0.  1.
       -1    1    3    3    0  502  0.14583394383E+03 -0.17759304809E+02  0.36566874472E+03  0.39407684906E+03  0.50400001928E-02 0. -1.
</event>
<event>
 5   0  0.3959804E-04  0.9000360E+03  0.7818609E-02  0.9425536E-01
       -2   -1    0    0    0  501  0.00000000000E+00  0.00000000000E+00  0.23100513207E+03  0.23100513209E+03  0.25500000920E-02 0. -1.
        2   -1    0    0  501    0  0.00000000000E+00  0.00000000000E+00 -0.87667400233E+03  0.87667400234E+03  0.25500000920E-02 0.  1.
    10030    2    1    2    0    0  0.00000000000E+00  0.00000000000E+00 -0.64566887026E+03  0.11076791344E+04  0.90003598529E+03 0.  0.
        5    1    3    3  502    0 -0.24520416493E+02 -0.77624547927E+02  0.22183756482E+03  0.23634892941E+03  0.46999998093E+01 0. -1.
       -5    1    3    3    0  502  0.24520416493E+02  0.77624547927E+02 -0.86750643509E+03  0.87133020502E+03  0.46999998093E+01 0.  1.
</event>
<event>
 5   0  0.2356918E-04  0.9001004E+03  0.7818609E-02  0.9425456E-01
        1   -1    0    0  501    0  0.00000000000E+00  0.00000000000E+00  0.85554101699E+03  0.85554101700E+03  0.50400001928E-02 0. -1.
       -1   -1    0    0    0  501  0.00000000000E+00  0.00000000000E+00 -0.23674515035E+03  0.23674515040E+03  0.50400001928E-02 0.  1.
    10030    2    1    2    0    0  0.00000000000E+00  0.00000000000E+00  0.61879586664E+03  0.10922861674E+04  0.90010040936E+03 0.  0.
        5    1    3    3  502    0  0.34455215991E+02  0.10811589492E+03  0.83786549542E+03  0.84552757912E+03  0.46999998093E+01 0. -1.
       -5    1    3    3    0  502 -0.34455215991E+02 -0.10811589492E+03 -0.21906962877E+03  0.24675858828E+03  0.46999998093E+01 0.  1.
</event>
<event>
 5   0  0.1596250E-04  0.9001614E+03  0.7818609E-02  0.9425380E-01
       -4   -1    0    0    0  501  0.00000000000E+00  0.00000000000E+00  0.60792340791E+03  0.60792473448E+03  0.12699999809E+01 0.  1.
        4   -1    0    0  501    0  0.00000000000E+00  0.00000000000E+00 -0.33321774526E+03  0.33322016544E+03  0.12699999809E+01 0. -1.
    10030    2    1    2    0    0  0.00000000000E+00  0.00000000000E+00  0.27470566265E+03  0.94114489992E+03  0.90016138639E+03 0.  0.
        1    1    3    3  502    0  0.30423152502E+03  0.21785138130E+03 -0.12414773314E+03  0.39424447342E+03  0.50400001928E-02 0. -1.
       -1    1    3    3    0  502 -0.30423152502E+03 -0.21785138130E+03  0.39885339579E+03  0.54690042650E+03  0.50400001928E-02 0.  1.
</event>
<event>
 5   0  0.4033144E-04  0.8999809E+03  0.7818609E-02  0.9425605E-01
        2   -1    0    0  501    0  0.00000000000E+00  0.00000000000E+00  0.98278102132E+03  0.98278102132E+03  0.25500000920E-02 0.  1.
       -2   -1    0    0    0  501  0.00000000000E+00  0.00000000000E+00 -0.20603920279E+03  0.20603920281E+03  0.25500000920E-02 0. -1.
    10030    2    1    2    0    0  0.00000000000E+00  0.00000000000E+00  0.77674181853E+03  0.11888202241E+04  0.89998092905E+03 0.  0.
        4    1    3    3  502    0 -0.30373405154E+03 -0.20932026549E+02  0.82607305096E+03  0.88039242513E+03  0.12699999809E+01 0.  1.
       -4    1    3    3    0  502  0.30373405154E+03  0.20932026549E+02 -0.49331232432E+02  0.30842779900E+03  0.12699999809E+01 0. -1.
</event>
<event>
 5   0  0.4243516E-04  0.8996311E+03  0.7818609E-02  0.9426043E-01
        2   -1    0    0  501    0  0.00000000000E+00  0.00000000000E+00  0.21014841456E+04  0.21014841456E+04  0.25500000920E-02 0. -1.
       -2   -1    0    0    0  501  0.00000000000E+00  0.00000000000E+00 -0.96281492773E+02  0.96281492807E+02  0.25500000920E-02 0.  1.
    10030    2    1    2    0    0  0.00000000000E+00  0.00000000000E+00  0.20052026528E+04  0.21977656384E+04  0.89963110354E+03 0.  0.
        1    1    3    3  502    0 -0.96982601236E+02  0.42779186728E+03  0.75925320697E+03  0.87685628182E+03  0.50400001928E-02 0.  1.
       -1    1    3    3    0  502  0.96982601236E+02 -0.42779186728E+03  0.12459494458E+04  0.13209093566E+04  0.50400001928E-02 0. -1.
</event>
<event>
 5   0  0.2351435E-04  0.9005428E+03  0.7818609E-02  0.9424903E-01
        1   -1    0    0  501    0  0.00000000000E+00  0.00000000000E+00  0.99331096890E+03  0.99331096891E+03  0.50400001928E-02 0. -1.
       -1   -1    0    0    0  501  0.00000000000E+00  0.00000000000E+00 -0.20410963988E+03  0.20410963994E+03  0.50400001928E-02 0.  1.
    10030    2    1    2    0    0  0.00000000000E+00  0.00000000000E+00  0.78920132902E+03  0.11974206089E+04  0.90054282340E+03 0.  0.
        4    1    3    3  502    0 -0.34309032691E+03  0.11371690384E+03  0.37565766465E+02  0.36339414738E+03  0.12699999809E+01 0.  1.
       -4    1    3    3    0  502  0.34309032691E+03 -0.11371690384E+03  0.75163556256E+03  0.83402646148E+03  0.12699999809E+01 0. -1.
</event>
<event>
 5   0  0.2356918E-04  0.8998337E+03  0.7818609E-02  0.9425789E-01
       -1   -1    0    0    0  501  0.00000000000E+00  0.00000000000E+00  0.45583697143E+03  0.45583697145E+03  0.50400001928E-02 0. -1.
        1   -1    0    0  501    0  0.00000000000E+00  0.00000000000E+00 -0.44407366049E+03  0.44407366052E+03  0.50400001928E-02 0.  1.
    10030    2    1    2    0    0  0.00000000000E+00  0.00000000000E+00  0.11763310939E+02  0.89991063197E+03  0.89983374578E+03 0.  0.
        5    1    3    3  502    0 -0.28500423148E+03  0.31940497192E+03 -0.13253593084E+03  0.44814597065E+03  0.46999998093E+01 0.  1.
       -5    1    3    3    0  502  0.28500423148E+03 -0.31940497192E+03  0.14429924178E+03  0.45176466132E+03  0.46999998093E+01 0. -1.
</event>
<event>
 5   0  0.3959804E-04  0.9010585E+03  0.7818609E-02  0.9424259E-01
       -2   -1    0    0    0  501  0.00000000000E+00  0.00000000000E+00  0.16697845936E+03  0.16697845938E+03  0.25500000920E-02 0. -1.
        2   -1    0    0  501    0  0.00000000000E+00  0.00000000000E+00 -0.12155856511E+04  0.12155856511E+04  0.25500000920E-02 0.  1.
    10030    2    1    2    0    0  0.00000000000E+00  0.00000000000E+00 -0.10486071918E+04  0.13825641105E+04  0.90105853141E+03 0.  0.
        5    1    3    3  502    0 -0.41952637611E+03  0.14773744594E+03 -0.63415685293E+03  0.77460037265E+03  0.46999998093E+01 0.  1.
       -5    1    3    3    0  502  0.41952637611E+03 -0.14773744594E+03 -0.41445033882E+03  0.60796373784E+03  0.46999998093E+01 0. -1.
</event>
<event>
 5   0  0.3959804E-04  0.9001381E+03  0.7818609E-02  0.9425409E-01
        2   -1    0    0  501    0  0.00000000000E+00  0.00000000000E+00  0.11126582516E+04  0.11126582516E+04  0.25500000920E-02 0.  1.
       -2   -1    0    0    0  501  0.00000000000E+00  0.00000000000E+00 -0.18205245758E+03  0.18205245760E+03  0.25500000920E-02 0. -1.
    10030    2    1    2    0    0  0.00000000000E+00  0.00000000000E+00  0.93060579403E+03  0.12947107092E+04  0.90013814309E+03 0.  0.
        5    1    3    3  502    0 -0.30646895786E+02  0.20836886813E+03  0.10373658694E+04  0.10585399635E+04  0.46999998093E+01 0.  1.
       -5    1    3    3    0  502  0.30646895786E+02 -0.20836886813E+03 -0.10676007535E+03  0.23617074568E+03  0.46999998093E+01 0. -1.
</event>
<event>
 5   0  0.3959804E-04  0.8998198E+03  0.7818609E-02  0.9425807E-01
       -2   -1    0    0    0  501  0.00000000000E+00  0.00000000000E+00  0.45070695099E+03  0.45070695100E+03  0.25500000920E-02 0. -1.
        2   -1    0    0  501    0  0.00000000000E+00  0.00000000000E+00 -0.44911427514E+03  0.44911427514E+03  0.25500000920E-02 0.  1.
    10030    2    1    2    0    0  0.00000000000E+00  0.00000000000E+00  0.15926758531E+01  0.89982122614E+03  0.89981981663E+03 0.  0.
        5    1    3    3  502    0 -0.36675440611E+03 -0.31992353317E+02 -0.25778583471E+03  0.44945292484E+03  0.46999998093E+01 0.  1.
       -5    1    3    3    0  502  0.36675440611E+03  0.31992353317E+02  0.25937851057E+03  0.45036830130E+03  0.46999998093E+01 0. -1.
</event>
<event>
 5   0  0.4033144E-04  0.9000514E+03  0.7818609E-02  0.9425517E-01
       -2   -1    0    0    0  501  0.00000000000E+00  0.00000000000E+00  0.43240901706E+03  0.43240901707E+03  0.25500000920E-02 0. -1.
        2   -1    0    0  501    0  0.00000000000E+00  0.00000000000E+00 -0.46836011205E+03  0.46836011206E+03  0.25500000920E-02 0.  1.
    10030    2    1    2    0    0  0.00000000000E+00  0.00000000000E+00 -0.35951094990E+02  0.90076912913E+03  0.90005141118E+03 0.  0.
        4    1    3    3  502    0 -0.36831249523E+03  0.25853725743E+03 -0.12880793629E+02  0.45018122503E+03  0.12699999809E+01 0. -1.
       -4    1    3    3    0  502  0.36831249523E+03 -0.25853725743E+03 -0.23070301362E+02  0.45058790411E+03  0.12699999809E+01 0.  1.
</event>
<event>
 5   0  0.4033144E-04  0.9000232E+03  0.7818609E-02  0.9425552E-01
        2   -1    0    0  501    0  0.00000000000E+00  0.00000000000E+00  0.39103098113E+03  0.39103098113E+03  0.25500000920E-02 0.  1.
       -2   -1    0    0    0  501  0.00000000000E+00  0.00000000000E+00 -0.51788844383E+03  0.51788844383E+03  0.25500000920E-02 0. -1.
    10030    2    1    2    0    0  0.00000000000E+00  0.00000000000E+00 -0.12685746270E+03  0.90891942497E+03  0.90002316928E+03 0.  0.
        4    1    3    3  502    0  0.44446006863E+03 -0.69670101327E+02 -0.74027120430E+02  0.45593892473E+03  0.12699999809E+01 0. -1.
       -4    1    3    3    0  502 -0.44446006863E+03  0.69670101327E+02 -0.52830342270E+02  0.45298050023E+03  0.12699999809E+01 0.  1.
</event>
<event>
 5   0  0.2356918E-04  0.9004252E+03  0.7818609E-02  0.9425050E-01
       -1   -1    0    0    0  501  0.00000000000E+00  0.00000000000E+00  0.16198729600E+03  0.16198729608E+03  0.50400001928E-02 0. -1.
        1   -1    0    0  501    0  0.00000000000E+00  0.00000000000E+00 -0.12512795601E+04  0.12512795601E+04  0.50400001928E-02 0.  1.
    10030    2    1    2    0    0  0.00000000000E+00  0.00000000000E+00 -0.10892922641E+04  0.14132668562E+04  0.90042521633E+03 0.  0.
        5    1    3    3  502    0 -0.11000530465E+03 -0.43597897841E+03 -0.50988603910E+03  0.67984167240E+03  0.46999998093E+01 0. -1.
       -5    1    3    3    0  502  0.11000530465E+03  0.43597897841E+03 -0.57940622502E+03  0.73342518381E+03  0.46999998093E+01 0.  1.
</event>
<event>
 5   0  0.4110039E-04  0.9020662E+03  0.7818609E-02  0.9423002E-01
        2   -1    0    0  501    0  0.00000000000E+00  0.00000000000E+00  0.29305715360E+03  0.29305715361E+03  0.25500000920E-02 0. -1.
       -2   -1    0    0    0  501  0.00000000000E+00  0.00000000000E+00 -0.69416792915E+03  0.69416792915E+03  0.25500000920E-02 0.  1.
    10030    2    1    2    0    0  0.00000000000E+00  0.00000000000E+00 -0.40111077555E+03  0.98722508276E+03  0.90206624466E+03 0.  0.
        3    1    3    3  502    0  0.33189397689E+03 -0.26764469849E+03 -0.39549334250E+02  0.42819558214E+03  0.10100000352E+00 0.  1.
       -3    1    3    3    0  502 -0.33189397689E+03  0.26764469849E+03 -0.36156144130E+03  0.55902950062E+03  0.10100000352E+00 0. -1.
</event>
<event>
 5   0  0.4033144E-04  0.8999051E+03  0.7818609E-02  0.9425700E-01
        2   -1    0    0  501    0  0.00000000000E+00  0.00000000000E+00  0.32036678864E+03  0.32036678865E+03  0.25500000920E-02 0.  1.
       -2   -1    0    0    0  501  0.00000000000E+00  0.00000000000E+00 -0.63195473558E+03  0.63195473558E+03  0.25500000920E-02 0. -1.
    10030    2    1    2    0    0  0.00000000000E+00  0.00000000000E+00 -0.31158794693E+03  0.95232152424E+03  0.89990512658E+03 0.  0.
        4    1    3    3  502    0  0.22577043620E+03  0.16166126820E+03  0.21887469933E+03  0.35357375808E+03  0.12699999809E+01 0.  1.
       -4    1    3    3    0  502 -0.22577043620E+03 -0.16166126820E+03 -0.53046264626E+03  0.59874776616E+03  0.12699999809E+01 0. -1.
</event>
<event>
 5   0  0.2308362E-04  0.9000233E+03  0.7818609E-02  0.9425552E-01
        1   -1    0    0  501    0  0.00000000000E+00  0.00000000000E+00  0.94419538004E+03  0.94419538005E+03  0.50400001928E-02 0.  1.
       -1   -1    0    0    0  501  0.00000000000E+00  0.00000000000E+00 -0.21447942649E+03  0.21447942655E+03  0.50400001928E-02 0. -1.
    10030    2    1    2    0    0  0.00000000000E+00  0.00000000000E+00  0.72971595355E+03  0.11586748066E+04  0.90002329670E+03 0.  0.
        1    1    3    3  502    0  0.14151149086E+03  0.40656388684E+03  0.53365146913E+03  0.68564100421E+03  0.50400001928E-02 0.  1.
       -1    1    3    3    0  502 -0.14151149086E+03 -0.40656388684E+03  0.19606448442E+03  0.47303380239E+03  0.50400001928E-02 0. -1.
</event>
<event>
 5   0  0.3959804E-04  0.9000026E+03  0.7818609E-02  0.9425578E-01
       -2   -1    0    0    0  501  0.00000000000E+00  0.00000000000E+00  0.23370477243E+03  0.23370477244E+03  0.25500000920E-02 0. -1.
        2   -1    0    0  501    0  0.00000000000E+00  0.00000000000E+00 -0.86648279691E+03  0.86648279691E+03  0.25500000920E-02 0.  1.
    10030    2    1    2    0    0  0.00000000000E+00  0.00000000000E+00 -0.63277802448E+03  0.11001875694E+04  0.90000258860E+03 0.  0.
        5    1    3    3  502    0  0.20457684356E+03  0.25676675522E+03 -0.69256744329E+03  0.76645456813E+03  0.46999998093E+01 0.  1.
       -5    1    3    3    0  502 -0.20457684356E+03 -0.25676675522E+03  0.59789418805E+02  0.33373300122E+03  0.46999998093E+01 0. -1.
</event>
<event>
 5   0  0.4236284E-04  0.9004893E+03  0.7818609E-02  0.9424970E-01
        2   -1    0    0  501    0  0.00000000000E+00  0.00000000000E+00  0.96649763952E+03  0.96649763952E+03  0.25500000920E-02 0.  1.
       -2   -1    0    0    0  501  0.00000000000E+00  0.00000000000E+00 -0.20974727060E+03  0.20974727061E+03  0.25500000920E-02 0. -1.
    10030    2    1    2    0    0  0.00000000000E+00  0.00000000000E+00  0.75675036892E+03  0.11762449101E+04  0.90048929352E+03 0.  0.
        2    1    3    3  502    0 -0.42164254900E+03 -0.13089797038E+03  0.26298613572E+03  0.51388561505E+03  0.25500000920E-02 0. -1.
       -2    1    3    3    0  502  0.42164254900E+03  0.13089797038E+03  0.49376423320E+03  0.66235929508E+03  0.25500000920E-02 0.  1.
</event>
<event>
 5   0  0.2308362E-04  0.8998682E+03  0.7818609E-02  0.9425746E-01
        1   -1    0    0  501    0  0.00000000000E+00  0.00000000000E+00  0.16828104344E+03  0.16828104351E+03  0.50400001928E-02 0.  1.
       -1   -1    0    0    0  501  0.00000000000E+00  0.00000000000E+00 -0.12029915483E+04  0.12029915483E+04  0.50400001928E-02 0. -1.
    10030    2    1    2    0    0  0.00000000000E+00  0.00000000000E+00 -0.10347105049E+04  0.13712725918E+04  0.89986815268E+03 0.  0.
        1    1    3    3  502    0 -0.13344660129E+03 -0.10573144223E+03  0.11729798141E+03  0.20675093649E+03  0.50400001928E-02 0.  1.
       -1    1    3    3    0  502  0.13344660129E+03  0.10573144223E+03 -0.11520084863E+04  0.11645216553E+04  0.50400001928E-02 0. -1.
</event>
<event>
 5   0  0.3959804E-04  0.8995535E+03  0.7818609E-02  0.9426140E-01
       -2   -1    0    0    0  501  0.00000000000E+00  0.00000000000E+00  0.26881561316E+03  0.26881561317E+03  0.25500000920E-02 0.  1.
        2   -1    0    0  501    0  0.00000000000E+00  0.00000000000E+00 -0.75255718761E+03  0.75255718761E+03  0.25500000920E-02 0. -1.
    10030    2    1    2    0    0  0.00000000000E+00  0.00000000000E+00 -0.48374157445E+03  0.10213728008E+04  0.89955349331E+03 0.  0.
        5    1    3    3  502    0 -0.96225173383E+02  0.22189168649E+03  0.18866503605E+03  0.30677645012E+03  0.46999998093E+01 0.  1.
       -5    1    3    3    0  502  0.96225173383E+02 -0.22189168649E+03 -0.67240661050E+03  0.71459635066E+03  0.46999998093E+01 0. -1.
</event>
<event>
 5   0  0.1596250E-04  0.8999060E+03  0.7818609E-02  0.9425699E-01
       -4   -1    0    0    0  501  0.00000000000E+00  0.00000000000E+00  0.65050205608E+03  0.65050329581E+03  0.12699999809E+01 0. -1.
        4   -1    0    0  501    0  0.00000000000E+00  0.00000000000E+00 -0.31123018909E+03  0.31123278025E+03  0.12699999809E+01 0.  1.
    10030    2    1    2    0    0  0.00000000000E+00  0.00000000000E+00  0.33927186698E+03  0.96173607606E+03  0.89990603969E+03 0.  0.
        2    1    3    3  502    0 -0.91231799407E+02  0.28418321743E+03  0.52948153540E+03  0.60781085761E+03  0.25500000920E-02 0. -1.
       -2    1    3    3    0  502  0.91231799407E+02 -0.28418321743E+03 -0.19020966842E+03  0.35392521845E+03  0.25500000920E-02 0.  1.
</event>
<event>
 5   0  0.4110039E-04  0.9002232E+03  0.7818609E-02  0.9425302E-01
       -2   -1    0    0    0  501  0.00000000000E+00  0.00000000000E+00  0.18040369829E+03  0.18040369831E+03  0.25500000920E-02 0.  1.
        2   -1    0    0  501    0  0.00000000000E+00  0.00000000000E+00 -0.11230393179E+04  0.11230393179E+04  0.25500000920E-02 0. -1.
    10030    2    1    2    0    0  0.00000000000E+00  0.00000000000E+00 -0.94263561957E+03  0.13034430162E+04  0.90022318628E+03 0.  0.
        3    1    3    3  502    0  0.28970751614E+03 -0.10170786220E+03  0.52308033579E+01  0.30708680474E+03  0.10100000352E+00 0.  1.
       -3    1    3    3    0  502 -0.28970751614E+03  0.10170786220E+03 -0.94786642293E+03  0.99635621143E+03  0.10100000352E+00 0. -1.
</event>
<event>
 5   0  0.2332791E-04  0.9000968E+03  0.7818609E-02  0.9425460E-01
       -1   -1    0    0    0  501  0.00000000000E+00  0.00000000000E+00  0.29930408125E+03  0.29930408129E+03  0.50400001928E-02 0. -1.
        1   -1    0    0  501    0  0.00000000000E+00  0.00000000000E+00 -0.67671496274E+03  0.67671496276E+03  0.50400001928E-02 0.  1.
    10030    2    1    2    0    0  0.00000000000E+00  0.00000000000E+00 -0.37741088149E+03  0.97601904405E+03  0.90009677306E+03 0.  0.
        2    1    3    3  502    0 -0.14702225412E+02  0.12438723224E+03  0.28002341927E+03  0.30675960347E+03  0.25500000920E-02 0. -1.
       -2    1    3    3    0  502  0.14702225412E+02 -0.12438723224E+03 -0.65743430076E+03  0.66925944058E+03  0.25500000920E-02 0.  1.
</event>
<event>
 5   0  0.2356918E-04  0.8992613E+03  0.7818609E-02  0.9426505E-01
       -1   -1    0    0    0  501  0.00000000000E+00  0.00000000000E+00  0.15560253836E+03  0.15560253844E+03  0.50400001928E-02 0. -1.
        1   -1    0    0  501    0  0.00000000000E+00  0.00000000000E+00 -0.12992572716E+04  0.12992572716E+04  0.50400001928E-02 0.  1.
    10030    2    1    2    0    0  0.00000000000E+00  0.00000000000E+00 -0.11436547333E+04  0.14548598101E+04  0.89926131800E+03 0.  0.
        5    1    3    3  502    0  0.22048325261E+03  0.24094252266E+03 -0.71919182357E+02  0.33445571111E+03  0.46999998093E+01 0. -1.
       -5    1    3    3    0  502 -0.22048325261E+03 -0.24094252266E+03 -0.10717355509E+04  0.11204040990E+04  0.46999998093E+01 0.  1.
</event>
<event>
 5   0  0.4236284E-04  0.8991120E+03  0.7818609E-02  0.9426692E-01
        2   -1    0    0  501    0  0.00000000000E+00  0.00000000000E+00  0.64997914024E+03  0.64997914025E+03  0.25500000920E-02 0. -1.
       -2   -1    0    0    0  501  0.00000000000E+00  0.00000000000E+00 -0.31093398606E+03  0.31093398608E+03  0.25500000920E-02 0.  1.
    10030    2    1    2    0    0  0.00000000000E+00  0.00000000000E+00  0.33904515418E+03  0.96091312632E+03  0.89911201736E+03 0.  0.
        2    1    3    3  502    0 -0.14827322553E+03  0.31181062474E+03  0.47721786314E+03  0.58902266850E+03  0.25500000920E-02 0. -1.
       -2    1    3    3    0  502  0.14827322553E+03 -0.31181062474E+03 -0.13817270896E+03  0.37189045782E+03  0.25500000920E-02 0.  1.
</event>
<event>
 5   0  0.4243516E-04  0.9016434E+03  0.7818609E-02  0.9423529E-01
       -2   -1    0    0    0  501  0.00000000000E+00  0.00000000000E+00  0.13707663981E+03  0.13707663983E+03  0.25500000920E-02 0.  1.
        2   -1    0    0  501    0  0.00000000000E+00  0.00000000000E+00 -0.14826756007E+04  0.14826756007E+04  0.25500000920E-02 0. -1.
    10030    2    1    2    0    0  0.00000000000E+00  0.00000000000E+00 -0.13455989609E+04  0.16197522405E+04  0.90164336473E+03 0.  0.
        1    1    3    3  502    0 -0.43550651319E+03 -0.95574964726E+02 -0.55310055914E+03  0.71043699612E+03  0.50400001928E-02 0.  1.
       -1    1    3    3    0  502  0.43550651319E+03  0.95574964726E+02 -0.79249840177E+03  0.90931524443E+03  0.50400001928E-02 0. -1.
</event>
<event>
 5   0  0.2332791E-04  0.8999938E+03  0.7818609E-02  0.9425589E-01
       -1   -1    0    0    0  501  0.00000000000E+00  0.00000000000E+00  0.26505036698E+03  0.26505036702E+03  0.50400001928E-02 0.  1.
        1   -1    0    0  501    0  0.00000000000E+00  0.00000000000E+00 -0.76399515304E+03  0.76399515305E+03  0.50400001928E-02 0. -1.
    10030    2    1    2    0    0  0.00000000000E+00  0.00000000000E+00 -0.49894478606E+03  0.10290455201E+04  0.89999376823E+03 0.  0.
        2    1    3    3  502    0  0.69372180090E+02 -0.14054212320E+03  0.23283381958E+03  0.28067093777E+03  0.25500000920E-02 0.  1.
       -2    1    3    3    0  502 -0.69372180090E+02  0.14054212320E+03 -0.73177860564E+03  0.74837458231E+03  0.25500000920E-02 0. -1.
</event>
<event>
 5   0  0.2450427E-04  0.8996626E+03  0.7818609E-02  0.9426003E-01
       -1   -1    0    0    0  501  0.00000000000E+00  0.00000000000E+00  0.60645629493E+03  0.60645629495E+03  0.50400001928E-02 0.  1.
        1   -1    0    0  501    0  0.00000000000E+00  0.00000000000E+00 -0.33365667155E+03  0.33365667159E+03  0.50400001928E-02 0. -1.
    10030    2    1    2    0    0  0.00000000000E+00  0.00000000000E+00  0.27279962337E+03  0.94011296654E+03  0.89966257860E+03 0.  0.
        3    1    3    3  502    0  0.41746366427E+03 -0.10113228718E+03  0.27598936598E+03  0.51056223013E+03  0.10100000352E+00 0. -1.
       -3    1    3    3    0  502 -0.41746366427E+03  0.10113228718E+03 -0.31897426091E+01  0.42955073641E+03  0.10100000352E+00 0.  1.
</event>
<event>
 5   0  0.4236284E-04  0.8998939E+03  0.7818609E-02  0.9425714E-01
       -2   -1    0    0    0  501  0.00000000000E+00  0.00000000000E+00  0.22817667767E+03  0.22817667769E+03  0.25500000920E-02 0.  1.
        2   -1    0    0  501    0  0.00000000000E+00  0.00000000000E+00 -0.88726093340E+03  0.88726093340E+03  0.25500000920E-02 0. -1.
    10030    2    1    2    0    0  0.00000000000E+00  0.00000000000E+00 -0.65908425573E+03  0.11154376111E+04  0.89989388713E+03 0.  0.
        2    1    3    3  502    0  0.27711444319E+03 -0.35407366082E+03 -0.35071147122E+03  0.57022724239E+03  0.25500000920E-02 0.  1.
       -2    1    3    3    0  502 -0.27711444319E+03  0.35407366082E+03 -0.30837278450E+03  0.54521036870E+03  0.25500000920E-02 0. -1.
</event>
<event>
 5   0  0.2308362E-04  0.8996613E+03  0.7818609E-02  0.9426005E-01
        1   -1    0    0  501    0  0.00000000000E+00  0.00000000000E+00  0.36779389912E+03  0.36779389916E+03  0.50400001928E-02 0.  1.
       -1   -1    0    0    0  501  0.00000000000E+00  0.00000000000E+00 -0.55016581950E+03  0.55016581952E+03  0.50400001928E-02 0. -1.
    10030    2    1    2    0    0  0.00000000000E+00  0.00000000000E+00 -0.18237192038E+03  0.91795971868E+03  0.89966134061E+03 0.  0.
        1    1    3    3  502    0  0.16627930212E+03  0.11288613281E+03 -0.50180821033E+03  0.54055856784E+03  0.50400001928E-02 0. -1.
       -1    1    3    3    0  502 -0.16627930212E+03 -0.11288613281E+03  0.31943628995E+03  0.37740115084E+03  0.50400001928E-02 0.  1.
</event>
<event>
 5   0  0.2308362E-04  0.9006416E+03  0.7818609E-02  0.9424780E-01
        1   -1    0    0  501    0  0.00000000000E+00  0.00000000000E+00  0.50893454349E+03  0.50893454351E+03  0.50400001928E-02 0. -1.
       -1   -1    0    0    0  501  0.00000000000E+00  0.00000000000E+00 -0.39845755133E+03  0.39845755137E+03  0.50400001928E-02 0.  1.
    10030    2    1    2    0    0  0.00000000000E+00  0.00000000000E+00  0.11047699215E+03  0.90739209488E+03  0.90064157580E+03 0.  0.
        1    1    3    3  502    0  0.31852734887E+03 -0.30175789815E+03  0.15734559521E+03  0.46612781233E+03  0.50400001928E-02 0. -1.
       -1    1    3    3    0  502 -0.31852734887E+03  0.30175789815E+03 -0.46868603060E+02  0.44126428255E+03  0.50400001928E-02 0.  1.
</event>
<event>
 5   0  0.2332791E-04  0.9001758E+03  0.7818609E-02  0.9425362E-01
        1   -1    0    0  501    0  0.00000000000E+00  0.00000000000E+00  0.17544748086E+03  0.17544748093E+03  0.50400001928E-02 0.  1.
       -1   -1    0    0    0  501  0.00000000000E+00  0.00000000000E+00 -0.11546425511E+04  0.11546425511E+04  0.50400001928E-02 0. -1.
    10030    2    1    2    0    0  0.00000000000E+00  0.00000000000E+00 -0.97919507025E+03  0.13300900321E+04  0.90017582047E+03 0.  0.
        2    1    3    3  502    0  0.83917409003E+02 -0.39831587835E+03 -0.20583325438E+03  0.45614142444E+03  0.25500000920E-02 0.  1.
       -2    1    3    3    0  502 -0.83917409003E+02  0.39831587835E+03 -0.77336181587E+03  0.87394860761E+03  0.25500000920E-02 0. -1.
</event>
<event>
 5   0  0.4033144E-04  0.8995336E+03  0.7818609E-02  0.9426165E-01
       -2   -1    0    0    0  501  0.00000000000E+00  0.00000000000E+00  0.12187489983E+03  0.12187489986E+03  0.25500000920E-02 0. -1.
        2   -1    0    0  501    0  0.00000000000E+00  0.00000000000E+00 -0.16598182559E+04  0.16598182559E+04  0.25500000920E-02 0.  1.
    10030    2    1    2    0    0  0.00000000000E+00  0.00000000000E+00 -0.15379433561E+04  0.17816931558E+04  0.89953362072E+03 0.  0.
        4    1    3    3  502    0  0.31866217147E+03  0.28392048185E+03 -0.10500068035E+04  0.11334338621E+04  0.12699999809E+01 0.  1.
       -4    1    3    3    0  502 -0.31866217147E+03 -0.28392048185E+03 -0.48793655259E+03  0.64825929364E+03  0.12699999809E+01 0. -1.
</event>
<event>
 5   0  0.1596250E-04  0.8995249E+03  0.7818609E-02  0.9426176E-01
        4   -1    0    0  501    0  0.00000000000E+00  0.00000000000E+00  0.35284097964E+03  0.35284326522E+03  0.12699999809E+01 0. -1.
       -4   -1    0    0    0  501  0.00000000000E+00  0.00000000000E+00 -0.57330228990E+03  0.57330369657E+03  0.12699999809E+01 0.  1.
    10030    2    1    2    0    0  0.00000000000E+00  0.00000000000E+00 -0.22046131026E+03  0.92614696179E+03  0.89952487765E+03 0.  0.
        4    1    3    3  502    0 -0.33239769376E+03 -0.26416254427E+03 -0.26299491165E+03  0.49943769688E+03  0.12699999809E+01 0.  1.
       -4    1    3    3    0  502  0.33239769376E+03  0.26416254427E+03  0.42533601390E+02  0.42670926491E+03  0.12699999809E+01 0. -1.
</event>
<event>
 5   0  0.4033144E-04  0.9007631E+03  0.7818609E-02  0.9424628E-01
       -2   -1    0    0    0  501  0.00000000000E+00  0.00000000000E+00  0.11815031014E+03  0.11815031016E+03  0.25500000920E-02 0.  1.
        2   -1    0    0  501    0  0.00000000000E+00  0.00000000000E+00 -0.17168261701E+04  0.17168261701E+04  0.25500000920E-02 0. -1.
    10030    2    1    2    0    0  0.00000000000E+00  0.00000000000E+00 -0.15986758600E+04  0.18349764803E+04  0.90076310865E+03 0.  0.
        4    1    3    3  502    0  0.18747575776E+03  0.40890154045E+03 -0.75404649163E+03  0.87802924437E+03  0.12699999809E+01 0.  1.
       -4    1    3    3    0  502 -0.18747575776E+03 -0.40890154045E+03 -0.84462936833E+03  0.95694723589E+03  0.12699999809E+01 0. -1.
</event>
<event>
 5   0  0.4243516E-04  0.9002408E+03  0.7818609E-02  0.9425280E-01
        2   -1    0    0  501    0  0.00000000000E+00  0.00000000000E+00  0.68756990896E+03  0.68756990897E+03  0.25500000920E-02 0. -1.
       -2   -1    0    0    0  501  0.00000000000E+00  0.00000000000E+00 -0.29467315631E+03  0.29467315632E+03  0.25500000920E-02 0.  1.
    10030    2    1    2    0    0  0.00000000000E+00  0.00000000000E+00  0.39289675265E+03  0.98224306529E+03  0.90024084614E+03 0.  0.
        1    1    3    3  502    0  0.62091731048E+02  0.44521917568E+03  0.22163571101E+03  0.50119645438E+03  0.50400001928E-02 0.  1.
       -1    1    3    3    0  502 -0.62091731048E+02 -0.44521917568E+03  0.17126104164E+03  0.48104661091E+03  0.50400001928E-02 0. -1.
</event>
<event>
 5   0  0.1596250E-04  0.9000842E+03  0.7818609E-02  0.9425476E-01
        4   -1    0    0  501    0  0.00000000000E+00  0.00000000000E+00  0.23453447453E+03  0.23453791302E+03  0.12699999809E+01 0.  1.
       -4   -1    0    0    0  501  0.00000000000E+00  0.00000000000E+00 -0.86356385910E+03  0.86356479296E+03  0.12699999809E+01 0. -1.
    10030    2    1    2    0    0  0.00000000000E+00  0.00000000000E+00 -0.62902938457E+03  0.10981027060E+04  0.90008421064E+03 0.  0.
        2    1    3    3  502    0 -0.17184118430E+03 -0.15938742006E+02 -0.82159232381E+03  0.83952211565E+03  0.25500000920E-02 0. -1.
       -2    1    3    3    0  502  0.17184118430E+03  0.15938742006E+02  0.19256293925E+03  0.25858059033E+03  0.25500000920E-02 0.  1.
</event>
<event>
 5   0  0.4110039E-04  0.8994004E+03  0.7818609E-02  0.9426331E-01
        2   -1    0    0  501    0  0.00000000000E+00  0.00000000000E+00  0.10040833558E+04  0.10040833558E+04  0.25500000920E-02 0. -1.
       -2   -1    0    0    0  501  0.00000000000E+00  0.00000000000E+00 -0.20140783874E+03  0.20140783875E+03  0.25500000920E-02 0.  1.
    10030    2    1    2    0    0  0.00000000000E+00  0.00000000000E+00  0.80267551707E+03  0.12054911946E+04  0.89940037495E+03 0.  0.
        3    1    3    3  502    0 -0.43079714575E+02 -0.90170555869E+02  0.98901245050E+03  0.99404840345E+03  0.10100000352E+00 0. -1.
       -3    1    3    3    0  502  0.43079714575E+02  0.90170555869E+02 -0.18633693343E+03  0.21144279111E+03  0.10100000352E+00 0.  1.
</event>
<event>
 5   0  0.4033144E-04  0.9000651E+03  0.7818609E-02  0.9425500E-01
       -2   -1    0    0    0  501  0.00000000000E+00  0.00000000000E+00  0.87145115768E+02  0.87145115806E+02  0.25500000920E-02 0. -1.
        2   -1    0    0  501    0  0.00000000000E+00  0.00000000000E+00 -0.23240463474E+04  0.23240463474E+04  0.25500000920E-02 0.  1.
    10030    2    1    2    0    0  0.00000000000E+00  0.00000000000E+00 -0.22369012316E+04  0.24111914632E+04  0.90006508219E+03 0.  0.
        4    1    3    3  502    0 -0.21805277398E+02 -0.26431761879E+03 -0.14446070328E+03  0.30200957173E+03  0.12699999809E+01 0. -1.
       -4    1    3    3    0  502  0.21805277398E+02  0.26431761879E+03 -0.20924405284E+04  0.21091818915E+04  0.12699999809E+01 0.  1.
</event>
<event>
 5   0  0.2450427E-04  0.9005053E+03  0.7818609E-02  0.9424950E-01
        1   -1    0    0  501    0  0.00000000000E+00  0.00000000000E+00  0.82173040474E+03  0.82173040476E+03  0.50400001928E-02 0.  1.
       -1   -1    0    0    0  501  0.00000000000E+00  0.00000000000E+00 -0.24670800664E+03  0.24670800669E+03  0.50400001928E-02 0. -1.
    10030    2    1    2    0    0  0.00000000000E+00  0.00000000000E+00  0.57502239810E+03  0.10684384115E+04  0.90050534743E+03 0.  0.
        3    1    3    3  502    0  0.54582224051E+02 -0.22241729167E+03 -0.17244030193E+03  0.28667810999E+03  0.10100000352E+00 0. -1.
       -3    1    3    3    0  502 -0.54582224051E+02  0.22241729167E+03  0.74746270003E+03  0.78176030147E+03  0.10100000352E+00 0.  1.
</event>
<event>
 5   0  0.2332791E-04  0.9008859E+03  0.7818609E-02  0.9424475E-01
        1   -1    0    0  501    0  0.00000000000E+00  0.00000000000E+00  0.80524978493E+03  0.80524978495E+03  0.50400001928E-02 0. -1.
       -1   -1    0    0    0  501  0.00000000000E+00  0.00000000000E+00 -0.25197007621E+03  0.25197007626E+03  0.50400001928E-02 0.  1.
    10030    2    1    2    0    0  0.00000000000E+00  0.00000000000E+00  0.55327970873E+03  0.10572198612E+04  0.90088589669E+03 0.  0.
        2    1    3    3  502    0 -0.12057102458E+02 -0.22435202330E+02 -0.25112435889E+03  0.25241266937E+03  0.25500000920E-02 0.  1.
       -2    1    3    3    0  502  0.12057102458E+02  0.22435202330E+02  0.80440406762E+03  0.80480719184E+03  0.25500000920E-02 0. -1.
</event>
<event>
 5   0  0.2450427E-04  0.9004250E+03  0.7818609E-02  0.9425050E-01
       -1   -1    0    0    0  501  0.00000000000E+00  0.00000000000E+00  0.39136820077E+03  0.39136820080E+03  0.50400001928E-02 0.  1.
        1   -1    0    0  501    0  0.00000000000E+00  0.00000000000E+00 -0.51790433719E+03  0.51790433721E+03  0.50400001928E-02 0. -1.
    10030    2    1    2    0    0  0.00000000000E+00  0.00000000000E+00 -0.12653613642E+03  0.90927253802E+03  0.90042498553E+03 0.  0.
        3    1    3    3  502    0  0.18528657014E+03  0.37525611394E+03  0.10432354099E+03  0.43131389443E+03  0.10100000352E+00 0.  1.
       -3    1    3    3    0  502 -0.18528657014E+03 -0.37525611394E+03 -0.23085967741E+03  0.47795864358E+03  0.10100000352E+00 0. -1.
</event>
<event>
 5   0  0.4033144E-04  0.8992700E+03  0.7818609E-02  0.9426494E-01
       -2   -1    0    0    0  501  0.00000000000E+00  0.00000000000E+00  0.39177212001E+03  0.39177212002E+03  0.25500000920E-02 0. -1.
        2   -1    0    0  501    0  0.00000000000E+00  0.00000000000E+00 -0.51604393963E+03  0.51604393963E+03  0.25500000920E-02 0.  1.
    10030    2    1    2    0    0  0.00000000000E+00  0.00000000000E+00 -0.12427181962E+03  0.90781605965E+03  0.89926998894E+03 0.  0.
        4    1    3    3  502    0  0.89397850415E+02 -0.22986678257E+03 -0.44165989905E+03  0.50586143628E+03  0.12699999809E+01 0.  1.
       -4    1    3    3    0  502 -0.89397850415E+02  0.22986678257E+03  0.31738807943E+03  0.40195462337E+03  0.12699999809E+01 0. -1.
</event>
<event>
 5   0  0.2308362E-04  0.8996555E+03  0.7818609E-02  0.9426012E-01
        1   -1    0    0  501    0  0.00000000000E+00  0.00000000000E+00  0.14331923374E+04  0.14331923374E+04  0.50400001928E-02 0.  1.
       -1   -1    0    0    0  501  0.00000000000E+00  0.00000000000E+00 -0.14118481086E+03  0.14118481095E+03  0.50400001928E-02 0. -1.
    10030    2    1    2    0    0  0.00000000000E+00  0.00000000000E+00  0.12920075265E+04  0.15743771483E+04  0.89965546552E+03 0.  0.
        1    1    3    3  502    0  0.38618327285E+03  0.20990013576E+03  0.47861399516E+03  0.64982070112E+03  0.50400001928E-02 0. -1.
       -1    1    3    3    0  502 -0.38618327285E+03 -0.20990013576E+03  0.81339353134E+03  0.92455644721E+03  0.50400001928E-02 0.  1.
</event>
<event>
 5   0  0.2356918E-04  0.8961731E+03  0.7818609E-02  0.9430378E-01
       -1   -1    0    0    0  501  0.00000000000E+00  0.00000000000E+00  0.11111851633E+03  0.11111851645E+03  0.50400001928E-02 0.  1.
        1   -1    0    0  501    0  0.00000000000E+00  0.00000000000E+00 -0.18069134211E+04  0.18069134211E+04  0.50400001928E-02 0. -1.
    10030    2    1    2    0    0  0.00000000000E+00  0.00000000000E+00 -0.16957949047E+04  0.19180319375E+04  0.89617306053E+03 0.  0.
        5    1    3    3  502    0  0.39890504885E+03 -0.17425407357E+03 -0.10751039126E+04  0.11598966476E+04  0.46999998093E+01 0. -1.
       -5    1    3    3    0  502 -0.39890504885E+03  0.17425407357E+03 -0.62069099210E+03  0.75813528992E+03  0.46999998093E+01 0.  1.
</event>
<event>
 5   0  0.2308362E-04  0.9001556E+03  0.7818609E-02  0.9425387E-01
       -1   -1    0    0    0  501  0.00000000000E+00  0.00000000000E+00  0.20000624294E+03  0.20000624300E+03  0.50400001928E-02 0.  1.
        1   -1    0    0  501    0  0.00000000000E+00  0.00000000000E+00 -0.10128184055E+04  0.10128184055E+04  0.50400001928E-02 0. -1.
    10030    2    1    2    0    0  0.00000000000E+00  0.00000000000E+00 -0.81281216258E+03  0.12128246485E+04  0.90015555125E+03 0.  0.
        1    1    3    3  502    0  0.22437297579E+03  0.17064160676E+03  0.66335676492E+02  0.28958973087E+03  0.50400001928E-02 0.  1.
       -1    1    3    3    0  502 -0.22437297579E+03 -0.17064160676E+03 -0.87914783908E+03  0.92323491767E+03  0.50400001928E-02 0. -1.
</event>
<event>
 5   0  0.2332791E-04  0.8997945E+03  0.7818609E-02  0.9425838E-01
        1   -1    0    0  501    0  0.00000000000E+00  0.00000000000E+00  0.64115795999E+03  0.64115796001E+03  0.50400001928E-02 0.  1.
       -1   -1    0    0    0  501  0.00000000000E+00  0.00000000000E+00 -0.31569057752E+03  0.31569057756E+03  0.50400001928E-02 0. -1.
    10030    2    1    2    0    0  0.00000000000E+00  0.00000000000E+00  0.32546738247E+03  0.95684853756E+03  0.89979448030E+03 0.  0.
        2    1    3    3  502    0  0.14303104202E+03  0.41439071170E+03  0.55177011432E+02  0.44183938657E+03  0.25500000920E-02 0. -1.
       -2    1    3    3    0  502 -0.14303104202E+03 -0.41439071170E+03  0.27029037104E+03  0.51500915099E+03  0.25500000920E-02 0.  1.
</event>
<event>
 5   0  0.3959804E-04  0.8999713E+03  0.7818609E-02  0.9425617E-01
       -2   -1    0    0    0  501  0.00000000000E+00  0.00000000000E+00  0.21584719403E+03  0.21584719405E+03  0.25500000920E-02 0. -1.
        2   -1    0    0  501    0  0.00000000000E+00  0.00000000000E+00 -0.93810379680E+03  0.93810379680E+03  0.25500000920E-02 0.  1.
    10030    2    1    2    0    0  0.00000000000E+00  0.00000000000E+00 -0.72225660276E+03  0.11539509908E+04  0.89997127123E+03 0.  0.
        5    1    3    3  502    0 -0.76644206214E+02 -0.33163209097E+03 -0.73847864839E+03  0.81315864518E+03  0.46999998093E+01 0.  1.
       -5    1    3    3    0  502  0.76644206214E+02  0.33163209097E+03  0.16222045623E+02  0.34079234567E+03  0.46999998093E+01 0. -1.
</event>
<event>
 5   0  0.4033144E-04  0.9000050E+03  0.7818609E-02  0.9425575E-01
        2   -1    0    0  501    0  0.00000000000E+00  0.00000000000E+00  0.16227431938E+04  0.16227431938E+04  0.25500000920E-02 0.  1.
       -2   -1    0    0    0  501  0.00000000000E+00  0.00000000000E+00 -0.12479007456E+03  0.12479007458E+03  0.25500000920E-02 0. -1.
    10030    2    1    2    0    0  0.00000000000E+00  0.00000000000E+00  0.14979531193E+04  0.17475332684E+04  0.90000498703E+03 0.  0.
        4    1    3    3  502    0 -0.35761558020E+03 -0.59797230525E+01  0.12792257264E+04  0.13282863894E+04  0.12699999809E+01 0.  1.
       -4    1    3    3    0  502  0.35761558020E+03  0.59797230525E+01  0.21872739292E+03  0.41924687906E+03  0.12699999809E+01 0. -1.
</event>
<event>
 5   0  0.2450427E-04  0.9001061E+03  0.7818609E-02  0.9425449E-01
       -1   -1    0    0    0  501  0.00000000000E+00  0.00000000000E+00  0.53002835830E+03  0.53002835833E+03  0.50400001928E-02 0.  1.
        1   -1    0    0  501    0  0.00000000000E+00  0.00000000000E+00 -0.38214513522E+03  0.38214513525E+03  0.50400001928E-02 0. -1.
    10030    2    1    2    0    0  0.00000000000E+00  0.00000000000E+00  0.14788322309E+03  0.91217349358E+03  0.90010612414E+03 0.  0.
        3    1    3    3  502    0  0.33296475721E+03  0.19385886018E+03 -0.16177284688E+03  0.41787229078E+03  0.10100000352E+00 0. -1.
       -3    1    3    3    0  502 -0.33296475721E+03 -0.19385886018E+03  0.30965606997E+03  0.49430120280E+03  0.10100000352E+00 0.  1.
</event>
<event>
 5   0  0.2332791E-04  0.8999578E+03  0.7818609E-02  0.9425634E-01
       -1   -1    0    0    0  501  0.00000000000E+00  0.00000000000E+00  0.72163854644E+03  0.72163854645E+03  0.50400001928E-02 0. -1.
        1   -1    0    0  501    0  0.00000000000E+00  0.00000000000E+00 -0.28058508899E+03  0.28058508903E+03  0.50400001928E-02 0.  1.
    10030    2    1    2    0    0  0.00000000000E+00  0.00000000000E+00  0.44105345745E+03  0.10022236355E+04  0.89995781190E+03 0.  0.
        2    1    3    3  502    0  0.14442010476E+03  0.42338245128E+03  0.16629893698E+03  0.47724752818E+03  0.25500000920E-02 0. -1.
       -2    1    3    3    0  502 -0.14442010476E+03 -0.42338245128E+03  0.27475452047E+03  0.52497610730E+03  0.25500000920E-02 0.  1.
</event>
<event>
 5   0  0.4033144E-04  0.9000994E+03  0.7818609E-02  0.9425457E-01
        2   -1    0    0  501    0  0.00000000000E+00  0.00000000000E+00  0.20994478360E+03  0.20994478361E+03  0.25500000920E-02 0. -1.
       -2   -1    0    0    0  501  0.00000000000E+00  0.00000000000E+00 -0.96475236020E+03  0.96475236021E+03  0.25500000920E-02 0.  1.
    10030    2    1    2    0    0  0.00000000000E+00  0.00000000000E+00 -0.75480757661E+03  0.11746971438E+04  0.90009938451E+03 0.  0.
        4    1    3    3  502    0  0.34787400688E+03 -0.24667514008E+03 -0.56507230760E+03  0.70793592585E+03  0.12699999809E+01 0. -1.
       -4    1    3    3    0  502 -0.34787400688E+03  0.24667514008E+03 -0.18973526900E+03  0.46676121797E+03  0.12699999809E+01 0.  1.
</event>
<event>
 5   0  0.2308362E-04  0.8998637E+03  0.7818609E-02  0.9425752E-01
        1   -1    0    0  501    0  0.00000000000E+00  0.00000000000E+00  0.11161751259E+04  0.11161751259E+04  0.50400001928E-02 0. -1.
       -1   -1    0    0    0  501  0.00000000000E+00  0.00000000000E+00 -0.18136819893E+03  0.18136819900E+03  0.50400001928E-02 0.  1.
    10030    2    1    2    0    0  0.00000000000E+00  0.00000000000E+00  0.93480692698E+03  0.12975433249E+04  0.89986370596E+03 0.  0.
        1    1    3    3  502    0  0.28978124871E+02 -0.25136939538E+03 -0.69050651278E+02  0.26228666973E+03  0.50400001928E-02 0. -1.
       -1    1    3    3    0  502 -0.28978124871E+02  0.25136939538E+03  0.10038575783E+04  0.10352566552E+04  0.50400001928E-02 0.  1.
</event>
<event>
 5   0  0.4243516E-04  0.8967221E+03  0.7818609E-02  0.9429688E-01
        2   -1    0    0  501    0  0.00000000000E+00  0.00000000000E+00  0.85439860827E+03  0.85439860828E+03  0.25500000920E-02 0. -1.
       -2   -1    0    0    0  501  0.00000000000E+00  0.00000000000E+00 -0.23528552788E+03  0.23528552789E+03  0.25500000920E-02 0.  1.
    10030    2    1    2    0    0  0.00000000000E+00  0.00000000000E+00  0.61911308040E+03  0.10896841362E+04  0.89672209201E+03 0.  0.
        1    1    3    3  502    0 -0.15156209460E+03  0.40509855140E+03  0.45309116442E+03  0.62639245539E+03  0.50400001928E-02 0. -1.
       -1    1    3    3    0  502  0.15156209460E+03 -0.40509855140E+03  0.16602191598E+03  0.46329168078E+03  0.50400001928E-02 0.  1.
</event>
<event>
 5   0  0.2351435E-04  0.8996197E+03  0.7818609E-02  0.9426057E-01
       -1   -1    0    0    0  501  0.00000000000E+00  0.00000000000E+00  0.32028299924E+03  0.32028299928E+03  0.50400001928E-02 0.  1.
        1   -1    0    0  501    0  0.00000000000E+00  0.00000000000E+00 -0.63171913585E+03  0.63171913587E+03  0.50400001928E-02 0. -1.
    10030    2    1    2    0    0  0.00000000000E+00  0.00000000000E+00 -0.31143613661E+03  0.95200213515E+03  0.89961969640E+03 0.  0.
        4    1    3    3  502    0  0.84899213255E+02 -0.49039736015E+02 -0.62027204243E+03  0.62797435588E+03  0.12699999809E+01 0. -1.
       -4    1    3    3    0  502 -0.84899213255E+02  0.49039736015E+02  0.30883590582E+03  0.32402777927E+03  0.12699999809E+01 0.  1.
</event>
<event>
 5   0  0.2308362E-04  0.8997865E+03  0.7818609E-02  0.9425848E-01
       -1   -1    0    0    0  501  0.00000000000E+00  0.00000000000E+00  0.19672803896E+03  0.19672803903E+03  0.50400001928E-02 0. -1.
        1   -1    0    0  501    0  0.00000000000E+00  0.00000000000E+00 -0.10288516008E+04  0.10288516008E+04  0.50400001928E-02 0.  1.
    10030    2    1    2    0    0  0.00000000000E+00  0.00000000000E+00 -0.83212356185E+03  0.12255796399E+04  0.89978654771E+03 0.  0.
        1    1    3    3  502    0  0.17487508646E+03  0.21193073968E+03 -0.90129059437E+03  0.94224236257E+03  0.50400001928E-02 0.  1.
       -1    1    3    3    0  502 -0.17487508646E+03 -0.21193073968E+03  0.69167032529E+02  0.28333727728E+03  0.50400001928E-02 0. -1.
</event>
<event>
 5   0  0.3959804E-04  0.8999445E+03  0.7818609E-02  0.9425651E-01
       -2   -1    0    0    0  501  0.00000000000E+00  0.00000000000E+00  0.46296586184E+03  0.46296586185E+03  0.25500000920E-02 0.  1.
        2   -1    0    0  501    0  0.00000000000E+00  0.00000000000E+00 -0.43734335236E+03  0.43734335236E+03  0.25500000920E-02 0. -1.
    10030    2    1    2    0    0  0.00000000000E+00  0.00000000000E+00  0.25622509484E+02  0.90030921421E+03  0.89994453618E+03 0.  0.
        5    1    3    3  502    0  0.82317158305E+02  0.37786339608E+03 -0.21727344595E+03  0.44360647083E+03  0.46999998093E+01 0. -1.
       -5    1    3    3    0  502 -0.82317158305E+02 -0.37786339608E+03  0.24289595543E+03  0.45670274338E+03  0.46999998093E+01 0.  1.
</event>
<event>
 5   0  0.2356918E-04  0.8999974E+03  0.7818609E-02  0.9425585E-01
        1   -1    0    0  501    0  0.00000000000E+00  0.00000000000E+00  0.93666043273E+03  0.93666043275E+03  0.50400001928E-02 0. -1.
       -1   -1    0    0    0  501  0.00000000000E+00  0.00000000000E+00 -0.21619238032E+03  0.21619238038E+03  0.50400001928E-02 0.  1.
    10030    2    1    2    0    0  0.00000000000E+00  0.00000000000E+00  0.72046805241E+03  0.11528528131E+04  0.89999744121E+03 0.  0.
        5    1    3    3  502    0  0.20620868403E+03  0.50466784399E+01 -0.15203319113E+03  0.25628825867E+03  0.46999998093E+01 0.  1.
       -5    1    3    3    0  502 -0.20620868403E+03 -0.50466784399E+01  0.87250124354E+03  0.89656455446E+03  0.46999998093E+01 0. -1.
</event>
<event>
 5   0  0.4110039E-04  0.8983832E+03  0.7818609E-02  0.9427605E-01
        2   -1    0    0  501    0  0.00000000000E+00  0.00000000000E+00  0.42464776930E+03  0.42464776931E+03  0.25500000920E-02 0. -1.
       -2   -1    0    0    0  501  0.00000000000E+00  0.00000000000E+00 -0.47515403663E+03  0.47515403664E+03  0.25500000920E-02 0.  1.
    10030    2    1    2    0    0  0.00000000000E+00  0.00000000000E+00 -0.50506267332E+02  0.89980180595E+03  0.89838321831E+03 0.  0.
        3    1    3    3  502    0 -0.19646095853E+03 -0.21765372657E+03  0.31558266816E+03  0.43076964094E+03  0.10100000352E+00 0. -1.
       -3    1    3    3    0  502  0.19646095853E+03  0.21765372657E+03 -0.36608893549E+03  0.46903216500E+03  0.10100000352E+00 0.  1.
</event>
<event>
 5   0  0.4033144E-04  0.9012860E+03  0.7818609E-02  0.9423975E-01
       -2   -1    0    0    0  501  0.00000000000E+00  0.00000000000E+00  0.59851382548E+03  0.59851382548E+03  0.25500000920E-02 0. -1.
        2   -1    0    0  501    0  0.00000000000E+00  0.00000000000E+00 -0.33930562045E+03  0.33930562046E+03  0.25500000920E-02 0.  1.
    10030    2    1    2    0    0  0.00000000000E+00  0.00000000000E+00  0.25920820503E+03  0.93781944594E+03  0.90128598105E+03 0.  0.
        4    1    3    3  502    0 -0.72478813438E+02  0.43751342481E+03  0.46320247250E+02  0.44589051738E+03  0.12699999809E+01 0.  1.
       -4    1    3    3    0  502  0.72478813438E+02 -0.43751342481E+03  0.21288795778E+03  0.49192892856E+03  0.12699999809E+01 0. -1.
</event>
<event>
 5   0  0.4110039E-04  0.8995347E+03  0.7818609E-02  0.9426163E-01
       -2   -1    0    0    0  501  0.00000000000E+00  0.00000000000E+00  0.87737515497E+03  0.87737515497E+03  0.25500000920E-02 0. -1.
        2   -1    0    0  501    0  0.00000000000E+00  0.00000000000E+00 -0.23056348688E+03  0.23056348689E+03  0.25500000920E-02 0.  1.
    10030    2    1    2    0    0  0.00000000000E+00  0.00000000000E+00  0.64681166809E+03  0.11079386419E+04  0.89953471315E+03 0.  0.
        3    1    3    3  502    0  0.87325268724E+02  0.38315352096E+02 -0.21796873935E+03  0.23791626741E+03  0.10100000352E+00 0.  1.
       -3    1    3    3    0  502 -0.87325268724E+02 -0.38315352096E+02  0.86478040744E+03  0.87002237446E+03  0.10100000352E+00 0. -1.
</event>
<event>
 5   0  0.4243516E-04  0.8992119E+03  0.7818609E-02  0.9426567E-01
       -2   -1    0    0    0  501  0.00000000000E+00  0.00000000000E+00  0.23060209879E+03  0.23060209880E+03  0.25500000920E-02 0. -1.
        2   -1    0    0  501    0  0.00000000000E+00  0.00000000000E+00 -0.87659865343E+03  0.87659865344E+03  0.25500000920E-02 0.  1.
    10030    2    1    2    0    0  0.00000000000E+00  0.00000000000E+00 -0.64599655464E+03  0.11072007522E+04  0.89921185332E+03 0.  0.
        1    1    3    3  502    0  0.32394679333E+03  0.12520104101E+03 -0.67457451237E+03  0.75872761802E+03  0.50400001928E-02 0.  1.
       -1    1    3    3    0  502 -0.32394679333E+03 -0.12520104101E+03  0.28577957721E+02  0.34847313422E+03  0.50400001928E-02 0. -1.
</event>
<event>
 5   0  0.2332791E-04  0.9001101E+03  0.7818609E-02  0.9425444E-01
       -1   -1    0    0    0  501  0.00000000000E+00  0.00000000000E+00  0.32427767303E+03  0.32427767307E+03  0.50400001928E-02 0.  1.
        1   -1    0    0  501    0  0.00000000000E+00  0.00000000000E+00 -0.62461768286E+03  0.62461768288E+03  0.50400001928E-02 0. -1.
    10030    2    1    2    0    0  0.00000000000E+00  0.00000000000E+00 -0.30034000982E+03  0.94889535595E+03  0.90011014606E+03 0.  0.
        2    1    3    3  502    0  0.20877401619E+02 -0.80366515709E+02 -0.61647284149E+03  0.62203971501E+03  0.25500000920E-02 0. -1.
       -2    1    3    3    0  502 -0.20877401619E+02  0.80366515709E+02  0.31613283167E+03  0.32685564094E+03  0.25500000920E-02 0.  1.
</event>
<event>
 5   0  0.2351435E-04  0.8997218E+03  0.7818609E-02  0.9425929E-01
       -1   -1    0    0    0  501  0.00000000000E+00  0.00000000000E+00  0.33200504594E+03  0.33200504598E+03  0.50400001928E-02 0.  1.
        1   -1    0    0  501    0  0.00000000000E+00  0.00000000000E+00 -0.60955346355E+03  0.60955346357E+03  0.50400001928E-02 0. -1.
    10030    2    1    2    0    0  0.00000000000E+00  0.00000000000E+00 -0.27754841761E+03  0.94155850954E+03  0.89972179187E+03 0.  0.
        4    1    3    3  502    0  0.23768157247E+03 -0.21881736296E+03 -0.46637981383E+03  0.56734937373E+03  0.12699999809E+01 0. -1.
       -4    1    3    3    0  502 -0.23768157247E+03  0.21881736296E+03  0.18883139622E+03  0.37420913581E+03  0.12699999809E+01 0.  1.
</event>
<event>
 5   0  0.3959804E-04  0.9000641E+03  0.7818609E-02  0.9425501E-01
       -2   -1    0    0    0  501  0.00000000000E+00  0.00000000000E+00  0.21523375828E+03  0.21523375829E+03  0.25500000920E-02 0.  1.
        2   -1    0    0  501    0  0.00000000000E+00  0.00000000000E+00 -0.94097146522E+03  0.94097146523E+03  0.25500000920E-02 0. -1.
    10030    2    1    2    0    0  0.00000000000E+00  0.00000000000E+00 -0.72573770695E+03  0.11562052235E+04  0.90006405306E+03 0.  0.
        5    1    3    3  502    0  0.16869106673E+03  0.82370212785E+02  0.16249999283E+03  0.24833418133E+03  0.46999998093E+01 0.  1.
       -5    1    3    3    0  502 -0.16869106673E+03 -0.82370212785E+02 -0.88823769978E+03  0.90787104219E+03  0.46999998093E+01 0. -1.
</event>
<event>
 5   0  0.2308362E-04  0.8995031E+03  0.7818609E-02  0.9426203E-01
        1   -1    0    0  501    0  0.00000000000E+00  0.00000000000E+00  0.82089239440E+03  0.82089239442E+03  0.50400001928E-02 0. -1.
       -1   -1    0    0    0  501  0.00000000000E+00  0.00000000000E+00 -0.24641046161E+03  0.24641046166E+03  0.50400001928E-02 0.  1.
    10030    2    1    2    0    0  0.00000000000E+00  0.00000000000E+00  0.57448193279E+03  0.10673028561E+04  0.89950313812E+03 0.  0.
        1    1    3    3  502    0  0.18652276519E+03  0.19224073548E+03 -0.14144461783E+03  0.30290893392E+03  0.50400001928E-02 0.  1.
       -1    1    3    3    0  502 -0.18652276519E+03 -0.19224073548E+03  0.71592655062E+03  0.76439392215E+03  0.50400001928E-02 0. -1.
</event>
<event>
 5   0  0.2351435E-04  0.9001639E+03  0.7818609E-02  0.9425377E-01
       -1   -1    0    0    0  501  0.00000000000E+00  0.00000000000E+00  0.15298349187E+03  0.15298349195E+03  0.50400001928E-02 0. -1.
        1   -1    0    0  501    0  0.00000000000E+00  0.00000000000E+00 -0.13241544992E+04  0.13241544993E+04  0.50400001928E-02 0.  1.
    10030    2    1    2    0    0  0.00000000000E+00  0.00000000000E+00 -0.11711710074E+04  0.14771379912E+04  0.90016393871E+03 0.  0.
        4    1    3    3  502    0  0.43108540414E+03  0.12773605413E+03 -0.61925694274E+03  0.76526590099E+03  0.12699999809E+01 0.  1.
       -4    1    3    3    0  502 -0.43108540414E+03 -0.12773605413E+03 -0.55191406464E+03  0.71187209022E+03  0.12699999809E+01 0. -1.
</event>
<event>
 5   0  0.2356918E-04  0.8998807E+03  0.7818609E-02  0.9425731E-01
       -1   -1    0    0    0  501  0.00000000000E+00  0.00000000000E+00  0.70881316872E+03  0.70881316873E+03  0.50400001928E-02 0.  1.
        1   -1    0    0  501    0  0.00000000000E+00  0.00000000000E+00 -0.28561305918E+03  0.28561305923E+03  0.50400001928E-02 0. -1.
    10030    2    1    2    0    0  0.00000000000E+00  0.00000000000E+00  0.42320010953E+03  0.99442622796E+03  0.89988065328E+03 0.  0.
        5    1    3    3  502    0  0.20434955353E+03 -0.14659276436E+03  0.62385879873E+03  0.67265895470E+03  0.46999998093E+01 0.  1.
       -5    1    3    3    0  502 -0.20434955353E+03  0.14659276436E+03 -0.20065868920E+03  0.32176727326E+03  0.46999998093E+01 0. -1.
</event>
<event>
 5   0  0.4033144E-04  0.8999494E+03  0.7818609E-02  0.9425645E-01
       -2   -1    0    0    0  501  0.00000000000E+00  0.00000000000E+00  0.17495376860E+03  0.17495376862E+03  0.25500000920E-02 0.  1.
        2   -1    0    0  501    0  0.00000000000E+00  0.00000000000E+00 -0.11573183997E+04  0.11573183997E+04  0.25500000920E-02 0. -1.
    10030    2    1    2    0    0  0.00000000000E+00  0.00000000000E+00 -0.98236463111E+03  0.13322721683E+04  0.89994936639E+03 0.  0.
        4    1    3    3  502    0 -0.14380173797E+03  0.10012612102E+03  0.12236821529E+03  0.21372826899E+03  0.12699999809E+01 0.  1.
       -4    1    3    3    0  502  0.14380173797E+03 -0.10012612102E+03 -0.11047328464E+04  0.11185438993E+04  0.12699999809E+01 0. -1.
</event>
<event>
 5   0  0.2308362E-04  0.8995212E+03  0.7818609E-02  0.9426180E-01
       -1   -1    0    0    0  501  0.00000000000E+00  0.00000000000E+00  0.20369847778E+03  0.20369847784E+03  0.50400001928E-02 0.  1.
        1   -1    0    0  501    0  0.00000000000E+00  0.00000000000E+00 -0.99305899467E+03  0.99305899469E+03  0.50400001928E-02 0. -1.
    10030    2    1    2    0    0  0.00000000000E+00  0.00000000000E+00 -0.78936051689E+03  0.11967574725E+04  0.89952121844E+03 0.  0.
        1    1    3    3  502    0  0.42230238426E+03  0.88104686610E+02 -0.56392783356E+03  0.71001150769E+03  0.50400001928E-02 0. -1.
       -1    1    3    3    0  502 -0.42230238426E+03 -0.88104686610E+02 -0.22543268333E+03  0.48674596484E+03  0.50400001928E-02 0.  1.
</event>
<event>
 5   0  0.4236284E-04  0.9033328E+03  0.7818609E-02  0.9421425E-01
        2   -1    0    0  501    0  0.00000000000E+00  0.00000000000E+00  0.58829954836E+03  0.58829954836E+03  0.25500000920E-02 0.  1.
       -2   -1    0    0    0  501  0.00000000000E+00  0.00000000000E+00 -0.34676639695E+03  0.34676639696E+03  0.25500000920E-02 0. -1.
    10030    2    1    2    0    0  0.00000000000E+00  0.00000000000E+00  0.24153315140E+03  0.93506594533E+03  0.90333275092E+03 0.  0.
        2    1    3    3  502    0 -0.12754715061E+02 -0.35528937366E+03 -0.16760426774E+03  0.39304505132E+03  0.25500000920E-02 0. -1.
       -2    1    3    3    0  502  0.12754715061E+02  0.35528937366E+03  0.40913741914E+03  0.54202089401E+03  0.25500000920E-02 0.  1.
</event>
<event>
 5   0  0.3959804E-04  0.9004231E+03  0.7818609E-02  0.9425053E-01
       -2   -1    0    0    0  501  0.00000000000E+00  0.00000000000E+00  0.29821462441E+03  0.29821462442E+03  0.25500000920E-02 0. -1.
        2   -1    0    0  501    0  0.00000000000E+00  0.00000000000E+00 -0.67967968924E+03  0.67967968924E+03  0.25500000920E-02 0.  1.
    10030    2    1    2    0    0  0.00000000000E+00  0.00000000000E+00 -0.38146506483E+03  0.97789431366E+03  0.90042306335E+03 0.  0.
        5    1    3    3  502    0  0.33811070445E+03 -0.15147079205E+03 -0.46848273478E+03  0.59729424247E+03  0.46999998093E+01 0.  1.
       -5    1    3    3    0  502 -0.33811070445E+03  0.15147079205E+03  0.87017669948E+02  0.38060007119E+03  0.46999998093E+01 0. -1.
</event>
<event>
 5   0  0.2450427E-04  0.9002214E+03  0.7818609E-02  0.9425305E-01
        1   -1    0    0  501    0  0.00000000000E+00  0.00000000000E+00  0.13544527011E+04  0.13544527011E+04  0.50400001928E-02 0. -1.
       -1   -1    0    0    0  501  0.00000000000E+00  0.00000000000E+00 -0.14958045956E+03  0.14958045964E+03  0.50400001928E-02 0.  1.
    10030    2    1    2    0    0  0.00000000000E+00  0.00000000000E+00  0.12048722415E+04  0.15040331607E+04  0.90022143397E+03 0.  0.
        3    1    3    3  502    0  0.49529733691E+02 -0.16513890875E+03  0.12971002999E+04  0.13085080251E+04  0.10100000352E+00 0. -1.
       -3    1    3    3    0  502 -0.49529733691E+02  0.16513890875E+03 -0.92228058352E+02  0.19552513560E+03  0.10100000352E+00 0.  1.
</event>
<event>
 5   0  0.1596250E-04  0.9001888E+03  0.7818609E-02  0.9425345E-01
        3   -1    0    0  501    0  0.00000000000E+00  0.00000000000E+00  0.23492637940E+03  0.23492640111E+03  0.10100000352E+00 0. -1.
       -3   -1    0    0    0  501  0.00000000000E+00  0.00000000000E+00 -0.86233376802E+03  0.86233377394E+03  0.10100000352E+00 0.  1.
    10030    2    1    2    0    0  0.00000000000E+00  0.00000000000E+00 -0.62740738862E+03  0.10972601751E+04  0.90018879156E+03 0.  0.
        4    1    3    3  502    0  0.90094759758E+02 -0.24107740169E+03 -0.76379472493E+03  0.80598968608E+03  0.12699999809E+01 0.  1.
       -4    1    3    3    0  502 -0.90094759758E+02  0.24107740169E+03  0.13638733631E+03  0.29127048897E+03  0.12699999809E+01 0. -1.
</event>
<event>
 5   0  0.2356918E-04  0.9002018E+03  0.7818609E-02  0.9425329E-01
        1   -1    0    0  501    0  0.00000000000E+00  0.00000000000E+00  0.14341504933E+04  0.14341504933E+04  0.50400001928E-02 0.  1.
       -1   -1    0    0    0  501  0.00000000000E+00  0.00000000000E+00 -0.14126189499E+03  0.14126189508E+03  0.50400001928E-02 0. -1.
    10030    2    1    2    0    0  0.00000000000E+00  0.00000000000E+00  0.12928885983E+04  0.15754123884E+04  0.90020179176E+03 0.  0.
        5    1    3    3  502    0 -0.11330325652E+03 -0.13909482683E+03 -0.75940237699E+02  0.19486920867E+03  0.46999998093E+01 0. -1.
       -5    1    3    3    0  502  0.11330325652E+03  0.13909482683E+03  0.13688288360E+04  0.13805431797E+04  0.46999998093E+01 0.  1.
</event>
<event>
 5   0  0.4236284E-04  0.8999450E+03  0.7818609E-02  0.9425650E-01
       -2   -1    0    0    0  501  0.00000000000E+00  0.00000000000E+00  0.19204525479E+03  0.19204525481E+03  0.25500000920E-02 0.  1.
        2   -1    0    0  501    0  0.00000000000E+00  0.00000000000E+00 -0.10543102037E+04  0.10543102037E+04  0.25500000920E-02 0. -1.
    10030    2    1    2    0    0  0.00000000000E+00  0.00000000000E+00 -0.86226494891E+03  0.12463554585E+04  0.89994504657E+03 0.  0.
        2    1    3    3  502    0 -0.36535103524E+03 -0.51121847894E+02 -0.78794987367E+03  0.87003438191E+03  0.25500000920E-02 0. -1.
       -2    1    3    3    0  502  0.36535103524E+03  0.51121847894E+02 -0.74315075235E+02  0.37632107660E+03  0.25500000920E-02 0.  1.
</event>
<event>
 5   0  0.2351435E-04  0.8999339E+03  0.7818609E-02  0.9425664E-01
        1   -1    0    0  501    0  0.00000000000E+00  0.00000000000E+00  0.59123269940E+03  0.59123269942E+03  0.50400001928E-02 0. -1.
       -1   -1    0    0    0  501  0.00000000000E+00  0.00000000000E+00 -0.34245442133E+03  0.34245442137E+03  0.50400001928E-02 0.  1.
    10030    2    1    2    0    0  0.00000000000E+00  0.00000000000E+00  0.24877827807E+03  0.93368712078E+03  0.89993389084E+03 0.  0.
        4    1    3    3  502    0 -0.23762492384E+03 -0.36847219297E+03  0.19445602371E+02  0.43888165349E+03  0.12699999809E+01 0.  1.
       -4    1    3    3    0  502  0.23762492384E+03  0.36847219297E+03  0.22933267570E+03  0.49480546729E+03  0.12699999809E+01 0. -1.
</event>
<event>
 5   0  0.4110039E-04  0.9002577E+03  0.7818609E-02  0.9425259E-01
        2   -1    0    0  501    0  0.00000000000E+00  0.00000000000E+00  0.13897603307E+04  0.13897603307E+04  0.25500000920E-02 0. -1.
       -2   -1    0    0    0  501  0.00000000000E+00  0.00000000000E+00 -0.14579201605E+03  0.14579201608E+03  0.25500000920E-02 0.  1.
    10030    2    1    2    0    0  0.00000000000E+00  0.00000000000E+00  0.12439683147E+04  0.15355523468E+04  0.90025765305E+03 0.  0.
        3    1    3    3  502    0  0.19428009353E+03  0.21475947275E+03  0.12097628204E+04  0.12439423128E+04  0.10100000352E+00 0. -1.
       -3    1    3    3    0  502 -0.19428009353E+03 -0.21475947275E+03  0.34205494296E+02  0.29161003398E+03  0.10100000352E+00 0.  1.
</event>
<event>
 5   0  0.3959804E-04  0.8996948E+03  0.7818609E-02  0.9425963E-01
       -2   -1    0    0    0  501  0.00000000000E+00  0.00000000000E+00  0.64364784036E+03  0.64364784036E+03  0.25500000920E-02 0.  1.
        2   -1    0    0  501    0  0.00000000000E+00  0.00000000000E+00 -0.31439971252E+03  0.31439971253E+03  0.25500000920E-02 0. -1.
    10030    2    1    2    0    0  0.00000000000E+00  0.00000000000E+00  0.32924812784E+03  0.95804755290E+03  0.89969482822E+03 0.  0.
        5    1    3    3  502    0  0.39476336090E+03  0.16290590817E+03  0.31508278377E+03  0.53073128478E+03  0.46999998093E+01 0.  1.
       -5    1    3    3    0  502 -0.39476336090E+03 -0.16290590817E+03  0.14165344067E+02  0.42731626811E+03  0.46999998093E+01 0. -1.
</event>
<event>
 5   0  0.4243516E-04  0.8989248E+03  0.7818609E-02  0.9426926E-01
        2   -1    0    0  501    0  0.00000000000E+00  0.00000000000E+00  0.19742706411E+03  0.19742706413E+03  0.25500000920E-02 0.  1.
       -2   -1    0    0    0  501  0.00000000000E+00  0.00000000000E+00 -0.10232459796E+04  0.10232459796E+04  0.25500000920E-02 0. -1.
    10030    2    1    2    0    0  0.00000000000E+00  0.00000000000E+00 -0.82581891550E+03  0.12206730438E+04  0.89892480138E+03 0.  0.
        1    1    3    3  502    0  0.95718901834E+02  0.34719338618E+03 -0.47753443997E+02  0.36329842694E+03  0.50400001928E-02 0.  1.
       -1    1    3    3    0  502 -0.95718901834E+02 -0.34719338618E+03 -0.77806547151E+03  0.85737461681E+03  0.50400001928E-02 0. -1.
</event>
<event>
 5   0  0.2351435E-04  0.8993170E+03  0.7818609E-02  0.9426436E-01
        1   -1    0    0  501    0  0.00000000000E+00  0.00000000000E+00  0.34008029227E+03  0.34008029231E+03  0.50400001928E-02 0.  1.
       -1   -1    0    0    0  501  0.00000000000E+00  0.00000000000E+00 -0.59454417889E+03  0.59454417892E+03  0.50400001928E-02 0. -1.
    10030    2    1    2    0    0  0.00000000000E+00  0.00000000000E+00 -0.25446388662E+03  0.93462447123E+03  0.89931698117E+03 0.  0.
        4    1    3    3  502    0 -0.27638319701E+03  0.16875670104E+03  0.19698505317E+03  0.37903986572E+03  0.12699999809E+01 0.  1.
       -4    1    3    3    0  502  0.27638319701E+03 -0.16875670104E+03 -0.45144893979E+03  0.55558460550E+03  0.12699999809E+01 0. -1.
</event>
<event>
 5   0  0.4243516E-04  0.9003620E+03  0.7818609E-02  0.9425129E-01
       -2   -1    0    0    0  501  0.00000000000E+00  0.00000000000E+00  0.23733056544E+03  0.23733056546E+03  0.25500000920E-02 0.  1.
        2   -1    0    0  501    0  0.00000000000E+00  0.00000000000E+00 -0.85392679307E+03  0.85392679308E+03  0.25500000920E-02 0. -1.
    10030    2    1    2    0    0  0.00000000000E+00  0.00000000000E+00 -0.61659622763E+03  0.10912573585E+04  0.90036199088E+03 0.  0.
        1    1    3    3  502    0 -0.28319023023E+03  0.30768718423E+03 -0.51036351431E+03  0.65980226325E+03  0.50400001928E-02 0. -1.
       -1    1    3    3    0  502  0.28319023023E+03 -0.30768718423E+03 -0.10623271333E+03  0.43145509528E+03  0.50400001928E-02 0.  1.
</event>
<event>
 5   0  0.2351435E-04  0.8996656E+03  0.7818609E-02  0.9425999E-01
        1   -1    0    0  501    0  0.00000000000E+00  0.00000000000E+00  0.12433799435E+04  0.12433799435E+04  0.50400001928E-02 0.  1.
       -1   -1    0    0    0  501  0.00000000000E+00  0.00000000000E+00 -0.16274153687E+03  0.16274153695E+03  0.50400001928E-02 0. -1.
    10030    2    1    2    0    0  0.00000000000E+00  0.00000000000E+00  0.10806384066E+04  0.14061214805E+04  0.89966563342E+03 0.  0.
        4    1    3    3  502    0  0.40859798937E+03  0.74392976373E+02  0.81040155074E+03  0.91062556421E+03  0.12699999809E+01 0.  1.
       -4    1    3    3    0  502 -0.40859798937E+03 -0.74392976373E+02  0.27023685590E+03  0.49549591627E+03  0.12699999809E+01 0. -1.
</event>
<event>
 5   0  0.4033144E-04  0.8991076E+03  0.7818609E-02  0.9426698E-01
        2   -1    0    0  501    0  0.00000000000E+00  0.00000000000E+00  0.36105396266E+03  0.36105396267E+03  0.25500000920E-02 0. -1.
       -2   -1    0    0    0  501  0.00000000000E+00  0.00000000000E+00 -0.55974631308E+03  0.55974631309E+03  0.25500000920E-02 0.  1.
    10030    2    1    2    0    0  0.00000000000E+00  0.00000000000E+00 -0.19869235042E+03  0.92080027576E+03  0.89910761187E+03 0.  0.
        4    1    3    3  502    0 -0.15013499088E+02  0.37937280202E+03  0.14718540264E+03  0.40720300062E+03  0.12699999809E+01 0.  1.
       -4    1    3    3    0  502  0.15013499088E+02 -0.37937280202E+03 -0.34587775306E+03  0.51359727514E+03  0.12699999809E+01 0. -1.
</event>
<event>
 5   0  0.2308362E-04  0.9000912E+03  0.7818609E-02  0.9425467E-01
       -1   -1    0    0    0  501  0.00000000000E+00  0.00000000000E+00  0.21482035322E+03  0.21482035328E+03  0.50400001928E-02 0.  1.
        1   -1    0    0  501    0  0.00000000000E+00  0.00000000000E+00 -0.94283906387E+03  0.94283906389E+03  0.50400001928E-02 0. -1.
    10030    2    1    2    0    0  0.00000000000E+00  0.00000000000E+00 -0.72801871065E+03  0.11576594172E+04  0.90009115266E+03 0.  0.
        1    1    3    3  502    0  0.16662052600E+03  0.40176957026E+03 -0.21534911225E+03  0.48534155750E+03  0.50400001928E-02 0.  1.
       -1    1    3    3    0  502 -0.16662052600E+03 -0.40176957026E+03 -0.51266959841E+03  0.67231785966E+03  0.50400001928E-02 0. -1.
</event>
<event>
 5   0  0.3959804E-04  0.8983820E+03  0.7818609E-02  0.9427606E-01
       -2   -1    0    0    0  501  0.00000000000E+00  0.00000000000E+00  0.14491686126E+03  0.14491686128E+03  0.25500000920E-02 0. -1.
        2   -1    0    0  501    0  0.00000000000E+00  0.00000000000E+00 -0.13923331725E+04  0.13923331725E+04  0.25500000920E-02 0.  1.
    10030    2    1    2    0    0  0.00000000000E+00  0.00000000000E+00 -0.12474163112E+04  0.15372500338E+04  0.89838199715E+03 0.  0.
        5    1    3    3  502    0 -0.28509839007E+03 -0.34609904518E+03 -0.66848694585E+03  0.80496119649E+03  0.46999998093E+01 0.  1.
       -5    1    3    3    0  502  0.28509839007E+03  0.34609904518E+03 -0.57892936537E+03  0.73228883726E+03  0.46999998093E+01 0. -1.
</event>
<event>
 5   0  0.3959804E-04  0.9000246E+03  0.7818609E-02  0.9425551E-01
        2   -1    0    0  501    0  0.00000000000E+00  0.00000000000E+00  0.77684702259E+03  0.77684702259E+03  0.25500000920E-02 0. -1.
       -2   -1    0    0    0  501  0.00000000000E+00  0.00000000000E+00 -0.26068333995E+03  0.26068333996E+03  0.25500000920E-02 0.  1.
    10030    2    1    2    0    0  0.00000000000E+00  0.00000000000E+00  0.51616368264E+03  0.10375303626E+04  0.90002461407E+03 0.  0.
        5    1    3    3  502    0 -0.57292300435E+01  0.25471952901E+03 -0.16949562166E+03  0.30604855546E+03  0.46999998093E+01 0.  1.
       -5    1    3    3    0  502  0.57292300435E+01 -0.25471952901E+03  0.68565930430E+03  0.73148180710E+03  0.46999998093E+01 0. -1.
</event>
<event>
 5   0  0.4236284E-04  0.9001405E+03  0.7818609E-02  0.9425406E-01
        2   -1    0    0  501    0  0.00000000000E+00  0.00000000000E+00  0.14576328821E+04  0.14576328821E+04  0.25500000920E-02 0. -1.
       -2   -1    0    0    0  501  0.00000000000E+00  0.00000000000E+00 -0.13896724615E+03  0.13896724617E+03  0.25500000920E-02 0.  1.
    10030    2    1    2    0    0  0.00000000000E+00  0.00000000000E+00  0.13186656360E+04  0.15966001283E+04  0.90014049468E+03 0.  0.
        2    1    3    3  502    0 -0.38550846148E+03 -0.11947616515E+03  0.30604606088E+03  0.50651309884E+03  0.25500000920E-02 0.  1.
       -2    1    3    3    0  502  0.38550846148E+03  0.11947616515E+03  0.10126195751E+04  0.10900870294E+04  0.25500000920E-02 0. -1.
</event>
<event>
 5   0  0.4236284E-04  0.9001956E+03  0.7818609E-02  0.9425337E-01
       -2   -1    0    0    0  501  0.00000000000E+00  0.00000000000E+00  0.23433570470E+03  0.23433570472E+03  0.25500000920E-02 0.  1.
        2   -1    0    0  501    0  0.00000000000E+00  0.00000000000E+00 -0.86452049478E+03  0.86452049478E+03  0.25500000920E-02 0. -1.
    10030    2    1    2    0    0  0.00000000000E+00  0.00000000000E+00 -0.63018479007E+03  0.10988561995E+04  0.90019557738E+03 0.  0.
        2    1    3    3  502    0  0.25386367058E+03 -0.30806913969E+03 -0.56890899277E+03  0.69498978419E+03  0.25500000920E-02 0. -1.
       -2    1    3    3    0  502 -0.25386367058E+03  0.30806913969E+03 -0.61275797299E+02  0.40386641530E+03  0.25500000920E-02 0.  1.
</event>
<event>
 5   0  0.4243516E-04  0.9001054E+03  0.7818609E-02  0.9425450E-01
        2   -1    0    0  501    0  0.00000000000E+00  0.00000000000E+00  0.15707522433E+04  0.15707522433E+04  0.25500000920E-02 0. -1.
       -2   -1    0    0    0  501  0.00000000000E+00  0.00000000000E+00 -0.12894931693E+03  0.12894931695E+03  0.25500000920E-02 0.  1.
    10030    2    1    2    0    0  0.00000000000E+00  0.00000000000E+00  0.14418029263E+04  0.16997015602E+04  0.90010539128E+03 0.  0.
        1    1    3    3  502    0 -0.15290527004E+03 -0.25661651557E+03  0.85243161949E+02  0.31064200352E+03  0.50400001928E-02 0.  1.
       -1    1    3    3    0  502  0.15290527004E+03  0.25661651557E+03  0.13565597644E+04  0.13890595567E+04  0.50400001928E-02 0. -1.
</event>
<event>
 5   0  0.2450427E-04  0.9000580E+03  0.7818609E-02  0.9425509E-01
        1   -1    0    0  501    0  0.00000000000E+00  0.00000000000E+00  0.11910323167E+04  0.11910323167E+04  0.50400001928E-02 0. -1.
       -1   -1    0    0    0  501  0.00000000000E+00  0.00000000000E+00 -0.17004248434E+03  0.17004248441E+03  0.50400001928E-02 0.  1.
    10030    2    1    2    0    0  0.00000000000E+00  0.00000000000E+00  0.10209898324E+04  0.13610748011E+04  0.90005798507E+03 0.  0.
        3    1    3    3  502    0 -0.91118037725E+02  0.70090699110E+02 -0.14746478193E+03  0.18697880899E+03  0.10100000352E+00 0.  1.
       -3    1    3    3    0  502  0.91118037725E+02 -0.70090699110E+02  0.11684546143E+04  0.11740959922E+04  0.10100000352E+00 0. -1.
</event>
<event>
 5   0  0.2450427E-04  0.9009536E+03  0.7818609E-02  0.9424390E-01
        1   -1    0    0  501    0  0.00000000000E+00  0.00000000000E+00  0.76799374184E+03  0.76799374186E+03  0.50400001928E-02 0. -1.
       -1   -1    0    0    0  501  0.00000000000E+00  0.00000000000E+00 -0.26423307650E+03  0.26423307654E+03  0.50400001928E-02 0.  1.
    10030    2    1    2    0    0  0.00000000000E+00  0.00000000000E+00  0.50376066535E+03  0.10322268184E+04  0.90095360407E+03 0.  0.
        3    1    3    3  502    0 -0.39002172651E+03 -0.11785652839E+03  0.31731353374E+02  0.40867346063E+03  0.10100000352E+00 0.  1.
       -3    1    3    3    0  502  0.39002172651E+03  0.11785652839E+03  0.47202931197E+03  0.62355335778E+03  0.10100000352E+00 0. -1.
</event>
<event>
 5   0  0.1596250E-04  0.8999835E+03  0.7818609E-02  0.9425602E-01
       -3   -1    0    0    0  501  0.00000000000E+00  0.00000000000E+00  0.64225289186E+03  0.64225289980E+03  0.10100000352E+00 0. -1.
        3   -1    0    0  501    0  0.00000000000E+00  0.00000000000E+00 -0.31528475530E+03  0.31528477148E+03  0.10100000352E+00 0.  1.
    10030    2    1    2    0    0  0.00000000000E+00  0.00000000000E+00  0.32696813656E+03  0.95753767128E+03  0.89998346074E+03 0.  0.
        2    1    3    3  502    0 -0.22444704133E+02 -0.44775290572E+03  0.20477477264E+03  0.49286827535E+03  0.25500000920E-02 0. -1.
       -2    1    3    3    0  502  0.22444704133E+02  0.44775290572E+03  0.12219336392E+03  0.46466939593E+03  0.25500000920E-02 0.  1.
</event>
<event>
 5   0  0.4110039E-04  0.9053035E+03  0.7818609E-02  0.9418976E-01
        2   -1    0    0  501    0  0.00000000000E+00  0.00000000000E+00  0.32426720935E+03  0.32426720936E+03  0.25500000920E-02 0.  1.
       -2   -1    0    0    0  501  0.00000000000E+00  0.00000000000E+00 -0.63186662463E+03  0.63186662463E+03  0.25500000920E-02 0. -1.
    10030    2    1    2    0    0  0.00000000000E+00  0.00000000000E+00 -0.30759941528E+03  0.95613383399E+03  0.90530354479E+03 0.  0.
        3    1    3    3  502    0  0.39116323380E+03 -0.22574225464E+03 -0.12167171845E+03  0.46773096784E+03  0.10100000352E+00 0.  1.
       -3    1    3    3    0  502 -0.39116323380E+03  0.22574225464E+03 -0.18592769683E+03  0.48840286614E+03  0.10100000352E+00 0. -1.
</event>
<event>
 5   0  0.2308362E-04  0.9002380E+03  0.7818609E-02  0.9425284E-01
        1   -1    0    0  501    0  0.00000000000E+00  0.00000000000E+00  0.41099781550E+03  0.41099781553E+03  0.50400001928E-02 0.  1.
       -1   -1    0    0    0  501  0.00000000000E+00  0.00000000000E+00 -0.49296401730E+03  0.49296401733E+03  0.50400001928E-02 0. -1.
    10030    2    1    2    0    0  0.00000000000E+00  0.00000000000E+00 -0.81966201798E+02  0.90396183286E+03  0.90023804465E+03 0.  0.
        1    1    3    3  502    0 -0.43356518397E+03  0.78916678212E+02  0.51050391774E+02  0.44363583419E+03  0.50400001928E-02 0.  1.
       -1    1    3    3    0  502  0.43356518397E+03 -0.78916678212E+02 -0.13301659357E+03  0.46032599866E+03  0.50400001928E-02 0. -1.
</event>
<event>
 5   0  0.4236284E-04  0.9006944E+03  0.7818609E-02  0.9424714E-01
        2   -1    0    0  501    0  0.00000000000E+00  0.00000000000E+00  0.52124269613E+03  0.52124269613E+03  0.25500000920E-02 0.  1.
       -2   -1    0    0    0  501  0.00000000000E+00  0.00000000000E+00 -0.38909436643E+03  0.38909436644E+03  0.25500000920E-02 0. -1.
    10030    2    1    2    0    0  0.00000000000E+00  0.00000000000E+00  0.13214832970E+03  0.91033706257E+03  0.90069439126E+03 0.  0.
        2    1    3    3  502    0 -0.42971215139E+03  0.32758550051E+02  0.19819062396E+03  0.47434710823E+03  0.25500000920E-02 0.  1.
       -2    1    3    3    0  502  0.42971215139E+03 -0.32758550051E+02 -0.66042294258E+02  0.43598995434E+03  0.25500000920E-02 0. -1.
</event>
<event>
 5   0  0.2351435E-04  0.8998315E+03  0.7818609E-02  0.9425792E-01
        1   -1    0    0  501    0  0.00000000000E+00  0.00000000000E+00  0.50996660857E+03  0.50996660859E+03  0.50400001928E-02 0. -1.
       -1   -1    0    0    0  501  0.00000000000E+00  0.00000000000E+00 -0.39693617338E+03  0.39693617341E+03  0.50400001928E-02 0.  1.
    10030    2    1    2    0    0  0.00000000000E+00  0.00000000000E+00  0.11303043519E+03  0.90690278200E+03  0.89983152686E+03 0.  0.
        4    1    3    3  502    0 -0.18208566249E+02  0.31835129716E+03 -0.26338018999E+03  0.41358171825E+03  0.12699999809E+01 0. -1.
       -4    1    3    3    0  502  0.18208566249E+02 -0.31835129716E+03  0.37641062519E+03  0.49332106375E+03  0.12699999809E+01 0.  1.
</event>
<event>
 5   0  0.2308362E-04  0.9000205E+03  0.7818609E-02  0.9425556E-01
       -1   -1    0    0    0  501  0.00000000000E+00  0.00000000000E+00  0.11302638995E+04  0.11302638995E+04  0.50400001928E-02 0. -1.
        1   -1    0    0  501    0  0.00000000000E+00  0.00000000000E+00 -0.17916986642E+03  0.17916986649E+03  0.50400001928E-02 0.  1.
    10030    2    1    2    0    0  0.00000000000E+00  0.00000000000E+00  0.95109403305E+03  0.13094337660E+04  0.90002051519E+03 0.  0.
        1    1    3    3  502    0  0.25411655297E+03 -0.77224557287E+02  0.10040766665E+04  0.10386090732E+04  0.50400001928E-02 0. -1.
       -1    1    3    3    0  502 -0.25411655297E+03  0.77224557287E+02 -0.52982633430E+02  0.27082469277E+03  0.50400001928E-02 0.  1.
</event>
<event>
 5   0  0.2332791E-04  0.8998060E+03  0.7818609E-02  0.9425824E-01
       -1   -1    0    0    0  501  0.00000000000E+00  0.00000000000E+00  0.47595694376E+03  0.47595694379E+03  0.50400001928E-02 0. -1.
        1   -1    0    0  501    0  0.00000000000E+00  0.00000000000E+00 -0.42527525738E+03  0.42527525741E+03  0.50400001928E-02 0.  1.
    10030    2    1    2    0    0  0.00000000000E+00  0.00000000000E+00  0.50681686384E+02  0.90123220119E+03  0.89980600528E+03 0.  0.
        2    1    3    3  502    0 -0.39195093934E+03 -0.69825083159E+02  0.23522400404E+03  0.46241908824E+03  0.25500000920E-02 0.  1.
       -2    1    3    3    0  502  0.39195093934E+03  0.69825083159E+02 -0.18454231765E+03  0.43881311295E+03  0.25500000920E-02 0. -1.
</event>
<event>
 5   0  0.2450427E-04  0.9005410E+03  0.7818609E-02  0.9424905E-01
        1   -1    0    0  501    0  0.00000000000E+00  0.00000000000E+00  0.94982513068E+03  0.94982513069E+03  0.50400001928E-02 0.  1.
       -1   -1    0    0    0  501  0.00000000000E+00  0.00000000000E+00 -0.21345354377E+03  0.21345354383E+03  0.50400001928E-02 0. -1.
    10030    2    1    2    0    0  0.00000000000E+00  0.00000000000E+00  0.73637158691E+03  0.11632786745E+04  0.90054103770E+03 0.  0.
        3    1    3    3  502    0  0.24218060173E+03  0.12704181523E+03  0.83025240046E+03  0.87413392872E+03  0.10100000352E+00 0.  1.
       -3    1    3    3    0  502 -0.24218060173E+03 -0.12704181523E+03 -0.93880813552E+02  0.28914474580E+03  0.10100000352E+00 0. -1.
</event>
<event>
 5   0  0.4033144E-04  0.9006025E+03  0.7818609E-02  0.9424829E-01
        2   -1    0    0  501    0  0.00000000000E+00  0.00000000000E+00  0.76162354791E+03  0.76162354791E+03  0.25500000920E-02 0.  1.
       -2   -1    0    0    0  501  0.00000000000E+00  0.00000000000E+00 -0.26623547932E+03  0.26623547933E+03  0.25500000920E-02 0. -1.
    10030    2    1    2    0    0  0.00000000000E+00  0.00000000000E+00  0.49538806859E+03  0.10278590272E+04  0.90060248800E+03 0.  0.
        4    1    3    3  502    0 -0.25427996629E+03 -0.37124865537E+03  0.26698615236E+03  0.52322756409E+03  0.12699999809E+01 0. -1.
       -4    1    3    3    0  502  0.25427996629E+03  0.37124865537E+03  0.22840191622E+03  0.50463146315E+03  0.12699999809E+01 0.  1.
</event>
<event>
 5   0  0.4033144E-04  0.8995590E+03  0.7818609E-02  0.9426133E-01
        2   -1    0    0  501    0  0.00000000000E+00  0.00000000000E+00  0.60073458663E+03  0.60073458663E+03  0.25500000920E-02 0.  1.
       -2   -1    0    0    0  501  0.00000000000E+00  0.00000000000E+00 -0.33675707050E+03  0.33675707051E+03  0.25500000920E-02 0. -1.
    10030    2    1    2    0    0  0.00000000000E+00  0.00000000000E+00  0.26397751613E+03  0.93749165715E+03  0.89955904653E+03 0.  0.
        4    1    3    3  502    0  0.17836433589E+03 -0.25450224820E+03  0.47083727023E+03  0.56415829214E+03  0.12699999809E+01 0.  1.
       -4    1    3    3    0  502 -0.17836433589E+03  0.25450224820E+03 -0.20685975411E+03  0.37333336500E+03  0.12699999809E+01 0. -1.
</event>
<event>
 5   0  0.2332791E-04  0.9005511E+03  0.7818609E-02  0.9424893E-01
       -1   -1    0    0    0  501  0.00000000000E+00  0.00000000000E+00  0.15713220793E+03  0.15713220801E+03  0.50400001928E-02 0.  1.
        1   -1    0    0  501    0  0.00000000000E+00  0.00000000000E+00 -0.12903023526E+04  0.12903023526E+04  0.50400001928E-02 0. -1.
    10030    2    1    2    0    0  0.00000000000E+00  0.00000000000E+00 -0.11331701446E+04  0.14474345606E+04  0.90055107045E+03 0.  0.
        2    1    3    3  502    0  0.43009326653E+03  0.13164093261E+03 -0.53292789819E+03  0.69736769192E+03  0.25500000920E-02 0.  1.
       -2    1    3    3    0  502 -0.43009326653E+03 -0.13164093261E+03 -0.60024224644E+03  0.75006686867E+03  0.25500000920E-02 0. -1.
</event>
<event>
 5   0  0.4033144E-04  0.8995801E+03  0.7818609E-02  0.9426106E-01
        2   -1    0    0  501    0  0.00000000000E+00  0.00000000000E+00  0.57925989292E+03  0.57925989293E+03  0.25500000920E-02 0. -1.
       -2   -1    0    0    0  501  0.00000000000E+00  0.00000000000E+00 -0.34925792853E+03  0.34925792854E+03  0.25500000920E-02 0.  1.
    10030    2    1    2    0    0  0.00000000000E+00  0.00000000000E+00  0.23000196439E+03  0.92851782147E+03  0.89958014715E+03 0.  0.
        4    1    3    3  502    0  0.22697402329E+03 -0.17389666603E+03 -0.24337427944E+03  0.37548623210E+03  0.12699999809E+01 0.  1.
       -4    1    3    3    0  502 -0.22697402329E+03  0.17389666603E+03  0.47337624383E+03  0.55303158936E+03  0.12699999809E+01 0. -1.
</event>
<event>
 5   0  0.4243516E-04  0.8998750E+03  0.7818609E-02  0.9425738E-01
        2   -1    0    0  501    0  0.00000000000E+00  0.00000000000E+00  0.18224313687E+04  0.18224313687E+04  0.25500000920E-02 0.  1.
       -2   -1    0    0    0  501  0.00000000000E+00  0.00000000000E+00 -0.11108444205E+03  0.11108444207E+03  0.25500000920E-02 0. -1.
    10030    2    1    2    0    0  0.00000000000E+00  0.00000000000E+00  0.17113469266E+04  0.19335158108E+04  0.89987503974E+03 0.  0.
        1    1    3    3  502    0 -0.41290249797E+03  0.17733181248E+03  0.80721071877E+03  0.92386372863E+03  0.50400001928E-02 0. -1.
       -1    1    3    3    0  502  0.41290249797E+03 -0.17733181248E+03  0.90413620786E+03  0.10096520821E+04  0.50400001928E-02 0.  1.
</event>
<event>
 5   0  0.1596250E-04  0.9007262E+03  0.7818609E-02  0.9424674E-01
        3   -1    0    0  501    0  0.00000000000E+00  0.00000000000E+00  0.33640743396E+03  0.33640744912E+03  0.10100000352E+00 0.  1.
       -3   -1    0    0    0  501  0.00000000000E+00  0.00000000000E+00 -0.60292039544E+03  0.60292040390E+03  0.10100000352E+00 0. -1.
    10030    2    1    2    0    0  0.00000000000E+00  0.00000000000E+00 -0.26651296148E+03  0.93932785302E+03  0.90072618304E+03 0.  0.
        5    1    3    3  502    0 -0.38513385391E+03 -0.21552114541E+03 -0.39821138778E+02  0.44315376862E+03  0.46999998093E+01 0. -1.
       -5    1    3    3    0  502  0.38513385391E+03  0.21552114541E+03 -0.22669182271E+03  0.49617408440E+03  0.46999998093E+01 0.  1.
</event>
<event>
 5   0  0.4033144E-04  0.9010005E+03  0.7818609E-02  0.9424332E-01
        2   -1    0    0  501    0  0.00000000000E+00  0.00000000000E+00  0.40144109179E+03  0.40144109180E+03  0.25500000920E-02 0.  1.
       -2   -1    0    0    0  501  0.00000000000E+00  0.00000000000E+00 -0.50555478622E+03  0.50555478623E+03  0.25500000920E-02 0. -1.
    10030    2    1    2    0    0  0.00000000000E+00  0.00000000000E+00 -0.10411369443E+03  0.90699587803E+03  0.90100047802E+03 0.  0.
        4    1    3    3  502    0 -0.28415093985E+03  0.31537808160E+03 -0.20387071256E+03  0.47092459196E+03  0.12699999809E+01 0. -1.
       -4    1    3    3    0  502  0.28415093985E+03 -0.31537808160E+03  0.99757018129E+02  0.43607128607E+03  0.12699999809E+01 0.  1.
</event>
<event>
 5   0  0.2450427E-04  0.8999265E+03  0.7818609E-02  0.9425673E-01
        1   -1    0    0  501    0  0.00000000000E+00  0.00000000000E+00  0.87560488491E+03  0.87560488492E+03  0.50400001928E-02 0.  1.
       -1   -1    0    0    0  501  0.00000000000E+00  0.00000000000E+00 -0.23123093079E+03  0.23123093085E+03  0.50400001928E-02 0. -1.
    10030    2    1    2    0    0  0.00000000000E+00  0.00000000000E+00  0.64437395412E+03  0.11068358158E+04  0.89992651385E+03 0.  0.
        3    1    3    3  502    0  0.32035246289E+03  0.11241218539E+03  0.68538724377E+03  0.76486461810E+03  0.10100000352E+00 0.  1.
       -3    1    3    3    0  502 -0.32035246289E+03 -0.11241218539E+03 -0.41013289651E+02  0.34197119767E+03  0.10100000352E+00 0. -1.
</event>
<event>
 5   0  0.3959804E-04  0.8996062E+03  0.7818609E-02  0.9426074E-01
       -2   -1    0    0    0  501  0.00000000000E+00  0.00000000000E+00  0.18813195227E+03  0.18813195228E+03  0.25500000920E-02 0.  1.
        2   -1    0    0  501    0  0.00000000000E+00  0.00000000000E+00 -0.10754304978E+04  0.10754304978E+04  0.25500000920E-02 0. -1.
    10030    2    1    2    0    0  0.00000000000E+00  0.00000000000E+00 -0.88729854557E+03  0.12635624501E+04  0.89960622296E+03 0.  0.
        5    1    3    3  502    0 -0.40814956939E+03 -0.14469230230E+02 -0.17898764899E+03  0.44593059786E+03  0.46999998093E+01 0.  1.
       -5    1    3    3    0  502  0.40814956939E+03  0.14469230230E+02 -0.70831089657E+03  0.81763185226E+03  0.46999998093E+01 0. -1.
</event>
<event>
 5   0  0.2450427E-04  0.8997966E+03  0.7818609E-02  0.9425836E-01
       -1   -1    0    0    0  501  0.00000000000E+00  0.00000000000E+00  0.15328285313E+03  0.15328285321E+03  0.50400001928E-02 0.  1.
        1   -1    0    0  501    0  0.00000000000E+00  0.00000000000E+00 -0.13204899112E+04  0.13204899112E+04  0.50400001928E-02 0. -1.
    10030    2    1    2    0    0  0.00000000000E+00  0.00000000000E+00 -0.11672070581E+04  0.14737727644E+04  0.89979655741E+03 0.  0.
        3    1    3    3  502    0 -0.16264086087E+02 -0.36439478406E+03 -0.10149655503E+04  0.10785189649E+04  0.10100000352E+00 0. -1.
       -3    1    3    3    0  502  0.16264086087E+02  0.36439478406E+03 -0.15224150777E+03  0.39525379952E+03  0.10100000352E+00 0.  1.
</event>
<event>
 5   0  0.2450427E-04  0.8993033E+03  0.7818609E-02  0.9426453E-01
       -1   -1    0    0    0  501  0.00000000000E+00  0.00000000000E+00  0.86240692160E+03  0.86240692161E+03  0.50400001928E-02 0. -1.
        1   -1    0    0  501    0  0.00000000000E+00  0.00000000000E+00 -0.23444457576E+03  0.23444457581E+03  0.50400001928E-02 0.  1.
    10030    2    1    2    0    0  0.00000000000E+00  0.00000000000E+00  0.62796234584E+03  0.10968514974E+04  0.89930334127E+03 0.  0.
        3    1    3    3  502    0 -0.24418826986E+03  0.30155334140E+03  0.36860672904E+02  0.38977050716E+03  0.10100000352E+00 0.  1.
       -3    1    3    3    0  502  0.24418826986E+03 -0.30155334140E+03  0.59110167293E+03  0.70708099026E+03  0.10100000352E+00 0. -1.
</event>
<event>
 5   0  0.3959804E-04  0.9000301E+03  0.7818609E-02  0.9425544E-01
        2   -1    0    0  501    0  0.00000000000E+00  0.00000000000E+00  0.61800428503E+03  0.61800428503E+03  0.25500000920E-02 0. -1.
       -2   -1    0    0    0  501  0.00000000000E+00  0.00000000000E+00 -0.32768957502E+03  0.32768957503E+03  0.25500000920E-02 0.  1.
    10030    2    1    2    0    0  0.00000000000E+00  0.00000000000E+00  0.29031471000E+03  0.94569386006E+03  0.90003013623E+03 0.  0.
        5    1    3    3  502    0  0.42188760918E+03  0.15596434617E+03  0.15915382883E+03  0.47714365058E+03  0.46999998093E+01 0. -1.
       -5    1    3    3    0  502 -0.42188760918E+03 -0.15596434617E+03  0.13116088117E+03  0.46855020948E+03  0.46999998093E+01 0.  1.
</event>
<event>
 5   0  0.2308362E-04  0.8999297E+03  0.7818609E-02  0.9425669E-01
        1   -1    0    0  501    0  0.00000000000E+00  0.00000000000E+00  0.63494431707E+03  0.63494431709E+03  0.50400001928E-02 0. -1.
       -1   -1    0    0    0  501  0.00000000000E+00  0.00000000000E+00 -0.31887577569E+03  0.31887577573E+03  0.50400001928E-02 0.  1.
    10030    2    1    2    0    0  0.00000000000E+00  0.00000000000E+00  0.31606854138E+03  0.95382009282E+03  0.89992968981E+03 0.  0.
        1    1    3    3  502    0 -0.76668697980E+02 -0.24225150284E+03  0.55162700896E+03  0.60733535787E+03  0.50400001928E-02 0. -1.
       -1    1    3    3    0  502  0.76668697980E+02  0.24225150284E+03 -0.23555846758E+03  0.34648473495E+03  0.50400001928E-02 0.  1.
</event>
<event>
 5   0  0.2351435E-04  0.8990424E+03  0.7818609E-02  0.9426779E-01
        1   -1    0    0  501    0  0.00000000000E+00  0.00000000000E+00  0.32278262635E+03  0.32278262639E+03  0.50400001928E-02 0.  1.
       -1   -1    0    0    0  501  0.00000000000E+00  0.00000000000E+00 -0.62602282147E+03  0.62602282149E+03  0.50400001928E-02 0. -1.
    10030    2    1    2    0    0  0.00000000000E+00  0.00000000000E+00 -0.30324019512E+03  0.94880544788E+03  0.89904235829E+03 0.  0.
        4    1    3    3  502    0 -0.41347432038E+03 -0.28362039835E+02  0.32090629677E+02  0.41568839331E+03  0.12699999809E+01 0.  1.
       -4    1    3    3    0  502  0.41347432038E+03  0.28362039835E+02 -0.33533082480E+03  0.53311705457E+03  0.12699999809E+01 0. -1.
</event>
<event>
 5   0  0.2356918E-04  0.8939607E+03  0.7818609E-02  0.9433162E-01
       -1   -1    0    0    0  501  0.00000000000E+00  0.00000000000E+00  0.24503159223E+03  0.24503159229E+03  0.50400001928E-02 0.  1.
        1   -1    0    0  501    0  0.00000000000E+00  0.00000000000E+00 -0.81537010503E+03  0.81537010504E+03  0.50400001928E-02 0. -1.
    10030    2    1    2    0    0  0.00000000000E+00  0.00000000000E+00 -0.57033851279E+03  0.10604016973E+04  0.89396070413E+03 0.  0.
        5    1    3    3  502    0  0.25331481461E+03  0.10447012449E+03 -0.70402306983E+03  0.75548194887E+03  0.46999998093E+01 0.  1.
       -5    1    3    3    0  502 -0.25331481461E+03 -0.10447012449E+03  0.13368455704E+03  0.30491974846E+03  0.46999998093E+01 0. -1.
</event>
<event>
 5   0  0.2351435E-04  0.8983671E+03  0.7818609E-02  0.9427625E-01
       -1   -1    0    0    0  501  0.00000000000E+00  0.00000000000E+00  0.75679422770E+03  0.75679422771E+03  0.50400001928E-02 0. -1.
        1   -1    0    0  501    0  0.00000000000E+00  0.00000000000E+00 -0.26660596712E+03  0.26660596717E+03  0.50400001928E-02 0.  1.
    10030    2    1    2    0    0  0.00000000000E+00  0.00000000000E+00  0.49018826057E+03  0.10234001949E+04  0.89836708983E+03 0.  0.
        4    1    3    3  502    0  0.23821868745E+03  0.28938433980E+03 -0.36890568111E+02  0.37663505690E+03  0.12699999809E+01 0.  1.
       -4    1    3    3    0  502 -0.23821868745E+03 -0.28938433980E+03  0.52707882868E+03  0.64676513799E+03  0.12699999809E+01 0. -1.
</event>
<event>
 5   0  0.2308362E-04  0.9003359E+03  0.7818609E-02  0.9425162E-01
       -1   -1    0    0    0  501  0.00000000000E+00  0.00000000000E+00  0.17831939489E+03  0.17831939496E+03  0.50400001928E-02 0.  1.
        1   -1    0    0  501    0  0.00000000000E+00  0.00000000000E+00 -0.11364505918E+04  0.11364505919E+04  0.50400001928E-02 0. -1.
    10030    2    1    2    0    0  0.00000000000E+00  0.00000000000E+00 -0.95813119696E+03  0.13147699868E+04  0.90033589713E+03 0.  0.
        1    1    3    3  502    0 -0.28528265517E+03  0.31161243766E+03 -0.70606135673E+03  0.82280686928E+03  0.50400001928E-02 0. -1.
       -1    1    3    3    0  502  0.28528265517E+03 -0.31161243766E+03 -0.25206984022E+03  0.49196311754E+03  0.50400001928E-02 0.  1.
</event>
<event>
 5   0  0.4033144E-04  0.8995107E+03  0.7818609E-02  0.9426193E-01
        2   -1    0    0  501    0  0.00000000000E+00  0.00000000000E+00  0.86262656176E+03  0.86262656176E+03  0.25500000920E-02 0. -1.
       -2   -1    0    0    0  501  0.00000000000E+00  0.00000000000E+00 -0.23449296354E+03  0.23449296355E+03  0.25500000920E-02 0.  1.
    10030    2    1    2    0    0  0.00000000000E+00  0.00000000000E+00  0.62813359822E+03  0.10971195253E+04  0.89951066453E+03 0.  0.
        4    1    3    3  502    0 -0.35103355968E+02  0.38403487850E+03  0.59634733659E+03  0.71017377610E+03  0.12699999809E+01 0. -1.
       -4    1    3    3    0  502  0.35103355968E+02 -0.38403487850E+03  0.31786261635E+02  0.38694574921E+03  0.12699999809E+01 0.  1.
</event>
<event>
 5   0  0.2351435E-04  0.8984492E+03  0.7818609E-02  0.9427522E-01
       -1   -1    0    0    0  501  0.00000000000E+00  0.00000000000E+00  0.42735444210E+03  0.42735444213E+03  0.50400001928E-02 0.  1.
        1   -1    0    0  501    0  0.00000000000E+00  0.00000000000E+00 -0.47221393942E+03  0.47221393945E+03  0.50400001928E-02 0. -1.
    10030    2    1    2    0    0  0.00000000000E+00  0.00000000000E+00 -0.44859497326E+02  0.89956838158E+03  0.89844916307E+03 0.  0.
        4    1    3    3  502    0  0.28595906254E+03  0.13900169532E+03  0.29530932261E+03  0.43393924191E+03  0.12699999809E+01 0.  1.
       -4    1    3    3    0  502 -0.28595906254E+03 -0.13900169532E+03 -0.34016881993E+03  0.46562913967E+03  0.12699999809E+01 0. -1.
</event>
<event>
 5   0  0.2351435E-04  0.8998473E+03  0.7818609E-02  0.9425772E-01
        1   -1    0    0  501    0  0.00000000000E+00  0.00000000000E+00  0.10669107292E+04  0.10669107293E+04  0.50400001928E-02 0. -1.
       -1   -1    0    0    0  501  0.00000000000E+00  0.00000000000E+00 -0.18973591988E+03  0.18973591994E+03  0.50400001928E-02 0.  1.
    10030    2    1    2    0    0  0.00000000000E+00  0.00000000000E+00  0.87717480937E+03  0.12566466492E+04  0.89984729524E+03 0.  0.
        4    1    3    3  502    0 -0.10592975895E+03  0.81246371813E+01 -0.17196514930E+03  0.20214041910E+03  0.12699999809E+01 0.  1.
       -4    1    3    3    0  502  0.10592975895E+03 -0.81246371813E+01  0.10491399587E+04  0.10545062301E+04  0.12699999809E+01 0. -1.
</event>
<event>
 5   0  0.2450427E-04  0.8999798E+03  0.7818609E-02  0.9425607E-01
       -1   -1    0    0    0  501  0.00000000000E+00  0.00000000000E+00  0.23814341247E+03  0.23814341253E+03  0.50400001928E-02 0. -1.
        1   -1    0    0  501    0  0.00000000000E+00  0.00000000000E+00 -0.85028970771E+03  0.85028970773E+03  0.50400001928E-02 0.  1.
    10030    2    1    2    0    0  0.00000000000E+00  0.00000000000E+00 -0.61214629524E+03  0.10884331203E+04  0.89997976115E+03 0.  0.
        3    1    3    3  502    0 -0.50873751787E+02 -0.83738933459E+02 -0.83723204920E+03  0.84294594252E+03  0.10100000352E+00 0.  1.
       -3    1    3    3    0  502  0.50873751787E+02  0.83738933459E+02  0.22508575396E+03  0.24548717774E+03  0.10100000352E+00 0. -1.
</event>
<event>
 5   0  0.2450427E-04  0.9001382E+03  0.7818609E-02  0.9425409E-01
       -1   -1    0    0    0  501  0.00000000000E+00  0.00000000000E+00  0.77145633331E+03  0.77145633332E+03  0.50400001928E-02 0. -1.
        1   -1    0    0  501    0  0.00000000000E+00  0.00000000000E+00 -0.26257120000E+03  0.26257120004E+03  0.50400001928E-02 0.  1.
    10030    2    1    2    0    0  0.00000000000E+00  0.00000000000E+00  0.50888513331E+03  0.10340275334E+04  0.90013824541E+03 0.  0.
        3    1    3    3  502    0 -0.23192043616E+03  0.22178075406E+03 -0.10807353008E+03  0.33860550747E+03  0.10100000352E+00 0.  1.
       -3    1    3    3    0  502  0.23192043616E+03 -0.22178075406E+03  0.61695866339E+03  0.69542202590E+03  0.10100000352E+00 0. -1.
</event>
<event>
 5   0  0.1596250E-04  0.8998909E+03  0.7818609E-02  0.9425718E-01
       -3   -1    0    0    0  501  0.00000000000E+00  0.00000000000E+00  0.28836269697E+03  0.28836271466E+03  0.10100000352E+00 0.  1.
        3   -1    0    0  501    0  0.00000000000E+00  0.00000000000E+00 -0.70207032996E+03  0.70207033722E+03  0.10100000352E+00 0. -1.
    10030    2    1    2    0    0  0.00000000000E+00  0.00000000000E+00 -0.41370763299E+03  0.99043305188E+03  0.89989089598E+03 0.  0.
        5    1    3    3  502    0 -0.10755027198E+02  0.37607736036E+03 -0.47841575200E+03  0.60864897383E+03  0.46999998093E+01 0. -1.
       -5    1    3    3    0  502  0.10755027198E+02 -0.37607736036E+03  0.64708119017E+02  0.38178407805E+03  0.46999998093E+01 0.  1.
</event>
<event>
 5   0  0.4033144E-04  0.8985779E+03  0.7818609E-02  0.9427361E-01
        2   -1    0    0  501    0  0.00000000000E+00  0.00000000000E+00  0.61361413857E+03  0.61361413857E+03  0.25500000920E-02 0.  1.
       -2   -1    0    0    0  501  0.00000000000E+00  0.00000000000E+00 -0.32896984945E+03  0.32896984946E+03  0.25500000920E-02 0. -1.
    10030    2    1    2    0    0  0.00000000000E+00  0.00000000000E+00  0.28464428912E+03  0.94258398804E+03  0.89857787819E+03 0.  0.
        4    1    3    3  502    0  0.34854222679E+03  0.12666177259E+02  0.43941832026E+03  0.56100997226E+03  0.12699999809E+01 0.  1.
       -4    1    3    3    0  502 -0.34854222679E+03 -0.12666177259E+02 -0.15477403114E+03  0.38157401577E+03  0.12699999809E+01 0. -1.
</event>
<event>
 5   0  0.2332791E-04  0.8995884E+03  0.7818609E-02  0.9426096E-01
       -1   -1    0    0    0  501  0.00000000000E+00  0.00000000000E+00  0.11592904601E+04  0.11592904601E+04  0.50400001928E-02 0.  1.
        1   -1    0    0  501    0  0.00000000000E+00  0.00000000000E+00 -0.17451609052E+03  0.17451609059E+03  0.50400001928E-02 0. -1.
    10030    2    1    2    0    0  0.00000000000E+00  0.00000000000E+00  0.98477436958E+03  0.13338065507E+04  0.89958843686E+03 0.  0.
        2    1    3    3  502    0  0.10234342255E+03 -0.43711576348E+03  0.45123172663E+03  0.63651742941E+03  0.25500000920E-02 0. -1.
       -2    1    3    3    0  502 -0.10234342255E+03  0.43711576348E+03  0.53354264296E+03  0.69728912130E+03  0.25500000920E-02 0.  1.
</event>
<event>
 5   0  0.2351435E-04  0.8999659E+03  0.7818609E-02  0.9425624E-01
        1   -1    0    0  501    0  0.00000000000E+00  0.00000000000E+00  0.19624231077E+04  0.19624231077E+04  0.50400001928E-02 0. -1.
       -1   -1    0    0    0  501  0.00000000000E+00  0.00000000000E+00 -0.10318093641E+03  0.10318093653E+03  0.50400001928E-02 0.  1.
    10030    2    1    2    0    0  0.00000000000E+00  0.00000000000E+00  0.18592421713E+04  0.20656040442E+04  0.89996589716E+03 0.  0.
        4    1    3    3  502    0  0.28527223008E+03 -0.41573470036E+02  0.13661467074E+03  0.31902003045E+03  0.12699999809E+01 0.  1.
       -4    1    3    3    0  502 -0.28527223008E+03  0.41573470036E+02  0.17226275005E+04  0.17465840138E+04  0.12699999809E+01 0. -1.
</event>
<event>
 5   0  0.4033144E-04  0.8995542E+03  0.7818609E-02  0.9426139E-01
        2   -1    0    0  501    0  0.00000000000E+00  0.00000000000E+00  0.44021301807E+03  0.44021301807E+03  0.25500000920E-02 0.  1.
       -2   -1    0    0    0  501  0.00000000000E+00  0.00000000000E+00 -0.45954898728E+03  0.45954898729E+03  0.25500000920E-02 0. -1.
    10030    2    1    2    0    0  0.00000000000E+00  0.00000000000E+00 -0.19335969214E+02  0.89976200536E+03  0.89955421548E+03 0.  0.
        4    1    3    3  502    0 -0.62227347198E+01  0.41233581081E+03  0.16992373497E+03  0.44602155992E+03  0.12699999809E+01 0.  1.
       -4    1    3    3    0  502  0.62227347198E+01 -0.41233581081E+03 -0.18925970418E+03  0.45374044545E+03  0.12699999809E+01 0. -1.
</event>
<event>
 5   0  0.3959804E-04  0.9000141E+03  0.7818609E-02  0.9425564E-01
        2   -1    0    0  501    0  0.00000000000E+00  0.00000000000E+00  0.53177849093E+03  0.53177849094E+03  0.25500000920E-02 0. -1.
       -2   -1    0    0    0  501  0.00000000000E+00  0.00000000000E+00 -0.38080962268E+03  0.38080962268E+03  0.25500000920E-02 0.  1.
    10030    2    1    2    0    0  0.00000000000E+00  0.00000000000E+00  0.15096886826E+03  0.91258811362E+03  0.90001414764E+03 0.  0.
        5    1    3    3  502    0 -0.31975855288E+02  0.12256355169E+03 -0.36233497962E+03  0.38386587108E+03  0.46999998093E+01 0.  1.
       -5    1    3    3    0  502  0.31975855288E+02 -0.12256355169E+03  0.51330384787E+03  0.52872224255E+03  0.46999998093E+01 0. -1.
</event>
<event>
 5   0  0.2351435E-04  0.8999646E+03  0.7818609E-02  0.9425626E-01
       -1   -1    0    0    0  501  0.00000000000E+00  0.00000000000E+00  0.15192899801E+03  0.15192899809E+03  0.50400001928E-02 0. -1.
        1   -1    0    0  501    0  0.00000000000E+00  0.00000000000E+00 -0.13327545325E+04  0.13327545325E+04  0.50400001928E-02 0.  1.
    10030    2    1    2    0    0  0.00000000000E+00  0.00000000000E+00 -0.11808255345E+04  0.14846835306E+04  0.89996457883E+03 0.  0.
        4    1    3    3  502    0 -0.28548770241E+03  0.27031624988E+02 -0.11624816534E+04  0.11973300065E+04  0.12699999809E+01 0.  1.
       -4    1    3    3    0  502  0.28548770241E+03 -0.27031624988E+02 -0.18343881120E+02  0.28735352417E+03  0.12699999809E+01 0. -1.
</event>
<event>
 5   0  0.4033144E-04  0.9003482E+03  0.7818609E-02  0.9425146E-01
        2   -1    0    0  501    0  0.00000000000E+00  0.00000000000E+00  0.18392297630E+04  0.18392297630E+04  0.25500000920E-02 0.  1.
       -2   -1    0    0    0  501  0.00000000000E+00  0.00000000000E+00 -0.11018563777E+03  0.11018563780E+03  0.25500000920E-02 0. -1.
    10030    2    1    2    0    0  0.00000000000E+00  0.00000000000E+00  0.17290441253E+04  0.19494154008E+04  0.90034816483E+03 0.  0.
        4    1    3    3  502    0 -0.58921222265E+02  0.73698587640E+02 -0.88530587548E+02  0.12939269719E+03  0.12699999809E+01 0. -1.
       -4    1    3    3    0  502  0.58921222265E+02 -0.73698587640E+02  0.18175747128E+04  0.18200227036E+04  0.12699999809E+01 0.  1.
</event>
<event>
 5   0  0.4110039E-04  0.8998932E+03  0.7818609E-02  0.9425715E-01
        2   -1    0    0  501    0  0.00000000000E+00  0.00000000000E+00  0.63564636366E+03  0.63564636366E+03  0.25500000920E-02 0.  1.
       -2   -1    0    0    0  501  0.00000000000E+00  0.00000000000E+00 -0.31849779280E+03  0.31849779281E+03  0.25500000920E-02 0. -1.
    10030    2    1    2    0    0  0.00000000000E+00  0.00000000000E+00  0.31714857086E+03  0.95414415647E+03  0.89989324663E+03 0.  0.
        3    1    3    3  502    0  0.16957890381E+03  0.34720742959E+03 -0.85848531453E+02  0.39582822579E+03  0.10100000352E+00 0. -1.
       -3    1    3    3    0  502 -0.16957890381E+03 -0.34720742959E+03  0.40299710232E+03  0.55831593068E+03  0.10100000352E+00 0.  1.
</event>
<event>
 5   0  0.2356918E-04  0.8995914E+03  0.7818609E-02  0.9426092E-01
       -1   -1    0    0    0  501  0.00000000000E+00  0.00000000000E+00  0.11195476019E+04  0.11195476019E+04  0.50400001928E-02 0. -1.
        1   -1    0    0  501    0  0.00000000000E+00  0.00000000000E+00 -0.18071244691E+03  0.18071244698E+03  0.50400001928E-02 0.  1.
    10030    2    1    2    0    0  0.00000000000E+00  0.00000000000E+00  0.93883515502E+03  0.13002600489E+04  0.89959143309E+03 0.  0.
        5    1    3    3  502    0  0.36928704581E+03  0.18538790418E+03  0.72616245742E+03  0.83550918713E+03  0.46999998093E+01 0. -1.
       -5    1    3    3    0  502 -0.36928704581E+03 -0.18538790418E+03  0.21267269761E+03  0.46475086178E+03  0.46999998093E+01 0.  1.
</event>
<event>
 5   0  0.4236284E-04  0.9015319E+03  0.7818609E-02  0.9423668E-01
       -2   -1    0    0    0  501  0.00000000000E+00  0.00000000000E+00  0.19912399794E+03  0.19912399796E+03  0.25500000920E-02 0.  1.
        2   -1    0    0  501    0  0.00000000000E+00  0.00000000000E+00 -0.10204192407E+04  0.10204192407E+04  0.25500000920E-02 0. -1.
    10030    2    1    2    0    0  0.00000000000E+00  0.00000000000E+00 -0.82129524275E+03  0.12195432387E+04  0.90153193797E+03 0.  0.
        2    1    3    3  502    0  0.17355298864E+02 -0.23333338024E+03 -0.93183972661E+03  0.96076581373E+03  0.25500000920E-02 0. -1.
       -2    1    3    3    0  502 -0.17355298864E+02  0.23333338024E+03  0.11054448386E+03  0.25877742492E+03  0.25500000920E-02 0.  1.
</event>
<event>
 5   0  0.2356918E-04  0.9000386E+03  0.7818609E-02  0.9425533E-01
        1   -1    0    0  501    0  0.00000000000E+00  0.00000000000E+00  0.60575804660E+03  0.60575804662E+03  0.50400001928E-02 0. -1.
       -1   -1    0    0    0  501  0.00000000000E+00  0.00000000000E+00 -0.33432057904E+03  0.33432057908E+03  0.50400001928E-02 0.  1.
    10030    2    1    2    0    0  0.00000000000E+00  0.00000000000E+00  0.27143746756E+03  0.94007862570E+03  0.90003862345E+03 0.  0.
        5    1    3    3  502    0  0.28195008913E+03  0.17083554699E+03 -0.18419904244E+03  0.37766653824E+03  0.46999998093E+01 0.  1.
       -5    1    3    3    0  502 -0.28195008913E+03 -0.17083554699E+03  0.45563651000E+03  0.56241208746E+03  0.46999998093E+01 0. -1.
</event>
<event>
 5   0  0.4236284E-04  0.9003928E+03  0.7818609E-02  0.9425091E-01
        2   -1    0    0  501    0  0.00000000000E+00  0.00000000000E+00  0.23576235262E+04  0.23576235262E+04  0.25500000920E-02 0.  1.
       -2   -1    0    0    0  501  0.00000000000E+00  0.00000000000E+00 -0.85966568896E+02  0.85966568934E+02  0.25500000920E-02 0. -1.
    10030    2    1    2    0    0  0.00000000000E+00  0.00000000000E+00  0.22716569573E+04  0.24435900951E+04  0.90039281504E+03 0.  0.
        2    1    3    3  502    0  0.96118253861E+02 -0.33081361140E+02 -0.54413682236E+02  0.11529936687E+03  0.25500000920E-02 0. -1.
       -2    1    3    3    0  502 -0.96118253861E+02  0.33081361140E+02  0.23260706396E+04  0.23282907283E+04  0.25500000920E-02 0.  1.
</event>
<event>
 5   0  0.2450427E-04  0.9000219E+03  0.7818609E-02  0.9425554E-01
       -1   -1    0    0    0  501  0.00000000000E+00  0.00000000000E+00  0.27234960113E+03  0.27234960118E+03  0.50400001928E-02 0.  1.
        1   -1    0    0  501    0  0.00000000000E+00  0.00000000000E+00 -0.74356585872E+03  0.74356585874E+03  0.50400001928E-02 0. -1.
    10030    2    1    2    0    0  0.00000000000E+00  0.00000000000E+00 -0.47121625759E+03  0.10159154599E+04  0.90002192212E+03 0.  0.
        3    1    3    3  502    0 -0.96535287732E+00  0.31526021667E+03 -0.59808121256E+03  0.67608511531E+03  0.10100000352E+00 0. -1.
       -3    1    3    3    0  502  0.96535287732E+00 -0.31526021667E+03  0.12686495497E+03  0.33983034462E+03  0.10100000352E+00 0.  1.
</event>
<event>
 5   0  0.4110039E-04  0.8998956E+03  0.7818609E-02  0.9425712E-01
        2   -1    0    0  501    0  0.00000000000E+00  0.00000000000E+00  0.30202782560E+03  0.30202782562E+03  0.25500000920E-02 0. -1.
       -2   -1    0    0    0  501  0.00000000000E+00  0.00000000000E+00 -0.67031255205E+03  0.67031255205E+03  0.25500000920E-02 0.  1.
    10030    2    1    2    0    0  0.00000000000E+00  0.00000000000E+00 -0.36828472644E+03  0.97234037767E+03  0.89989564412E+03 0.  0.
        3    1    3    3  502    0 -0.13412976607E+03  0.34594208440E+03  0.90879868405E+02  0.38200246150E+03  0.10100000352E+00 0. -1.
       -3    1    3    3    0  502  0.13412976607E+03 -0.34594208440E+03 -0.45916459485E+03  0.59033791617E+03  0.10100000352E+00 0.  1.
</event>
<event>
 5   0  0.2332791E-04  0.8999831E+03  0.7818609E-02  0.9425603E-01
        1   -1    0    0  501    0  0.00000000000E+00  0.00000000000E+00  0.19986958363E+04  0.19986958363E+04  0.50400001928E-02 0. -1.
       -1   -1    0    0    0  501  0.00000000000E+00  0.00000000000E+00 -0.10131226654E+03  0.10131226666E+03  0.50400001928E-02 0.  1.
    10030    2    1    2    0    0  0.00000000000E+00  0.00000000000E+00  0.18973835698E+04  0.21000081030E+04  0.89998312304E+03 0.  0.
        2    1    3    3  502    0 -0.23671202969E+03  0.19722632031E+03  0.18342083074E+03  0.35857217903E+03  0.25500000920E-02 0.  1.
       -2    1    3    3    0  502  0.23671202969E+03 -0.19722632031E+03  0.17139627391E+04  0.17414359240E+04  0.25500000920E-02 0. -1.
</event>
<event>
 5   0  0.2308362E-04  0.8997733E+03  0.7818609E-02  0.9425865E-01
       -1   -1    0    0    0  501  0.00000000000E+00  0.00000000000E+00  0.17765719597E+04  0.17765719597E+04  0.50400001928E-02 0. -1.
        1   -1    0    0  501    0  0.00000000000E+00  0.00000000000E+00 -0.11392614502E+03  0.11392614513E+03  0.50400001928E-02 0.  1.
    10030    2    1    2    0    0  0.00000000000E+00  0.00000000000E+00  0.16626458147E+04  0.18904981048E+04  0.89977329328E+03 0.  0.
        1    1    3    3  502    0  0.19496898980E+03  0.39365845927E+03  0.62741929583E+03  0.76592092434E+03  0.50400001928E-02 0. -1.
       -1    1    3    3    0  502 -0.19496898980E+03 -0.39365845927E+03  0.10352265188E+04  0.11245771805E+04  0.50400001928E-02 0.  1.
</event>
<event>
 5   0  0.4236284E-04  0.8997821E+03  0.7818609E-02  0.9425854E-01
       -2   -1    0    0    0  501  0.00000000000E+00  0.00000000000E+00  0.58178863954E+03  0.58178863954E+03  0.25500000920E-02 0.  1.
        2   -1    0    0  501    0  0.00000000000E+00  0.00000000000E+00 -0.34789604205E+03  0.34789604206E+03  0.25500000920E-02 0. -1.
    10030    2    1    2    0    0  0.00000000000E+00  0.00000000000E+00  0.23389259748E+03  0.92968468160E+03  0.89978211810E+03 0.  0.
        2    1    3    3  502    0  0.23274896967E+03  0.21520125862E+03  0.44680231045E+03  0.54782841221E+03  0.25500000920E-02 0. -1.
       -2    1    3    3    0  502 -0.23274896967E+03 -0.21520125862E+03 -0.21290971297E+03  0.38185626940E+03  0.25500000920E-02 0.  1.
</event>
<event>
 5   0  0.2450427E-04  0.8989231E+03  0.7818609E-02  0.9426929E-01
        1   -1    0    0  501    0  0.00000000000E+00  0.00000000000E+00  0.34066118178E+03  0.34066118182E+03  0.50400001928E-02 0. -1.
       -1   -1    0    0    0  501  0.00000000000E+00  0.00000000000E+00 -0.59301059192E+03  0.59301059194E+03  0.50400001928E-02 0.  1.
    10030    2    1    2    0    0  0.00000000000E+00  0.00000000000E+00 -0.25234941014E+03  0.93367177376E+03  0.89892310924E+03 0.  0.
        3    1    3    3  502    0  0.43259040880E+03  0.59862245111E+02 -0.23657424290E+03  0.49667427231E+03  0.10100000352E+00 0.  1.
       -3    1    3    3    0  502 -0.43259040880E+03 -0.59862245111E+02 -0.15775167244E+02  0.43699750145E+03  0.10100000352E+00 0. -1.
</event>
<event>
 5   0  0.4033144E-04  0.8998959E+03  0.7818609E-02  0.9425712E-01
       -2   -1    0    0    0  501  0.00000000000E+00  0.00000000000E+00  0.14494900204E+03  0.14494900206E+03  0.25500000920E-02 0. -1.
        2   -1    0    0  501    0  0.00000000000E+00  0.00000000000E+00 -0.13967199729E+04  0.13967199729E+04  0.25500000920E-02 0.  1.
    10030    2    1    2    0    0  0.00000000000E+00  0.00000000000E+00 -0.12517709709E+04  0.15416689750E+04  0.89989591890E+03 0.  0.
        4    1    3    3  502    0  0.39719380485E+03 -0.98425214077E+02 -0.94639414739E+03  0.10310741663E+04  0.12699999809E+01 0. -1.
       -4    1    3    3    0  502 -0.39719380485E+03  0.98425214077E+02 -0.30537682348E+03  0.51059480863E+03  0.12699999809E+01 0.  1.
</event>
<event>
 5   0  0.4110039E-04  0.8999490E+03  0.7818609E-02  0.9425645E-01
       -2   -1    0    0    0  501  0.00000000000E+00  0.00000000000E+00  0.16635609474E+03  0.16635609476E+03  0.25500000920E-02 0.  1.
        2   -1    0    0  501    0  0.00000000000E+00  0.00000000000E+00 -0.12171302349E+04  0.12171302350E+04  0.25500000920E-02 0. -1.
    10030    2    1    2    0    0  0.00000000000E+00  0.00000000000E+00 -0.10507741402E+04  0.13834863297E+04  0.89994896009E+03 0.  0.
        3    1    3    3  502    0 -0.73746076742E+02 -0.16164885146E+03  0.11014639931E+03  0.20904801959E+03  0.10100000352E+00 0.  1.
       -3    1    3    3    0  502  0.73746076742E+02  0.16164885146E+03 -0.11609205395E+04  0.11744383101E+04  0.10100000352E+00 0. -1.
</event>
<event>
 5   0  0.3959804E-04  0.8997744E+03  0.7818609E-02  0.9425863E-01
       -2   -1    0    0    0  501  0.00000000000E+00  0.00000000000E+00  0.26045280170E+03  0.26045280171E+03  0.25500000920E-02 0. -1.
        2   -1    0    0  501    0  0.00000000000E+00  0.00000000000E+00 -0.77710242979E+03  0.77710242980E+03  0.25500000920E-02 0.  1.
    10030    2    1    2    0    0  0.00000000000E+00  0.00000000000E+00 -0.51664962809E+03  0.10375552315E+04  0.89977442741E+03 0.  0.
        5    1    3    3  502    0 -0.11493904684E+03  0.15406810241E+03 -0.72733543698E+03  0.75232100367E+03  0.46999998093E+01 0.  1.
       -5    1    3    3    0  502  0.11493904684E+03 -0.15406810241E+03  0.21068580889E+03  0.28523422785E+03  0.46999998093E+01 0. -1.
</event>
<event>
 5   0  0.2351435E-04  0.9015238E+03  0.7818609E-02  0.9423679E-01
        1   -1    0    0  501    0  0.00000000000E+00  0.00000000000E+00  0.91973127648E+03  0.91973127650E+03  0.50400001928E-02 0.  1.
       -1   -1    0    0    0  501  0.00000000000E+00  0.00000000000E+00 -0.22091917507E+03  0.22091917512E+03  0.50400001928E-02 0. -1.
    10030    2    1    2    0    0  0.00000000000E+00  0.00000000000E+00  0.69881210142E+03  0.11406504516E+04  0.90152376546E+03 0.  0.
        4    1    3    3  502    0 -0.10787454721E+03  0.30653915739E+03 -0.45832335592E+02  0.32818499179E+03  0.12699999809E+01 0. -1.
       -4    1    3    3    0  502  0.10787454721E+03 -0.30653915739E+03  0.74464443701E+03  0.81246545983E+03  0.12699999809E+01 0.  1.
</event>
<event>
 5   0  0.2308362E-04  0.9000248E+03  0.7818609E-02  0.9425550E-01
       -1   -1    0    0    0  501  0.00000000000E+00  0.00000000000E+00  0.25349891658E+03  0.25349891663E+03  0.50400001928E-02 0.  1.
        1   -1    0    0  501    0  0.00000000000E+00  0.00000000000E+00 -0.79886395013E+03  0.79886395015E+03  0.50400001928E-02 0. -1.
    10030    2    1    2    0    0  0.00000000000E+00  0.00000000000E+00 -0.54536503355E+03  0.10523628668E+04  0.90002476830E+03 0.  0.
        1    1    3    3  502    0  0.86342617183E+02 -0.29935608048E+03  0.10699767875E+03  0.32942011739E+03  0.50400001928E-02 0.  1.
       -1    1    3    3    0  502 -0.86342617183E+02  0.29935608048E+03 -0.65236271230E+03  0.72294274938E+03  0.50400001928E-02 0. -1.
</event>
<event>
 5   0  0.2356918E-04  0.9003318E+03  0.7818609E-02  0.9425167E-01
       -1   -1    0    0    0  501  0.00000000000E+00  0.00000000000E+00  0.11229115440E+03  0.11229115452E+03  0.50400001928E-02 0.  1.
        1   -1    0    0  501    0  0.00000000000E+00  0.00000000000E+00 -0.18046777121E+04  0.18046777121E+04  0.50400001928E-02 0. -1.
    10030    2    1    2    0    0  0.00000000000E+00  0.00000000000E+00 -0.16923865577E+04  0.19169688666E+04  0.90033181380E+03 0.  0.
        5    1    3    3  502    0 -0.28473033759E+03 -0.17871747741E+02 -0.15875532598E+04  0.16129904548E+04  0.46999998093E+01 0. -1.
       -5    1    3    3    0  502  0.28473033759E+03  0.17871747741E+02 -0.10483329787E+03  0.30397841182E+03  0.46999998093E+01 0.  1.
</event>
<event>
 5   0  0.4033144E-04  0.8999989E+03  0.7818609E-02  0.9425583E-01
       -2   -1    0    0    0  501  0.00000000000E+00  0.00000000000E+00  0.30381915969E+03  0.30381915970E+03  0.25500000920E-02 0. -1.
        2   -1    0    0  501    0  0.00000000000E+00  0.00000000000E+00 -0.66651331829E+03  0.66651331829E+03  0.25500000920E-02 0.  1.
    10030    2    1    2    0    0  0.00000000000E+00  0.00000000000E+00 -0.36269415859E+03  0.97033247799E+03  0.89999892509E+03 0.  0.
        4    1    3    3  502    0 -0.38636232742E+02 -0.39183932576E+03  0.53548514638E+02  0.39736616868E+03  0.12699999809E+01 0. -1.
       -4    1    3    3    0  502  0.38636232742E+02  0.39183932576E+03 -0.41624267323E+03  0.57296630931E+03  0.12699999809E+01 0.  1.
</event>
<event>
 5   0  0.4243516E-04  0.9005511E+03  0.7818609E-02  0.9424893E-01
       -2   -1    0    0    0  501  0.00000000000E+00  0.00000000000E+00  0.54196060962E+03  0.54196060962E+03  0.25500000920E-02 0.  1.
        2   -1    0    0  501    0  0.00000000000E+00  0.00000000000E+00 -0.37410111592E+03  0.37410111593E+03  0.25500000920E-02 0. -1.
    10030    2    1    2    0    0  0.00000000000E+00  0.00000000000E+00  0.16785949370E+03  0.91606172555E+03  0.90055109538E+03 0.  0.
        1    1    3    3  502    0  0.28016504352E+02 -0.76604855605E+02  0.53438272503E+03  0.54057203521E+03  0.50400001928E-02 0.  1.
       -1    1    3    3    0  502 -0.28016504352E+02  0.76604855605E+02 -0.36652323133E+03  0.37548969034E+03  0.50400001928E-02 0. -1.
</event>
<event>
 5   0  0.3959804E-04  0.8999598E+03  0.7818609E-02  0.9425632E-01
        2   -1    0    0  501    0  0.00000000000E+00  0.00000000000E+00  0.69127595695E+03  0.69127595696E+03  0.25500000920E-02 0.  1.
       -2   -1    0    0    0  501  0.00000000000E+00  0.00000000000E+00 -0.29291035850E+03  0.29291035851E+03  0.25500000920E-02 0. -1.
    10030    2    1    2    0    0  0.00000000000E+00  0.00000000000E+00  0.39836559846E+03  0.98418631547E+03  0.89995975106E+03 0.  0.
        5    1    3    3  502    0 -0.36029103955E+03 -0.17433897276E+03  0.42398413023E+03  0.58308519385E+03  0.46999998093E+01 0.  1.
       -5    1    3    3    0  502  0.36029103955E+03  0.17433897276E+03 -0.25618531773E+02  0.40110112162E+03  0.46999998093E+01 0. -1.
</event>
<event>
 5   0  0.4033144E-04  0.9000339E+03  0.7818609E-02  0.9425539E-01
        2   -1    0    0  501    0  0.00000000000E+00  0.00000000000E+00  0.10816496708E+04  0.10816496708E+04  0.25500000920E-02 0. -1.
       -2   -1    0    0    0  501  0.00000000000E+00  0.00000000000E+00 -0.18722813834E+03  0.18722813836E+03  0.25500000920E-02 0.  1.
    10030    2    1    2    0    0  0.00000000000E+00  0.00000000000E+00  0.89442153246E+03  0.12688778092E+04  0.90003389762E+03 0.  0.
        4    1    3    3  502    0 -0.20064336703E+01 -0.41919400985E+03  0.21647503745E+03  0.47179518693E+03  0.12699999809E+01 0.  1.
       -4    1    3    3    0  502  0.20064336703E+01  0.41919400985E+03  0.67794649502E+03  0.79708262224E+03  0.12699999809E+01 0. -1.
</event>
<event>
 5   0  0.4236284E-04  0.9002719E+03  0.7818609E-02  0.9425242E-01
       -2   -1    0    0    0  501  0.00000000000E+00  0.00000000000E+00  0.55098660011E+03  0.55098660011E+03  0.25500000920E-02 0.  1.
        2   -1    0    0  501    0  0.00000000000E+00  0.00000000000E+00 -0.36774466787E+03  0.36774466788E+03  0.25500000920E-02 0. -1.
    10030    2    1    2    0    0  0.00000000000E+00  0.00000000000E+00  0.18324193223E+03  0.91873126799E+03  0.90027192396E+03 0.  0.
        2    1    3    3  502    0 -0.17419327625E+03  0.22307281370E+03  0.44882309866E+03  0.53060998068E+03  0.25500000920E-02 0.  1.
       -2    1    3    3    0  502  0.17419327625E+03 -0.22307281370E+03 -0.26558116643E+03  0.38812128732E+03  0.25500000920E-02 0. -1.
</event>
<event>
 5   0  0.3959804E-04  0.9007163E+03  0.7818609E-02  0.9424686E-01
       -2   -1    0    0    0  501  0.00000000000E+00  0.00000000000E+00  0.42955207664E+03  0.42955207665E+03  0.25500000920E-02 0. -1.
        2   -1    0    0  501    0  0.00000000000E+00  0.00000000000E+00 -0.47217204552E+03  0.47217204552E+03  0.25500000920E-02 0.  1.
    10030    2    1    2    0    0  0.00000000000E+00  0.00000000000E+00 -0.42619968877E+02  0.90172412217E+03  0.90071634312E+03 0.  0.
        5    1    3    3  502    0  0.42747901034E+03 -0.48818018429E+02 -0.15442073595E+03  0.45715353754E+03  0.46999998093E+01 0.  1.
       -5    1    3    3    0  502 -0.42747901034E+03  0.48818018429E+02  0.11180076707E+03  0.44457058463E+03  0.46999998093E+01 0. -1.
</event>
<event>
 5   0  0.3959804E-04  0.9004001E+03  0.7818609E-02  0.9425081E-01
       -2   -1    0    0    0  501  0.00000000000E+00  0.00000000000E+00  0.64093359446E+03  0.64093359446E+03  0.25500000920E-02 0.  1.
        2   -1    0    0  501    0  0.00000000000E+00  0.00000000000E+00 -0.31622632905E+03  0.31622632906E+03  0.25500000920E-02 0. -1.
    10030    2    1    2    0    0  0.00000000000E+00  0.00000000000E+00  0.32470726540E+03  0.95715992352E+03  0.90040008385E+03 0.  0.
        5    1    3    3  502    0  0.33603117301E+02 -0.10234880353E+03 -0.30229699144E+03  0.32095172240E+03  0.46999998093E+01 0. -1.
       -5    1    3    3    0  502 -0.33603117301E+02  0.10234880353E+03  0.62700425685E+03  0.63620820112E+03  0.46999998093E+01 0.  1.
</event>
<event>
 5   0  0.2332791E-04  0.9001673E+03  0.7818609E-02  0.9425372E-01
       -1   -1    0    0    0  501  0.00000000000E+00  0.00000000000E+00  0.11445744499E+04  0.11445744499E+04  0.50400001928E-02 0. -1.
        1   -1    0    0  501    0  0.00000000000E+00  0.00000000000E+00 -0.17698743512E+03  0.17698743519E+03  0.50400001928E-02 0.  1.
    10030    2    1    2    0    0  0.00000000000E+00  0.00000000000E+00  0.96758701482E+03  0.13215618851E+04  0.90016730944E+03 0.  0.
        2    1    3    3  502    0  0.41686344458E+03  0.86267611000E+02  0.26923526122E+03  0.50369123283E+03  0.25500000920E-02 0.  1.
       -2    1    3    3    0  502 -0.41686344458E+03 -0.86267611000E+02  0.69835175360E+03  0.81787065230E+03  0.25500000920E-02 0. -1.
</event>
<event>
 5   0  0.2332791E-04  0.9001154E+03  0.7818609E-02  0.9425437E-01
        1   -1    0    0  501    0  0.00000000000E+00  0.00000000000E+00  0.22018360480E+03  0.22018360486E+03  0.50400001928E-02 0.  1.
       -1   -1    0    0    0  501  0.00000000000E+00  0.00000000000E+00 -0.91992281356E+03  0.91992281357E+03  0.50400001928E-02 0. -1.
    10030    2    1    2    0    0  0.00000000000E+00  0.00000000000E+00 -0.69973920875E+03  0.11401064184E+04  0.90011537321E+03 0.  0.
        2    1    3    3  502    0 -0.24526000517E+03  0.25094361455E+03  0.70994896884E+01  0.35096377389E+03  0.25500000920E-02 0.  1.
       -2    1    3    3    0  502  0.24526000517E+03 -0.25094361455E+03 -0.70683869844E+03  0.78914264455E+03  0.25500000920E-02 0. -1.
</event>
<event>
 5   0  0.1596250E-04  0.8988732E+03  0.7818609E-02  0.9426991E-01
        4   -1    0    0  501    0  0.00000000000E+00  0.00000000000E+00  0.17809141952E+03  0.17809594775E+03  0.12699999809E+01 0. -1.
       -4   -1    0    0    0  501  0.00000000000E+00  0.00000000000E+00 -0.11341916391E+04  0.11341923502E+04  0.12699999809E+01 0.  1.
    10030    2    1    2    0    0  0.00000000000E+00  0.00000000000E+00 -0.95610021961E+03  0.13122882979E+04  0.89887315396E+03 0.  0.
        1    1    3    3  502    0 -0.36007641848E+03  0.26313593626E+03 -0.39679517894E+03  0.59694385176E+03  0.50400001928E-02 0.  1.
       -1    1    3    3    0  502  0.36007641848E+03 -0.26313593626E+03 -0.55930504068E+03  0.71534444616E+03  0.50400001928E-02 0. -1.
</event>
<event>
 5   0  0.2450427E-04  0.9010348E+03  0.7818609E-02  0.9424289E-01
       -1   -1    0    0    0  501  0.00000000000E+00  0.00000000000E+00  0.67920567956E+03  0.67920567958E+03  0.50400001928E-02 0.  1.
        1   -1    0    0  501    0  0.00000000000E+00  0.00000000000E+00 -0.29882836896E+03  0.29882836901E+03  0.50400001928E-02 0. -1.
    10030    2    1    2    0    0  0.00000000000E+00  0.00000000000E+00  0.38037731060E+03  0.97803404858E+03  0.90103479498E+03 0.  0.
        3    1    3    3  502    0  0.35144660654E+03  0.15178562600E+02 -0.11532600090E+03  0.37019616786E+03  0.10100000352E+00 0. -1.
       -3    1    3    3    0  502 -0.35144660654E+03 -0.15178562600E+02  0.49570331150E+03  0.60783788072E+03  0.10100000352E+00 0.  1.
</event>
<event>
 5   0  0.4110039E-04  0.9003326E+03  0.7818609E-02  0.9425166E-01
        2   -1    0    0  501    0  0.00000000000E+00  0.00000000000E+00  0.84945985510E+03  0.84945985511E+03  0.25500000920E-02 0. -1.
       -2   -1    0    0    0  501  0.00000000000E+00  0.00000000000E+00 -0.23856300189E+03  0.23856300190E+03  0.25500000920E-02 0.  1.
    10030    2    1    2    0    0  0.00000000000E+00  0.00000000000E+00  0.61089685321E+03  0.10880228570E+04  0.90033258972E+03 0.  0.
        3    1    3    3  502    0  0.35412334338E+03  0.19424702028E+03  0.65226337282E+02  0.40913290321E+03  0.10100000352E+00 0.  1.
       -3    1    3    3    0  502 -0.35412334338E+03 -0.19424702028E+03  0.54567051593E+03  0.67888995380E+03  0.10100000352E+00 0. -1.
</event>
<event>
 5   0  0.2308362E-04  0.9002050E+03  0.7818609E-02  0.9425325E-01
       -1   -1    0    0    0  501  0.00000000000E+00  0.00000000000E+00  0.13675040184E+03  0.13675040193E+03  0.50400001928E-02 0.  1.
        1   -1    0    0  501    0  0.00000000000E+00  0.00000000000E+00 -0.14814747565E+04  0.14814747565E+04  0.50400001928E-02 0. -1.
    10030    2    1    2    0    0  0.00000000000E+00  0.00000000000E+00 -0.13447243547E+04  0.16182251584E+04  0.90020501741E+03 0.  0.
        1    1    3    3  502    0  0.45405471328E+01 -0.17631457196E+03 -0.14167690344E+04  0.14277051312E+04  0.50400001928E-02 0. -1.
       -1    1    3    3    0  502 -0.45405471328E+01  0.17631457196E+03  0.72044679764E+02  0.19052002719E+03  0.50400001928E-02 0.  1.
</event>
<event>
 5   0  0.2332791E-04  0.8995849E+03  0.7818609E-02  0.9426101E-01
        1   -1    0    0  501    0  0.00000000000E+00  0.00000000000E+00  0.35176612250E+03  0.35176612253E+03  0.50400001928E-02 0.  1.
       -1   -1    0    0    0  501  0.00000000000E+00  0.00000000000E+00 -0.57513563375E+03  0.57513563378E+03  0.50400001928E-02 0. -1.
    10030    2    1    2    0    0  0.00000000000E+00  0.00000000000E+00 -0.22336951126E+03  0.92690175631E+03  0.89958486386E+03 0.  0.
        2    1    3    3  502    0  0.26925621128E+03 -0.32139374219E+02 -0.48144320894E+03  0.55255715553E+03  0.25500000920E-02 0.  1.
       -2    1    3    3    0  502 -0.26925621128E+03  0.32139374219E+02  0.25807369768E+03  0.37434460078E+03  0.25500000920E-02 0. -1.
</event>
<event>
 5   0  0.2356918E-04  0.8999807E+03  0.7818609E-02  0.9425606E-01
       -1   -1    0    0    0  501  0.00000000000E+00  0.00000000000E+00  0.18401828367E+03  0.18401828373E+03  0.50400001928E-02 0. -1.
        1   -1    0    0  501    0  0.00000000000E+00  0.00000000000E+00 -0.11003868557E+04  0.11003868557E+04  0.50400001928E-02 0.  1.
    10030    2    1    2    0    0  0.00000000000E+00  0.00000000000E+00 -0.91636857199E+03  0.12844051394E+04  0.89998066779E+03 0.  0.
        5    1    3    3  502    0 -0.14113908013E+03  0.75403870470E+02  0.14200415408E+03  0.21399358261E+03  0.46999998093E+01 0. -1.
       -5    1    3    3    0  502  0.14113908013E+03 -0.75403870470E+02 -0.10583727261E+04  0.10704115568E+04  0.46999998093E+01 0.  1.
</event>
<event>
 5   0  0.4236284E-04  0.8994408E+03  0.7818609E-02  0.9426281E-01
       -2   -1    0    0    0  501  0.00000000000E+00  0.00000000000E+00  0.13828741959E+03  0.13828741961E+03  0.25500000920E-02 0. -1.
        2   -1    0    0  501    0  0.00000000000E+00  0.00000000000E+00 -0.14625223124E+04  0.14625223124E+04  0.25500000920E-02 0.  1.
    10030    2    1    2    0    0  0.00000000000E+00  0.00000000000E+00 -0.13242348928E+04  0.16008097320E+04  0.89944079669E+03 0.  0.
        2    1    3    3  502    0  0.34323679703E+03 -0.21976860909E+03 -0.32377742356E+03  0.52052047067E+03  0.25500000920E-02 0. -1.
       -2    1    3    3    0  502 -0.34323679703E+03  0.21976860909E+03 -0.10004574692E+04  0.10802892613E+04  0.25500000920E-02 0.  1.
</event>
<event>
 5   0  0.4033144E-04  0.9013013E+03  0.7818609E-02  0.9423956E-01
       -2   -1    0    0    0  501  0.00000000000E+00  0.00000000000E+00  0.27703257113E+03  0.27703257114E+03  0.25500000920E-02 0.  1.
        2   -1    0    0  501    0  0.00000000000E+00  0.00000000000E+00 -0.73307622076E+03  0.73307622076E+03  0.25500000920E-02 0. -1.
    10030    2    1    2    0    0  0.00000000000E+00  0.00000000000E+00 -0.45604364963E+03  0.10101087919E+04  0.90130125992E+03 0.  0.
        4    1    3    3  502    0  0.18584439793E+03  0.27391689657E+02 -0.68710236871E+03  0.71231995823E+03  0.12699999809E+01 0. -1.
       -4    1    3    3    0  502 -0.18584439793E+03 -0.27391689657E+02  0.23105871908E+03  0.29778883368E+03  0.12699999809E+01 0.  1.
</event>
<event>
 5   0  0.2450427E-04  0.9016164E+03  0.7818609E-02  0.9423563E-01
       -1   -1    0    0    0  501  0.00000000000E+00  0.00000000000E+00  0.32483271617E+03  0.32483271621E+03  0.50400001928E-02 0. -1.
        1   -1    0    0  501    0  0.00000000000E+00  0.00000000000E+00 -0.62563911005E+03  0.62563911007E+03  0.50400001928E-02 0.  1.
    10030    2    1    2    0    0  0.00000000000E+00  0.00000000000E+00 -0.30080639388E+03  0.95047182628E+03  0.90161644060E+03 0.  0.
        3    1    3    3  502    0 -0.22012336600E+02 -0.16193968022E+03 -0.59331086793E+03  0.61540783160E+03  0.10100000352E+00 0.  1.
       -3    1    3    3    0  502  0.22012336600E+02  0.16193968022E+03  0.29250447405E+03  0.33506399468E+03  0.10100000352E+00 0. -1.
</event>
<event>
 5   0  0.4236284E-04  0.8996975E+03  0.7818609E-02  0.9425960E-01
       -2   -1    0    0    0  501  0.00000000000E+00  0.00000000000E+00  0.24271672224E+03  0.24271672225E+03  0.25500000920E-02 0.  1.
        2   -1    0    0  501    0  0.00000000000E+00  0.00000000000E+00 -0.83374516692E+03  0.83374516693E+03  0.25500000920E-02 0. -1.
    10030    2    1    2    0    0  0.00000000000E+00  0.00000000000E+00 -0.59102844468E+03  0.10764618892E+04  0.89969749162E+03 0.  0.
        2    1    3    3  502    0 -0.97522423109E+01  0.39824662666E+03 -0.45487832685E+02  0.40095464183E+03  0.25500000920E-02 0.  1.
       -2    1    3    3    0  502  0.97522423109E+01 -0.39824662666E+03 -0.54554061200E+03  0.67550724735E+03  0.25500000920E-02 0. -1.
</event>
<event>
 5   0  0.2356918E-04  0.8997624E+03  0.7818609E-02  0.9425879E-01
       -1   -1    0    0    0  501  0.00000000000E+00  0.00000000000E+00  0.25841399096E+03  0.25841399101E+03  0.50400001928E-02 0.  1.
        1   -1    0    0  501    0  0.00000000000E+00  0.00000000000E+00 -0.78321256036E+03  0.78321256038E+03  0.50400001928E-02 0. -1.
    10030    2    1    2    0    0  0.00000000000E+00  0.00000000000E+00 -0.52479856940E+03  0.10416265514E+04  0.89976237647E+03 0.  0.
        5    1    3    3  502    0 -0.38837178518E+03  0.11424968762E+03 -0.48950704944E+03  0.63523607903E+03  0.46999998093E+01 0. -1.
       -5    1    3    3    0  502  0.38837178518E+03 -0.11424968762E+03 -0.35291519957E+02  0.40639047236E+03  0.46999998093E+01 0.  1.
</event>
<event>
 5   0  0.1596250E-04  0.8999488E+03  0.7818609E-02  0.9425645E-01
       -3   -1    0    0    0  501  0.00000000000E+00  0.00000000000E+00  0.68378844089E+03  0.68378844835E+03  0.10100000352E+00 0. -1.
        3   -1    0    0  501    0  0.00000000000E+00  0.00000000000E+00 -0.29611049429E+03  0.29611051151E+03  0.10100000352E+00 0.  1.
    10030    2    1    2    0    0  0.00000000000E+00  0.00000000000E+00  0.38767794660E+03  0.97989895986E+03  0.89994876590E+03 0.  0.
        2    1    3    3  502    0  0.47977671958E+01 -0.96579267498E+02  0.67234157314E+03  0.67925971797E+03  0.25500000920E-02 0. -1.
       -2    1    3    3    0  502 -0.47977671958E+01  0.96579267498E+02 -0.28466362654E+03  0.30063924188E+03  0.25500000920E-02 0.  1.
</event>
<event>
 5   0  0.2351435E-04  0.8999234E+03  0.7818609E-02  0.9425677E-01
       -1   -1    0    0    0  501  0.00000000000E+00  0.00000000000E+00  0.43153840835E+03  0.43153840838E+03  0.50400001928E-02 0.  1.
        1   -1    0    0  501    0  0.00000000000E+00  0.00000000000E+00 -0.46917155909E+03  0.46917155912E+03  0.50400001928E-02 0. -1.
    10030    2    1    2    0    0  0.00000000000E+00  0.00000000000E+00 -0.37633150735E+02  0.90070996750E+03  0.89992343648E+03 0.  0.
        4    1    3    3  502    0  0.64365218877E+02 -0.34112806479E+03 -0.30534059274E+03  0.46232643064E+03  0.12699999809E+01 0. -1.
       -4    1    3    3    0  502 -0.64365218877E+02  0.34112806479E+03  0.26770744201E+03  0.43838353687E+03  0.12699999809E+01 0.  1.
</event>
<event>
 5   0  0.2332791E-04  0.9008399E+03  0.7818609E-02  0.9424532E-01
        1   -1    0    0  501    0  0.00000000000E+00  0.00000000000E+00  0.17216997557E+04  0.17216997557E+04  0.50400001928E-02 0. -1.
       -1   -1    0    0    0  501  0.00000000000E+00  0.00000000000E+00 -0.11783595414E+03  0.11783595425E+03  0.50400001928E-02 0.  1.
    10030    2    1    2    0    0  0.00000000000E+00  0.00000000000E+00  0.16038638016E+04  0.18395357100E+04  0.90083990490E+03 0.  0.
        2    1    3    3  502    0  0.16704206191E+03  0.92452339776E+02  0.16349862666E+04  0.16460955554E+04  0.25500000920E-02 0. -1.
       -2    1    3    3    0  502 -0.16704206191E+03 -0.92452339776E+02 -0.31122464982E+02  0.19344015460E+03  0.25500000920E-02 0.  1.
</event>
<event>
 5   0  0.2356918E-04  0.8999461E+03  0.7818609E-02  0.9425649E-01
        1   -1    0    0  501    0  0.00000000000E+00  0.00000000000E+00  0.84169001160E+03  0.84169001162E+03  0.50400001928E-02 0. -1.
       -1   -1    0    0    0  501  0.00000000000E+00  0.00000000000E+00 -0.24055857737E+03  0.24055857743E+03  0.50400001928E-02 0.  1.
    10030    2    1    2    0    0  0.00000000000E+00  0.00000000000E+00  0.60113143423E+03  0.10822485890E+04  0.89994611354E+03 0.  0.
        5    1    3    3  502    0  0.24011432032E+03  0.27532704232E+03  0.61644092353E+03  0.71657614338E+03  0.46999998093E+01 0. -1.
       -5    1    3    3    0  502 -0.24011432032E+03 -0.27532704232E+03 -0.15309489296E+02  0.36567244567E+03  0.46999998093E+01 0.  1.
</event>
<event>
 5   0  0.2308362E-04  0.9012308E+03  0.7818609E-02  0.9424044E-01
        1   -1    0    0  501    0  0.00000000000E+00  0.00000000000E+00  0.61974172689E+03  0.61974172691E+03  0.50400001928E-02 0.  1.
       -1   -1    0    0    0  501  0.00000000000E+00  0.00000000000E+00 -0.32764329406E+03  0.32764329410E+03  0.50400001928E-02 0. -1.
    10030    2    1    2    0    0  0.00000000000E+00  0.00000000000E+00  0.29209843283E+03  0.94738502101E+03  0.90123076045E+03 0.  0.
        1    1    3    3  502    0  0.60575659295E+02  0.37900293624E+02  0.61374825941E+03  0.61789381670E+03  0.50400001928E-02 0.  1.
       -1    1    3    3    0  502 -0.60575659295E+02 -0.37900293624E+02 -0.32164982658E+03  0.32949120432E+03  0.50400001928E-02 0. -1.
</event>
<event>
 5   0  0.4110039E-04  0.9003530E+03  0.7818609E-02  0.9425140E-01
       -2   -1    0    0    0  501  0.00000000000E+00  0.00000000000E+00  0.15831415028E+03  0.15831415030E+03  0.25500000920E-02 0.  1.
        2   -1    0    0  501    0  0.00000000000E+00  0.00000000000E+00 -0.12801058537E+04  0.12801058537E+04  0.25500000920E-02 0. -1.
    10030    2    1    2    0    0  0.00000000000E+00  0.00000000000E+00 -0.11217917034E+04  0.14384200040E+04  0.90035297636E+03 0.  0.
        3    1    3    3  502    0  0.34462148955E+03  0.49106172424E+02 -0.10169408274E+04  0.10748693147E+04  0.10100000352E+00 0. -1.
       -3    1    3    3    0  502 -0.34462148955E+03 -0.49106172424E+02 -0.10485087602E+03  0.36355068922E+03  0.10100000352E+00 0.  1.
</event>
<event>
 5   0  0.4110039E-04  0.8994865E+03  0.7818609E-02  0.9426224E-01
        2   -1    0    0  501    0  0.00000000000E+00  0.00000000000E+00  0.10988440363E+04  0.10988440363E+04  0.25500000920E-02 0. -1.
       -2   -1    0    0    0  501  0.00000000000E+00  0.00000000000E+00 -0.18407432715E+03  0.18407432717E+03  0.25500000920E-02 0.  1.
    10030    2    1    2    0    0  0.00000000000E+00  0.00000000000E+00  0.91476970912E+03  0.12829183634E+04  0.89948646822E+03 0.  0.
        3    1    3    3  502    0  0.38325951551E+03 -0.22520157275E+03  0.55480461406E+03  0.71092318473E+03  0.10100000352E+00 0. -1.
       -3    1    3    3    0  502 -0.38325951551E+03  0.22520157275E+03  0.35996509506E+03  0.57199517871E+03  0.10100000352E+00 0.  1.
</event>
<event>
 5   0  0.2356918E-04  0.9003817E+03  0.7818609E-02  0.9425104E-01
        1   -1    0    0  501    0  0.00000000000E+00  0.00000000000E+00  0.11854632530E+04  0.11854632530E+04  0.50400001928E-02 0. -1.
       -1   -1    0    0    0  501  0.00000000000E+00  0.00000000000E+00 -0.17096420721E+03  0.17096420728E+03  0.50400001928E-02 0.  1.
    10030    2    1    2    0    0  0.00000000000E+00  0.00000000000E+00  0.10144990458E+04  0.13564274603E+04  0.90038166413E+03 0.  0.
        5    1    3    3  502    0  0.16161402334E+03 -0.27911217542E+03  0.34133306077E+02  0.32436071216E+03  0.46999998093E+01 0.  1.
       -5    1    3    3    0  502 -0.16161402334E+03  0.27911217542E+03  0.98036573969E+03  0.10320667481E+04  0.46999998093E+01 0. -1.
</event>
<event>
 5   0  0.2450427E-04  0.8994773E+03  0.7818609E-02  0.9426235E-01
        1   -1    0    0  501    0  0.00000000000E+00  0.00000000000E+00  0.27801859353E+03  0.27801859358E+03  0.50400001928E-02 0.  1.
       -1   -1    0    0    0  501  0.00000000000E+00  0.00000000000E+00 -0.72752272937E+03  0.72752272939E+03  0.50400001928E-02 0. -1.
    10030    2    1    2    0    0  0.00000000000E+00  0.00000000000E+00 -0.44950413584E+03  0.10055413230E+04  0.89947728379E+03 0.  0.
        3    1    3    3  502    0  0.26117935017E+03 -0.32199137743E+03 -0.41957699801E+03  0.58986266839E+03  0.10100000352E+00 0. -1.
       -3    1    3    3    0  502 -0.26117935017E+03  0.32199137743E+03 -0.29927137825E+02  0.41567865458E+03  0.10100000352E+00 0.  1.
</event>
<event>
 5   0  0.2450427E-04  0.9012371E+03  0.7818609E-02  0.9424036E-01
        1   -1    0    0  501    0  0.00000000000E+00  0.00000000000E+00  0.98005459054E+03  0.98005459056E+03  0.50400001928E-02 0. -1.
       -1   -1    0    0    0  501  0.00000000000E+00  0.00000000000E+00 -0.20718956859E+03  0.20718956865E+03  0.50400001928E-02 0.  1.
    10030    2    1    2    0    0  0.00000000000E+00  0.00000000000E+00  0.77286502195E+03  0.11872441592E+04  0.90123712275E+03 0.  0.
        3    1    3    3  502    0  0.14578622490E+03  0.39795081606E+03  0.18475065735E+03  0.46233244637E+03  0.10100000352E+00 0.  1.
       -3    1    3    3    0  502 -0.14578622490E+03 -0.39795081606E+03  0.58811436460E+03  0.72491171284E+03  0.10100000352E+00 0. -1.
</event>
<event>
 5   0  0.4236284E-04  0.9008974E+03  0.7818609E-02  0.9424460E-01
       -2   -1    0    0    0  501  0.00000000000E+00  0.00000000000E+00  0.13531595058E+03  0.13531595060E+03  0.25500000920E-02 0. -1.
        2   -1    0    0  501    0  0.00000000000E+00  0.00000000000E+00 -0.14994835131E+04  0.14994835131E+04  0.25500000920E-02 0.  1.
    10030    2    1    2    0    0  0.00000000000E+00  0.00000000000E+00 -0.13641675625E+04  0.16347994637E+04  0.90089741252E+03 0.  0.
        2    1    3    3  502    0 -0.17032806458E+03  0.39781829170E+03 -0.90897110371E+03  0.10067271280E+04  0.25500000920E-02 0.  1.
       -2    1    3    3    0  502  0.17032806458E+03 -0.39781829170E+03 -0.45519645879E+03  0.62807233572E+03  0.25500000920E-02 0. -1.
</event>
<event>
 5   0  0.4236284E-04  0.8994892E+03  0.7818609E-02  0.9426220E-01
        2   -1    0    0  501    0  0.00000000000E+00  0.00000000000E+00  0.30264185602E+03  0.30264185603E+03  0.25500000920E-02 0. -1.
       -2   -1    0    0    0  501  0.00000000000E+00  0.00000000000E+00 -0.66834842490E+03  0.66834842491E+03  0.25500000920E-02 0.  1.
    10030    2    1    2    0    0  0.00000000000E+00  0.00000000000E+00 -0.36570656889E+03  0.97099028094E+03  0.89948920568E+03 0.  0.
        2    1    3    3  502    0  0.22424326335E+03 -0.30738982178E+03  0.75991996050E+02  0.38800557619E+03  0.25500000920E-02 0. -1.
       -2    1    3    3    0  502 -0.22424326335E+03  0.30738982178E+03 -0.44169856494E+03  0.58298470474E+03  0.25500000920E-02 0.  1.
</event>
<event>
 5   0  0.2351435E-04  0.8999602E+03  0.7818609E-02  0.9425631E-01
       -1   -1    0    0    0  501  0.00000000000E+00  0.00000000000E+00  0.30995180201E+03  0.30995180205E+03  0.50400001928E-02 0. -1.
        1   -1    0    0  501    0  0.00000000000E+00  0.00000000000E+00 -0.65326953613E+03  0.65326953615E+03  0.50400001928E-02 0.  1.
    10030    2    1    2    0    0  0.00000000000E+00  0.00000000000E+00 -0.34331773412E+03  0.96322133820E+03  0.89996015457E+03 0.  0.
        4    1    3    3  502    0  0.31329512141E+03 -0.30620612860E+03 -0.28166727099E+03  0.52082059363E+03  0.12699999809E+01 0. -1.
       -4    1    3    3    0  502 -0.31329512141E+03  0.30620612860E+03 -0.61650463130E+02  0.44240074458E+03  0.12699999809E+01 0.  1.
</event>
<event>
 5   0  0.4243516E-04  0.8999694E+03  0.7818609E-02  0.9425620E-01
       -2   -1    0    0    0  501  0.00000000000E+00  0.00000000000E+00  0.17567288280E+03  0.17567288282E+03  0.25500000920E-02 0. -1.
        2   -1    0    0  501    0  0.00000000000E+00  0.00000000000E+00 -0.11526321666E+04  0.11526321666E+04  0.25500000920E-02 0.  1.
    10030    2    1    2    0    0  0.00000000000E+00  0.00000000000E+00 -0.97695928378E+03  0.13283050494E+04  0.89996936731E+03 0.  0.
        1    1    3    3  502    0  0.16253163935E+02  0.12403009932E+03  0.14949494669E+03  0.19492657588E+03  0.50400001928E-02 0. -1.
       -1    1    3    3    0  502 -0.16253163935E+02 -0.12403009932E+03 -0.11264542305E+04  0.11333784735E+04  0.50400001928E-02 0.  1.
</event>
<event>
 5   0  0.1596250E-04  0.9006322E+03  0.7818609E-02  0.9424791E-01
        3   -1    0    0  501    0  0.00000000000E+00  0.00000000000E+00  0.43120855084E+03  0.43120856267E+03  0.10100000352E+00 0. -1.
       -3   -1    0    0    0  501  0.00000000000E+00  0.00000000000E+00 -0.47027034172E+03  0.47027035257E+03  0.10100000352E+00 0.  1.
    10030    2    1    2    0    0  0.00000000000E+00  0.00000000000E+00 -0.39061790883E+02  0.90147891524E+03  0.90063222856E+03 0.  0.
        2    1    3    3  502    0  0.17474435692E+03  0.41387875980E+03  0.11375060083E+02  0.44940027824E+03  0.25500000920E-02 0.  1.
       -2    1    3    3    0  502 -0.17474435692E+03 -0.41387875980E+03 -0.50436850965E+02  0.45207863700E+03  0.25500000920E-02 0. -1.
</event>
<event>
 5   0  0.3959804E-04  0.9009581E+03  0.7818609E-02  0.9424385E-01
        2   -1    0    0  501    0  0.00000000000E+00  0.00000000000E+00  0.17079764734E+04  0.17079764734E+04  0.25500000920E-02 0. -1.
       -2   -1    0    0    0  501  0.00000000000E+00  0.00000000000E+00 -0.11881391125E+03  0.11881391128E+03  0.25500000920E-02 0.  1.
    10030    2    1    2    0    0  0.00000000000E+00  0.00000000000E+00  0.15891625622E+04  0.18267903847E+04  0.90095807929E+03 0.  0.
        5    1    3    3  502    0 -0.36558855793E+03  0.21414195703E+03  0.11047292171E+04  0.11831992666E+04  0.46999998093E+01 0. -1.
       -5    1    3    3    0  502  0.36558855793E+03 -0.21414195703E+03  0.48443334510E+03  0.64359111809E+03  0.46999998093E+01 0.  1.
</event>
<event>
 5   0  0.3959804E-04  0.9008244E+03  0.7818609E-02  0.9424551E-01
        2   -1    0    0  501    0  0.00000000000E+00  0.00000000000E+00  0.44729917739E+03  0.44729917740E+03  0.25500000920E-02 0. -1.
       -2   -1    0    0    0  501  0.00000000000E+00  0.00000000000E+00 -0.45354690459E+03  0.45354690460E+03  0.25500000920E-02 0.  1.
    10030    2    1    2    0    0  0.00000000000E+00  0.00000000000E+00 -0.62477272013E+01  0.90084608200E+03  0.90082441650E+03 0.  0.
        5    1    3    3  502    0 -0.17397211710E+02  0.32397251110E+03 -0.31552250415E+03  0.45258965028E+03  0.46999998093E+01 0.  1.
       -5    1    3    3    0  502  0.17397211710E+02 -0.32397251110E+03  0.30927477694E+03  0.44825643172E+03  0.46999998093E+01 0. -1.
</event>
<event>
 5   0  0.1596250E-04  0.9000895E+03  0.7818609E-02  0.9425469E-01
        3   -1    0    0  501    0  0.00000000000E+00  0.00000000000E+00  0.45383065094E+03  0.45383066218E+03  0.10100000352E+00 0.  1.
       -3   -1    0    0    0  501  0.00000000000E+00  0.00000000000E+00 -0.44629045376E+03  0.44629046519E+03  0.10100000352E+00 0. -1.
    10030    2    1    2    0    0  0.00000000000E+00  0.00000000000E+00  0.75401971757E+01  0.90012112737E+03  0.90008954519E+03 0.  0.
        3    1    3    3  502    0 -0.31843383150E+03 -0.89773025009E+02  0.30887257024E+03  0.45261636726E+03  0.10100000352E+00 0.  1.
       -3    1    3    3    0  502  0.31843383150E+03  0.89773025009E+02 -0.30133237307E+03  0.44750476011E+03  0.10100000352E+00 0. -1.
</event>
<event>
 5   0  0.4236284E-04  0.8999913E+03  0.7818609E-02  0.9425592E-01
        2   -1    0    0  501    0  0.00000000000E+00  0.00000000000E+00  0.18268829886E+04  0.18268829886E+04  0.25500000920E-02 0. -1.
       -2   -1    0    0    0  501  0.00000000000E+00  0.00000000000E+00 -0.11084239520E+03  0.11084239523E+03  0.25500000920E-02 0.  1.
    10030    2    1    2    0    0  0.00000000000E+00  0.00000000000E+00  0.17160405934E+04  0.19377253838E+04  0.89999130273E+03 0.  0.
        2    1    3    3  502    0 -0.22439117270E+03  0.23542958399E+03  0.18843382762E+03  0.37588002714E+03  0.25500000920E-02 0.  1.
       -2    1    3    3    0  502  0.22439117270E+03 -0.23542958399E+03  0.15276067658E+04  0.15618453567E+04  0.25500000920E-02 0. -1.
</event>
<event>
 5   0  0.2356918E-04  0.8997685E+03  0.7818609E-02  0.9425871E-01
        1   -1    0    0  501    0  0.00000000000E+00  0.00000000000E+00  0.15373105753E+04  0.15373105753E+04  0.50400001928E-02 0. -1.
       -1   -1    0    0    0  501  0.00000000000E+00  0.00000000000E+00 -0.13165578926E+03  0.13165578936E+03  0.50400001928E-02 0.  1.
    10030    2    1    2    0    0  0.00000000000E+00  0.00000000000E+00  0.14056547860E+04  0.16689663646E+04  0.89976849737E+03 0.  0.
        5    1    3    3  502    0  0.92545596243E+02 -0.25965786190E+03  0.13622559543E+04  0.13898741913E+04  0.46999998093E+01 0. -1.
       -5    1    3    3    0  502 -0.92545596243E+02  0.25965786190E+03  0.43398831722E+02  0.27909217335E+03  0.46999998093E+01 0.  1.
</event>
<event>
 5   0  0.3959804E-04  0.8999242E+03  0.7818609E-02  0.9425676E-01
        2   -1    0    0  501    0  0.00000000000E+00  0.00000000000E+00  0.12183780816E+04  0.12183780816E+04  0.25500000920E-02 0. -1.
       -2   -1    0    0    0  501  0.00000000000E+00  0.00000000000E+00 -0.16617656736E+03  0.16617656738E+03  0.25500000920E-02 0.  1.
    10030    2    1    2    0    0  0.00000000000E+00  0.00000000000E+00  0.10522015142E+04  0.13845546490E+04  0.89992419095E+03 0.  0.
        5    1    3    3  502    0  0.24117461402E+03 -0.29017227052E+03  0.14899402850E+03  0.40569255792E+03  0.46999998093E+01 0.  1.
       -5    1    3    3    0  502 -0.24117461402E+03  0.29017227052E+03  0.90320748574E+03  0.97886209107E+03  0.46999998093E+01 0. -1.
</event>
<event>
 5   0  0.2450427E-04  0.9001537E+03  0.7818609E-02  0.9425389E-01
       -1   -1    0    0    0  501  0.00000000000E+00  0.00000000000E+00  0.57709822170E+03  0.57709822172E+03  0.50400001928E-02 0. -1.
        1   -1    0    0  501    0  0.00000000000E+00  0.00000000000E+00 -0.35101335367E+03  0.35101335371E+03  0.50400001928E-02 0.  1.
    10030    2    1    2    0    0  0.00000000000E+00  0.00000000000E+00  0.22608486802E+03  0.92811157543E+03  0.90015372515E+03 0.  0.
        3    1    3    3  502    0 -0.30138545939E+03  0.32342288657E+03  0.20012641793E+03  0.48526915422E+03  0.10100000352E+00 0. -1.
       -3    1    3    3    0  502  0.30138545939E+03 -0.32342288657E+03  0.25958450088E+02  0.44284242120E+03  0.10100000352E+00 0.  1.
</event>
<event>
 5   0  0.4033144E-04  0.8987424E+03  0.7818609E-02  0.9427155E-01
       -2   -1    0    0    0  501  0.00000000000E+00  0.00000000000E+00  0.55214687366E+03  0.55214687367E+03  0.25500000920E-02 0.  1.
        2   -1    0    0  501    0  0.00000000000E+00  0.00000000000E+00 -0.36572598159E+03  0.36572598160E+03  0.25500000920E-02 0. -1.
    10030    2    1    2    0    0  0.00000000000E+00  0.00000000000E+00  0.18642089207E+03  0.91787285527E+03  0.89874235988E+03 0.  0.
        4    1    3    3  502    0 -0.39154216370E+03 -0.20315244281E+03  0.56137430487E+01  0.44114544992E+03  0.12699999809E+01 0. -1.
       -4    1    3    3    0  502  0.39154216370E+03  0.20315244281E+03  0.18080714902E+03  0.47672740535E+03  0.12699999809E+01 0.  1.
</event>
<event>
 5   0  0.2332791E-04  0.9001415E+03  0.7818609E-02  0.9425405E-01
       -1   -1    0    0    0  501  0.00000000000E+00  0.00000000000E+00  0.10608140310E+03  0.10608140322E+03  0.50400001928E-02 0.  1.
        1   -1    0    0  501    0  0.00000000000E+00  0.00000000000E+00 -0.19095117753E+04  0.19095117753E+04  0.50400001928E-02 0. -1.
    10030    2    1    2    0    0  0.00000000000E+00  0.00000000000E+00 -0.18034303722E+04  0.20155931786E+04  0.90014151886E+03 0.  0.
        2    1    3    3  502    0  0.44137711761E+02  0.23560056660E+03 -0.48737539095E+02  0.24460399078E+03  0.25500000920E-02 0.  1.
       -2    1    3    3    0  502 -0.44137711761E+02 -0.23560056660E+03 -0.17546928331E+04  0.17709891878E+04  0.25500000920E-02 0. -1.
</event>
<event>
 5   0  0.2308362E-04  0.8995479E+03  0.7818609E-02  0.9426147E-01
        1   -1    0    0  501    0  0.00000000000E+00  0.00000000000E+00  0.24329875985E+03  0.24329875990E+03  0.50400001928E-02 0.  1.
       -1   -1    0    0    0  501  0.00000000000E+00  0.00000000000E+00 -0.83147409768E+03  0.83147409770E+03  0.50400001928E-02 0. -1.
    10030    2    1    2    0    0  0.00000000000E+00  0.00000000000E+00 -0.58817533783E+03  0.10747728576E+04  0.89954792390E+03 0.  0.
        1    1    3    3  502    0  0.12247640624E+03 -0.11712912715E+03 -0.79186872691E+03  0.80979984144E+03  0.50400001928E-02 0. -1.
       -1    1    3    3    0  502 -0.12247640624E+03  0.11712912715E+03  0.20369338908E+03  0.26497301616E+03  0.50400001928E-02 0.  1.
</event>
<event>
 5   0  0.3959804E-04  0.9001631E+03  0.7818609E-02  0.9425378E-01
       -2   -1    0    0    0  501  0.00000000000E+00  0.00000000000E+00  0.23813718953E+03  0.23813718954E+03  0.25500000920E-02 0.  1.
        2   -1    0    0  501    0  0.00000000000E+00  0.00000000000E+00 -0.85065834410E+03  0.85065834410E+03  0.25500000920E-02 0. -1.
    10030    2    1    2    0    0  0.00000000000E+00  0.00000000000E+00 -0.61252115457E+03  0.10887955336E+04  0.90016306817E+03 0.  0.
        5    1    3    3  502    0 -0.34267715366E+03 -0.17507504306E+03 -0.58856220032E+03  0.70321153005E+03  0.46999998093E+01 0. -1.
       -5    1    3    3    0  502  0.34267715366E+03  0.17507504306E+03 -0.23958954244E+02  0.38558400360E+03  0.46999998093E+01 0.  1.
</event>
<event>
 5   0  0.2356918E-04  0.9000019E+03  0.7818609E-02  0.9425579E-01
        1   -1    0    0  501    0  0.00000000000E+00  0.00000000000E+00  0.65664132417E+03  0.65664132419E+03  0.50400001928E-02 0.  1.
       -1   -1    0    0    0  501  0.00000000000E+00  0.00000000000E+00 -0.30838884850E+03  0.30838884855E+03  0.50400001928E-02 0. -1.
    10030    2    1    2    0    0  0.00000000000E+00  0.00000000000E+00  0.34825247566E+03  0.96503017273E+03  0.90000191526E+03 0.  0.
        5    1    3    3  502    0 -0.60639582746E+02  0.84407542488E+02  0.64356877274E+03  0.65192380496E+03  0.46999998093E+01 0.  1.
       -5    1    3    3    0  502  0.60639582746E+02 -0.84407542488E+02 -0.29531629708E+03  0.31310636778E+03  0.46999998093E+01 0. -1.
</event>
<event>
 5   0  0.4110039E-04  0.9002394E+03  0.7818609E-02  0.9425282E-01
       -2   -1    0    0    0  501  0.00000000000E+00  0.00000000000E+00  0.46448391734E+03  0.46448391734E+03  0.25500000920E-02 0. -1.
        2   -1    0    0  501    0  0.00000000000E+00  0.00000000000E+00 -0.43619969008E+03  0.43619969008E+03  0.25500000920E-02 0.  1.
    10030    2    1    2    0    0  0.00000000000E+00  0.00000000000E+00  0.28284227259E+02  0.90068360743E+03  0.90023939215E+03 0.  0.
        3    1    3    3  502    0  0.14000993616E+03 -0.17583568204E+03 -0.37603334702E+03  0.43808909776E+03  0.10100000352E+00 0.  1.
       -3    1    3    3    0  502 -0.14000993616E+03  0.17583568204E+03  0.40431757428E+03  0.46259450967E+03  0.10100000352E+00 0. -1.
</event>
<event>
 5   0  0.4243516E-04  0.8991368E+03  0.7818609E-02  0.9426661E-01
       -2   -1    0    0    0  501  0.00000000000E+00  0.00000000000E+00  0.32126067368E+03  0.32126067369E+03  0.25500000920E-02 0. -1.
        2   -1    0    0  501    0  0.00000000000E+00  0.00000000000E+00 -0.62912077930E+03  0.62912077931E+03  0.25500000920E-02 0.  1.
    10030    2    1    2    0    0  0.00000000000E+00  0.00000000000E+00 -0.30786010562E+03  0.95038145300E+03  0.89913684251E+03 0.  0.
        1    1    3    3  502    0 -0.11629157314E+03 -0.40443997018E+03  0.13249860456E+02  0.42103560216E+03  0.50400001928E-02 0. -1.
       -1    1    3    3    0  502  0.11629157314E+03  0.40443997018E+03 -0.32110996608E+03  0.52934585084E+03  0.50400001928E-02 0.  1.
</event>
<event>
 5   0  0.2332791E-04  0.9001331E+03  0.7818609E-02  0.9425415E-01
       -1   -1    0    0    0  501  0.00000000000E+00  0.00000000000E+00  0.88957058029E+03  0.88957058031E+03  0.50400001928E-02 0. -1.
        1   -1    0    0  501    0  0.00000000000E+00  0.00000000000E+00 -0.22770523550E+03  0.22770523556E+03  0.50400001928E-02 0.  1.
    10030    2    1    2    0    0  0.00000000000E+00  0.00000000000E+00  0.66186534479E+03  0.11172758159E+04  0.90013305355E+03 0.  0.
        2    1    3    3  502    0  0.80574832462E+02  0.13651875822E+03 -0.19190571210E+03  0.24891258970E+03  0.25500000920E-02 0.  1.
       -2    1    3    3    0  502 -0.80574832462E+02 -0.13651875822E+03  0.85377105689E+03  0.86836322616E+03  0.25500000920E-02 0. -1.
</event>
<event>
 5   0  0.2332791E-04  0.9000558E+03  0.7818609E-02  0.9425512E-01
        1   -1    0    0  501    0  0.00000000000E+00  0.00000000000E+00  0.54058844660E+03  0.54058844662E+03  0.50400001928E-02 0.  1.
       -1   -1    0    0    0  501  0.00000000000E+00  0.00000000000E+00 -0.37463829146E+03  0.37463829150E+03  0.50400001928E-02 0. -1.
    10030    2    1    2    0    0  0.00000000000E+00  0.00000000000E+00  0.16595015514E+03  0.91522673812E+03  0.90005584726E+03 0.  0.
        2    1    3    3  502    0 -0.12967778497E+03  0.12356496367E+03 -0.33682802748E+03  0.38149409991E+03  0.25500000920E-02 0. -1.
       -2    1    3    3    0  502  0.12967778497E+03 -0.12356496367E+03  0.50277818262E+03  0.53373263821E+03  0.25500000920E-02 0.  1.
</event>
<event>
 5   0  0.4110039E-04  0.9004175E+03  0.7818609E-02  0.9425060E-01
        2   -1    0    0  501    0  0.00000000000E+00  0.00000000000E+00  0.12659815171E+04  0.12659815171E+04  0.25500000920E-02 0.  1.
       -2   -1    0    0    0  501  0.00000000000E+00  0.00000000000E+00 -0.16010336149E+03  0.16010336151E+03  0.25500000920E-02 0. -1.
    10030    2    1    2    0    0  0.00000000000E+00  0.00000000000E+00  0.11058781556E+04  0.14260848786E+04  0.90041745092E+03 0.  0.
        3    1    3    3  502    0  0.16132664863E+03 -0.40936788676E+03  0.70385435420E+03  0.83007187424E+03  0.10100000352E+00 0.  1.
       -3    1    3    3    0  502 -0.16132664863E+03  0.40936788676E+03  0.40202380138E+03  0.59601300434E+03  0.10100000352E+00 0. -1.
</event>
<event>
 5   0  0.3959804E-04  0.9003535E+03  0.7818609E-02  0.9425140E-01
        2   -1    0    0  501    0  0.00000000000E+00  0.00000000000E+00  0.98437604977E+03  0.98437604978E+03  0.25500000920E-02 0. -1.
       -2   -1    0    0    0  501  0.00000000000E+00  0.00000000000E+00 -0.20587570985E+03  0.20587570986E+03  0.25500000920E-02 0.  1.
    10030    2    1    2    0    0  0.00000000000E+00  0.00000000000E+00  0.77850033992E+03  0.11902517596E+04  0.90035352616E+03 0.  0.
        5    1    3    3  502    0  0.14139738003E+02 -0.38406550969E+03  0.79412908268E+02  0.39247260786E+03  0.46999998093E+01 0.  1.
       -5    1    3    3    0  502 -0.14139738003E+02  0.38406550969E+03  0.69908743166E+03  0.79777915178E+03  0.46999998093E+01 0. -1.
</event>
<event>
 5   0  0.2351435E-04  0.9001538E+03  0.7818609E-02  0.9425389E-01
       -1   -1    0    0    0  501  0.00000000000E+00  0.00000000000E+00  0.56233506371E+03  0.56233506374E+03  0.50400001928E-02 0.  1.
        1   -1    0    0  501    0  0.00000000000E+00  0.00000000000E+00 -0.36022870774E+03  0.36022870778E+03  0.50400001928E-02 0. -1.
    10030    2    1    2    0    0  0.00000000000E+00  0.00000000000E+00  0.20210635597E+03  0.92256377151E+03  0.90015383874E+03 0.  0.
        4    1    3    3  502    0 -0.99300705726E+02  0.42058107201E+03  0.22995617759E+03  0.48952070927E+03  0.12699999809E+01 0.  1.
       -4    1    3    3    0  502  0.99300705726E+02 -0.42058107201E+03 -0.27849821627E+02  0.43304306224E+03  0.12699999809E+01 0. -1.
</event>
<event>
 5   0  0.2351435E-04  0.9010436E+03  0.7818609E-02  0.9424278E-01
       -1   -1    0    0    0  501  0.00000000000E+00  0.00000000000E+00  0.19010518208E+03  0.19010518214E+03  0.50400001928E-02 0. -1.
        1   -1    0    0  501    0  0.00000000000E+00  0.00000000000E+00 -0.10676715494E+04  0.10676715495E+04  0.50400001928E-02 0.  1.
    10030    2    1    2    0    0  0.00000000000E+00  0.00000000000E+00 -0.87756636737E+03  0.12577767316E+04  0.90104360461E+03 0.  0.
        4    1    3    3  502    0  0.12600280614E+03  0.24239004830E+03 -0.93885970177E+03  0.97779793167E+03  0.12699999809E+01 0.  1.
       -4    1    3    3    0  502 -0.12600280614E+03 -0.24239004830E+03  0.61293334401E+02  0.27997879993E+03  0.12699999809E+01 0. -1.
</event>
<event>
 5   0  0.2308362E-04  0.8999193E+03  0.7818609E-02  0.9425682E-01
        1   -1    0    0  501    0  0.00000000000E+00  0.00000000000E+00  0.72888591012E+03  0.72888591013E+03  0.50400001928E-02 0. -1.
       -1   -1    0    0    0  501  0.00000000000E+00  0.00000000000E+00 -0.27777144415E+03  0.27777144420E+03  0.50400001928E-02 0.  1.
    10030    2    1    2    0    0  0.00000000000E+00  0.00000000000E+00  0.45111446596E+03  0.10066573543E+04  0.89991931173E+03 0.  0.
        1    1    3    3  502    0  0.19512961609E+03 -0.28426535631E+03 -0.97837351593E+02  0.35840550675E+03  0.50400001928E-02 0.  1.
       -1    1    3    3    0  502 -0.19512961609E+03  0.28426535631E+03  0.54895181756E+03  0.64825184759E+03  0.50400001928E-02 0. -1.
</event>
<event>
 5   0  0.2308362E-04  0.9030496E+03  0.7818609E-02  0.9421777E-01
        1   -1    0    0  501    0  0.00000000000E+00  0.00000000000E+00  0.54395433387E+03  0.54395433390E+03  0.50400001928E-02 0.  1.
       -1   -1    0    0    0  501  0.00000000000E+00  0.00000000000E+00 -0.37480103639E+03  0.37480103643E+03  0.50400001928E-02 0. -1.
    10030    2    1    2    0    0  0.00000000000E+00  0.00000000000E+00  0.16915329748E+03  0.91875537032E+03  0.90304960686E+03 0.  0.
        1    1    3    3  502    0 -0.43459574304E+03  0.59999564819E+02 -0.24056992095E+02  0.43937699819E+03  0.50400001928E-02 0.  1.
       -1    1    3    3    0  502  0.43459574304E+03 -0.59999564819E+02  0.19321028957E+03  0.47937837213E+03  0.50400001928E-02 0. -1.
</event>
<event>
 5   0  0.2332791E-04  0.9000370E+03  0.7818609E-02  0.9425535E-01
        1   -1    0    0  501    0  0.00000000000E+00  0.00000000000E+00  0.66141245872E+03  0.66141245874E+03  0.50400001928E-02 0. -1.
       -1   -1    0    0    0  501  0.00000000000E+00  0.00000000000E+00 -0.30618814624E+03  0.30618814628E+03  0.50400001928E-02 0.  1.
    10030    2    1    2    0    0  0.00000000000E+00  0.00000000000E+00  0.35522431248E+03  0.96760060502E+03  0.90003700961E+03 0.  0.
        2    1    3    3  502    0  0.13785408002E+03  0.37467017063E+03  0.40089302991E+03  0.56577089495E+03  0.25500000920E-02 0. -1.
       -2    1    3    3    0  502 -0.13785408002E+03 -0.37467017063E+03 -0.45668717424E+02  0.40182971007E+03  0.25500000920E-02 0.  1.
</event>
<event>
 5   0  0.2356918E-04  0.8952096E+03  0.7818609E-02  0.9431590E-01
       -1   -1    0    0    0  501  0.00000000000E+00  0.00000000000E+00  0.32550839321E+03  0.32550839325E+03  0.50400001928E-02 0.  1.
        1   -1    0    0  501    0  0.00000000000E+00  0.00000000000E+00 -0.61549886289E+03  0.61549886291E+03  0.50400001928E-02 0. -1.
    10030    2    1    2    0    0  0.00000000000E+00  0.00000000000E+00 -0.28999046968E+03  0.94100725617E+03  0.89520957527E+03 0.  0.
        5    1    3    3  502    0 -0.30809756188E+03 -0.68082516524E+02  0.18868532644E+03  0.36767319606E+03  0.46999998093E+01 0.  1.
       -5    1    3    3    0  502  0.30809756188E+03  0.68082516524E+02 -0.47867579612E+03  0.57333406011E+03  0.46999998093E+01 0. -1.
</event>
<event>
 5   0  0.1596250E-04  0.8999941E+03  0.7818609E-02  0.9425589E-01
       -3   -1    0    0    0  501  0.00000000000E+00  0.00000000000E+00  0.10396780618E+04  0.10396780667E+04  0.10100000352E+00 0. -1.
        3   -1    0    0  501    0  0.00000000000E+00  0.00000000000E+00 -0.19476924494E+03  0.19476927113E+03  0.10100000352E+00 0.  1.
    10030    2    1    2    0    0  0.00000000000E+00  0.00000000000E+00  0.84490881687E+03  0.12344473378E+04  0.89999406726E+03 0.  0.
        3    1    3    3  502    0 -0.14330442576E+03  0.30410131715E+02 -0.16114636115E+03  0.21778221798E+03  0.10100000352E+00 0.  1.
       -3    1    3    3    0  502  0.14330442576E+03 -0.30410131715E+02  0.10060551780E+04  0.10166651199E+04  0.10100000352E+00 0. -1.
</event>
<event>
 5   0  0.2332791E-04  0.9000727E+03  0.7818609E-02  0.9425491E-01
       -1   -1    0    0    0  501  0.00000000000E+00  0.00000000000E+00  0.55448959213E+03  0.55448959216E+03  0.50400001928E-02 0. -1.
        1   -1    0    0  501    0  0.00000000000E+00  0.00000000000E+00 -0.36525972865E+03  0.36525972869E+03  0.50400001928E-02 0.  1.
    10030    2    1    2    0    0  0.00000000000E+00  0.00000000000E+00  0.18922986348E+03  0.91974932084E+03  0.90007270370E+03 0.  0.
        2    1    3    3  502    0  0.29338143651E+03 -0.57139235561E+02 -0.24918501932E+03  0.38914101993E+03  0.25500000920E-02 0.  1.
       -2    1    3    3    0  502 -0.29338143651E+03  0.57139235561E+02  0.43841488280E+03  0.53060830091E+03  0.25500000920E-02 0. -1.
</event>
<event>
 5   0  0.4243516E-04  0.8995002E+03  0.7818609E-02  0.9426206E-01
       -2   -1    0    0    0  501  0.00000000000E+00  0.00000000000E+00  0.25405044321E+04  0.25405044321E+04  0.25500000920E-02 0.  1.
        2   -1    0    0  501    0  0.00000000000E+00  0.00000000000E+00 -0.79620078747E+02  0.79620078788E+02  0.25500000920E-02 0. -1.
    10030    2    1    2    0    0  0.00000000000E+00  0.00000000000E+00  0.24608843533E+04  0.26201245108E+04  0.89950022344E+03 0.  0.
        1    1    3    3  502    0  0.19724931600E+02  0.30011860554E+03  0.22044681071E+04  0.22248909828E+04  0.50400001928E-02 0.  1.
       -1    1    3    3    0  502 -0.19724931600E+02 -0.30011860554E+03  0.25641624625E+03  0.39523352804E+03  0.50400001928E-02 0. -1.
</event>
<event>
 5   0  0.4243516E-04  0.9002759E+03  0.7818609E-02  0.9425237E-01
       -2   -1    0    0    0  501  0.00000000000E+00  0.00000000000E+00  0.10200521066E+03  0.10200521069E+03  0.25500000920E-02 0. -1.
        2   -1    0    0  501    0  0.00000000000E+00  0.00000000000E+00 -0.19864101903E+04  0.19864101903E+04  0.25500000920E-02 0.  1.
    10030    2    1    2    0    0  0.00000000000E+00  0.00000000000E+00 -0.18844049797E+04  0.20884154010E+04  0.90027593540E+03 0.  0.
        1    1    3    3  502    0  0.18775739184E+03  0.40911030337E+03 -0.94297683468E+03  0.10449064022E+04  0.50400001928E-02 0. -1.
       -1    1    3    3    0  502 -0.18775739184E+03 -0.40911030337E+03 -0.94142814500E+03  0.10435089989E+04  0.50400001928E-02 0.  1.
</event>
<event>
 5   0  0.4236284E-04  0.8999041E+03  0.7818609E-02  0.9425701E-01
       -2   -1    0    0    0  501  0.00000000000E+00  0.00000000000E+00  0.12337809093E+03  0.12337809096E+03  0.25500000920E-02 0.  1.
        2   -1    0    0  501    0  0.00000000000E+00  0.00000000000E+00 -0.16409463275E+04  0.16409463275E+04  0.25500000920E-02 0. -1.
    10030    2    1    2    0    0  0.00000000000E+00  0.00000000000E+00 -0.15175682366E+04  0.17643244184E+04  0.89990405095E+03 0.  0.
        2    1    3    3  502    0 -0.58770370599E+02 -0.24363701614E+03 -0.14914284281E+04  0.15123398124E+04  0.25500000920E-02 0. -1.
       -2    1    3    3    0  502  0.58770370599E+02  0.24363701614E+03 -0.26139808490E+02  0.25198460606E+03  0.25500000920E-02 0.  1.
</event>
<event>
 5   0  0.2351435E-04  0.8995639E+03  0.7818609E-02  0.9426127E-01
        1   -1    0    0  501    0  0.00000000000E+00  0.00000000000E+00  0.88683875330E+03  0.88683875331E+03  0.50400001928E-02 0. -1.
       -1   -1    0    0    0  501  0.00000000000E+00  0.00000000000E+00 -0.22811792040E+03  0.22811792045E+03  0.50400001928E-02 0.  1.
    10030    2    1    2    0    0  0.00000000000E+00  0.00000000000E+00  0.65872083290E+03  0.11149566738E+04  0.89956392140E+03 0.  0.
        4    1    3    3  502    0 -0.10248295161E+03  0.38426831378E+03  0.58975316025E+03  0.71131940453E+03  0.12699999809E+01 0. -1.
       -4    1    3    3    0  502  0.10248295161E+03 -0.38426831378E+03  0.68967672653E+02  0.40363726924E+03  0.12699999809E+01 0.  1.
</event>
<event>
 5   0  0.2351435E-04  0.8998327E+03  0.7818609E-02  0.9425791E-01
       -1   -1    0    0    0  501  0.00000000000E+00  0.00000000000E+00  0.57617635593E+03  0.57617635596E+03  0.50400001928E-02 0. -1.
        1   -1    0    0  501    0  0.00000000000E+00  0.00000000000E+00 -0.35132424326E+03  0.35132424330E+03  0.50400001928E-02 0.  1.
    10030    2    1    2    0    0  0.00000000000E+00  0.00000000000E+00  0.22485211267E+03  0.92750059926E+03  0.89983270059E+03 0.  0.
        4    1    3    3  502    0 -0.13739311822E+03 -0.29493667025E+03 -0.20786728458E+03  0.38610222648E+03  0.12699999809E+01 0.  1.
       -4    1    3    3    0  502  0.13739311822E+03  0.29493667025E+03  0.43271939725E+03  0.54139837278E+03  0.12699999809E+01 0. -1.
</event>
<event>
 5   0  0.2308362E-04  0.8998431E+03  0.7818609E-02  0.9425778E-01
        1   -1    0    0  501    0  0.00000000000E+00  0.00000000000E+00  0.12691583931E+04  0.12691583931E+04  0.50400001928E-02 0. -1.
       -1   -1    0    0    0  501  0.00000000000E+00  0.00000000000E+00 -0.15949893564E+03  0.15949893572E+03  0.50400001928E-02 0.  1.
    10030    2    1    2    0    0  0.00000000000E+00  0.00000000000E+00  0.11096594575E+04  0.14286573289E+04  0.89984312617E+03 0.  0.
        1    1    3    3  502    0  0.17631982242E+02 -0.35538555791E+03  0.11765796462E+03  0.37477083429E+03  0.50400001928E-02 0.  1.
       -1    1    3    3    0  502 -0.17631982242E+02  0.35538555791E+03  0.99200149286E+03  0.10538864946E+04  0.50400001928E-02 0. -1.
</event>
<event>
 5   0  0.2332791E-04  0.8998218E+03  0.7818609E-02  0.9425804E-01
        1   -1    0    0  501    0  0.00000000000E+00  0.00000000000E+00  0.41633049909E+03  0.41633049912E+03  0.50400001928E-02 0. -1.
       -1   -1    0    0    0  501  0.00000000000E+00  0.00000000000E+00 -0.48619987626E+03  0.48619987628E+03  0.50400001928E-02 0.  1.
    10030    2    1    2    0    0  0.00000000000E+00  0.00000000000E+00 -0.69869377165E+02  0.90253037540E+03  0.89982184273E+03 0.  0.
        2    1    3    3  502    0  0.22858371922E+03 -0.68510098185E+02  0.34762614439E+03  0.42164924584E+03  0.25500000920E-02 0. -1.
       -2    1    3    3    0  502 -0.22858371922E+03  0.68510098185E+02 -0.41749552156E+03  0.48088112957E+03  0.25500000920E-02 0.  1.
</event>
<event>
 5   0  0.2332791E-04  0.8998754E+03  0.7818609E-02  0.9425737E-01
        1   -1    0    0  501    0  0.00000000000E+00  0.00000000000E+00  0.59571441448E+03  0.59571441450E+03  0.50400001928E-02 0. -1.
       -1   -1    0    0    0  501  0.00000000000E+00  0.00000000000E+00 -0.33983384529E+03  0.33983384533E+03  0.50400001928E-02 0.  1.
    10030    2    1    2    0    0  0.00000000000E+00  0.00000000000E+00  0.25588056918E+03  0.93554825983E+03  0.89987536958E+03 0.  0.
        2    1    3    3  502    0 -0.10593770822E+03 -0.26372480168E+03 -0.23470013711E+03  0.36858882703E+03  0.25500000920E-02 0.  1.
       -2    1    3    3    0  502  0.10593770822E+03  0.26372480168E+03  0.49058070630E+03  0.56695943280E+03  0.25500000920E-02 0. -1.
</event>
<event>
 5   0  0.4110039E-04  0.8995138E+03  0.7818609E-02  0.9426189E-01
        2   -1    0    0  501    0  0.00000000000E+00  0.00000000000E+00  0.47660680652E+03  0.47660680653E+03  0.25500000920E-02 0.  1.
       -2   -1    0    0    0  501  0.00000000000E+00  0.00000000000E+00 -0.42441959223E+03  0.42441959223E+03  0.25500000920E-02 0. -1.
    10030    2    1    2    0    0  0.00000000000E+00  0.00000000000E+00  0.52187214295E+02  0.90102639876E+03  0.89951379419E+03 0.  0.
        3    1    3    3  502    0  0.72420841321E+02  0.34961193804E+03  0.30006399522E+03  0.46638149289E+03  0.10100000352E+00 0.  1.
       -3    1    3    3    0  502 -0.72420841321E+02 -0.34961193804E+03 -0.24787678093E+03  0.43464490587E+03  0.10100000352E+00 0. -1.
</event>
<event>
 5   0  0.4243516E-04  0.8996478E+03  0.7818609E-02  0.9426022E-01
        2   -1    0    0  501    0  0.00000000000E+00  0.00000000000E+00  0.24651571589E+03  0.24651571590E+03  0.25500000920E-02 0. -1.
       -2   -1    0    0    0  501  0.00000000000E+00  0.00000000000E+00 -0.82080577868E+03  0.82080577869E+03  0.25500000920E-02 0.  1.
    10030    2    1    2    0    0  0.00000000000E+00  0.00000000000E+00 -0.57429006279E+03  0.10673214946E+04  0.89964776251E+03 0.  0.
        1    1    3    3  502    0  0.34661263554E+03 -0.16768685381E+03 -0.11245841930E+02  0.38520860458E+03  0.50400001928E-02 0.  1.
       -1    1    3    3    0  502 -0.34661263554E+03  0.16768685381E+03 -0.56304422086E+03  0.68211289001E+03  0.50400001928E-02 0. -1.
</event>
<event>
 5   0  0.4110039E-04  0.9002823E+03  0.7818609E-02  0.9425229E-01
       -2   -1    0    0    0  501  0.00000000000E+00  0.00000000000E+00  0.23416122046E+03  0.23416122047E+03  0.25500000920E-02 0. -1.
        2   -1    0    0  501    0  0.00000000000E+00  0.00000000000E+00 -0.86533148432E+03  0.86533148432E+03  0.25500000920E-02 0.  1.
    10030    2    1    2    0    0  0.00000000000E+00  0.00000000000E+00 -0.63117026386E+03  0.10994927048E+04  0.90028234789E+03 0.  0.
        3    1    3    3  502    0  0.15428274399E+01 -0.32492008674E+02 -0.86389421432E+03  0.86450641102E+03  0.10100000352E+00 0.  1.
       -3    1    3    3    0  502 -0.15428274399E+01  0.32492008674E+02  0.23272395046E+03  0.23498629378E+03  0.10100000352E+00 0. -1.
</event>
<event>
 5   0  0.2351435E-04  0.9002863E+03  0.7818609E-02  0.9425224E-01
        1   -1    0    0  501    0  0.00000000000E+00  0.00000000000E+00  0.13601855775E+03  0.13601855785E+03  0.50400001928E-02 0. -1.
       -1   -1    0    0    0  501  0.00000000000E+00  0.00000000000E+00 -0.14897146201E+04  0.14897146201E+04  0.50400001928E-02 0.  1.
    10030    2    1    2    0    0  0.00000000000E+00  0.00000000000E+00 -0.13536960623E+04  0.16257331780E+04  0.90028625264E+03 0.  0.
        4    1    3    3  502    0 -0.11706786489E+03 -0.89834209618E+02 -0.14447936900E+04  0.14523103972E+04  0.12699999809E+01 0.  1.
       -4    1    3    3    0  502  0.11706786489E+03  0.89834209618E+02  0.91097627690E+02  0.17342278074E+03  0.12699999809E+01 0. -1.
</event>
<event>
 5   0  0.4236284E-04  0.9000730E+03  0.7818609E-02  0.9425490E-01
       -2   -1    0    0    0  501  0.00000000000E+00  0.00000000000E+00  0.17205403754E+03  0.17205403756E+03  0.25500000920E-02 0. -1.
        2   -1    0    0  501    0  0.00000000000E+00  0.00000000000E+00 -0.11771468803E+04  0.11771468803E+04  0.25500000920E-02 0.  1.
    10030    2    1    2    0    0  0.00000000000E+00  0.00000000000E+00 -0.10050928428E+04  0.13492009179E+04  0.90007304937E+03 0.  0.
        2    1    3    3  502    0  0.15343955649E+03 -0.38623488082E+03 -0.24372935056E+03  0.48179360414E+03  0.25500000920E-02 0. -1.
       -2    1    3    3    0  502 -0.15343955649E+03  0.38623488082E+03 -0.76136349219E+03  0.86740731372E+03  0.25500000920E-02 0.  1.
</event>
<event>
 5   0  0.4236284E-04  0.8988303E+03  0.7818609E-02  0.9427045E-01
        2   -1    0    0  501    0  0.00000000000E+00  0.00000000000E+00  0.11687879004E+04  0.11687879004E+04  0.25500000920E-02 0.  1.
       -2   -1    0    0    0  501  0.00000000000E+00  0.00000000000E+00 -0.17280635156E+03  0.17280635158E+03  0.25500000920E-02 0. -1.
    10030    2    1    2    0    0  0.00000000000E+00  0.00000000000E+00  0.99598154886E+03  0.13415942520E+04  0.89883029062E+03 0.  0.
        2    1    3    3  502    0 -0.26931770896E+03 -0.10030126306E+03 -0.17727105595E+02  0.28793510035E+03  0.25500000920E-02 0. -1.
       -2    1    3    3    0  502  0.26931770896E+03  0.10030126306E+03  0.10137086545E+04  0.10536591517E+04  0.25500000920E-02 0.  1.
</event>
<event>
 5   0  0.2351435E-04  0.9003730E+03  0.7818609E-02  0.9425115E-01
       -1   -1    0    0    0  501  0.00000000000E+00  0.00000000000E+00  0.25250440111E+03  0.25250440116E+03  0.50400001928E-02 0.  1.
        1   -1    0    0  501    0  0.00000000000E+00  0.00000000000E+00 -0.80263115236E+03  0.80263115238E+03  0.50400001928E-02 0. -1.
    10030    2    1    2    0    0  0.00000000000E+00  0.00000000000E+00 -0.55012675126E+03  0.10551355535E+04  0.90037303041E+03 0.  0.
        4    1    3    3  502    0  0.27628950253E+03  0.13170373612E+03  0.11180941997E+03  0.32585997394E+03  0.12699999809E+01 0.  1.
       -4    1    3    3    0  502 -0.27628950253E+03 -0.13170373612E+03 -0.66193617123E+03  0.72927557960E+03  0.12699999809E+01 0. -1.
</event>
<event>
 5   0  0.2332791E-04  0.8991193E+03  0.7818609E-02  0.9426683E-01
       -1   -1    0    0    0  501  0.00000000000E+00  0.00000000000E+00  0.34222939847E+03  0.34222939851E+03  0.50400001928E-02 0. -1.
        1   -1    0    0  501    0  0.00000000000E+00  0.00000000000E+00 -0.59055091420E+03  0.59055091422E+03  0.50400001928E-02 0.  1.
    10030    2    1    2    0    0  0.00000000000E+00  0.00000000000E+00 -0.24832151572E+03  0.93278031272E+03  0.89911931168E+03 0.  0.
        2    1    3    3  502    0  0.20384136976E+03 -0.14913295428E+02  0.29124228854E+03  0.35580300876E+03  0.25500000920E-02 0. -1.
       -2    1    3    3    0  502 -0.20384136976E+03  0.14913295428E+02 -0.53956380426E+03  0.57697730396E+03  0.25500000920E-02 0.  1.
</event>
<event>
 5   0  0.2356918E-04  0.9000774E+03  0.7818609E-02  0.9425485E-01
        1   -1    0    0  501    0  0.00000000000E+00  0.00000000000E+00  0.10160215170E+04  0.10160215170E+04  0.50400001928E-02 0. -1.
       -1   -1    0    0    0  501  0.00000000000E+00  0.00000000000E+00 -0.19934110119E+03  0.19934110125E+03  0.50400001928E-02 0.  1.
    10030    2    1    2    0    0  0.00000000000E+00  0.00000000000E+00  0.81668041580E+03  0.12153626183E+04  0.90007743684E+03 0.  0.
        5    1    3    3  502    0 -0.30360685110E+03  0.34682742628E+02 -0.37730329868E+02  0.30793778667E+03  0.46999998093E+01 0.  1.
       -5    1    3    3    0  502  0.30360685110E+03 -0.34682742628E+02  0.85441074567E+03  0.90742483159E+03  0.46999998093E+01 0. -1.
</event>
<event>
 5   0  0.4033144E-04  0.9000513E+03  0.7818609E-02  0.9425517E-01
        2   -1    0    0  501    0  0.00000000000E+00  0.00000000000E+00  0.12344906001E+04  0.12344906001E+04  0.25500000920E-02 0.  1.
       -2   -1    0    0    0  501  0.00000000000E+00  0.00000000000E+00 -0.16405397409E+03  0.16405397411E+03  0.25500000920E-02 0. -1.
    10030    2    1    2    0    0  0.00000000000E+00  0.00000000000E+00  0.10704366260E+04  0.13985445742E+04  0.90005130728E+03 0.  0.
        4    1    3    3  502    0  0.20898646958E+03  0.36793259913E+03  0.77327568426E+03  0.88147980053E+03  0.12699999809E+01 0.  1.
       -4    1    3    3    0  502 -0.20898646958E+03 -0.36793259913E+03  0.29716094171E+03  0.51706477365E+03  0.12699999809E+01 0. -1.
</event>
<event>
 5   0  0.2356918E-04  0.8988957E+03  0.7818609E-02  0.9426963E-01
       -1   -1    0    0    0  501  0.00000000000E+00  0.00000000000E+00  0.11492702382E+03  0.11492702393E+03  0.50400001928E-02 0. -1.
        1   -1    0    0  501    0  0.00000000000E+00  0.00000000000E+00 -0.17576664024E+04  0.17576664024E+04  0.50400001928E-02 0.  1.
    10030    2    1    2    0    0  0.00000000000E+00  0.00000000000E+00 -0.16427393786E+04  0.18725934264E+04  0.89889569718E+03 0.  0.
        5    1    3    3  502    0  0.78502596075E+02  0.43921448687E+03 -0.70900622310E+03  0.83772545470E+03  0.46999998093E+01 0. -1.
       -5    1    3    3    0  502 -0.78502596075E+02 -0.43921448687E+03 -0.93373315551E+03  0.10348679717E+04  0.46999998093E+01 0.  1.
</event>
<event>
 5   0  0.4110039E-04  0.8996183E+03  0.7818609E-02  0.9426059E-01
       -2   -1    0    0    0  501  0.00000000000E+00  0.00000000000E+00  0.12517826188E+04  0.12517826188E+04  0.25500000920E-02 0. -1.
        2   -1    0    0  501    0  0.00000000000E+00  0.00000000000E+00 -0.16163209743E+03  0.16163209745E+03  0.25500000920E-02 0.  1.
    10030    2    1    2    0    0  0.00000000000E+00  0.00000000000E+00  0.10901505214E+04  0.14134147162E+04  0.89961825284E+03 0.  0.
        3    1    3    3  502    0 -0.95208849225E+01 -0.38537692298E+03  0.18091854307E+03  0.42583746834E+03  0.10100000352E+00 0.  1.
       -3    1    3    3    0  502  0.95208849225E+01  0.38537692298E+03  0.90923197828E+03  0.98757724789E+03  0.10100000352E+00 0. -1.
</event>
<event>
 5   0  0.2356918E-04  0.9004337E+03  0.7818609E-02  0.9425039E-01
       -1   -1    0    0    0  501  0.00000000000E+00  0.00000000000E+00  0.56507745433E+03  0.56507745435E+03  0.50400001928E-02 0.  1.
        1   -1    0    0  501    0  0.00000000000E+00  0.00000000000E+00 -0.35870340538E+03  0.35870340541E+03  0.50400001928E-02 0. -1.
    10030    2    1    2    0    0  0.00000000000E+00  0.00000000000E+00  0.20637404895E+03  0.92378085976E+03  0.90043368928E+03 0.  0.
        5    1    3    3  502    0 -0.43444280997E+03  0.11262779608E+03  0.66950649546E+02  0.45379516861E+03  0.46999998093E+01 0.  1.
       -5    1    3    3    0  502  0.43444280997E+03 -0.11262779608E+03  0.13942339940E+03  0.46998569115E+03  0.46999998093E+01 0. -1.
</event>
<event>
 5   0  0.2308362E-04  0.8997834E+03  0.7818609E-02  0.9425852E-01
       -1   -1    0    0    0  501  0.00000000000E+00  0.00000000000E+00  0.19998627010E+03  0.19998627016E+03  0.50400001928E-02 0.  1.
        1   -1    0    0  501    0  0.00000000000E+00  0.00000000000E+00 -0.10120821850E+04  0.10120821850E+04  0.50400001928E-02 0. -1.
    10030    2    1    2    0    0  0.00000000000E+00  0.00000000000E+00 -0.81209591486E+03  0.12120684551E+04  0.89978339894E+03 0.  0.
        1    1    3    3  502    0  0.60486033312E+02  0.28849116511E+03  0.51790006115E+02  0.29927899581E+03  0.50400001928E-02 0.  1.
       -1    1    3    3    0  502 -0.60486033312E+02 -0.28849116511E+03 -0.86388592098E+03  0.91278945933E+03  0.50400001928E-02 0. -1.
</event>
<event>
 5   0  0.2450427E-04  0.8984054E+03  0.7818609E-02  0.9427577E-01
       -1   -1    0    0    0  501  0.00000000000E+00  0.00000000000E+00  0.22620140744E+03  0.22620140750E+03  0.50400001928E-02 0.  1.
        1   -1    0    0  501    0  0.00000000000E+00  0.00000000000E+00 -0.89205047767E+03  0.89205047769E+03  0.50400001928E-02 0. -1.
    10030    2    1    2    0    0  0.00000000000E+00  0.00000000000E+00 -0.66584907023E+03  0.11182518852E+04  0.89840541761E+03 0.  0.
        3    1    3    3  502    0  0.36561064988E+03 -0.25676884413E+03 -0.39106285555E+03  0.59374367686E+03  0.10100000352E+00 0.  1.
       -3    1    3    3    0  502 -0.36561064988E+03  0.25676884413E+03 -0.27478621468E+03  0.52450820832E+03  0.10100000352E+00 0. -1.
</event>
<event>
 5   0  0.2356918E-04  0.9003127E+03  0.7818609E-02  0.9425191E-01
       -1   -1    0    0    0  501  0.00000000000E+00  0.00000000000E+00  0.50262043185E+03  0.50262043188E+03  0.50400001928E-02 0. -1.
        1   -1    0    0  501    0  0.00000000000E+00  0.00000000000E+00 -0.40316851491E+03  0.40316851495E+03  0.50400001928E-02 0.  1.
    10030    2    1    2    0    0  0.00000000000E+00  0.00000000000E+00  0.99451916938E+02  0.90578894682E+03  0.90031268591E+03 0.  0.
        5    1    3    3  502    0 -0.37460690173E+03 -0.13211808096E+03  0.26275222336E+03  0.47628388490E+03  0.46999998093E+01 0. -1.
       -5    1    3    3    0  502  0.37460690173E+03  0.13211808096E+03 -0.16330030642E+03  0.42950506192E+03  0.46999998093E+01 0.  1.
</event>
<event>
 5   0  0.4033144E-04  0.9010667E+03  0.7818609E-02  0.9424249E-01
        2   -1    0    0  501    0  0.00000000000E+00  0.00000000000E+00  0.78366607982E+03  0.78366607983E+03  0.25500000920E-02 0. -1.
       -2   -1    0    0    0  501  0.00000000000E+00  0.00000000000E+00 -0.25901374702E+03  0.25901374704E+03  0.25500000920E-02 0.  1.
    10030    2    1    2    0    0  0.00000000000E+00  0.00000000000E+00  0.52465233280E+03  0.10426798269E+04  0.90106667402E+03 0.  0.
        4    1    3    3  502    0  0.23226633056E+03 -0.36475515636E+03  0.11602549411E+03  0.44772480453E+03  0.12699999809E+01 0.  1.
       -4    1    3    3    0  502 -0.23226633056E+03  0.36475515636E+03  0.40862683869E+03  0.59495502234E+03  0.12699999809E+01 0. -1.
</event>
<event>
 5   0  0.4110039E-04  0.8999583E+03  0.7818609E-02  0.9425634E-01
        2   -1    0    0  501    0  0.00000000000E+00  0.00000000000E+00  0.65528321102E+03  0.65528321102E+03  0.25500000920E-02 0. -1.
       -2   -1    0    0    0  501  0.00000000000E+00  0.00000000000E+00 -0.30899805509E+03  0.30899805510E+03  0.25500000920E-02 0.  1.
    10030    2    1    2    0    0  0.00000000000E+00  0.00000000000E+00  0.34628515593E+03  0.96428126613E+03  0.89995830514E+03 0.  0.
        3    1    3    3  502    0  0.20099598474E+03 -0.38735792344E+02  0.60250984552E+03  0.63633165224E+03  0.10100000352E+00 0. -1.
       -3    1    3    3    0  502 -0.20099598474E+03  0.38735792344E+02 -0.25622468959E+03  0.32794961389E+03  0.10100000352E+00 0.  1.
</event>
<event>
 5   0  0.4236284E-04  0.8973229E+03  0.7818609E-02  0.9428934E-01
        2   -1    0    0  501    0  0.00000000000E+00  0.00000000000E+00  0.57025509843E+03  0.57025509843E+03  0.25500000920E-02 0.  1.
       -2   -1    0    0    0  501  0.00000000000E+00  0.00000000000E+00 -0.35299478388E+03  0.35299478389E+03  0.25500000920E-02 0. -1.
    10030    2    1    2    0    0  0.00000000000E+00  0.00000000000E+00  0.21726031455E+03  0.92324988232E+03  0.89732285212E+03 0.  0.
        2    1    3    3  502    0 -0.14029590881E+03  0.13380736198E+03 -0.30767114537E+03  0.36366039907E+03  0.25500000920E-02 0. -1.
       -2    1    3    3    0  502  0.14029590881E+03 -0.13380736198E+03  0.52493145992E+03  0.55958948326E+03  0.25500000920E-02 0.  1.
</event>
<event>
 5   0  0.4243516E-04  0.8997592E+03  0.7818609E-02  0.9425883E-01
       -2   -1    0    0    0  501  0.00000000000E+00  0.00000000000E+00  0.78595564832E+02  0.78595564873E+02  0.25500000920E-02 0. -1.
        2   -1    0    0  501    0  0.00000000000E+00  0.00000000000E+00 -0.25751025064E+04  0.25751025064E+04  0.25500000920E-02 0.  1.
    10030    2    1    2    0    0  0.00000000000E+00  0.00000000000E+00 -0.24965069416E+04  0.26536980713E+04  0.89975915899E+03 0.  0.
        1    1    3    3  502    0  0.33440814553E+03 -0.62547891055E+02 -0.38007103865E+03  0.51009316886E+03  0.50400001928E-02 0. -1.
       -1    1    3    3    0  502 -0.33440814553E+03  0.62547891055E+02 -0.21164359029E+04  0.21436049024E+04  0.50400001928E-02 0.  1.
</event>
<event>
 5   0  0.3959804E-04  0.9002289E+03  0.7818609E-02  0.9425295E-01
       -2   -1    0    0    0  501  0.00000000000E+00  0.00000000000E+00  0.22997056633E+03  0.22997056635E+03  0.25500000920E-02 0.  1.
        2   -1    0    0  501    0  0.00000000000E+00  0.00000000000E+00 -0.88099551366E+03  0.88099551367E+03  0.25500000920E-02 0. -1.
    10030    2    1    2    0    0  0.00000000000E+00  0.00000000000E+00 -0.65102494733E+03  0.11109660800E+04  0.90022894249E+03 0.  0.
        5    1    3    3  502    0 -0.30762689298E+03 -0.32769471810E+03 -0.29623523281E+03  0.53832660785E+03  0.46999998093E+01 0. -1.
       -5    1    3    3    0  502  0.30762689298E+03  0.32769471810E+03 -0.35478971452E+03  0.57263947217E+03  0.46999998093E+01 0.  1.
</event>
<event>
 5   0  0.4110039E-04  0.8999456E+03  0.7818609E-02  0.9425649E-01
        2   -1    0    0  501    0  0.00000000000E+00  0.00000000000E+00  0.37311027955E+03  0.37311027956E+03  0.25500000920E-02 0. -1.
       -2   -1    0    0    0  501  0.00000000000E+00  0.00000000000E+00 -0.54266936377E+03  0.54266936377E+03  0.25500000920E-02 0.  1.
    10030    2    1    2    0    0  0.00000000000E+00  0.00000000000E+00 -0.16955908422E+03  0.91577964333E+03  0.89994559397E+03 0.  0.
        3    1    3    3  502    0 -0.23914298886E+03  0.32809429887E+03 -0.28220406357E+03  0.49444350716E+03  0.10100000352E+00 0.  1.
       -3    1    3    3    0  502  0.23914298886E+03 -0.32809429887E+03  0.11264497935E+03  0.42133613618E+03  0.10100000352E+00 0. -1.
</event>
<event>
 5   0  0.2308362E-04  0.9004605E+03  0.7818609E-02  0.9425006E-01
        1   -1    0    0  501    0  0.00000000000E+00  0.00000000000E+00  0.83636244758E+03  0.83636244760E+03  0.50400001928E-02 0. -1.
       -1   -1    0    0    0  501  0.00000000000E+00  0.00000000000E+00 -0.24236771858E+03  0.24236771863E+03  0.50400001928E-02 0.  1.
    10030    2    1    2    0    0  0.00000000000E+00  0.00000000000E+00  0.59399472901E+03  0.10787301662E+04  0.90046045635E+03 0.  0.
        1    1    3    3  502    0 -0.38233521746E+03 -0.23544274421E+03  0.33661677509E+03  0.56118121637E+03  0.50400001928E-02 0.  1.
       -1    1    3    3    0  502  0.38233521746E+03  0.23544274421E+03  0.25737795391E+03  0.51754894985E+03  0.50400001928E-02 0. -1.
</event>
<event>
 5   0  0.2450427E-04  0.8998662E+03  0.7818609E-02  0.9425749E-01
        1   -1    0    0  501    0  0.00000000000E+00  0.00000000000E+00  0.54404849308E+03  0.54404849310E+03  0.50400001928E-02 0. -1.
       -1   -1    0    0    0  501  0.00000000000E+00  0.00000000000E+00 -0.37209880313E+03  0.37209880317E+03  0.50400001928E-02 0.  1.
    10030    2    1    2    0    0  0.00000000000E+00  0.00000000000E+00  0.17194968995E+03  0.91614729627E+03  0.89986619705E+03 0.  0.
        3    1    3    3  502    0 -0.31146071502E+03 -0.17216684569E+03  0.36625670478E+03  0.51067913973E+03  0.10100000352E+00 0. -1.
       -3    1    3    3    0  502  0.31146071502E+03  0.17216684569E+03 -0.19430701483E+03  0.40546815654E+03  0.10100000352E+00 0.  1.
</event>
<event>
 5   0  0.2356918E-04  0.8999360E+03  0.7818609E-02  0.9425661E-01
       -1   -1    0    0    0  501  0.00000000000E+00  0.00000000000E+00  0.41078595037E+03  0.41078595040E+03  0.50400001928E-02 0. -1.
        1   -1    0    0  501    0  0.00000000000E+00  0.00000000000E+00 -0.49288730202E+03  0.49288730205E+03  0.50400001928E-02 0.  1.
    10030    2    1    2    0    0  0.00000000000E+00  0.00000000000E+00 -0.82101351658E+02  0.90367325245E+03  0.89993595063E+03 0.  0.
        5    1    3    3  502    0 -0.67834535491E+02 -0.46102227761E+02 -0.48529287929E+03  0.49219732659E+03  0.46999998093E+01 0.  1.
       -5    1    3    3    0  502  0.67834535491E+02  0.46102227761E+02  0.40319152763E+03  0.41147592586E+03  0.46999998093E+01 0. -1.
</event>
<event>
 5   0  0.2450427E-04  0.9002055E+03  0.7818609E-02  0.9425325E-01
       -1   -1    0    0    0  501  0.00000000000E+00  0.00000000000E+00  0.15935309531E+03  0.15935309539E+03  0.50400001928E-02 0.  1.
        1   -1    0    0  501    0  0.00000000000E+00  0.00000000000E+00 -0.12713433304E+04  0.12713433304E+04  0.50400001928E-02 0. -1.
    10030    2    1    2    0    0  0.00000000000E+00  0.00000000000E+00 -0.11119902351E+04  0.14306964258E+04  0.90020552090E+03 0.  0.
        3    1    3    3  502    0 -0.29674076016E+03  0.33689632278E+03 -0.50478429504E+03  0.67554526552E+03  0.10100000352E+00 0.  1.
       -3    1    3    3    0  502  0.29674076016E+03 -0.33689632278E+03 -0.60720594006E+03  0.75515116029E+03  0.10100000352E+00 0. -1.
</event>
<event>
 5   0  0.4236284E-04  0.8998683E+03  0.7818609E-02  0.9425746E-01
       -2   -1    0    0    0  501  0.00000000000E+00  0.00000000000E+00  0.18856937501E+03  0.18856937502E+03  0.25500000920E-02 0.  1.
        2   -1    0    0  501    0  0.00000000000E+00  0.00000000000E+00 -0.10735609770E+04  0.10735609770E+04  0.25500000920E-02 0. -1.
    10030    2    1    2    0    0  0.00000000000E+00  0.00000000000E+00 -0.88499160201E+03  0.12621303520E+04  0.89986826253E+03 0.  0.
        2    1    3    3  502    0 -0.10621784393E+03 -0.16225079326E+02 -0.10553015407E+04  0.10607576657E+04  0.25500000920E-02 0. -1.
       -2    1    3    3    0  502  0.10621784393E+03  0.16225079326E+02  0.17030993870E+03  0.20137268632E+03  0.25500000920E-02 0.  1.
</event>
<event>
 5   0  0.4110039E-04  0.9002255E+03  0.7818609E-02  0.9425300E-01
        2   -1    0    0  501    0  0.00000000000E+00  0.00000000000E+00  0.22695475594E+04  0.22695475594E+04  0.25500000920E-02 0.  1.
       -2   -1    0    0    0  501  0.00000000000E+00  0.00000000000E+00 -0.89269556180E+02  0.89269556217E+02  0.25500000920E-02 0. -1.
    10030    2    1    2    0    0  0.00000000000E+00  0.00000000000E+00  0.21802780032E+04  0.23588171156E+04  0.90022553485E+03 0.  0.
        3    1    3    3  502    0 -0.45872836885E+02  0.11972355271E+03 -0.40411972884E+02  0.13442910396E+03  0.10100000352E+00 0. -1.
       -3    1    3    3    0  502  0.45872836885E+02 -0.11972355271E+03  0.22206899761E+04  0.22243880116E+04  0.10100000352E+00 0.  1.
</event>
<event>
 5   0  0.2450427E-04  0.9001420E+03  0.7818609E-02  0.9425404E-01
        1   -1    0    0  501    0  0.00000000000E+00  0.00000000000E+00  0.84770808843E+03  0.84770808844E+03  0.50400001928E-02 0.  1.
       -1   -1    0    0    0  501  0.00000000000E+00  0.00000000000E+00 -0.23895477414E+03  0.23895477419E+03  0.50400001928E-02 0. -1.
    10030    2    1    2    0    0  0.00000000000E+00  0.00000000000E+00  0.60875331429E+03  0.10866628626E+04  0.90014197733E+03 0.  0.
        3    1    3    3  502    0  0.35853522849E+03 -0.26452689313E+03  0.22762699869E+03  0.50033593514E+03  0.10100000352E+00 0.  1.
       -3    1    3    3    0  502 -0.35853522849E+03  0.26452689313E+03  0.38112631560E+03  0.58632692749E+03  0.10100000352E+00 0. -1.
</event>
<event>
 5   0  0.2332791E-04  0.9003755E+03  0.7818609E-02  0.9425112E-01
       -1   -1    0    0    0  501  0.00000000000E+00  0.00000000000E+00  0.15642935608E+03  0.15642935616E+03  0.50400001928E-02 0. -1.
        1   -1    0    0  501    0  0.00000000000E+00  0.00000000000E+00 -0.12955944688E+04  0.12955944689E+04  0.50400001928E-02 0.  1.
    10030    2    1    2    0    0  0.00000000000E+00  0.00000000000E+00 -0.11391651128E+04  0.14520238250E+04  0.90037549626E+03 0.  0.
        2    1    3    3  502    0 -0.15436210169E+03  0.33990798795E+03 -0.97533892245E+03  0.10443424306E+04  0.25500000920E-02 0.  1.
       -2    1    3    3    0  502  0.15436210169E+03 -0.33990798795E+03 -0.16382619032E+03  0.40768139441E+03  0.25500000920E-02 0. -1.
</event>
<event>
 5   0  0.4236284E-04  0.9000058E+03  0.7818609E-02  0.9425574E-01
        2   -1    0    0  501    0  0.00000000000E+00  0.00000000000E+00  0.49197535936E+03  0.49197535936E+03  0.25500000920E-02 0. -1.
       -2   -1    0    0    0  501  0.00000000000E+00  0.00000000000E+00 -0.41161130522E+03  0.41161130523E+03  0.25500000920E-02 0.  1.
    10030    2    1    2    0    0  0.00000000000E+00  0.00000000000E+00  0.80364054134E+02  0.90358666459E+03  0.90000582178E+03 0.  0.
        2    1    3    3  502    0  0.17859305893E+03 -0.74578801050E+00 -0.37450684968E+03  0.41491133675E+03  0.25500000920E-02 0.  1.
       -2    1    3    3    0  502 -0.17859305893E+03  0.74578801050E+00  0.45487090382E+03  0.48867532784E+03  0.25500000920E-02 0. -1.
</event>
<event>
 5   0  0.2332791E-04  0.8996985E+03  0.7818609E-02  0.9425958E-01
       -1   -1    0    0    0  501  0.00000000000E+00  0.00000000000E+00  0.99206622383E+02  0.99206622511E+02  0.50400001928E-02 0.  1.
        1   -1    0    0  501    0  0.00000000000E+00  0.00000000000E+00 -0.20398271818E+04  0.20398271818E+04  0.50400001928E-02 0. -1.
    10030    2    1    2    0    0  0.00000000000E+00  0.00000000000E+00 -0.19406205594E+04  0.21390338043E+04  0.89969853860E+03 0.  0.
        2    1    3    3  502    0  0.20811748579E+03 -0.52171610964E+02 -0.19103392575E+04  0.19223503436E+04  0.25500000920E-02 0. -1.
       -2    1    3    3    0  502 -0.20811748579E+03  0.52171610964E+02 -0.30281301909E+02  0.21668346068E+03  0.25500000920E-02 0.  1.
</event>
<event>
 5   0  0.1596250E-04  0.8996690E+03  0.7818609E-02  0.9425995E-01
        3   -1    0    0  501    0  0.00000000000E+00  0.00000000000E+00  0.11111410789E+04  0.11111410834E+04  0.10100000352E+00 0. -1.
       -3   -1    0    0    0  501  0.00000000000E+00  0.00000000000E+00 -0.18211104104E+03  0.18211106905E+03  0.10100000352E+00 0.  1.
    10030    2    1    2    0    0  0.00000000000E+00  0.00000000000E+00  0.92903003781E+03  0.12932521525E+04  0.89966900511E+03 0.  0.
        4    1    3    3  502    0 -0.23979285123E+03 -0.38054957303E+03  0.47250274782E+03  0.65236419938E+03  0.12699999809E+01 0. -1.
       -4    1    3    3    0  502  0.23979285123E+03  0.38054957303E+03  0.45652728999E+03  0.64088795311E+03  0.12699999809E+01 0.  1.
</event>
<event>
 5   0  0.4243516E-04  0.8998616E+03  0.7818609E-02  0.9425754E-01
       -2   -1    0    0    0  501  0.00000000000E+00  0.00000000000E+00  0.45867372535E+03  0.45867372535E+03  0.25500000920E-02 0. -1.
        2   -1    0    0  501    0  0.00000000000E+00  0.00000000000E+00 -0.44135456817E+03  0.44135456818E+03  0.25500000920E-02 0.  1.
    10030    2    1    2    0    0  0.00000000000E+00  0.00000000000E+00  0.17319157177E+02  0.90002829353E+03  0.89986164267E+03 0.  0.
        1    1    3    3  502    0 -0.43393655786E+03 -0.11835658352E+03 -0.26794891685E+01  0.44979595018E+03  0.50400001928E-02 0. -1.
       -1    1    3    3    0  502  0.43393655786E+03  0.11835658352E+03  0.19998646345E+02  0.45023234335E+03  0.50400001928E-02 0.  1.
</event>
<event>
 5   0  0.2351435E-04  0.8998594E+03  0.7818609E-02  0.9425757E-01
        1   -1    0    0  501    0  0.00000000000E+00  0.00000000000E+00  0.11570613505E+04  0.11570613505E+04  0.50400001928E-02 0. -1.
       -1   -1    0    0    0  501  0.00000000000E+00  0.00000000000E+00 -0.17495766468E+03  0.17495766476E+03  0.50400001928E-02 0.  1.
    10030    2    1    2    0    0  0.00000000000E+00  0.00000000000E+00  0.98210368583E+03  0.13320190153E+04  0.89985943755E+03 0.  0.
        4    1    3    3  502    0  0.36495508385E+03 -0.26271968148E+03  0.51307204128E+03  0.68224510018E+03  0.12699999809E+01 0.  1.
       -4    1    3    3    0  502 -0.36495508385E+03  0.26271968148E+03  0.46903164455E+03  0.64977391511E+03  0.12699999809E+01 0. -1.
</event>
<event>
 5   0  0.2308362E-04  0.9001266E+03  0.7818609E-02  0.9425423E-01
        1   -1    0    0  501    0  0.00000000000E+00  0.00000000000E+00  0.48983577622E+03  0.48983577625E+03  0.50400001928E-02 0.  1.
       -1   -1    0    0    0  501  0.00000000000E+00  0.00000000000E+00 -0.41352019827E+03  0.41352019830E+03  0.50400001928E-02 0. -1.
    10030    2    1    2    0    0  0.00000000000E+00  0.00000000000E+00  0.76315577950E+02  0.90335597455E+03  0.90012662960E+03 0.  0.
        1    1    3    3  502    0  0.18877114156E+03  0.32696792987E+03  0.28401508683E+03  0.47244802955E+03  0.50400001928E-02 0.  1.
       -1    1    3    3    0  502 -0.18877114156E+03 -0.32696792987E+03 -0.20769950888E+03  0.43090794500E+03  0.50400001928E-02 0. -1.
</event>
<event>
 5   0  0.2332791E-04  0.8998226E+03  0.7818609E-02  0.9425803E-01
       -1   -1    0    0    0  501  0.00000000000E+00  0.00000000000E+00  0.11276537163E+03  0.11276537174E+03  0.50400001928E-02 0. -1.
        1   -1    0    0  501    0  0.00000000000E+00  0.00000000000E+00 -0.17950560531E+04  0.17950560531E+04  0.50400001928E-02 0.  1.
    10030    2    1    2    0    0  0.00000000000E+00  0.00000000000E+00 -0.16822906815E+04  0.19078214249E+04  0.89982256705E+03 0.  0.
        2    1    3    3  502    0 -0.30501132264E+03 -0.29658978117E+03 -0.11514716025E+04  0.12275521400E+04  0.25500000920E-02 0. -1.
       -2    1    3    3    0  502  0.30501132264E+03  0.29658978117E+03 -0.53081907906E+03  0.68026928486E+03  0.25500000920E-02 0.  1.
</event>
<event>
 5   0  0.4243516E-04  0.8999870E+03  0.7818609E-02  0.9425598E-01
        2   -1    0    0  501    0  0.00000000000E+00  0.00000000000E+00  0.14449278828E+04  0.14449278828E+04  0.25500000920E-02 0.  1.
       -2   -1    0    0    0  501  0.00000000000E+00  0.00000000000E+00 -0.14014134893E+03  0.14014134895E+03  0.25500000920E-02 0. -1.
    10030    2    1    2    0    0  0.00000000000E+00  0.00000000000E+00  0.13047865339E+04  0.15850692317E+04  0.89998698350E+03 0.  0.
        1    1    3    3  502    0 -0.39390188597E+03  0.21436464056E+03  0.71789638685E+03  0.84645502962E+03  0.50400001928E-02 0. -1.
       -1    1    3    3    0  502  0.39390188597E+03 -0.21436464056E+03  0.58689014701E+03  0.73861420212E+03  0.50400001928E-02 0.  1.
</event>
<event>
 5   0  0.3959804E-04  0.8990671E+03  0.7818609E-02  0.9426748E-01
       -2   -1    0    0    0  501  0.00000000000E+00  0.00000000000E+00  0.56918034492E+03  0.56918034493E+03  0.25500000920E-02 0.  1.
        2   -1    0    0  501    0  0.00000000000E+00  0.00000000000E+00 -0.35503754640E+03  0.35503754641E+03  0.25500000920E-02 0. -1.
    10030    2    1    2    0    0  0.00000000000E+00  0.00000000000E+00  0.21414279853E+03  0.92421789134E+03  0.89906705673E+03 0.  0.
        5    1    3    3  502    0 -0.19017900961E+03 -0.40580506892E+03  0.71276430204E+02  0.45381519273E+03  0.46999998093E+01 0. -1.
       -5    1    3    3    0  502  0.19017900961E+03  0.40580506892E+03  0.14286636832E+03  0.47040269860E+03  0.46999998093E+01 0.  1.
</event>
<event>
 5   0  0.2450427E-04  0.8999469E+03  0.7818609E-02  0.9425648E-01
        1   -1    0    0  501    0  0.00000000000E+00  0.00000000000E+00  0.10285034799E+04  0.10285034799E+04  0.50400001928E-02 0. -1.
       -1   -1    0    0    0  501  0.00000000000E+00  0.00000000000E+00 -0.19686476058E+03  0.19686476064E+03  0.50400001928E-02 0.  1.
    10030    2    1    2    0    0  0.00000000000E+00  0.00000000000E+00  0.83163871934E+03  0.12253682406E+04  0.89994686815E+03 0.  0.
        3    1    3    3  502    0  0.24470270230E+03 -0.43744863777E+02  0.92652499049E+03  0.95929223588E+03  0.10100000352E+00 0. -1.
       -3    1    3    3    0  502 -0.24470270230E+03  0.43744863777E+02 -0.94886271144E+02  0.26607600469E+03  0.10100000352E+00 0.  1.
</event>
<event>
 5   0  0.4033144E-04  0.8998940E+03  0.7818609E-02  0.9425714E-01
        2   -1    0    0  501    0  0.00000000000E+00  0.00000000000E+00  0.95408630611E+03  0.95408630612E+03  0.25500000920E-02 0.  1.
       -2   -1    0    0    0  501  0.00000000000E+00  0.00000000000E+00 -0.21219497367E+03  0.21219497368E+03  0.25500000920E-02 0. -1.
    10030    2    1    2    0    0  0.00000000000E+00  0.00000000000E+00  0.74189133244E+03  0.11662812798E+04  0.89989403513E+03 0.  0.
        4    1    3    3  502    0  0.28654812696E+03  0.34587563668E+03  0.33638974452E+03  0.56115903114E+03  0.12699999809E+01 0.  1.
       -4    1    3    3    0  502 -0.28654812696E+03 -0.34587563668E+03  0.40550158793E+03  0.60512224866E+03  0.12699999809E+01 0. -1.
</event>
<event>
 5   0  0.2351435E-04  0.9001912E+03  0.7818609E-02  0.9425342E-01
       -1   -1    0    0    0  501  0.00000000000E+00  0.00000000000E+00  0.57453970540E+03  0.57453970542E+03  0.50400001928E-02 0.  1.
        1   -1    0    0  501    0  0.00000000000E+00  0.00000000000E+00 -0.35260583746E+03  0.35260583749E+03  0.50400001928E-02 0. -1.
    10030    2    1    2    0    0  0.00000000000E+00  0.00000000000E+00  0.22193386794E+03  0.92714554291E+03  0.90019121080E+03 0.  0.
        4    1    3    3  502    0 -0.39464587128E+03 -0.12433180888E+03  0.29341712087E+03  0.50724647080E+03  0.12699999809E+01 0.  1.
       -4    1    3    3    0  502  0.39464587128E+03  0.12433180888E+03 -0.71483252931E+02  0.41989907212E+03  0.12699999809E+01 0. -1.
</event>
<event>
 5   0  0.2356918E-04  0.8999171E+03  0.7818609E-02  0.9425685E-01
        1   -1    0    0  501    0  0.00000000000E+00  0.00000000000E+00  0.18829152493E+04  0.18829152493E+04  0.50400001928E-02 0.  1.
       -1   -1    0    0    0  501  0.00000000000E+00  0.00000000000E+00 -0.10752617670E+03  0.10752617682E+03  0.50400001928E-02 0. -1.
    10030    2    1    2    0    0  0.00000000000E+00  0.00000000000E+00  0.17753890726E+04  0.19904414261E+04  0.89991705824E+03 0.  0.
        5    1    3    3  502    0  0.57666827722E+02 -0.41245698185E+03  0.51107425455E+03  0.65929144433E+03  0.46999998093E+01 0.  1.
       -5    1    3    3    0  502 -0.57666827722E+02  0.41245698185E+03  0.12643148181E+04  0.13311499818E+04  0.46999998093E+01 0. -1.
</event>
<event>
 5   0  0.2332791E-04  0.9002002E+03  0.7818609E-02  0.9425331E-01
       -1   -1    0    0    0  501  0.00000000000E+00  0.00000000000E+00  0.39782296324E+03  0.39782296327E+03  0.50400001928E-02 0.  1.
        1   -1    0    0  501    0  0.00000000000E+00  0.00000000000E+00 -0.50924684730E+03  0.50924684733E+03  0.50400001928E-02 0. -1.
    10030    2    1    2    0    0  0.00000000000E+00  0.00000000000E+00 -0.11142388406E+03  0.90706981060E+03  0.90020017739E+03 0.  0.
        2    1    3    3  502    0 -0.37019568137E+03  0.15460582294E+03  0.14990973853E+03  0.42827646761E+03  0.25500000920E-02 0.  1.
       -2    1    3    3    0  502  0.37019568137E+03 -0.15460582294E+03 -0.26133362259E+03  0.47879334300E+03  0.25500000920E-02 0. -1.
</event>
<event>
 5   0  0.2332791E-04  0.9002507E+03  0.7818609E-02  0.9425268E-01
       -1   -1    0    0    0  501  0.00000000000E+00  0.00000000000E+00  0.31657046651E+03  0.31657046655E+03  0.50400001928E-02 0. -1.
        1   -1    0    0  501    0  0.00000000000E+00  0.00000000000E+00 -0.64002437659E+03  0.64002437661E+03  0.50400001928E-02 0.  1.
    10030    2    1    2    0    0  0.00000000000E+00  0.00000000000E+00 -0.32345391008E+03  0.95659484316E+03  0.90025066621E+03 0.  0.
        2    1    3    3  502    0 -0.95237886698E+02  0.42787839292E+03 -0.27041586971E+03  0.51504846063E+03  0.25500000920E-02 0.  1.
       -2    1    3    3    0  502  0.95237886698E+02 -0.42787839292E+03 -0.53038040366E+02  0.44154638253E+03  0.25500000920E-02 0. -1.
</event>
<event>
 5   0  0.2356918E-04  0.8991528E+03  0.7818609E-02  0.9426641E-01
       -1   -1    0    0    0  501  0.00000000000E+00  0.00000000000E+00  0.19515852365E+03  0.19515852371E+03  0.50400001928E-02 0. -1.
        1   -1    0    0  501    0  0.00000000000E+00  0.00000000000E+00 -0.10356654116E+04  0.10356654116E+04  0.50400001928E-02 0.  1.
    10030    2    1    2    0    0  0.00000000000E+00  0.00000000000E+00 -0.84050688791E+03  0.12308239353E+04  0.89915278514E+03 0.  0.
        5    1    3    3  502    0 -0.75711032809E+02 -0.43916480557E+03 -0.50122484774E+03  0.67070584084E+03  0.46999998093E+01 0.  1.
       -5    1    3    3    0  502  0.75711032809E+02  0.43916480557E+03 -0.33928204017E+03  0.56011809444E+03  0.46999998093E+01 0. -1.
</event>
<event>
 5   0  0.2356918E-04  0.8998577E+03  0.7818609E-02  0.9425759E-01
       -1   -1    0    0    0  501  0.00000000000E+00  0.00000000000E+00  0.77649621458E+03  0.77649621459E+03  0.50400001928E-02 0. -1.
        1   -1    0    0  501    0  0.00000000000E+00  0.00000000000E+00 -0.26070440699E+03  0.26070440703E+03  0.50400001928E-02 0.  1.
    10030    2    1    2    0    0  0.00000000000E+00  0.00000000000E+00  0.51579180759E+03  0.10372006216E+04  0.89985773360E+03 0.  0.
        5    1    3    3  502    0  0.33915552660E+03 -0.12568810888E+03  0.56629625456E+03  0.67196540824E+03  0.46999998093E+01 0. -1.
       -5    1    3    3    0  502 -0.33915552660E+03  0.12568810888E+03 -0.50504446970E+02  0.36523521339E+03  0.46999998093E+01 0.  1.
</event>
<event>
 5   0  0.2332791E-04  0.9023772E+03  0.7818609E-02  0.9422615E-01
        1   -1    0    0  501    0  0.00000000000E+00  0.00000000000E+00  0.51234795820E+03  0.51234795823E+03  0.50400001928E-02 0.  1.
       -1   -1    0    0    0  501  0.00000000000E+00  0.00000000000E+00 -0.39732985595E+03  0.39732985598E+03  0.50400001928E-02 0. -1.
    10030    2    1    2    0    0  0.00000000000E+00  0.00000000000E+00  0.11501810225E+03  0.90967781421E+03  0.90237717270E+03 0.  0.
        2    1    3    3  502    0 -0.17901267079E+03 -0.40964503533E+03 -0.39476782664E+01  0.44706842367E+03  0.25500000920E-02 0.  1.
       -2    1    3    3    0  502  0.17901267079E+03  0.40964503533E+03  0.11896578052E+03  0.46260939054E+03  0.25500000920E-02 0. -1.
</event>
<event>
 5   0  0.2332791E-04  0.9001674E+03  0.7818609E-02  0.9425372E-01
        1   -1    0    0  501    0  0.00000000000E+00  0.00000000000E+00  0.23801966602E+03  0.23801966608E+03  0.50400001928E-02 0. -1.
       -1   -1    0    0    0  501  0.00000000000E+00  0.00000000000E+00 -0.85108653645E+03  0.85108653646E+03  0.50400001928E-02 0.  1.
    10030    2    1    2    0    0  0.00000000000E+00  0.00000000000E+00 -0.61306687042E+03  0.10891062025E+04  0.90016739154E+03 0.  0.
        2    1    3    3  502    0 -0.24223146576E+02 -0.40363936648E+03 -0.67403256344E+02  0.40994474991E+03  0.25500000920E-02 0. -1.
       -2    1    3    3    0  502  0.24223146576E+02  0.40363936648E+03 -0.54566361408E+03  0.67916145263E+03  0.25500000920E-02 0.  1.
</event>
<event>
 5   0  0.1596250E-04  0.8952343E+03  0.7818609E-02  0.9431558E-01
       -4   -1    0    0    0  501  0.00000000000E+00  0.00000000000E+00  0.40868484895E+03  0.40868682222E+03  0.12699999809E+01 0.  1.
        4   -1    0    0  501    0  0.00000000000E+00  0.00000000000E+00 -0.49025426301E+03  0.49025590797E+03  0.12699999809E+01 0. -1.
    10030    2    1    2    0    0  0.00000000000E+00  0.00000000000E+00 -0.81569414060E+02  0.89894273019E+03  0.89523430612E+03 0.  0.
        1    1    3    3  502    0 -0.23921258497E+03  0.36030056819E+03 -0.15668360239E+03  0.45998794715E+03  0.50400001928E-02 0. -1.
       -1    1    3    3    0  502  0.23921258497E+03 -0.36030056819E+03  0.75114188328E+02  0.43895478304E+03  0.50400001928E-02 0.  1.
</event>
<event>
 5   0  0.4243516E-04  0.9001082E+03  0.7818609E-02  0.9425446E-01
       -2   -1    0    0    0  501  0.00000000000E+00  0.00000000000E+00  0.36098683307E+03  0.36098683308E+03  0.25500000920E-02 0. -1.
        2   -1    0    0  501    0  0.00000000000E+00  0.00000000000E+00 -0.56109714253E+03  0.56109714253E+03  0.25500000920E-02 0.  1.
    10030    2    1    2    0    0  0.00000000000E+00  0.00000000000E+00 -0.20011030946E+03  0.92208397561E+03  0.90010817246E+03 0.  0.
        1    1    3    3  502    0 -0.72076481177E+02  0.34217499736E+03 -0.39029178216E+03  0.52402902897E+03  0.50400001928E-02 0.  1.
       -1    1    3    3    0  502  0.72076481177E+02 -0.34217499736E+03  0.19018147271E+03  0.39805494664E+03  0.50400001928E-02 0. -1.
</event>
<event>
 5   0  0.2356918E-04  0.9004140E+03  0.7818609E-02  0.9425064E-01
       -1   -1    0    0    0  501  0.00000000000E+00  0.00000000000E+00  0.31427267452E+03  0.31427267456E+03  0.50400001928E-02 0. -1.
        1   -1    0    0  501    0  0.00000000000E+00  0.00000000000E+00 -0.64493782984E+03  0.64493782986E+03  0.50400001928E-02 0.  1.
    10030    2    1    2    0    0  0.00000000000E+00  0.00000000000E+00 -0.33066515532E+03  0.95921050442E+03  0.90041398637E+03 0.  0.
        5    1    3    3  502    0 -0.30821979286E+03  0.20137747340E+03  0.11064355409E+03  0.38446900208E+03  0.46999998093E+01 0. -1.
       -5    1    3    3    0  502  0.30821979286E+03 -0.20137747340E+03 -0.44130870941E+03  0.57474150234E+03  0.46999998093E+01 0.  1.
</event>
<event>
 5   0  0.2332791E-04  0.9002374E+03  0.7818609E-02  0.9425285E-01
        1   -1    0    0  501    0  0.00000000000E+00  0.00000000000E+00  0.14344642756E+04  0.14344642756E+04  0.50400001928E-02 0. -1.
       -1   -1    0    0    0  501  0.00000000000E+00  0.00000000000E+00 -0.14124217099E+03  0.14124217108E+03  0.50400001928E-02 0.  1.
    10030    2    1    2    0    0  0.00000000000E+00  0.00000000000E+00  0.12932221046E+04  0.15757064467E+04  0.90023740996E+03 0.  0.
        2    1    3    3  502    0  0.43399399216E+03  0.93062625974E+01  0.85496170069E+03  0.95885186625E+03  0.25500000920E-02 0. -1.
       -2    1    3    3    0  502 -0.43399399216E+03 -0.93062625974E+01  0.43826040388E+03  0.61685458041E+03  0.25500000920E-02 0.  1.
</event>
<event>
 5   0  0.2308362E-04  0.9001674E+03  0.7818609E-02  0.9425372E-01
        1   -1    0    0  501    0  0.00000000000E+00  0.00000000000E+00  0.10453703400E+04  0.10453703400E+04  0.50400001928E-02 0.  1.
       -1   -1    0    0    0  501  0.00000000000E+00  0.00000000000E+00 -0.19378333977E+03  0.19378333983E+03  0.50400001928E-02 0. -1.
    10030    2    1    2    0    0  0.00000000000E+00  0.00000000000E+00  0.85158700025E+03  0.12391536799E+04  0.90016744183E+03 0.  0.
        1    1    3    3  502    0  0.44814841260E+03  0.20469447381E+02  0.37579198469E+03  0.58521416061E+03  0.50400001928E-02 0.  1.
       -1    1    3    3    0  502 -0.44814841260E+03 -0.20469447381E+02  0.47579501556E+03  0.65393951926E+03  0.50400001928E-02 0. -1.
</event>
<event>
 5   0  0.3959804E-04  0.9003142E+03  0.7818609E-02  0.9425189E-01
        2   -1    0    0  501    0  0.00000000000E+00  0.00000000000E+00  0.51782981714E+03  0.51782981715E+03  0.25500000920E-02 0.  1.
       -2   -1    0    0    0  501  0.00000000000E+00  0.00000000000E+00 -0.39132821135E+03  0.39132821135E+03  0.25500000920E-02 0. -1.
    10030    2    1    2    0    0  0.00000000000E+00  0.00000000000E+00  0.12650160580E+03  0.90915802850E+03  0.90031420322E+03 0.  0.
        5    1    3    3  502    0  0.38375643126E+03  0.23371377917E+03  0.36000600797E+02  0.45078738044E+03  0.46999998093E+01 0. -1.
       -5    1    3    3    0  502 -0.38375643126E+03 -0.23371377917E+03  0.90501004999E+02  0.45837064807E+03  0.46999998093E+01 0.  1.
</event>
<event>
 5   0  0.3959804E-04  0.8998293E+03  0.7818609E-02  0.9425795E-01
       -2   -1    0    0    0  501  0.00000000000E+00  0.00000000000E+00  0.12016629784E+03  0.12016629787E+03  0.25500000920E-02 0.  1.
        2   -1    0    0  501    0  0.00000000000E+00  0.00000000000E+00 -0.16845253307E+04  0.16845253307E+04  0.25500000920E-02 0. -1.
    10030    2    1    2    0    0  0.00000000000E+00  0.00000000000E+00 -0.15643590328E+04  0.18046916285E+04  0.89982925633E+03 0.  0.
        5    1    3    3  502    0 -0.22704815482E+03  0.10576162467E+03 -0.15317046765E+04  0.15520559564E+04  0.46999998093E+01 0. -1.
       -5    1    3    3    0  502  0.22704815482E+03 -0.10576162467E+03 -0.32654356365E+02  0.25263567216E+03  0.46999998093E+01 0.  1.
</event>
<event>
 5   0  0.4033144E-04  0.9001880E+03  0.7818609E-02  0.9425346E-01
        2   -1    0    0  501    0  0.00000000000E+00  0.00000000000E+00  0.12948272589E+03  0.12948272591E+03  0.25500000920E-02 0.  1.
       -2   -1    0    0    0  501  0.00000000000E+00  0.00000000000E+00 -0.15645687026E+04  0.15645687026E+04  0.25500000920E-02 0. -1.
    10030    2    1    2    0    0  0.00000000000E+00  0.00000000000E+00 -0.14350859767E+04  0.16940514285E+04  0.90018802585E+03 0.  0.
        4    1    3    3  502    0  0.28909889236E+03 -0.16384157452E+03 -0.14624009776E+03  0.36305648348E+03  0.12699999809E+01 0.  1.
       -4    1    3    3    0  502 -0.28909889236E+03  0.16384157452E+03 -0.12888458790E+04  0.13309949450E+04  0.12699999809E+01 0. -1.
</event>
<event>
 5   0  0.2356918E-04  0.9003190E+03  0.7818609E-02  0.9425183E-01
        1   -1    0    0  501    0  0.00000000000E+00  0.00000000000E+00  0.13254677076E+04  0.13254677076E+04  0.50400001928E-02 0.  1.
       -1   -1    0    0    0  501  0.00000000000E+00  0.00000000000E+00 -0.15288458390E+03  0.15288458399E+03  0.50400001928E-02 0. -1.
    10030    2    1    2    0    0  0.00000000000E+00  0.00000000000E+00  0.11725831237E+04  0.14783522916E+04  0.90031900797E+03 0.  0.
        5    1    3    3  502    0  0.42402198454E+02 -0.23151757116E+03  0.12163336795E+04  0.12389059859E+04  0.46999998093E+01 0.  1.
       -5    1    3    3    0  502 -0.42402198454E+02  0.23151757116E+03 -0.43750555730E+02  0.23944630570E+03  0.46999998093E+01 0. -1.
</event>
<event>
 5   0  0.4236284E-04  0.9001953E+03  0.7818609E-02  0.9425337E-01
        2   -1    0    0  501    0  0.00000000000E+00  0.00000000000E+00  0.96921747903E+03  0.96921747904E+03  0.25500000920E-02 0. -1.
       -2   -1    0    0    0  501  0.00000000000E+00  0.00000000000E+00 -0.20902212337E+03  0.20902212339E+03  0.25500000920E-02 0.  1.
    10030    2    1    2    0    0  0.00000000000E+00  0.00000000000E+00  0.76019535566E+03  0.11782396024E+04  0.90019530212E+03 0.  0.
        2    1    3    3  502    0 -0.30938151105E+03  0.10878473381E+03 -0.23401736037E+02  0.32878363546E+03  0.25500000920E-02 0.  1.
       -2    1    3    3    0  502  0.30938151105E+03 -0.10878473381E+03  0.78359709170E+03  0.84945596697E+03  0.25500000920E-02 0. -1.
</event>
<event>
 5   0  0.2332791E-04  0.9000665E+03  0.7818609E-02  0.9425498E-01
       -1   -1    0    0    0  501  0.00000000000E+00  0.00000000000E+00  0.39136429853E+03  0.39136429857E+03  0.50400001928E-02 0. -1.
        1   -1    0    0  501    0  0.00000000000E+00  0.00000000000E+00 -0.51749717800E+03  0.51749717803E+03  0.50400001928E-02 0.  1.
    10030    2    1    2    0    0  0.00000000000E+00  0.00000000000E+00 -0.12613287947E+03  0.90886147660E+03  0.90006648663E+03 0.  0.
        2    1    3    3  502    0 -0.21905995055E+02  0.37866691411E+03  0.18150141488E+03  0.42048931980E+03  0.25500000920E-02 0. -1.
       -2    1    3    3    0  502  0.21905995055E+02 -0.37866691411E+03 -0.30763429435E+03  0.48837215679E+03  0.25500000920E-02 0.  1.
</event>
<event>
 5   0  0.4236284E-04  0.8997825E+03  0.7818609E-02  0.9425853E-01
        2   -1    0    0  501    0  0.00000000000E+00  0.00000000000E+00  0.37375322671E+03  0.37375322672E+03  0.25500000920E-02 0. -1.
       -2   -1    0    0    0  501  0.00000000000E+00  0.00000000000E+00 -0.54153945967E+03  0.54153945968E+03  0.25500000920E-02 0.  1.
    10030    2    1    2    0    0  0.00000000000E+00  0.00000000000E+00 -0.16778623296E+03  0.91529268639E+03  0.89978246359E+03 0.  0.
        2    1    3    3  502    0 -0.31224710423E+03  0.19564988132E+03 -0.34646066345E+03  0.50577872780E+03  0.25500000920E-02 0.  1.
       -2    1    3    3    0  502  0.31224710423E+03 -0.19564988132E+03  0.17867443049E+03  0.40951395859E+03  0.25500000920E-02 0. -1.
</event>
<event>
 5   0  0.2356918E-04  0.9001450E+03  0.7818609E-02  0.9425400E-01
       -1   -1    0    0    0  501  0.00000000000E+00  0.00000000000E+00  0.13839178750E+03  0.13839178759E+03  0.50400001928E-02 0.  1.
        1   -1    0    0  501    0  0.00000000000E+00  0.00000000000E+00 -0.14637086126E+04  0.14637086126E+04  0.50400001928E-02 0. -1.
    10030    2    1    2    0    0  0.00000000000E+00  0.00000000000E+00 -0.13253168251E+04  0.16021004002E+04  0.90014499134E+03 0.  0.
        5    1    3    3  502    0 -0.13816352806E+03  0.19456357023E+03  0.16477165512E+02  0.23924408107E+03  0.46999998093E+01 0.  1.
       -5    1    3    3    0  502  0.13816352806E+03 -0.19456357023E+03 -0.13417939906E+04  0.13628563191E+04  0.46999998093E+01 0. -1.
</event>
<event>
 5   0  0.4033144E-04  0.9000947E+03  0.7818609E-02  0.9425463E-01
        2   -1    0    0  501    0  0.00000000000E+00  0.00000000000E+00  0.15413454689E+04  0.15413454689E+04  0.25500000920E-02 0. -1.
       -2   -1    0    0    0  501  0.00000000000E+00  0.00000000000E+00 -0.13140637157E+03  0.13140637159E+03  0.25500000920E-02 0.  1.
    10030    2    1    2    0    0  0.00000000000E+00  0.00000000000E+00  0.14099390973E+04  0.16727518405E+04  0.90009469595E+03 0.  0.
        4    1    3    3  502    0 -0.16827612093E+03  0.29481297893E+03  0.12540980150E+04  0.12992286133E+04  0.12699999809E+01 0. -1.
       -4    1    3    3    0  502  0.16827612093E+03 -0.29481297893E+03  0.15584108231E+03  0.37352322720E+03  0.12699999809E+01 0.  1.
</event>
<event>
 5   0  0.2308362E-04  0.9003524E+03  0.7818609E-02  0.9425141E-01
       -1   -1    0    0    0  501  0.00000000000E+00  0.00000000000E+00  0.16119435713E+03  0.16119435721E+03  0.50400001928E-02 0. -1.
        1   -1    0    0  501    0  0.00000000000E+00  0.00000000000E+00 -0.12572313069E+04  0.12572313069E+04  0.50400001928E-02 0.  1.
    10030    2    1    2    0    0  0.00000000000E+00  0.00000000000E+00 -0.10960369498E+04  0.14184256641E+04  0.90035235847E+03 0.  0.
        1    1    3    3  502    0 -0.27686347470E+03 -0.13781389142E+03 -0.10633793088E+04  0.11074392113E+04  0.50400001928E-02 0.  1.
       -1    1    3    3    0  502  0.27686347470E+03  0.13781389142E+03 -0.32657640947E+02  0.31098645281E+03  0.50400001928E-02 0. -1.
</event>
<event>
 5   0  0.2356918E-04  0.8998670E+03  0.7818609E-02  0.9425748E-01
        1   -1    0    0  501    0  0.00000000000E+00  0.00000000000E+00  0.92512352336E+03  0.92512352337E+03  0.50400001928E-02 0. -1.
       -1   -1    0    0    0  501  0.00000000000E+00  0.00000000000E+00 -0.21882498709E+03  0.21882498715E+03  0.50400001928E-02 0.  1.
    10030    2    1    2    0    0  0.00000000000E+00  0.00000000000E+00  0.70629853627E+03  0.11439485105E+04  0.89986697483E+03 0.  0.
        5    1    3    3  502    0 -0.78863566806E+02  0.11295327566E+03 -0.19132249319E+03  0.23580562133E+03  0.46999998093E+01 0.  1.
       -5    1    3    3    0  502  0.78863566806E+02 -0.11295327566E+03  0.89762102946E+03  0.90814288919E+03  0.46999998093E+01 0. -1.
</event>
<event>
 5   0  0.2351435E-04  0.8998749E+03  0.7818609E-02  0.9425738E-01
       -1   -1    0    0    0  501  0.00000000000E+00  0.00000000000E+00  0.42406391896E+03  0.42406391899E+03  0.50400001928E-02 0.  1.
        1   -1    0    0  501    0  0.00000000000E+00  0.00000000000E+00 -0.47738958689E+03  0.47738958692E+03  0.50400001928E-02 0. -1.
    10030    2    1    2    0    0  0.00000000000E+00  0.00000000000E+00 -0.53325667930E+02  0.90145350591E+03  0.89987487823E+03 0.  0.
        4    1    3    3  502    0 -0.37248583258E+03  0.13524768050E+03 -0.24011985344E+03  0.46335384694E+03  0.12699999809E+01 0. -1.
       -4    1    3    3    0  502  0.37248583258E+03 -0.13524768050E+03  0.18679418551E+03  0.43809965898E+03  0.12699999809E+01 0.  1.
</event>
<event>
 5   0  0.4236284E-04  0.9002168E+03  0.7818609E-02  0.9425310E-01
       -2   -1    0    0    0  501  0.00000000000E+00  0.00000000000E+00  0.18983709230E+03  0.18983709232E+03  0.25500000920E-02 0.  1.
        2   -1    0    0  501    0  0.00000000000E+00  0.00000000000E+00 -0.10672180644E+04  0.10672180644E+04  0.25500000920E-02 0. -1.
    10030    2    1    2    0    0  0.00000000000E+00  0.00000000000E+00 -0.87738097207E+03  0.12570551567E+04  0.90021680546E+03 0.  0.
        2    1    3    3  502    0  0.28853317355E+03 -0.16778981576E+03 -0.17006219795E+02  0.33420656192E+03  0.25500000920E-02 0.  1.
       -2    1    3    3    0  502 -0.28853317355E+03  0.16778981576E+03 -0.86037475227E+03  0.92284859477E+03  0.25500000920E-02 0. -1.
</event>
<event>
 5   0  0.4110039E-04  0.9004157E+03  0.7818609E-02  0.9425062E-01
        2   -1    0    0  501    0  0.00000000000E+00  0.00000000000E+00  0.99949981953E+03  0.99949981953E+03  0.25500000920E-02 0.  1.
       -2   -1    0    0    0  501  0.00000000000E+00  0.00000000000E+00 -0.20278853322E+03  0.20278853324E+03  0.25500000920E-02 0. -1.
    10030    2    1    2    0    0  0.00000000000E+00  0.00000000000E+00  0.79671128630E+03  0.12022883528E+04  0.90041568705E+03 0.  0.
        3    1    3    3  502    0 -0.28195555245E+03 -0.32900187216E+03  0.56159580307E+03  0.70931729266E+03  0.10100000352E+00 0.  1.
       -3    1    3    3    0  502  0.28195555245E+03  0.32900187216E+03  0.23511548323E+03  0.49297106011E+03  0.10100000352E+00 0. -1.
</event>
<event>
 5   0  0.2356918E-04  0.9003160E+03  0.7818609E-02  0.9425186E-01
       -1   -1    0    0    0  501  0.00000000000E+00  0.00000000000E+00  0.36033596207E+03  0.36033596211E+03  0.50400001928E-02 0.  1.
        1   -1    0    0  501    0  0.00000000000E+00  0.00000000000E+00 -0.56237027802E+03  0.56237027804E+03  0.50400001928E-02 0. -1.
    10030    2    1    2    0    0  0.00000000000E+00  0.00000000000E+00 -0.20203431595E+03  0.92270624015E+03  0.90031602273E+03 0.  0.
        5    1    3    3  502    0 -0.37632765833E+03 -0.10312612591E+03  0.12898013595E+03  0.41099327213E+03  0.46999998093E+01 0. -1.
       -5    1    3    3    0  502  0.37632765833E+03  0.10312612591E+03 -0.33101445190E+03  0.51171296801E+03  0.46999998093E+01 0.  1.
</event>
<event>
 5   0  0.3959804E-04  0.8997853E+03  0.7818609E-02  0.9425850E-01
       -2   -1    0    0    0  501  0.00000000000E+00  0.00000000000E+00  0.13473348063E+04  0.13473348063E+04  0.25500000920E-02 0. -1.
        2   -1    0    0  501    0  0.00000000000E+00  0.00000000000E+00 -0.15022500818E+03  0.15022500820E+03  0.25500000920E-02 0.  1.
    10030    2    1    2    0    0  0.00000000000E+00  0.00000000000E+00  0.11971097981E+04  0.14975598145E+04  0.89978526841E+03 0.  0.
        5    1    3    3  502    0  0.38801251661E+02  0.36680439781E+03  0.10272033354E+04  0.10914301561E+04  0.46999998093E+01 0. -1.
       -5    1    3    3    0  502 -0.38801251661E+02 -0.36680439781E+03  0.16990646278E+03  0.40612965846E+03  0.46999998093E+01 0.  1.
</event>
<event>
 5   0  0.3959804E-04  0.9000519E+03  0.7818609E-02  0.9425517E-01
        2   -1    0    0  501    0  0.00000000000E+00  0.00000000000E+00  0.69788760488E+03  0.69788760488E+03  0.25500000920E-02 0. -1.
       -2   -1    0    0    0  501  0.00000000000E+00  0.00000000000E+00 -0.29019479506E+03  0.29019479507E+03  0.25500000920E-02 0.  1.
    10030    2    1    2    0    0  0.00000000000E+00  0.00000000000E+00  0.40769280982E+03  0.98808239996E+03  0.90005188847E+03 0.  0.
        5    1    3    3  502    0 -0.35081526234E+03  0.99847560370E+02 -0.85484072605E+02  0.37466051336E+03  0.46999998093E+01 0.  1.
       -5    1    3    3    0  502  0.35081526234E+03 -0.99847560370E+02  0.49317688242E+03  0.61342188660E+03  0.46999998093E+01 0. -1.
</event>
<event>
 5   0  0.3959804E-04  0.8999362E+03  0.7818609E-02  0.9425661E-01
        2   -1    0    0  501    0  0.00000000000E+00  0.00000000000E+00  0.41390636612E+03  0.41390636613E+03  0.25500000920E-02 0. -1.
       -2   -1    0    0    0  501  0.00000000000E+00  0.00000000000E+00 -0.48917169572E+03  0.48917169572E+03  0.25500000920E-02 0.  1.
    10030    2    1    2    0    0  0.00000000000E+00  0.00000000000E+00 -0.75265329592E+02  0.90307806186E+03  0.89993617327E+03 0.  0.
        5    1    3    3  502    0 -0.39769578385E+03  0.20619597444E+03  0.45912202997E+01  0.44801996125E+03  0.46999998093E+01 0.  1.
       -5    1    3    3    0  502  0.39769578385E+03 -0.20619597444E+03 -0.79856549892E+02  0.45505810061E+03  0.46999998093E+01 0. -1.
</event>
<event>
 5   0  0.2351435E-04  0.9004984E+03  0.7818609E-02  0.9424959E-01
        1   -1    0    0  501    0  0.00000000000E+00  0.00000000000E+00  0.14521957734E+04  0.14521957734E+04  0.50400001928E-02 0.  1.
       -1   -1    0    0    0  501  0.00000000000E+00  0.00000000000E+00 -0.13959848177E+03  0.13959848186E+03  0.50400001928E-02 0. -1.
    10030    2    1    2    0    0  0.00000000000E+00  0.00000000000E+00  0.13125972916E+04  0.15917942553E+04  0.90049836264E+03 0.  0.
        4    1    3    3  502    0  0.34496314405E+03  0.23009150140E+03  0.96642999505E+03  0.10516321686E+04  0.12699999809E+01 0.  1.
       -4    1    3    3    0  502 -0.34496314405E+03 -0.23009150140E+03  0.34616729659E+03  0.54016208669E+03  0.12699999809E+01 0. -1.
</event>
<event>
 5   0  0.4033144E-04  0.8965534E+03  0.7818609E-02  0.9429900E-01
        2   -1    0    0  501    0  0.00000000000E+00  0.00000000000E+00  0.13420253052E+04  0.13420253052E+04  0.25500000920E-02 0. -1.
       -2   -1    0    0    0  501  0.00000000000E+00  0.00000000000E+00 -0.14973786818E+03  0.14973786820E+03  0.25500000920E-02 0.  1.
    10030    2    1    2    0    0  0.00000000000E+00  0.00000000000E+00  0.11922874370E+04  0.14917631734E+04  0.89655341894E+03 0.  0.
        4    1    3    3  502    0  0.25861190714E+03  0.27135357765E+03  0.18709314855E+03  0.41894909207E+03  0.12699999809E+01 0. -1.
       -4    1    3    3    0  502 -0.25861190714E+03 -0.27135357765E+03  0.10051942884E+04  0.10728140813E+04  0.12699999809E+01 0.  1.
</event>
<event>
 5   0  0.2308362E-04  0.9001045E+03  0.7818609E-02  0.9425451E-01
       -1   -1    0    0    0  501  0.00000000000E+00  0.00000000000E+00  0.16366360380E+03  0.16366360387E+03  0.50400001928E-02 0. -1.
        1   -1    0    0  501    0  0.00000000000E+00  0.00000000000E+00 -0.12375814732E+04  0.12375814732E+04  0.50400001928E-02 0.  1.
    10030    2    1    2    0    0  0.00000000000E+00  0.00000000000E+00 -0.10739178694E+04  0.14012450770E+04  0.90010453604E+03 0.  0.
        1    1    3    3  502    0  0.62796545564E+02  0.30281779272E+03 -0.27956097011E+02  0.31052144066E+03  0.50400001928E-02 0. -1.
       -1    1    3    3    0  502 -0.62796545564E+02 -0.30281779272E+03 -0.10459617723E+04  0.10907236364E+04  0.50400001928E-02 0.  1.
</event>
<event>
 5   0  0.1596250E-04  0.8994576E+03  0.7818609E-02  0.9426260E-01
       -3   -1    0    0    0  501  0.00000000000E+00  0.00000000000E+00  0.76236598912E+03  0.76236599581E+03  0.10100000352E+00 0. -1.
        3   -1    0    0  501    0  0.00000000000E+00  0.00000000000E+00 -0.26530038223E+03  0.26530040146E+03  0.10100000352E+00 0.  1.
    10030    2    1    2    0    0  0.00000000000E+00  0.00000000000E+00  0.49706560688E+03  0.10276663973E+04  0.89945761797E+03 0.  0.
        1    1    3    3  502    0  0.24624878134E+02  0.58814064434E+02  0.75717559418E+03  0.75985548577E+03  0.50400001928E-02 0. -1.
       -1    1    3    3    0  502 -0.24624878134E+02 -0.58814064434E+02 -0.26010998730E+03  0.26781091150E+03  0.50400001928E-02 0.  1.
</event>
<event>
 5   0  0.2308362E-04  0.9000153E+03  0.7818609E-02  0.9425562E-01
        1   -1    0    0  501    0  0.00000000000E+00  0.00000000000E+00  0.24561188720E+03  0.24561188725E+03  0.50400001928E-02 0. -1.
       -1   -1    0    0    0  501  0.00000000000E+00  0.00000000000E+00 -0.82449952209E+03  0.82449952210E+03  0.50400001928E-02 0.  1.
    10030    2    1    2    0    0  0.00000000000E+00  0.00000000000E+00 -0.57888763489E+03  0.10701114094E+04  0.90001529687E+03 0.  0.
        1    1    3    3  502    0 -0.19642658060E+03 -0.40372556877E+03 -0.32568658548E+03  0.55466159812E+03  0.50400001928E-02 0.  1.
       -1    1    3    3    0  502  0.19642658060E+03  0.40372556877E+03 -0.25320104941E+03  0.51544981123E+03  0.50400001928E-02 0. -1.
</event>
<event>
 5   0  0.2332791E-04  0.9004993E+03  0.7818609E-02  0.9424958E-01
        1   -1    0    0  501    0  0.00000000000E+00  0.00000000000E+00  0.38330427444E+03  0.38330427447E+03  0.50400001928E-02 0.  1.
       -1   -1    0    0    0  501  0.00000000000E+00  0.00000000000E+00 -0.52888721130E+03  0.52888721132E+03  0.50400001928E-02 0. -1.
    10030    2    1    2    0    0  0.00000000000E+00  0.00000000000E+00 -0.14558293686E+03  0.91219148579E+03  0.90049925888E+03 0.  0.
        2    1    3    3  502    0 -0.37350813798E+03 -0.25041898799E+03 -0.95594417423E+02  0.45973502295E+03  0.25500000920E-02 0. -1.
       -2    1    3    3    0  502  0.37350813798E+03  0.25041898799E+03 -0.49988519438E+02  0.45245646284E+03  0.25500000920E-02 0.  1.
</event>
<event>
 5   0  0.4033144E-04  0.9000466E+03  0.7818609E-02  0.9425523E-01
        2   -1    0    0  501    0  0.00000000000E+00  0.00000000000E+00  0.18607076558E+04  0.18607076558E+04  0.25500000920E-02 0. -1.
       -2   -1    0    0    0  501  0.00000000000E+00  0.00000000000E+00 -0.10884082813E+03  0.10884082816E+03  0.25500000920E-02 0.  1.
    10030    2    1    2    0    0  0.00000000000E+00  0.00000000000E+00  0.17518668277E+04  0.19695484840E+04  0.90004658146E+03 0.  0.
        4    1    3    3  502    0 -0.17540554837E+03 -0.40616279932E+02 -0.26587169113E+02  0.18200351386E+03  0.12699999809E+01 0.  1.
       -4    1    3    3    0  502  0.17540554837E+03  0.40616279932E+02  0.17784539968E+04  0.17875449701E+04  0.12699999809E+01 0. -1.
</event>
<event>
 5   0  0.2351435E-04  0.8998932E+03  0.7818609E-02  0.9425715E-01
        1   -1    0    0  501    0  0.00000000000E+00  0.00000000000E+00  0.16338330766E+04  0.16338330766E+04  0.50400001928E-02 0. -1.
       -1   -1    0    0    0  501  0.00000000000E+00  0.00000000000E+00 -0.12391224642E+03  0.12391224652E+03  0.50400001928E-02 0.  1.
    10030    2    1    2    0    0  0.00000000000E+00  0.00000000000E+00  0.15099208302E+04  0.17577453231E+04  0.89989316452E+03 0.  0.
        4    1    3    3  502    0 -0.40326784321E+03 -0.18882356891E+03  0.88111009630E+03  0.98723650067E+03  0.12699999809E+01 0. -1.
       -4    1    3    3    0  502  0.40326784321E+03  0.18882356891E+03  0.62881073387E+03  0.77050882244E+03  0.12699999809E+01 0.  1.
</event>
<event>
 5   0  0.2308362E-04  0.9000775E+03  0.7818609E-02  0.9425485E-01
        1   -1    0    0  501    0  0.00000000000E+00  0.00000000000E+00  0.45074744547E+03  0.45074744550E+03  0.50400001928E-02 0.  1.
       -1   -1    0    0    0  501  0.00000000000E+00  0.00000000000E+00 -0.44933112968E+03  0.44933112971E+03  0.50400001928E-02 0. -1.
    10030    2    1    2    0    0  0.00000000000E+00  0.00000000000E+00  0.14163157932E+01  0.90007857521E+03  0.90007746088E+03 0.  0.
        1    1    3    3  502    0 -0.16088973924E+03  0.98819432937E+02  0.40922313139E+03  0.45068210505E+03  0.50400001928E-02 0.  1.
       -1    1    3    3    0  502  0.16088973924E+03 -0.98819432937E+02 -0.40780681560E+03  0.44939647016E+03  0.50400001928E-02 0. -1.
</event>
<event>
 5   0  0.4243516E-04  0.9008708E+03  0.7818609E-02  0.9424494E-01
        2   -1    0    0  501    0  0.00000000000E+00  0.00000000000E+00  0.16176373762E+04  0.16176373762E+04  0.25500000920E-02 0.  1.
       -2   -1    0    0    0  501  0.00000000000E+00  0.00000000000E+00 -0.12542492473E+03  0.12542492476E+03  0.25500000920E-02 0. -1.
    10030    2    1    2    0    0  0.00000000000E+00  0.00000000000E+00  0.14922124515E+04  0.17430623010E+04  0.90087079247E+03 0.  0.
        1    1    3    3  502    0 -0.27308578743E+03  0.20663479106E+03  0.17995349402E+03  0.38685532723E+03  0.50400001928E-02 0. -1.
       -1    1    3    3    0  502  0.27308578743E+03 -0.20663479106E+03  0.13122589575E+04  0.13562069737E+04  0.50400001928E-02 0.  1.
</event>
<event>
 5   0  0.3959804E-04  0.9000133E+03  0.7818609E-02  0.9425565E-01
        2   -1    0    0  501    0  0.00000000000E+00  0.00000000000E+00  0.20884503263E+04  0.20884503263E+04  0.25500000920E-02 0.  1.
       -2   -1    0    0    0  501  0.00000000000E+00  0.00000000000E+00 -0.96964716078E+02  0.96964716112E+02  0.25500000920E-02 0. -1.
    10030    2    1    2    0    0  0.00000000000E+00  0.00000000000E+00  0.19914856102E+04  0.21854150424E+04  0.90001331761E+03 0.  0.
        5    1    3    3  502    0 -0.27698547477E+02 -0.22723815282E+03  0.19364310165E+04  0.19499209110E+04  0.46999998093E+01 0.  1.
       -5    1    3    3    0  502  0.27698547477E+02  0.22723815282E+03  0.55054593731E+02  0.23549413139E+03  0.46999998093E+01 0. -1.
</event>
<event>
 5   0  0.2351435E-04  0.9001784E+03  0.7818609E-02  0.9425358E-01
       -1   -1    0    0    0  501  0.00000000000E+00  0.00000000000E+00  0.29051194939E+03  0.29051194944E+03  0.50400001928E-02 0. -1.
        1   -1    0    0  501    0  0.00000000000E+00  0.00000000000E+00 -0.69732175750E+03  0.69732175752E+03  0.50400001928E-02 0.  1.
    10030    2    1    2    0    0  0.00000000000E+00  0.00000000000E+00 -0.40680980811E+03  0.98783370696E+03  0.90017843377E+03 0.  0.
        4    1    3    3  502    0  0.38953468719E+02 -0.36023418547E+03 -0.49641164611E+03  0.61458292882E+03  0.12699999809E+01 0.  1.
       -4    1    3    3    0  502 -0.38953468719E+02  0.36023418547E+03  0.89601837993E+02  0.37325077814E+03  0.12699999809E+01 0. -1.
</event>
<event>
 5   0  0.4033144E-04  0.9006698E+03  0.7818609E-02  0.9424744E-01
        2   -1    0    0  501    0  0.00000000000E+00  0.00000000000E+00  0.77039578126E+03  0.77039578126E+03  0.25500000920E-02 0.  1.
       -2   -1    0    0    0  501  0.00000000000E+00  0.00000000000E+00 -0.26324330920E+03  0.26324330921E+03  0.25500000920E-02 0. -1.
    10030    2    1    2    0    0  0.00000000000E+00  0.00000000000E+00  0.50715247206E+03  0.10336390905E+04  0.90066982820E+03 0.  0.
        4    1    3    3  502    0 -0.89781057022E+02 -0.41992624364E+03  0.97898401886E+02  0.44043659962E+03  0.12699999809E+01 0. -1.
       -4    1    3    3    0  502  0.89781057022E+02  0.41992624364E+03  0.40925407018E+03  0.59320249085E+03  0.12699999809E+01 0.  1.
</event>
<event>
 5   0  0.4236284E-04  0.9003332E+03  0.7818609E-02  0.9425165E-01
       -2   -1    0    0    0  501  0.00000000000E+00  0.00000000000E+00  0.54775648151E+03  0.54775648152E+03  0.25500000920E-02 0. -1.
        2   -1    0    0  501    0  0.00000000000E+00  0.00000000000E+00 -0.36996359939E+03  0.36996359940E+03  0.25500000920E-02 0.  1.
    10030    2    1    2    0    0  0.00000000000E+00  0.00000000000E+00  0.17779288212E+03  0.91772008091E+03  0.90033318165E+03 0.  0.
        2    1    3    3  502    0  0.19063211778E+03 -0.39508492140E+03  0.19192893255E+03  0.47882085857E+03  0.25500000920E-02 0.  1.
       -2    1    3    3    0  502 -0.19063211778E+03  0.39508492140E+03 -0.14136050427E+02  0.43889922234E+03  0.25500000920E-02 0. -1.
</event>
<event>
 5   0  0.2308362E-04  0.8996508E+03  0.7818609E-02  0.9426018E-01
        1   -1    0    0  501    0  0.00000000000E+00  0.00000000000E+00  0.96152008602E+03  0.96152008603E+03  0.50400001928E-02 0.  1.
       -1   -1    0    0    0  501  0.00000000000E+00  0.00000000000E+00 -0.21044064905E+03  0.21044064911E+03  0.50400001928E-02 0. -1.
    10030    2    1    2    0    0  0.00000000000E+00  0.00000000000E+00  0.75107943697E+03  0.11719607351E+04  0.89965084565E+03 0.  0.
        1    1    3    3  502    0  0.41432240139E+03  0.14286167472E+00  0.14736600943E+03  0.43974971684E+03  0.50400001928E-02 0. -1.
       -1    1    3    3    0  502 -0.41432240139E+03 -0.14286167472E+00  0.60371342753E+03  0.73221101830E+03  0.50400001928E-02 0.  1.
</event>
<event>
 5   0  0.4236284E-04  0.9001937E+03  0.7818609E-02  0.9425339E-01
        2   -1    0    0  501    0  0.00000000000E+00  0.00000000000E+00  0.51455273200E+03  0.51455273201E+03  0.25500000920E-02 0.  1.
       -2   -1    0    0    0  501  0.00000000000E+00  0.00000000000E+00 -0.39371511482E+03  0.39371511483E+03  0.25500000920E-02 0. -1.
    10030    2    1    2    0    0  0.00000000000E+00  0.00000000000E+00  0.12083761718E+03  0.90826784683E+03  0.90019373019E+03 0.  0.
        2    1    3    3  502    0 -0.41933606908E+03  0.10718645307E+03 -0.64202231170E+02  0.43755411213E+03  0.25500000920E-02 0. -1.
       -2    1    3    3    0  502  0.41933606908E+03 -0.10718645307E+03  0.18503984835E+03  0.47071373470E+03  0.25500000920E-02 0.  1.
</event>
<event>
 5   0  0.2332791E-04  0.9014007E+03  0.7818609E-02  0.9423832E-01
        1   -1    0    0  501    0  0.00000000000E+00  0.00000000000E+00  0.22882550309E+04  0.22882550309E+04  0.50400001928E-02 0.  1.
       -1   -1    0    0    0  501  0.00000000000E+00  0.00000000000E+00 -0.88771052784E+02  0.88771052927E+02  0.50400001928E-02 0. -1.
    10030    2    1    2    0    0  0.00000000000E+00  0.00000000000E+00  0.21994839782E+04  0.23770260839E+04  0.90140070626E+03 0.  0.
        2    1    3    3  502    0 -0.18365156167E+02  0.37986098010E+03  0.46193263031E+03  0.59834220820E+03  0.25500000920E-02 0. -1.
       -2    1    3    3    0  502  0.18365156167E+02 -0.37986098010E+03  0.17375513478E+04  0.17786838757E+04  0.25500000920E-02 0.  1.
</event>
<event>
 5   0  0.2351435E-04  0.8998764E+03  0.7818609E-02  0.9425736E-01
       -1   -1    0    0    0  501  0.00000000000E+00  0.00000000000E+00  0.20572964033E+03  0.20572964040E+03  0.50400001928E-02 0. -1.
        1   -1    0    0  501    0  0.00000000000E+00  0.00000000000E+00 -0.98403121287E+03  0.98403121288E+03  0.50400001928E-02 0.  1.
    10030    2    1    2    0    0  0.00000000000E+00  0.00000000000E+00 -0.77830157253E+03  0.11897608533E+04  0.89987640828E+03 0.  0.
        4    1    3    3  502    0 -0.44498370403E+01  0.44296047019E+03 -0.49333153631E+03  0.66303197269E+03  0.12699999809E+01 0.  1.
       -4    1    3    3    0  502  0.44498370403E+01 -0.44296047019E+03 -0.28497003623E+03  0.52672888059E+03  0.12699999809E+01 0. -1.
</event>
<event>
 5   0  0.4243516E-04  0.9020946E+03  0.7818609E-02  0.9422967E-01
        2   -1    0    0  501    0  0.00000000000E+00  0.00000000000E+00  0.53290506678E+03  0.53290506679E+03  0.25500000920E-02 0.  1.
       -2   -1    0    0    0  501  0.00000000000E+00  0.00000000000E+00 -0.38176341249E+03  0.38176341250E+03  0.25500000920E-02 0. -1.
    10030    2    1    2    0    0  0.00000000000E+00  0.00000000000E+00  0.15114165429E+03  0.91466847929E+03  0.90209457783E+03 0.  0.
        1    1    3    3  502    0 -0.35946384126E+03 -0.89289850598E+02 -0.18542083138E+03  0.41420745446E+03  0.50400001928E-02 0. -1.
       -1    1    3    3    0  502  0.35946384126E+03  0.89289850598E+02  0.33656248566E+03  0.50046102483E+03  0.50400001928E-02 0.  1.
</event>
<event>
 5   0  0.4236284E-04  0.8998690E+03  0.7818609E-02  0.9425745E-01
       -2   -1    0    0    0  501  0.00000000000E+00  0.00000000000E+00  0.37736402286E+03  0.37736402287E+03  0.25500000920E-02 0.  1.
        2   -1    0    0  501    0  0.00000000000E+00  0.00000000000E+00 -0.53646096168E+03  0.53646096169E+03  0.25500000920E-02 0. -1.
    10030    2    1    2    0    0  0.00000000000E+00  0.00000000000E+00 -0.15909693882E+03  0.91382498456E+03  0.89986902739E+03 0.  0.
        2    1    3    3  502    0 -0.26462051852E+03 -0.39271676251E+02  0.28782831740E+03  0.39295219007E+03  0.25500000920E-02 0.  1.
       -2    1    3    3    0  502  0.26462051852E+03  0.39271676251E+02 -0.44692525622E+03  0.52087279448E+03  0.25500000920E-02 0. -1.
</event>
<event>
 5   0  0.2308362E-04  0.9002063E+03  0.7818609E-02  0.9425324E-01
       -1   -1    0    0    0  501  0.00000000000E+00  0.00000000000E+00  0.25570332845E+03  0.25570332850E+03  0.50400001928E-02 0.  1.
        1   -1    0    0  501    0  0.00000000000E+00  0.00000000000E+00 -0.79229646790E+03  0.79229646791E+03  0.50400001928E-02 0. -1.
    10030    2    1    2    0    0  0.00000000000E+00  0.00000000000E+00 -0.53659313945E+03  0.10479997964E+04  0.90020629635E+03 0.  0.
        1    1    3    3  502    0 -0.10244275649E+02  0.44908835881E+03 -0.30137938464E+03  0.54093884379E+03  0.50400001928E-02 0.  1.
       -1    1    3    3    0  502  0.10244275649E+02 -0.44908835881E+03 -0.23521375481E+03  0.50706095263E+03  0.50400001928E-02 0. -1.
</event>
<event>
 5   0  0.2332791E-04  0.9011241E+03  0.7818609E-02  0.9424177E-01
        1   -1    0    0  501    0  0.00000000000E+00  0.00000000000E+00  0.38273958185E+03  0.38273958188E+03  0.50400001928E-02 0. -1.
       -1   -1    0    0    0  501  0.00000000000E+00  0.00000000000E+00 -0.53040288818E+03  0.53040288820E+03  0.50400001928E-02 0.  1.
    10030    2    1    2    0    0  0.00000000000E+00  0.00000000000E+00 -0.14766330633E+03  0.91314247009E+03  0.90112414164E+03 0.  0.
        2    1    3    3  502    0 -0.12455468023E+03  0.36933364697E+03  0.15520262337E+03  0.41953434360E+03  0.25500000920E-02 0. -1.
       -2    1    3    3    0  502  0.12455468023E+03 -0.36933364697E+03 -0.30286592970E+03  0.49360812648E+03  0.25500000920E-02 0.  1.
</event>
<event>
 5   0  0.4243516E-04  0.8993389E+03  0.7818609E-02  0.9426408E-01
        2   -1    0    0  501    0  0.00000000000E+00  0.00000000000E+00  0.41493731118E+03  0.41493731118E+03  0.25500000920E-02 0. -1.
       -2   -1    0    0    0  501  0.00000000000E+00  0.00000000000E+00 -0.48730886072E+03  0.48730886073E+03  0.25500000920E-02 0.  1.
    10030    2    1    2    0    0  0.00000000000E+00  0.00000000000E+00 -0.72371549542E+02  0.90224617191E+03  0.89933893141E+03 0.  0.
        1    1    3    3  502    0 -0.23976293215E+03 -0.29690241314E+03  0.20241771165E+03  0.43198406982E+03  0.50400001928E-02 0. -1.
       -1    1    3    3    0  502  0.23976293215E+03  0.29690241314E+03 -0.27478926120E+03  0.47026210209E+03  0.50400001928E-02 0.  1.
</event>
<event>
 5   0  0.2332791E-04  0.8993159E+03  0.7818609E-02  0.9426437E-01
        1   -1    0    0  501    0  0.00000000000E+00  0.00000000000E+00  0.25587527888E+03  0.25587527893E+03  0.50400001928E-02 0.  1.
       -1   -1    0    0    0  501  0.00000000000E+00  0.00000000000E+00 -0.79019856119E+03  0.79019856120E+03  0.50400001928E-02 0. -1.
    10030    2    1    2    0    0  0.00000000000E+00  0.00000000000E+00 -0.53432328231E+03  0.10460738401E+04  0.89931591168E+03 0.  0.
        2    1    3    3  502    0  0.33606141150E+03  0.15619345492E+03 -0.56339494426E+03  0.67434970963E+03  0.25500000920E-02 0. -1.
       -2    1    3    3    0  502 -0.33606141150E+03 -0.15619345492E+03  0.29071661950E+02  0.37172413050E+03  0.25500000920E-02 0.  1.
</event>
<event>
 5   0  0.2308362E-04  0.9000029E+03  0.7818609E-02  0.9425578E-01
        1   -1    0    0  501    0  0.00000000000E+00  0.00000000000E+00  0.28760377212E+03  0.28760377216E+03  0.50400001928E-02 0.  1.
       -1   -1    0    0    0  501  0.00000000000E+00  0.00000000000E+00 -0.70409824348E+03  0.70409824349E+03  0.50400001928E-02 0. -1.
    10030    2    1    2    0    0  0.00000000000E+00  0.00000000000E+00 -0.41649447136E+03  0.99170201566E+03  0.90000291287E+03 0.  0.
        1    1    3    3  502    0 -0.39491479800E+03  0.11140145751E+03 -0.41182324664E+03  0.58134874982E+03  0.50400001928E-02 0. -1.
       -1    1    3    3    0  502  0.39491479800E+03 -0.11140145751E+03 -0.46712247163E+01  0.41035326584E+03  0.50400001928E-02 0.  1.
</event>
<event>
 5   0  0.4033144E-04  0.9001732E+03  0.7818609E-02  0.9425365E-01
       -2   -1    0    0    0  501  0.00000000000E+00  0.00000000000E+00  0.56928370525E+03  0.56928370525E+03  0.25500000920E-02 0. -1.
        2   -1    0    0  501    0  0.00000000000E+00  0.00000000000E+00 -0.35584709106E+03  0.35584709107E+03  0.25500000920E-02 0.  1.
    10030    2    1    2    0    0  0.00000000000E+00  0.00000000000E+00  0.21343661419E+03  0.92513079633E+03  0.90017320669E+03 0.  0.
        4    1    3    3  502    0  0.14377458565E+03  0.34095626487E+03 -0.15661619004E+03  0.40181158509E+03  0.12699999809E+01 0.  1.
       -4    1    3    3    0  502 -0.14377458565E+03 -0.34095626487E+03  0.37005280423E+03  0.52331921123E+03  0.12699999809E+01 0. -1.
</event>
<event>
 5   0  0.4033144E-04  0.9000879E+03  0.7818609E-02  0.9425472E-01
        2   -1    0    0  501    0  0.00000000000E+00  0.00000000000E+00  0.15681877927E+04  0.15681877927E+04  0.25500000920E-02 0.  1.
       -2   -1    0    0    0  501  0.00000000000E+00  0.00000000000E+00 -0.12915516498E+03  0.12915516501E+03  0.25500000920E-02 0. -1.
    10030    2    1    2    0    0  0.00000000000E+00  0.00000000000E+00  0.14390326277E+04  0.16973429577E+04  0.90008789152E+03 0.  0.
        4    1    3    3  502    0 -0.33398718278E+03  0.12128563980E+03  0.19869245985E+03  0.40710926198E+03  0.12699999809E+01 0. -1.
       -4    1    3    3    0  502  0.33398718278E+03 -0.12128563980E+03  0.12403401679E+04  0.12902336958E+04  0.12699999809E+01 0.  1.
</event>
<event>
 5   0  0.4033144E-04  0.9001330E+03  0.7818609E-02  0.9425415E-01
        2   -1    0    0  501    0  0.00000000000E+00  0.00000000000E+00  0.95676791586E+03  0.95676791587E+03  0.25500000920E-02 0. -1.
       -2   -1    0    0    0  501  0.00000000000E+00  0.00000000000E+00 -0.21171263823E+03  0.21171263825E+03  0.25500000920E-02 0.  1.
    10030    2    1    2    0    0  0.00000000000E+00  0.00000000000E+00  0.74505527763E+03  0.11684805541E+04  0.90013301162E+03 0.  0.
        4    1    3    3  502    0  0.21064349643E+03  0.26951244317E+03  0.75221518101E+03  0.82633947688E+03  0.12699999809E+01 0. -1.
       -4    1    3    3    0  502 -0.21064349643E+03 -0.26951244317E+03 -0.71599033804E+01  0.34214107723E+03  0.12699999809E+01 0.  1.
</event>
<event>
 5   0  0.4110039E-04  0.8996712E+03  0.7818609E-02  0.9425992E-01
        2   -1    0    0  501    0  0.00000000000E+00  0.00000000000E+00  0.19750582290E+03  0.19750582292E+03  0.25500000920E-02 0.  1.
       -2   -1    0    0    0  501  0.00000000000E+00  0.00000000000E+00 -0.10245373195E+04  0.10245373195E+04  0.25500000920E-02 0. -1.
    10030    2    1    2    0    0  0.00000000000E+00  0.00000000000E+00 -0.82703149660E+03  0.12220431424E+04  0.89967124306E+03 0.  0.
        3    1    3    3  502    0 -0.17361047697E+02 -0.28437057411E+03  0.59336463583E+02  0.29101349712E+03  0.10100000352E+00 0.  1.
       -3    1    3    3    0  502  0.17361047697E+02  0.28437057411E+03 -0.88636796018E+03  0.93102964530E+03  0.10100000352E+00 0. -1.
</event>
<event>
 5   0  0.2308362E-04  0.9000668E+03  0.7818609E-02  0.9425498E-01
        1   -1    0    0  501    0  0.00000000000E+00  0.00000000000E+00  0.53824327841E+03  0.53824327844E+03  0.50400001928E-02 0.  1.
       -1   -1    0    0    0  501  0.00000000000E+00  0.00000000000E+00 -0.37627975873E+03  0.37627975876E+03  0.50400001928E-02 0. -1.
    10030    2    1    2    0    0  0.00000000000E+00  0.00000000000E+00  0.16196351968E+03  0.91452303720E+03  0.90006677745E+03 0.  0.
        1    1    3    3  502    0 -0.15422785339E+03  0.39805766496E+03  0.22572651724E+03  0.48289605093E+03  0.50400001928E-02 0.  1.
       -1    1    3    3    0  502  0.15422785339E+03 -0.39805766496E+03 -0.63762997562E+02  0.43162698627E+03  0.50400001928E-02 0. -1.
</event>
<event>
 5   0  0.4236284E-04  0.8995738E+03  0.7818609E-02  0.9426114E-01
       -2   -1    0    0    0  501  0.00000000000E+00  0.00000000000E+00  0.25352132377E+03  0.25352132378E+03  0.25500000920E-02 0. -1.
        2   -1    0    0  501    0  0.00000000000E+00  0.00000000000E+00 -0.79799298188E+03  0.79799298188E+03  0.25500000920E-02 0.  1.
    10030    2    1    2    0    0  0.00000000000E+00  0.00000000000E+00 -0.54447165811E+03  0.10515143057E+04  0.89957375936E+03 0.  0.
        2    1    3    3  502    0  0.42556295223E+03  0.10622152596E+03 -0.15580584227E+03  0.46546997688E+03  0.25500000920E-02 0. -1.
       -2    1    3    3    0  502 -0.42556295223E+03 -0.10622152596E+03 -0.38866581584E+03  0.58604432878E+03  0.25500000920E-02 0.  1.
</event>
<event>
 5   0  0.4243516E-04  0.8997306E+03  0.7818609E-02  0.9425918E-01
       -2   -1    0    0    0  501  0.00000000000E+00  0.00000000000E+00  0.75765026132E+02  0.75765026175E+02  0.25500000920E-02 0.  1.
        2   -1    0    0  501    0  0.00000000000E+00  0.00000000000E+00 -0.26711374001E+04  0.26711374001E+04  0.25500000920E-02 0. -1.
    10030    2    1    2    0    0  0.00000000000E+00  0.00000000000E+00 -0.25953723740E+04  0.27469024263E+04  0.89973061520E+03 0.  0.
        1    1    3    3  502    0  0.12403333524E+03  0.16952773613E+03 -0.83153295012E+02  0.22591678128E+03  0.50400001928E-02 0.  1.
       -1    1    3    3    0  502 -0.12403333524E+03 -0.16952773613E+03 -0.25122190790E+04  0.25209856450E+04  0.50400001928E-02 0. -1.
</event>
<event>
 5   0  0.2332791E-04  0.8999776E+03  0.7818609E-02  0.9425609E-01
       -1   -1    0    0    0  501  0.00000000000E+00  0.00000000000E+00  0.12442050398E+03  0.12442050408E+03  0.50400001928E-02 0. -1.
        1   -1    0    0  501    0  0.00000000000E+00  0.00000000000E+00 -0.16274642255E+04  0.16274642255E+04  0.50400001928E-02 0.  1.
    10030    2    1    2    0    0  0.00000000000E+00  0.00000000000E+00 -0.15030437215E+04  0.17518847296E+04  0.89997759804E+03 0.  0.
        2    1    3    3  502    0 -0.19323916111E+03  0.57662858724E+01  0.39461743275E+02  0.19731156233E+03  0.25500000920E-02 0. -1.
       -2    1    3    3    0  502  0.19323916111E+03 -0.57662858724E+01 -0.15425054648E+04  0.15545731673E+04  0.25500000920E-02 0.  1.
</event>
<event>
 5   0  0.2332791E-04  0.9023413E+03  0.7818609E-02  0.9422659E-01
        1   -1    0    0  501    0  0.00000000000E+00  0.00000000000E+00  0.38295126879E+03  0.38295126882E+03  0.50400001928E-02 0.  1.
       -1   -1    0    0    0  501  0.00000000000E+00  0.00000000000E+00 -0.53154269945E+03  0.53154269948E+03  0.50400001928E-02 0. -1.
    10030    2    1    2    0    0  0.00000000000E+00  0.00000000000E+00 -0.14859143066E+03  0.91449396830E+03  0.90234129064E+03 0.  0.
        2    1    3    3  502    0  0.13472305912E+03 -0.19111479281E+03 -0.46534174446E+03  0.52078604612E+03  0.25500000920E-02 0. -1.
       -2    1    3    3    0  502 -0.13472305912E+03  0.19111479281E+03  0.31675031379E+03  0.39370792218E+03  0.25500000920E-02 0.  1.
</event>
<event>
 5   0  0.4243516E-04  0.9001571E+03  0.7818609E-02  0.9425385E-01
       -2   -1    0    0    0  501  0.00000000000E+00  0.00000000000E+00  0.15239910875E+03  0.15239910877E+03  0.25500000920E-02 0. -1.
        2   -1    0    0  501    0  0.00000000000E+00  0.00000000000E+00 -0.13292118165E+04  0.13292118165E+04  0.25500000920E-02 0.  1.
    10030    2    1    2    0    0  0.00000000000E+00  0.00000000000E+00 -0.11768127077E+04  0.14816109252E+04  0.90015708893E+03 0.  0.
        1    1    3    3  502    0  0.59617746835E+02 -0.43195900474E+03 -0.77189688965E+03  0.88654817455E+03  0.50400001928E-02 0.  1.
       -1    1    3    3    0  502 -0.59617746835E+02  0.43195900474E+03 -0.40491581808E+03  0.59506275070E+03  0.50400001928E-02 0. -1.
</event>
<event>
 5   0  0.4033144E-04  0.9002911E+03  0.7818609E-02  0.9425218E-01
        2   -1    0    0  501    0  0.00000000000E+00  0.00000000000E+00  0.19818695171E+04  0.19818695171E+04  0.25500000920E-02 0. -1.
       -2   -1    0    0    0  501  0.00000000000E+00  0.00000000000E+00 -0.10224235446E+03  0.10224235450E+03  0.25500000920E-02 0.  1.
    10030    2    1    2    0    0  0.00000000000E+00  0.00000000000E+00  0.18796271626E+04  0.20841118716E+04  0.90029107672E+03 0.  0.
        4    1    3    3  502    0  0.16296255969E+03  0.86121419359E+02  0.18905028487E+04  0.18994673803E+04  0.12699999809E+01 0. -1.
       -4    1    3    3    0  502 -0.16296255969E+03 -0.86121419359E+02 -0.10875686091E+02  0.18464449134E+03  0.12699999809E+01 0.  1.
</event>
<event>
 5   0  0.4033144E-04  0.9001203E+03  0.7818609E-02  0.9425431E-01
        2   -1    0    0  501    0  0.00000000000E+00  0.00000000000E+00  0.11312342571E+04  0.11312342571E+04  0.25500000920E-02 0.  1.
       -2   -1    0    0    0  501  0.00000000000E+00  0.00000000000E+00 -0.17905586411E+03  0.17905586413E+03  0.25500000920E-02 0. -1.
    10030    2    1    2    0    0  0.00000000000E+00  0.00000000000E+00  0.95217839301E+03  0.13102901213E+04  0.90012027516E+03 0.  0.
        4    1    3    3  502    0  0.55074435145E+02 -0.25951034366E+03  0.10053130986E+04  0.10397282583E+04  0.12699999809E+01 0.  1.
       -4    1    3    3    0  502 -0.55074435145E+02  0.25951034366E+03 -0.53134705604E+02  0.27056186300E+03  0.12699999809E+01 0. -1.
</event>
<event>
 5   0  0.2450427E-04  0.9001421E+03  0.7818609E-02  0.9425404E-01
        1   -1    0    0  501    0  0.00000000000E+00  0.00000000000E+00  0.10310645198E+04  0.10310645198E+04  0.50400001928E-02 0. -1.
       -1   -1    0    0    0  501  0.00000000000E+00  0.00000000000E+00 -0.19646097518E+03  0.19646097525E+03  0.50400001928E-02 0.  1.
    10030    2    1    2    0    0  0.00000000000E+00  0.00000000000E+00  0.83460354464E+03  0.12275254951E+04  0.90014208010E+03 0.  0.
        3    1    3    3  502    0 -0.40985200970E+03  0.13413033106E+03  0.24163115585E+03  0.49432301307E+03  0.10100000352E+00 0.  1.
       -3    1    3    3    0  502  0.40985200970E+03 -0.13413033106E+03  0.59297238880E+03  0.73320248202E+03  0.10100000352E+00 0. -1.
</event>
<event>
 5   0  0.1596250E-04  0.9005212E+03  0.7818609E-02  0.9424930E-01
       -3   -1    0    0    0  501  0.00000000000E+00  0.00000000000E+00  0.87619987820E+02  0.87620046032E+02  0.10100000352E+00 0. -1.
        3   -1    0    0  501    0  0.00000000000E+00  0.00000000000E+00 -0.23137934454E+04  0.23137934476E+04  0.10100000352E+00 0.  1.
    10030    2    1    2    0    0  0.00000000000E+00  0.00000000000E+00 -0.22261734576E+04  0.24014134937E+04  0.90052124028E+03 0.  0.
        4    1    3    3  502    0  0.10585744820E+03 -0.38801748504E+03 -0.57332251595E+03  0.70033112756E+03  0.12699999809E+01 0. -1.
       -4    1    3    3    0  502 -0.10585744820E+03  0.38801748504E+03 -0.16528509417E+04  0.17010823661E+04  0.12699999809E+01 0.  1.
</event>
<event>
 5   0  0.2450427E-04  0.9011173E+03  0.7818609E-02  0.9424186E-01
        1   -1    0    0  501    0  0.00000000000E+00  0.00000000000E+00  0.17036838344E+04  0.17036838345E+04  0.50400001928E-02 0. -1.
       -1   -1    0    0    0  501  0.00000000000E+00  0.00000000000E+00 -0.11915539237E+03  0.11915539248E+03  0.50400001928E-02 0.  1.
    10030    2    1    2    0    0  0.00000000000E+00  0.00000000000E+00  0.15845284421E+04  0.18228392269E+04  0.90111734169E+03 0.  0.
        3    1    3    3  502    0 -0.42327192929E+02 -0.36068955878E+03  0.25282033958E+03  0.44250048969E+03  0.10100000352E+00 0.  1.
       -3    1    3    3    0  502  0.42327192929E+02  0.36068955878E+03  0.13317081025E+04  0.13803387372E+04  0.10100000352E+00 0. -1.
</event>
<event>
 5   0  0.4236284E-04  0.8992115E+03  0.7818609E-02  0.9426568E-01
       -2   -1    0    0    0  501  0.00000000000E+00  0.00000000000E+00  0.86620068942E+02  0.86620068979E+02  0.25500000920E-02 0.  1.
        2   -1    0    0  501    0  0.00000000000E+00  0.00000000000E+00 -0.23337009742E+04  0.23337009742E+04  0.25500000920E-02 0. -1.
    10030    2    1    2    0    0  0.00000000000E+00  0.00000000000E+00 -0.22470809053E+04  0.24203210432E+04  0.89921151978E+03 0.  0.
        2    1    3    3  502    0 -0.23399463293E+03  0.28613700712E+03 -0.18124935468E+04  0.18498001871E+04  0.25500000920E-02 0. -1.
       -2    1    3    3    0  502  0.23399463293E+03 -0.28613700712E+03 -0.43458735853E+03  0.57052085613E+03  0.25500000920E-02 0.  1.
</event>
<event>
 5   0  0.2332791E-04  0.9000442E+03  0.7818609E-02  0.9425526E-01
       -1   -1    0    0    0  501  0.00000000000E+00  0.00000000000E+00  0.88972193308E+03  0.88972193309E+03  0.50400001928E-02 0.  1.
        1   -1    0    0  501    0  0.00000000000E+00  0.00000000000E+00 -0.22762154235E+03  0.22762154240E+03  0.50400001928E-02 0. -1.
    10030    2    1    2    0    0  0.00000000000E+00  0.00000000000E+00  0.66210039073E+03  0.11173434755E+04  0.90004417381E+03 0.  0.
        2    1    3    3  502    0  0.23951165104E+03 -0.25468678201E+03 -0.20712726883E+02  0.35022878947E+03  0.25500000920E-02 0. -1.
       -2    1    3    3    0  502 -0.23951165104E+03  0.25468678201E+03  0.68281311762E+03  0.76711468602E+03  0.25500000920E-02 0.  1.
</event>
<event>
 5   0  0.2332791E-04  0.9003702E+03  0.7818609E-02  0.9425119E-01
       -1   -1    0    0    0  501  0.00000000000E+00  0.00000000000E+00  0.26630937212E+03  0.26630937217E+03  0.50400001928E-02 0. -1.
        1   -1    0    0  501    0  0.00000000000E+00  0.00000000000E+00 -0.76101950385E+03  0.76101950386E+03  0.50400001928E-02 0.  1.
    10030    2    1    2    0    0  0.00000000000E+00  0.00000000000E+00 -0.49471013173E+03  0.10273288760E+04  0.90037020446E+03 0.  0.
        2    1    3    3  502    0 -0.38630378472E+02 -0.41220129790E+03 -0.44910504587E+03  0.61081712350E+03  0.25500000920E-02 0. -1.
       -2    1    3    3    0  502  0.38630378472E+02  0.41220129790E+03 -0.45605085864E+02  0.41651175253E+03  0.25500000920E-02 0.  1.
</event>
<event>
 5   0  0.2308362E-04  0.9001501E+03  0.7818609E-02  0.9425394E-01
       -1   -1    0    0    0  501  0.00000000000E+00  0.00000000000E+00  0.43402642163E+03  0.43402642166E+03  0.50400001928E-02 0.  1.
        1   -1    0    0  501    0  0.00000000000E+00  0.00000000000E+00 -0.46671714151E+03  0.46671714154E+03  0.50400001928E-02 0. -1.
    10030    2    1    2    0    0  0.00000000000E+00  0.00000000000E+00 -0.32690719879E+02  0.90074356319E+03  0.90015014496E+03 0.  0.
        1    1    3    3  502    0  0.11857153030E+03  0.19029724382E+02  0.41769885763E+03  0.43461899855E+03  0.50400001928E-02 0.  1.
       -1    1    3    3    0  502 -0.11857153030E+03 -0.19029724382E+02 -0.45038957751E+03  0.46612456464E+03  0.50400001928E-02 0. -1.
</event>
<event>
 5   0  0.4236284E-04  0.9005550E+03  0.7818609E-02  0.9424888E-01
       -2   -1    0    0    0  501  0.00000000000E+00  0.00000000000E+00  0.98963881158E+02  0.98963881191E+02  0.25500000920E-02 0. -1.
        2   -1    0    0  501    0  0.00000000000E+00  0.00000000000E+00 -0.20487253612E+04  0.20487253612E+04  0.25500000920E-02 0.  1.
    10030    2    1    2    0    0  0.00000000000E+00  0.00000000000E+00 -0.19497614801E+04  0.21476892424E+04  0.90055496936E+03 0.  0.
        2    1    3    3  502    0  0.96521728955E+02 -0.30929298554E+02 -0.20211665864E+04  0.20237063610E+04  0.25500000920E-02 0.  1.
       -2    1    3    3    0  502 -0.96521728955E+02  0.30929298554E+02  0.71405106311E+02  0.12398288141E+03  0.25500000920E-02 0. -1.
</event>
<event>
 5   0  0.4033144E-04  0.9003933E+03  0.7818609E-02  0.9425090E-01
       -2   -1    0    0    0  501  0.00000000000E+00  0.00000000000E+00  0.92820492992E+03  0.92820492992E+03  0.25500000920E-02 0.  1.
        2   -1    0    0  501    0  0.00000000000E+00  0.00000000000E+00 -0.21835372504E+03  0.21835372506E+03  0.25500000920E-02 0. -1.
    10030    2    1    2    0    0  0.00000000000E+00  0.00000000000E+00  0.70985120487E+03  0.11465586550E+04  0.90039325644E+03 0.  0.
        4    1    3    3  502    0  0.29393139140E+03  0.33983882421E+03  0.39070109395E+03  0.59542845666E+03  0.12699999809E+01 0. -1.
       -4    1    3    3    0  502 -0.29393139140E+03 -0.33983882421E+03  0.31915011092E+03  0.55113019831E+03  0.12699999809E+01 0.  1.
</event>
<event>
 5   0  0.2308362E-04  0.8995087E+03  0.7818609E-02  0.9426196E-01
       -1   -1    0    0    0  501  0.00000000000E+00  0.00000000000E+00  0.43935482521E+03  0.43935482524E+03  0.50400001928E-02 0.  1.
        1   -1    0    0  501    0  0.00000000000E+00  0.00000000000E+00 -0.46040002626E+03  0.46040002628E+03  0.50400001928E-02 0. -1.
    10030    2    1    2    0    0  0.00000000000E+00  0.00000000000E+00 -0.21045201044E+02  0.89975485153E+03  0.89950869499E+03 0.  0.
        1    1    3    3  502    0 -0.29707117110E+03 -0.22695941152E+02 -0.34753109013E+03  0.45776003001E+03  0.50400001928E-02 0. -1.
       -1    1    3    3    0  502  0.29707117110E+03  0.22695941152E+02  0.32648588909E+03  0.44199482151E+03  0.50400001928E-02 0.  1.
</event>
<event>
 5   0  0.4243516E-04  0.8996515E+03  0.7818609E-02  0.9426017E-01
       -2   -1    0    0    0  501  0.00000000000E+00  0.00000000000E+00  0.72548007788E+02  0.72548007833E+02  0.25500000920E-02 0.  1.
        2   -1    0    0  501    0  0.00000000000E+00  0.00000000000E+00 -0.27890936720E+04  0.27890936720E+04  0.25500000920E-02 0. -1.
    10030    2    1    2    0    0  0.00000000000E+00  0.00000000000E+00 -0.27165456642E+04  0.28616416799E+04  0.89965146475E+03 0.  0.
        1    1    3    3  502    0 -0.30329667044E+03  0.17579227257E+03 -0.22548583667E+04  0.22819461097E+04  0.50400001928E-02 0. -1.
       -1    1    3    3    0  502  0.30329667044E+03 -0.17579227257E+03 -0.46168729750E+03  0.57969557019E+03  0.50400001928E-02 0.  1.
</event>
<event>
 5   0  0.2332791E-04  0.9005974E+03  0.7818609E-02  0.9424835E-01
       -1   -1    0    0    0  501  0.00000000000E+00  0.00000000000E+00  0.13535983241E+03  0.13535983250E+03  0.50400001928E-02 0.  1.
        1   -1    0    0  501    0  0.00000000000E+00  0.00000000000E+00 -0.14979993249E+04  0.14979993249E+04  0.50400001928E-02 0. -1.
    10030    2    1    2    0    0  0.00000000000E+00  0.00000000000E+00 -0.13626394925E+04  0.16333591574E+04  0.90059744092E+03 0.  0.
        2    1    3    3  502    0 -0.67823038776E+02 -0.43129496873E+03 -0.48137782382E+03  0.64987685288E+03  0.25500000920E-02 0.  1.
       -2    1    3    3    0  502  0.67823038776E+02  0.43129496873E+03 -0.88126166867E+03  0.98348230453E+03  0.25500000920E-02 0. -1.
</event>
<event>
 5   0  0.2351435E-04  0.8995576E+03  0.7818609E-02  0.9426135E-01
        1   -1    0    0  501    0  0.00000000000E+00  0.00000000000E+00  0.63898316060E+03  0.63898316062E+03  0.50400001928E-02 0. -1.
       -1   -1    0    0    0  501  0.00000000000E+00  0.00000000000E+00 -0.31659827988E+03  0.31659827992E+03  0.50400001928E-02 0.  1.
    10030    2    1    2    0    0  0.00000000000E+00  0.00000000000E+00  0.32238488072E+03  0.95558144055E+03  0.89955760138E+03 0.  0.
        4    1    3    3  502    0 -0.10563169177E+03 -0.37382829715E+03 -0.79628195568E+02  0.39654496905E+03  0.12699999809E+01 0.  1.
       -4    1    3    3    0  502  0.10563169177E+03  0.37382829715E+03  0.40201307628E+03  0.55903647149E+03  0.12699999809E+01 0. -1.
</event>
<event>
 5   0  0.2308362E-04  0.9000662E+03  0.7818609E-02  0.9425499E-01
        1   -1    0    0  501    0  0.00000000000E+00  0.00000000000E+00  0.24699623673E+03  0.24699623678E+03  0.50400001928E-02 0. -1.
       -1   -1    0    0    0  501  0.00000000000E+00  0.00000000000E+00 -0.81997113501E+03  0.81997113503E+03  0.50400001928E-02 0.  1.
    10030    2    1    2    0    0  0.00000000000E+00  0.00000000000E+00 -0.57297489829E+03  0.10669673718E+04  0.90006618558E+03 0.  0.
        1    1    3    3  502    0 -0.26387274198E+03 -0.24094665998E+03  0.37822316314E+02  0.35932526289E+03  0.50400001928E-02 0. -1.
       -1    1    3    3    0  502  0.26387274198E+03  0.24094665998E+03 -0.61079721460E+03  0.70764210891E+03  0.50400001928E-02 0.  1.
</event>
<event>
 5   0  0.2308362E-04  0.8998350E+03  0.7818609E-02  0.9425788E-01
       -1   -1    0    0    0  501  0.00000000000E+00  0.00000000000E+00  0.66719772018E+03  0.66719772019E+03  0.50400001928E-02 0. -1.
        1   -1    0    0  501    0  0.00000000000E+00  0.00000000000E+00 -0.30339697308E+03  0.30339697312E+03  0.50400001928E-02 0.  1.
    10030    2    1    2    0    0  0.00000000000E+00  0.00000000000E+00  0.36380074710E+03  0.97059469331E+03  0.89983502660E+03 0.  0.
        1    1    3    3  502    0 -0.87970988654E+02  0.36679146876E+03  0.44644324027E+03  0.58445397013E+03  0.50400001928E-02 0. -1.
       -1    1    3    3    0  502  0.87970988654E+02 -0.36679146876E+03 -0.82642493170E+02  0.38614072318E+03  0.50400001928E-02 0.  1.
</event>
<event>
 5   0  0.2308362E-04  0.9000922E+03  0.7818609E-02  0.9425466E-01
       -1   -1    0    0    0  501  0.00000000000E+00  0.00000000000E+00  0.22812893330E+03  0.22812893335E+03  0.50400001928E-02 0. -1.
        1   -1    0    0  501    0  0.00000000000E+00  0.00000000000E+00 -0.88783789696E+03  0.88783789698E+03  0.50400001928E-02 0.  1.
    10030    2    1    2    0    0  0.00000000000E+00  0.00000000000E+00 -0.65970896366E+03  0.11159668303E+04  0.90009224508E+03 0.  0.
        1    1    3    3  502    0 -0.33983592264E+03 -0.28906232942E+03 -0.40316253803E+03  0.60131981233E+03  0.50400001928E-02 0.  1.
       -1    1    3    3    0  502  0.33983592264E+03  0.28906232942E+03 -0.25654642563E+03  0.51464701800E+03  0.50400001928E-02 0. -1.
</event>
<event>
 5   0  0.2332791E-04  0.9005602E+03  0.7818609E-02  0.9424881E-01
        1   -1    0    0  501    0  0.00000000000E+00  0.00000000000E+00  0.54752944705E+03  0.54752944707E+03  0.50400001928E-02 0.  1.
       -1   -1    0    0    0  501  0.00000000000E+00  0.00000000000E+00 -0.37030369483E+03  0.37030369487E+03  0.50400001928E-02 0. -1.
    10030    2    1    2    0    0  0.00000000000E+00  0.00000000000E+00  0.17722575221E+03  0.91783314194E+03  0.90056021964E+03 0.  0.
        2    1    3    3  502    0 -0.23344728618E+03  0.17340408529E+03  0.43898794368E+03  0.52657100844E+03  0.25500000920E-02 0.  1.
       -2    1    3    3    0  502  0.23344728618E+03 -0.17340408529E+03 -0.26176219147E+03  0.39126213350E+03  0.25500000920E-02 0. -1.
</event>
<event>
 5   0  0.2351435E-04  0.9000773E+03  0.7818609E-02  0.9425485E-01
       -1   -1    0    0    0  501  0.00000000000E+00  0.00000000000E+00  0.24926837822E+03  0.24926837827E+03  0.50400001928E-02 0.  1.
        1   -1    0    0  501    0  0.00000000000E+00  0.00000000000E+00 -0.81251689243E+03  0.81251689244E+03  0.50400001928E-02 0. -1.
    10030    2    1    2    0    0  0.00000000000E+00  0.00000000000E+00 -0.56324851421E+03  0.10617852707E+04  0.90007725910E+03 0.  0.
        4    1    3    3  502    0 -0.37679368777E+03  0.22926710520E+03 -0.38711164487E+03  0.58685085597E+03  0.12699999809E+01 0. -1.
       -4    1    3    3    0  502  0.37679368777E+03 -0.22926710520E+03 -0.17613686934E+03  0.47493441474E+03  0.12699999809E+01 0.  1.
</event>
<event>
 5   0  0.4236284E-04  0.8995910E+03  0.7818609E-02  0.9426093E-01
       -2   -1    0    0    0  501  0.00000000000E+00  0.00000000000E+00  0.99912710128E+02  0.99912710161E+02  0.25500000920E-02 0.  1.
        2   -1    0    0  501    0  0.00000000000E+00  0.00000000000E+00 -0.20249273635E+04  0.20249273635E+04  0.25500000920E-02 0. -1.
    10030    2    1    2    0    0  0.00000000000E+00  0.00000000000E+00 -0.19250146534E+04  0.21248400736E+04  0.89959097535E+03 0.  0.
        2    1    3    3  502    0 -0.30679780468E+03  0.20919602137E+03 -0.36296636209E+03  0.51926144507E+03  0.25500000920E-02 0.  1.
       -2    1    3    3    0  502  0.30679780468E+03 -0.20919602137E+03 -0.15620482913E+04  0.16055786286E+04  0.25500000920E-02 0. -1.
</event>
<event>
 5   0  0.2332791E-04  0.8999673E+03  0.7818609E-02  0.9425622E-01
        1   -1    0    0  501    0  0.00000000000E+00  0.00000000000E+00  0.49464558068E+03  0.49464558070E+03  0.50400001928E-02 0.  1.
       -1   -1    0    0    0  501  0.00000000000E+00  0.00000000000E+00 -0.40935423963E+03  0.40935423966E+03  0.50400001928E-02 0. -1.
    10030    2    1    2    0    0  0.00000000000E+00  0.00000000000E+00  0.85291341044E+02  0.90399982037E+03  0.89996725628E+03 0.  0.
        2    1    3    3  502    0 -0.16490387571E+03  0.10245233987E+03  0.45041476209E+03  0.49047245395E+03  0.25500000920E-02 0.  1.
       -2    1    3    3    0  502  0.16490387571E+03 -0.10245233987E+03 -0.36512342105E+03  0.41352736641E+03  0.25500000920E-02 0. -1.
</event>
<event>
 5   0  0.2356918E-04  0.9001222E+03  0.7818609E-02  0.9425429E-01
       -1   -1    0    0    0  501  0.00000000000E+00  0.00000000000E+00  0.24659214576E+03  0.24659214581E+03  0.50400001928E-02 0.  1.
        1   -1    0    0  501    0  0.00000000000E+00  0.00000000000E+00 -0.82141711330E+03  0.82141711332E+03  0.50400001928E-02 0. -1.
    10030    2    1    2    0    0  0.00000000000E+00  0.00000000000E+00 -0.57482496754E+03  0.10680092591E+04  0.90012223296E+03 0.  0.
        5    1    3    3  502    0  0.32347566819E+03 -0.31168843934E+03 -0.31983558744E+03  0.55145542351E+03  0.46999998093E+01 0. -1.
       -5    1    3    3    0  502 -0.32347566819E+03  0.31168843934E+03 -0.25498938011E+03  0.51655383562E+03  0.46999998093E+01 0.  1.
</event>
<event>
 5   0  0.4243516E-04  0.8994455E+03  0.7818609E-02  0.9426275E-01
        2   -1    0    0  501    0  0.00000000000E+00  0.00000000000E+00  0.97671351972E+03  0.97671351972E+03  0.25500000920E-02 0.  1.
       -2   -1    0    0    0  501  0.00000000000E+00  0.00000000000E+00 -0.20707255054E+03  0.20707255056E+03  0.25500000920E-02 0. -1.
    10030    2    1    2    0    0  0.00000000000E+00  0.00000000000E+00  0.76964096918E+03  0.11837860703E+04  0.89944551739E+03 0.  0.
        1    1    3    3  502    0  0.27065249607E+03 -0.28558798876E+03  0.98166301437E+02  0.40552422334E+03  0.50400001928E-02 0. -1.
       -1    1    3    3    0  502 -0.27065249607E+03  0.28558798876E+03  0.67147466774E+03  0.77826184694E+03  0.50400001928E-02 0.  1.
</event>
<event>
 5   0  0.4243516E-04  0.8998712E+03  0.7818609E-02  0.9425742E-01
        2   -1    0    0  501    0  0.00000000000E+00  0.00000000000E+00  0.21249151143E+04  0.21249151143E+04  0.25500000920E-02 0.  1.
       -2   -1    0    0    0  501  0.00000000000E+00  0.00000000000E+00 -0.95270654335E+02  0.95270654369E+02  0.25500000920E-02 0. -1.
    10030    2    1    2    0    0  0.00000000000E+00  0.00000000000E+00  0.20296444600E+04  0.22201857687E+04  0.89987122053E+03 0.  0.
        1    1    3    3  502    0 -0.40016161013E+03  0.13036339413E+02  0.50833253994E+03  0.64707127239E+03  0.50400001928E-02 0. -1.
       -1    1    3    3    0  502  0.40016161013E+03 -0.13036339413E+02  0.15213119200E+04  0.15731144963E+04  0.50400001928E-02 0.  1.
</event>
<event>
 5   0  0.4236284E-04  0.8992623E+03  0.7818609E-02  0.9426504E-01
       -2   -1    0    0    0  501  0.00000000000E+00  0.00000000000E+00  0.35502323638E+03  0.35502323639E+03  0.25500000920E-02 0.  1.
        2   -1    0    0  501    0  0.00000000000E+00  0.00000000000E+00 -0.56945049310E+03  0.56945049311E+03  0.25500000920E-02 0. -1.
    10030    2    1    2    0    0  0.00000000000E+00  0.00000000000E+00 -0.21442725673E+03  0.92447372950E+03  0.89926226881E+03 0.  0.
        2    1    3    3  502    0 -0.29982436452E+03 -0.11436719599E+03  0.21656646398E+03  0.38713762205E+03  0.25500000920E-02 0.  1.
       -2    1    3    3    0  502  0.29982436452E+03  0.11436719599E+03 -0.43099372070E+03  0.53733610745E+03  0.25500000920E-02 0. -1.
</event>
<event>
 5   0  0.3959804E-04  0.9000937E+03  0.7818609E-02  0.9425464E-01
        2   -1    0    0  501    0  0.00000000000E+00  0.00000000000E+00  0.83586767414E+03  0.83586767414E+03  0.25500000920E-02 0.  1.
       -2   -1    0    0    0  501  0.00000000000E+00  0.00000000000E+00 -0.24231365500E+03  0.24231365502E+03  0.25500000920E-02 0. -1.
    10030    2    1    2    0    0  0.00000000000E+00  0.00000000000E+00  0.59355401913E+03  0.10781813292E+04  0.90009366452E+03 0.  0.
        5    1    3    3  502    0 -0.24716562698E+03 -0.37136432164E+03  0.36782255893E+03  0.57820224092E+03  0.46999998093E+01 0.  1.
       -5    1    3    3    0  502  0.24716562698E+03  0.37136432164E+03  0.22573146020E+03  0.49997908823E+03  0.46999998093E+01 0. -1.
</event>
<event>
 5   0  0.2351435E-04  0.8999901E+03  0.7818609E-02  0.9425594E-01
        1   -1    0    0  501    0  0.00000000000E+00  0.00000000000E+00  0.33019465191E+03  0.33019465195E+03  0.50400001928E-02 0. -1.
       -1   -1    0    0    0  501  0.00000000000E+00  0.00000000000E+00 -0.61326118686E+03  0.61326118688E+03  0.50400001928E-02 0.  1.
    10030    2    1    2    0    0  0.00000000000E+00  0.00000000000E+00 -0.28306653494E+03  0.94345583883E+03  0.89999014251E+03 0.  0.
        4    1    3    3  502    0  0.39663573371E+03 -0.19499332417E+03 -0.23018494041E+03  0.49832621988E+03  0.12699999809E+01 0.  1.
       -4    1    3    3    0  502 -0.39663573371E+03  0.19499332417E+03 -0.52881594539E+02  0.44512961895E+03  0.12699999809E+01 0. -1.
</event>
<event>
 5   0  0.4243516E-04  0.9000805E+03  0.7818609E-02  0.9425481E-01
        2   -1    0    0  501    0  0.00000000000E+00  0.00000000000E+00  0.19559833301E+04  0.19559833301E+04  0.25500000920E-02 0.  1.
       -2   -1    0    0    0  501  0.00000000000E+00  0.00000000000E+00 -0.10354701575E+03  0.10354701578E+03  0.25500000920E-02 0. -1.
    10030    2    1    2    0    0  0.00000000000E+00  0.00000000000E+00  0.18524363144E+04  0.20595303459E+04  0.90008052247E+03 0.  0.
        1    1    3    3  502    0  0.79115808245E+02  0.41742430271E+03  0.58656763005E+03  0.72426786775E+03  0.50400001928E-02 0. -1.
       -1    1    3    3    0  502 -0.79115808245E+02 -0.41742430271E+03  0.12658686843E+04  0.13352624782E+04  0.50400001928E-02 0.  1.
</event>
<event>
 5   0  0.2308362E-04  0.8999523E+03  0.7818609E-02  0.9425641E-01
        1   -1    0    0  501    0  0.00000000000E+00  0.00000000000E+00  0.91174577768E+03  0.91174577769E+03  0.50400001928E-02 0.  1.
       -1   -1    0    0    0  501  0.00000000000E+00  0.00000000000E+00 -0.22207782230E+03  0.22207782235E+03  0.50400001928E-02 0. -1.
    10030    2    1    2    0    0  0.00000000000E+00  0.00000000000E+00  0.68966795538E+03  0.11338236000E+04  0.89995225837E+03 0.  0.
        1    1    3    3  502    0 -0.14599915462E+03 -0.29703048367E+03 -0.39242052704E+02  0.33329086412E+03  0.50400001928E-02 0. -1.
       -1    1    3    3    0  502  0.14599915462E+03  0.29703048367E+03  0.72891000809E+03  0.80053273593E+03  0.50400001928E-02 0.  1.
</event>
<event>
 5   0  0.1596250E-04  0.8994651E+03  0.7818609E-02  0.9426250E-01
       -4   -1    0    0    0  501  0.00000000000E+00  0.00000000000E+00  0.55616843572E+03  0.55616988573E+03  0.12699999809E+01 0. -1.
        4   -1    0    0  501    0  0.00000000000E+00  0.00000000000E+00 -0.36366260062E+03  0.36366481819E+03  0.12699999809E+01 0.  1.
    10030    2    1    2    0    0  0.00000000000E+00  0.00000000000E+00  0.19250583510E+03  0.91983470392E+03  0.89946505545E+03 0.  0.
        5    1    3    3  502    0 -0.16652564269E+03  0.29756550773E+03  0.39608411524E+03  0.52266694692E+03  0.46999998093E+01 0. -1.
       -5    1    3    3    0  502  0.16652564269E+03 -0.29756550773E+03 -0.20357828013E+03  0.39716775700E+03  0.46999998093E+01 0.  1.
</event>
<event>
 5   0  0.2308362E-04  0.8998737E+03  0.7818609E-02  0.9425739E-01
       -1   -1    0    0    0  501  0.00000000000E+00  0.00000000000E+00  0.26155032971E+03  0.26155032976E+03  0.50400001928E-02 0.  1.
        1   -1    0    0  501    0  0.00000000000E+00  0.00000000000E+00 -0.77401231274E+03  0.77401231275E+03  0.50400001928E-02 0. -1.
    10030    2    1    2    0    0  0.00000000000E+00  0.00000000000E+00 -0.51246198303E+03  0.10355626425E+04  0.89987371476E+03 0.  0.
        1    1    3    3  502    0  0.10922396198E+03  0.43415611729E+03 -0.20448694136E+03  0.49217508802E+03  0.50400001928E-02 0.  1.
       -1    1    3    3    0  502 -0.10922396198E+03 -0.43415611729E+03 -0.30797504167E+03  0.54338755449E+03  0.50400001928E-02 0. -1.
</event>
<event>
 5   0  0.2356918E-04  0.8999213E+03  0.7818609E-02  0.9425680E-01
        1   -1    0    0  501    0  0.00000000000E+00  0.00000000000E+00  0.51130804120E+03  0.51130804123E+03  0.50400001928E-02 0.  1.
       -1   -1    0    0    0  501  0.00000000000E+00  0.00000000000E+00 -0.39597383290E+03  0.39597383293E+03  0.50400001928E-02 0. -1.
    10030    2    1    2    0    0  0.00000000000E+00  0.00000000000E+00  0.11533420831E+03  0.90728187415E+03  0.89992134076E+03 0.  0.
        5    1    3    3  502    0 -0.38365926373E+03 -0.12958193709E+03 -0.14004040252E+03  0.42850824193E+03  0.46999998093E+01 0. -1.
       -5    1    3    3    0  502  0.38365926373E+03  0.12958193709E+03  0.25537461083E+03  0.47877363223E+03  0.46999998093E+01 0.  1.
</event>
<event>
 5   0  0.2332791E-04  0.9000975E+03  0.7818609E-02  0.9425460E-01
       -1   -1    0    0    0  501  0.00000000000E+00  0.00000000000E+00  0.16091304186E+03  0.16091304193E+03  0.50400001928E-02 0. -1.
        1   -1    0    0  501    0  0.00000000000E+00  0.00000000000E+00 -0.12587163438E+04  0.12587163438E+04  0.50400001928E-02 0.  1.
    10030    2    1    2    0    0  0.00000000000E+00  0.00000000000E+00 -0.10978033019E+04  0.14196293857E+04  0.90009749643E+03 0.  0.
        2    1    3    3  502    0 -0.32246213179E+03  0.22365223688E+02 -0.55005707441E+02  0.32788360362E+03  0.25500000920E-02 0. -1.
       -2    1    3    3    0  502  0.32246213179E+03 -0.22365223688E+02 -0.10427975945E+04  0.10917457821E+04  0.25500000920E-02 0.  1.
</event>
<event>
 5   0  0.4243516E-04  0.8998969E+03  0.7818609E-02  0.9425710E-01
       -2   -1    0    0    0  501  0.00000000000E+00  0.00000000000E+00  0.17263353429E+03  0.17263353431E+03  0.25500000920E-02 0.  1.
        2   -1    0    0  501    0  0.00000000000E+00  0.00000000000E+00 -0.11727363159E+04  0.11727363159E+04  0.25500000920E-02 0. -1.
    10030    2    1    2    0    0  0.00000000000E+00  0.00000000000E+00 -0.10001027817E+04  0.13453698503E+04  0.89989691637E+03 0.  0.
        1    1    3    3  502    0  0.12108735851E+03 -0.39857542807E+02  0.14507094855E+03  0.19312263525E+03  0.50400001928E-02 0.  1.
       -1    1    3    3    0  502 -0.12108735851E+03  0.39857542807E+02 -0.11451737302E+04  0.11522472150E+04  0.50400001928E-02 0. -1.
</event>
<event>
 5   0  0.4110039E-04  0.9000389E+03  0.7818609E-02  0.9425533E-01
        2   -1    0    0  501    0  0.00000000000E+00  0.00000000000E+00  0.55466031891E+03  0.55466031891E+03  0.25500000920E-02 0.  1.
       -2   -1    0    0    0  501  0.00000000000E+00  0.00000000000E+00 -0.36511984185E+03  0.36511984186E+03  0.25500000920E-02 0. -1.
    10030    2    1    2    0    0  0.00000000000E+00  0.00000000000E+00  0.18954047705E+03  0.91978016078E+03  0.90003886123E+03 0.  0.
        3    1    3    3  502    0  0.31220384681E+03 -0.31924047421E+03  0.15195979037E+03  0.47167521710E+03  0.10100000352E+00 0.  1.
       -3    1    3    3    0  502 -0.31220384681E+03  0.31924047421E+03  0.37580686681E+02  0.44810494368E+03  0.10100000352E+00 0. -1.
</event>
<event>
 5   0  0.2308362E-04  0.9001480E+03  0.7818609E-02  0.9425396E-01
        1   -1    0    0  501    0  0.00000000000E+00  0.00000000000E+00  0.80572777376E+03  0.80572777377E+03  0.50400001928E-02 0. -1.
       -1   -1    0    0    0  501  0.00000000000E+00  0.00000000000E+00 -0.25140823213E+03  0.25140823218E+03  0.50400001928E-02 0.  1.
    10030    2    1    2    0    0  0.00000000000E+00  0.00000000000E+00  0.55431954163E+03  0.10571360060E+04  0.90014797719E+03 0.  0.
        1    1    3    3  502    0  0.96959824383E+02  0.24554204432E+03  0.70525241350E+03  0.75304254185E+03  0.50400001928E-02 0. -1.
       -1    1    3    3    0  502 -0.96959824383E+02 -0.24554204432E+03 -0.15093287186E+03  0.30409346410E+03  0.50400001928E-02 0.  1.
</event>
<event>
 5   0  0.2332791E-04  0.9011525E+03  0.7818609E-02  0.9424142E-01
        1   -1    0    0  501    0  0.00000000000E+00  0.00000000000E+00  0.20639408973E+03  0.20639408979E+03  0.50400001928E-02 0. -1.
       -1   -1    0    0    0  501  0.00000000000E+00  0.00000000000E+00 -0.98364718221E+03  0.98364718222E+03  0.50400001928E-02 0.  1.
    10030    2    1    2    0    0  0.00000000000E+00  0.00000000000E+00 -0.77725309248E+03  0.11900412720E+04  0.90115251724E+03 0.  0.
        2    1    3    3  502    0 -0.11832352561E+03  0.42224858820E+03 -0.52538527074E+03  0.68434202682E+03  0.25500000920E-02 0. -1.
       -2    1    3    3    0  502  0.11832352561E+03 -0.42224858820E+03 -0.25186782174E+03  0.50569924519E+03  0.25500000920E-02 0.  1.
</event>
<event>
 5   0  0.1596250E-04  0.8997925E+03  0.7818609E-02  0.9425841E-01
       -3   -1    0    0    0  501  0.00000000000E+00  0.00000000000E+00  0.72231272963E+03  0.72231273669E+03  0.10100000352E+00 0.  1.
        3   -1    0    0  501    0  0.00000000000E+00  0.00000000000E+00 -0.28022022426E+03  0.28022024246E+03  0.10100000352E+00 0. -1.
    10030    2    1    2    0    0  0.00000000000E+00  0.00000000000E+00  0.44209250537E+03  0.10025329792E+04  0.89979252664E+03 0.  0.
        4    1    3    3  502    0 -0.74464216869E+02 -0.44365938328E+03  0.22677827257E+03  0.50379417005E+03  0.12699999809E+01 0.  1.
       -4    1    3    3    0  502  0.74464216869E+02  0.44365938328E+03  0.21531423280E+03  0.49873880911E+03  0.12699999809E+01 0. -1.
</event>
<event>
 5   0  0.2351435E-04  0.9007271E+03  0.7818609E-02  0.9424673E-01
        1   -1    0    0  501    0  0.00000000000E+00  0.00000000000E+00  0.11697564068E+04  0.11697564068E+04  0.50400001928E-02 0. -1.
       -1   -1    0    0    0  501  0.00000000000E+00  0.00000000000E+00 -0.17339278421E+03  0.17339278428E+03  0.50400001928E-02 0.  1.
    10030    2    1    2    0    0  0.00000000000E+00  0.00000000000E+00  0.99636362255E+03  0.13431491911E+04  0.90072708468E+03 0.  0.
        4    1    3    3  502    0 -0.30965373147E+03 -0.31528260183E+03  0.36872206421E+03  0.57553985611E+03  0.12699999809E+01 0.  1.
       -4    1    3    3    0  502  0.30965373147E+03  0.31528260183E+03  0.62764155834E+03  0.76760933494E+03  0.12699999809E+01 0. -1.
</event>
<event>
 5   0  0.2332791E-04  0.9001781E+03  0.7818609E-02  0.9425359E-01
        1   -1    0    0  501    0  0.00000000000E+00  0.00000000000E+00  0.39059879356E+03  0.39059879359E+03  0.50400001928E-02 0. -1.
       -1   -1    0    0    0  501  0.00000000000E+00  0.00000000000E+00 -0.51863998991E+03  0.51863998994E+03  0.50400001928E-02 0.  1.
    10030    2    1    2    0    0  0.00000000000E+00  0.00000000000E+00 -0.12804119636E+03  0.90923878353E+03  0.90017810322E+03 0.  0.
        2    1    3    3  502    0 -0.62986197827E+02  0.32933913134E+03  0.23924913756E+03  0.41191221683E+03  0.25500000920E-02 0. -1.
       -2    1    3    3    0  502  0.62986197827E+02 -0.32933913134E+03 -0.36729033391E+03  0.49732656670E+03  0.25500000920E-02 0.  1.
</event>
<event>
 5   0  0.2450427E-04  0.8997279E+03  0.7818609E-02  0.9425922E-01
        1   -1    0    0  501    0  0.00000000000E+00  0.00000000000E+00  0.32711661729E+03  0.32711661733E+03  0.50400001928E-02 0. -1.
       -1   -1    0    0    0  501  0.00000000000E+00  0.00000000000E+00 -0.61867098764E+03  0.61867098766E+03  0.50400001928E-02 0.  1.
    10030    2    1    2    0    0  0.00000000000E+00  0.00000000000E+00 -0.29155437035E+03  0.94578760499E+03  0.89972787157E+03 0.  0.
        3    1    3    3  502    0  0.33885076661E+03  0.22788766807E+03  0.52630910194E+02  0.41173128882E+03  0.10100000352E+00 0.  1.
       -3    1    3    3    0  502 -0.33885076661E+03 -0.22788766807E+03 -0.34418528055E+03  0.53405631616E+03  0.10100000352E+00 0. -1.
</event>
<event>
 5   0  0.4243516E-04  0.9000861E+03  0.7818609E-02  0.9425474E-01
        2   -1    0    0  501    0  0.00000000000E+00  0.00000000000E+00  0.22756543386E+04  0.22756543386E+04  0.25500000920E-02 0. -1.
       -2   -1    0    0    0  501  0.00000000000E+00  0.00000000000E+00 -0.89002413911E+02  0.89002413947E+02  0.25500000920E-02 0.  1.
    10030    2    1    2    0    0  0.00000000000E+00  0.00000000000E+00  0.21866519247E+04  0.23646567526E+04  0.90008606123E+03 0.  0.
        1    1    3    3  502    0 -0.17289955344E+03 -0.14582853813E+03  0.21154796205E+04  0.21275371308E+04  0.50400001928E-02 0. -1.
       -1    1    3    3    0  502  0.17289955344E+03  0.14582853813E+03  0.71172304192E+02  0.23711962176E+03  0.50400001928E-02 0.  1.
</event>
<event>
 5   0  0.2356918E-04  0.9003763E+03  0.7818609E-02  0.9425111E-01
       -1   -1    0    0    0  501  0.00000000000E+00  0.00000000000E+00  0.10694690267E+03  0.10694690279E+03  0.50400001928E-02 0. -1.
        1   -1    0    0  501    0  0.00000000000E+00  0.00000000000E+00 -0.18950465794E+04  0.18950465794E+04  0.50400001928E-02 0.  1.
    10030    2    1    2    0    0  0.00000000000E+00  0.00000000000E+00 -0.17880996767E+04  0.20019934822E+04  0.90037628179E+03 0.  0.
        5    1    3    3  502    0 -0.23152652207E+03 -0.38350589779E+03 -0.79546120388E+03  0.91294135679E+03  0.46999998093E+01 0. -1.
       -5    1    3    3    0  502  0.23152652207E+03  0.38350589779E+03 -0.99263847283E+03  0.10890521254E+04  0.46999998093E+01 0.  1.
</event>
<event>
 5   0  0.4236284E-04  0.8995155E+03  0.7818609E-02  0.9426187E-01
        2   -1    0    0  501    0  0.00000000000E+00  0.00000000000E+00  0.91753755898E+03  0.91753755898E+03  0.25500000920E-02 0.  1.
       -2   -1    0    0    0  501  0.00000000000E+00  0.00000000000E+00 -0.22046186783E+03  0.22046186784E+03  0.25500000920E-02 0. -1.
    10030    2    1    2    0    0  0.00000000000E+00  0.00000000000E+00  0.69707569116E+03  0.11379994268E+04  0.89951552308E+03 0.  0.
        2    1    3    3  502    0  0.40743194840E+02  0.17682400406E+03  0.86917215815E+03  0.88791158166E+03  0.25500000920E-02 0.  1.
       -2    1    3    3    0  502 -0.40743194840E+02 -0.17682400406E+03 -0.17209646700E+03  0.25008784516E+03  0.25500000920E-02 0. -1.
</event>
<event>
 5   0  0.2332791E-04  0.9003504E+03  0.7818609E-02  0.9425144E-01
       -1   -1    0    0    0  501  0.00000000000E+00  0.00000000000E+00  0.45881982914E+03  0.45881982917E+03  0.50400001928E-02 0.  1.
        1   -1    0    0  501    0  0.00000000000E+00  0.00000000000E+00 -0.44169345469E+03  0.44169345472E+03  0.50400001928E-02 0. -1.
    10030    2    1    2    0    0  0.00000000000E+00  0.00000000000E+00  0.17126374449E+02  0.90051328389E+03  0.90035041054E+03 0.  0.
        2    1    3    3  502    0 -0.42112551649E+03  0.15816343756E+03  0.25751807879E+02  0.45058354301E+03  0.25500000920E-02 0. -1.
       -2    1    3    3    0  502  0.42112551649E+03 -0.15816343756E+03 -0.86254334302E+01  0.44992974088E+03  0.25500000920E-02 0.  1.
</event>
<event>
 5   0  0.4110039E-04  0.9000776E+03  0.7818609E-02  0.9425484E-01
       -2   -1    0    0    0  501  0.00000000000E+00  0.00000000000E+00  0.24810514004E+03  0.24810514005E+03  0.25500000920E-02 0. -1.
        2   -1    0    0  501    0  0.00000000000E+00  0.00000000000E+00 -0.81632698790E+03  0.81632698791E+03  0.25500000920E-02 0.  1.
    10030    2    1    2    0    0  0.00000000000E+00  0.00000000000E+00 -0.56822184786E+03  0.10644321280E+04  0.90007760034E+03 0.  0.
        3    1    3    3  502    0 -0.29147472746E+03  0.30648707851E+03 -0.46595112903E+03  0.62928714502E+03  0.10100000352E+00 0.  1.
       -3    1    3    3    0  502  0.29147472746E+03 -0.30648707851E+03 -0.10227071883E+03  0.43514498293E+03  0.10100000352E+00 0. -1.
</event>
<event>
 5   0  0.2308362E-04  0.8999834E+03  0.7818609E-02  0.9425602E-01
       -1   -1    0    0    0  501  0.00000000000E+00  0.00000000000E+00  0.20733500252E+03  0.20733500258E+03  0.50400001928E-02 0. -1.
        1   -1    0    0  501    0  0.00000000000E+00  0.00000000000E+00 -0.97664416728E+03  0.97664416730E+03  0.50400001928E-02 0.  1.
    10030    2    1    2    0    0  0.00000000000E+00  0.00000000000E+00 -0.76930916476E+03  0.11839791699E+04  0.89998337968E+03 0.  0.
        1    1    3    3  502    0 -0.28695482670E+03 -0.33450293087E+03 -0.26511080831E+03  0.51431412972E+03  0.50400001928E-02 0. -1.
       -1    1    3    3    0  502  0.28695482670E+03  0.33450293087E+03 -0.50419835645E+03  0.66966504015E+03  0.50400001928E-02 0.  1.
</event>
<event>
 5   0  0.4110039E-04  0.9002034E+03  0.7818609E-02  0.9425327E-01
       -2   -1    0    0    0  501  0.00000000000E+00  0.00000000000E+00  0.71179434056E+03  0.71179434056E+03  0.25500000920E-02 0.  1.
        2   -1    0    0  501    0  0.00000000000E+00  0.00000000000E+00 -0.28462087094E+03  0.28462087095E+03  0.25500000920E-02 0. -1.
    10030    2    1    2    0    0  0.00000000000E+00  0.00000000000E+00  0.42717346961E+03  0.99641521151E+03  0.90020336624E+03 0.  0.
        3    1    3    3  502    0 -0.59966031651E+01 -0.38822697742E+03  0.46559385793E+03  0.60624565647E+03  0.10100000352E+00 0.  1.
       -3    1    3    3    0  502  0.59966031651E+01  0.38822697742E+03 -0.38420388317E+02  0.39016955505E+03  0.10100000352E+00 0. -1.
</event>
<event>
 5   0  0.2450427E-04  0.8998133E+03  0.7818609E-02  0.9425815E-01
        1   -1    0    0  501    0  0.00000000000E+00  0.00000000000E+00  0.56856563902E+03  0.56856563905E+03  0.50400001928E-02 0.  1.
       -1   -1    0    0    0  501  0.00000000000E+00  0.00000000000E+00 -0.35601165987E+03  0.35601165990E+03  0.50400001928E-02 0. -1.
    10030    2    1    2    0    0  0.00000000000E+00  0.00000000000E+00  0.21255397916E+03  0.92457729895E+03  0.89981330712E+03 0.  0.
        3    1    3    3  502    0 -0.36596704885E+03  0.23986575147E+03  0.21379189176E+03  0.48700558802E+03  0.10100000352E+00 0. -1.
       -3    1    3    3    0  502  0.36596704885E+03 -0.23986575147E+03 -0.12379126057E+01  0.43757171093E+03  0.10100000352E+00 0.  1.
</event>
<event>
 5   0  0.2356918E-04  0.9001442E+03  0.7818609E-02  0.9425401E-01
       -1   -1    0    0    0  501  0.00000000000E+00  0.00000000000E+00  0.77462624347E+03  0.77462624349E+03  0.50400001928E-02 0. -1.
        1   -1    0    0  501    0  0.00000000000E+00  0.00000000000E+00 -0.26150019778E+03  0.26150019783E+03  0.50400001928E-02 0.  1.
    10030    2    1    2    0    0  0.00000000000E+00  0.00000000000E+00  0.51312604569E+03  0.10361264413E+04  0.90014424602E+03 0.  0.
        5    1    3    3  502    0  0.61035945829E+01  0.11367145396E+03 -0.24462642065E+03  0.26985668232E+03  0.46999998093E+01 0.  1.
       -5    1    3    3    0  502 -0.61035945829E+01 -0.11367145396E+03  0.75775246634E+03  0.76626975900E+03  0.46999998093E+01 0. -1.
</event>
<event>
 5   0  0.2450427E-04  0.8999857E+03  0.7818609E-02  0.9425599E-01
       -1   -1    0    0    0  501  0.00000000000E+00  0.00000000000E+00  0.24328498271E+03  0.24328498276E+03  0.50400001928E-02 0.  1.
        1   -1    0    0  501    0  0.00000000000E+00  0.00000000000E+00 -0.83233078977E+03  0.83233078979E+03  0.50400001928E-02 0. -1.
    10030    2    1    2    0    0  0.00000000000E+00  0.00000000000E+00 -0.58904580706E+03  0.10756157726E+04  0.89998573730E+03 0.  0.
        3    1    3    3  502    0  0.13396843489E+03  0.42956034912E+03 -0.28867564455E+03  0.53460571737E+03  0.10100000352E+00 0.  1.
       -3    1    3    3    0  502 -0.13396843489E+03 -0.42956034912E+03 -0.30037016251E+03  0.54101005519E+03  0.10100000352E+00 0. -1.
</event>
<event>
 5   0  0.3959804E-04  0.8997665E+03  0.7818609E-02  0.9425873E-01
       -2   -1    0    0    0  501  0.00000000000E+00  0.00000000000E+00  0.14012172603E+04  0.14012172603E+04  0.25500000920E-02 0. -1.
        2   -1    0    0  501    0  0.00000000000E+00  0.00000000000E+00 -0.14444223759E+03  0.14444223761E+03  0.25500000920E-02 0.  1.
    10030    2    1    2    0    0  0.00000000000E+00  0.00000000000E+00  0.12567750227E+04  0.15456594979E+04  0.89976653962E+03 0.  0.
        5    1    3    3  502    0  0.17167685510E+02 -0.16246887828E+03  0.13484125887E+04  0.13582818063E+04  0.46999998093E+01 0. -1.
       -5    1    3    3    0  502 -0.17167685510E+02  0.16246887828E+03 -0.91637565987E+02  0.18737769167E+03  0.46999998093E+01 0.  1.
</event>
<event>
 5   0  0.4243516E-04  0.9000058E+03  0.7818609E-02  0.9425574E-01
        2   -1    0    0  501    0  0.00000000000E+00  0.00000000000E+00  0.13297428088E+04  0.13297428088E+04  0.25500000920E-02 0. -1.
       -2   -1    0    0    0  501  0.00000000000E+00  0.00000000000E+00 -0.15228703789E+03  0.15228703791E+03  0.25500000920E-02 0.  1.
    10030    2    1    2    0    0  0.00000000000E+00  0.00000000000E+00  0.11774557709E+04  0.14820298467E+04  0.90000576337E+03 0.  0.
        1    1    3    3  502    0  0.37062458029E+02  0.42194095226E+03  0.33848095038E+03  0.54219659422E+03  0.50400001928E-02 0.  1.
       -1    1    3    3    0  502 -0.37062458029E+02 -0.42194095226E+03  0.83897482053E+03  0.93983325249E+03  0.50400001928E-02 0. -1.
</event>
<event>
 5   0  0.4243516E-04  0.8997648E+03  0.7818609E-02  0.9425875E-01
       -2   -1    0    0    0  501  0.00000000000E+00  0.00000000000E+00  0.24846942692E+03  0.24846942694E+03  0.25500000920E-02 0. -1.
        2   -1    0    0  501    0  0.00000000000E+00  0.00000000000E+00 -0.81456368553E+03  0.81456368554E+03  0.25500000920E-02 0.  1.
    10030    2    1    2    0    0  0.00000000000E+00  0.00000000000E+00 -0.56609425861E+03  0.10630331125E+04  0.89976479626E+03 0.  0.
        1    1    3    3  502    0  0.10648694468E+03 -0.25440562721E+03  0.13688132711E+03  0.30789314751E+03  0.50400001928E-02 0. -1.
       -1    1    3    3    0  502 -0.10648694468E+03  0.25440562721E+03 -0.70297558572E+03  0.75513996497E+03  0.50400001928E-02 0.  1.
</event>
<event>
 5   0  0.2332791E-04  0.9001178E+03  0.7818609E-02  0.9425434E-01
        1   -1    0    0  501    0  0.00000000000E+00  0.00000000000E+00  0.10775084037E+04  0.10775084037E+04  0.50400001928E-02 0.  1.
       -1   -1    0    0    0  501  0.00000000000E+00  0.00000000000E+00 -0.18798274907E+03  0.18798274913E+03  0.50400001928E-02 0. -1.
    10030    2    1    2    0    0  0.00000000000E+00  0.00000000000E+00  0.88952565463E+03  0.12654911528E+04  0.90011775211E+03 0.  0.
        2    1    3    3  502    0 -0.35466231994E+02 -0.38376299123E+03  0.77153233029E+03  0.86243493884E+03  0.25500000920E-02 0.  1.
       -2    1    3    3    0  502  0.35466231994E+02  0.38376299123E+03  0.11799332434E+03  0.40305621400E+03  0.25500000920E-02 0. -1.
</event>
<event>
 5   0  0.1596250E-04  0.9002476E+03  0.7818609E-02  0.9425272E-01
       -4   -1    0    0    0  501  0.00000000000E+00  0.00000000000E+00  0.15845411114E+03  0.15845920054E+03  0.12699999809E+01 0. -1.
        4   -1    0    0  501    0  0.00000000000E+00  0.00000000000E+00 -0.12786498334E+04  0.12786504641E+04  0.12699999809E+01 0.  1.
    10030    2    1    2    0    0  0.00000000000E+00  0.00000000000E+00 -0.11201957223E+04  0.14371096647E+04  0.90024759486E+03 0.  0.
        4    1    3    3  502    0  0.22741206734E+03  0.27480261317E+03 -0.99837381117E+03  0.10601814016E+04  0.12699999809E+01 0. -1.
       -4    1    3    3    0  502 -0.22741206734E+03 -0.27480261317E+03 -0.12182191114E+03  0.37692826308E+03  0.12699999809E+01 0.  1.
</event>
<event>
 5   0  0.4236284E-04  0.8997487E+03  0.7818609E-02  0.9425896E-01
        2   -1    0    0  501    0  0.00000000000E+00  0.00000000000E+00  0.16241024558E+04  0.16241024558E+04  0.25500000920E-02 0.  1.
       -2   -1    0    0    0  501  0.00000000000E+00  0.00000000000E+00 -0.12461464000E+03  0.12461464003E+03  0.25500000920E-02 0. -1.
    10030    2    1    2    0    0  0.00000000000E+00  0.00000000000E+00  0.14994878158E+04  0.17487170958E+04  0.89974872688E+03 0.  0.
        2    1    3    3  502    0  0.68682423558E+02  0.10498878817E+03  0.15894143151E+04  0.15943581109E+04  0.25500000920E-02 0.  1.
       -2    1    3    3    0  502 -0.68682423558E+02 -0.10498878817E+03 -0.89926499258E+02  0.15435898491E+03  0.25500000920E-02 0. -1.
</event>
<event>
 5   0  0.2356918E-04  0.8989091E+03  0.7818609E-02  0.9426946E-01
       -1   -1    0    0    0  501  0.00000000000E+00  0.00000000000E+00  0.18819254928E+03  0.18819254935E+03  0.50400001928E-02 0.  1.
        1   -1    0    0  501    0  0.00000000000E+00  0.00000000000E+00 -0.10734186033E+04  0.10734186033E+04  0.50400001928E-02 0. -1.
    10030    2    1    2    0    0  0.00000000000E+00  0.00000000000E+00 -0.88522605402E+03  0.12616111527E+04  0.89890907982E+03 0.  0.
        5    1    3    3  502    0 -0.83137738753E+02  0.21874432228E+03  0.95907791683E+02  0.25294536295E+03  0.46999998093E+01 0.  1.
       -5    1    3    3    0  502  0.83137738753E+02 -0.21874432228E+03 -0.98113384570E+03  0.10086657897E+04  0.46999998093E+01 0. -1.
</event>
<event>
 5   0  0.2351435E-04  0.9018477E+03  0.7818609E-02  0.9423275E-01
       -1   -1    0    0    0  501  0.00000000000E+00  0.00000000000E+00  0.18337318001E+03  0.18337318008E+03  0.50400001928E-02 0.  1.
        1   -1    0    0  501    0  0.00000000000E+00  0.00000000000E+00 -0.11088443278E+04  0.11088443278E+04  0.50400001928E-02 0. -1.
    10030    2    1    2    0    0  0.00000000000E+00  0.00000000000E+00 -0.92547114783E+03  0.12922175079E+04  0.90184768245E+03 0.  0.
        4    1    3    3  502    0 -0.20073899284E+03  0.16059661147E+03 -0.99355642768E+03  0.10262764748E+04  0.12699999809E+01 0. -1.
       -4    1    3    3    0  502  0.20073899284E+03 -0.16059661147E+03  0.68085279856E+02  0.26594103312E+03  0.12699999809E+01 0.  1.
</event>
<event>
 5   0  0.2450427E-04  0.8995124E+03  0.7818609E-02  0.9426191E-01
        1   -1    0    0  501    0  0.00000000000E+00  0.00000000000E+00  0.82545845982E+03  0.82545845984E+03  0.50400001928E-02 0. -1.
       -1   -1    0    0    0  501  0.00000000000E+00  0.00000000000E+00 -0.24505249205E+03  0.24505249211E+03  0.50400001928E-02 0.  1.
    10030    2    1    2    0    0  0.00000000000E+00  0.00000000000E+00  0.58040596777E+03  0.10705109519E+04  0.89951242949E+03 0.  0.
        3    1    3    3  502    0  0.32990929724E+03 -0.26004699580E+02  0.65267482471E+03  0.73177921931E+03  0.10100000352E+00 0. -1.
       -3    1    3    3    0  502 -0.32990929724E+03  0.26004699580E+02 -0.72268856943E+02  0.33873173263E+03  0.10100000352E+00 0.  1.
</event>
<event>
 5   0  0.2450427E-04  0.8999707E+03  0.7818609E-02  0.9425618E-01
        1   -1    0    0  501    0  0.00000000000E+00  0.00000000000E+00  0.10818053826E+03  0.10818053838E+03  0.50400001928E-02 0.  1.
       -1   -1    0    0    0  501  0.00000000000E+00  0.00000000000E+00 -0.18717489770E+04  0.18717489770E+04  0.50400001928E-02 0. -1.
    10030    2    1    2    0    0  0.00000000000E+00  0.00000000000E+00 -0.17635684388E+04  0.19799295154E+04  0.89997069274E+03 0.  0.
        3    1    3    3  502    0  0.49497232918E+02  0.21291564357E+03 -0.17470943526E+04  0.17607162561E+04  0.10100000352E+00 0. -1.
       -3    1    3    3    0  502 -0.49497232918E+02 -0.21291564357E+03 -0.16474086154E+02  0.21921325932E+03  0.10100000352E+00 0.  1.
</event>
<event>
 5   0  0.4236284E-04  0.9013247E+03  0.7818609E-02  0.9423927E-01
       -2   -1    0    0    0  501  0.00000000000E+00  0.00000000000E+00  0.11512040459E+03  0.11512040462E+03  0.25500000920E-02 0. -1.
        2   -1    0    0  501    0  0.00000000000E+00  0.00000000000E+00 -0.17642098120E+04  0.17642098120E+04  0.25500000920E-02 0.  1.
    10030    2    1    2    0    0  0.00000000000E+00  0.00000000000E+00 -0.16490894074E+04  0.18793302166E+04  0.90132468595E+03 0.  0.
        2    1    3    3  502    0  0.31057475838E+03 -0.31183104172E+03 -0.62237547556E+03  0.76226406953E+03  0.25500000920E-02 0. -1.
       -2    1    3    3    0  502 -0.31057475838E+03  0.31183104172E+03 -0.10267139319E+04  0.11170661471E+04  0.25500000920E-02 0.  1.
</event>
<event>
 5   0  0.4236284E-04  0.8996902E+03  0.7818609E-02  0.9425969E-01
        2   -1    0    0  501    0  0.00000000000E+00  0.00000000000E+00  0.37163190987E+03  0.37163190988E+03  0.25500000920E-02 0. -1.
       -2   -1    0    0    0  501  0.00000000000E+00  0.00000000000E+00 -0.54451897281E+03  0.54451897281E+03  0.25500000920E-02 0.  1.
    10030    2    1    2    0    0  0.00000000000E+00  0.00000000000E+00 -0.17288706293E+03  0.91615088270E+03  0.89969022632E+03 0.  0.
        2    1    3    3  502    0 -0.41485487295E+03  0.10957833605E+03 -0.22400264063E+03  0.48403425535E+03  0.25500000920E-02 0.  1.
       -2    1    3    3    0  502  0.41485487295E+03 -0.10957833605E+03  0.51115577693E+02  0.43211662734E+03  0.25500000920E-02 0. -1.
</event>
<event>
 5   0  0.2351435E-04  0.8999552E+03  0.7818609E-02  0.9425637E-01
        1   -1    0    0  501    0  0.00000000000E+00  0.00000000000E+00  0.24038767755E+03  0.24038767760E+03  0.50400001928E-02 0.  1.
       -1   -1    0    0    0  501  0.00000000000E+00  0.00000000000E+00 -0.84230542754E+03  0.84230542756E+03  0.50400001928E-02 0. -1.
    10030    2    1    2    0    0  0.00000000000E+00  0.00000000000E+00 -0.60191774999E+03  0.10826931052E+04  0.89995521122E+03 0.  0.
        4    1    3    3  502    0 -0.36189372908E+03 -0.25616471536E+03 -0.20862275565E+03  0.49001275454E+03  0.12699999809E+01 0. -1.
       -4    1    3    3    0  502  0.36189372908E+03  0.25616471536E+03 -0.39329499434E+03  0.59268035062E+03  0.12699999809E+01 0.  1.
</event>
<event>
 5   0  0.2308362E-04  0.8998039E+03  0.7818609E-02  0.9425827E-01
        1   -1    0    0  501    0  0.00000000000E+00  0.00000000000E+00  0.51303315305E+03  0.51303315308E+03  0.50400001928E-02 0. -1.
       -1   -1    0    0    0  501  0.00000000000E+00  0.00000000000E+00 -0.39453938314E+03  0.39453938318E+03  0.50400001928E-02 0.  1.
    10030    2    1    2    0    0  0.00000000000E+00  0.00000000000E+00  0.11849376991E+03  0.90757253626E+03  0.89980394257E+03 0.  0.
        1    1    3    3  502    0  0.13913527201E+03  0.94416158518E+01 -0.37218903027E+03  0.39745747233E+03  0.50400001928E-02 0.  1.
       -1    1    3    3    0  502 -0.13913527201E+03 -0.94416158518E+01  0.49068280018E+03  0.51011506393E+03  0.50400001928E-02 0. -1.
</event>
<event>
 5   0  0.2308362E-04  0.8997717E+03  0.7818609E-02  0.9425867E-01
        1   -1    0    0  501    0  0.00000000000E+00  0.00000000000E+00  0.38515290018E+03  0.38515290021E+03  0.50400001928E-02 0.  1.
       -1   -1    0    0    0  501  0.00000000000E+00  0.00000000000E+00 -0.52549849457E+03  0.52549849460E+03  0.50400001928E-02 0. -1.
    10030    2    1    2    0    0  0.00000000000E+00  0.00000000000E+00 -0.14034559439E+03  0.91065139481E+03  0.89977168049E+03 0.  0.
        1    1    3    3  502    0 -0.33152080179E+03  0.30412295178E+03 -0.70857292014E+02  0.45543118874E+03  0.50400001928E-02 0. -1.
       -1    1    3    3    0  502  0.33152080179E+03 -0.30412295178E+03 -0.69488302377E+02  0.45522020607E+03  0.50400001928E-02 0.  1.
</event>
<event>
 5   0  0.1596250E-04  0.8996173E+03  0.7818609E-02  0.9426060E-01
       -3   -1    0    0    0  501  0.00000000000E+00  0.00000000000E+00  0.18476214871E+03  0.18476217631E+03  0.10100000352E+00 0.  1.
        3   -1    0    0  501    0  0.00000000000E+00  0.00000000000E+00 -0.10950716231E+04  0.10950716277E+04  0.10100000352E+00 0. -1.
    10030    2    1    2    0    0  0.00000000000E+00  0.00000000000E+00 -0.91030947437E+03  0.12798338040E+04  0.89961726687E+03 0.  0.
        5    1    3    3  502    0 -0.25657887506E+03 -0.36788546224E+03 -0.50304698530E+03  0.67398129935E+03  0.46999998093E+01 0. -1.
       -5    1    3    3    0  502  0.25657887506E+03  0.36788546224E+03 -0.40726248907E+03  0.60585250470E+03  0.46999998093E+01 0.  1.
</event>
<event>
 5   0  0.1596250E-04  0.8995274E+03  0.7818609E-02  0.9426172E-01
        3   -1    0    0  501    0  0.00000000000E+00  0.00000000000E+00  0.11089485430E+04  0.11089485476E+04  0.10100000352E+00 0. -1.
       -3   -1    0    0    0  501  0.00000000000E+00  0.00000000000E+00 -0.18241364904E+03  0.18241367700E+03  0.10100000352E+00 0.  1.
    10030    2    1    2    0    0  0.00000000000E+00  0.00000000000E+00  0.92653489392E+03  0.12913622246E+04  0.89952736776E+03 0.  0.
        4    1    3    3  502    0  0.33409340464E+03  0.26276939308E+03  0.67435252773E+03  0.79713179684E+03  0.12699999809E+01 0. -1.
       -4    1    3    3    0  502 -0.33409340464E+03 -0.26276939308E+03  0.25218236618E+03  0.49423042771E+03  0.12699999809E+01 0.  1.
</event>
<event>
 5   0  0.2356918E-04  0.8982594E+03  0.7818609E-02  0.9427760E-01
       -1   -1    0    0    0  501  0.00000000000E+00  0.00000000000E+00  0.21971762064E+03  0.21971762070E+03  0.50400001928E-02 0.  1.
        1   -1    0    0  501    0  0.00000000000E+00  0.00000000000E+00 -0.91807605782E+03  0.91807605783E+03  0.50400001928E-02 0. -1.
    10030    2    1    2    0    0  0.00000000000E+00  0.00000000000E+00 -0.69835843717E+03  0.11377936785E+04  0.89825939914E+03 0.  0.
        5    1    3    3  502    0  0.18180672088E+03  0.39189425239E+03 -0.50462645373E+03  0.66430771230E+03  0.46999998093E+01 0. -1.
       -5    1    3    3    0  502 -0.18180672088E+03 -0.39189425239E+03 -0.19373198344E+03  0.47348596623E+03  0.46999998093E+01 0.  1.
</event>
<event>
 5   0  0.4243516E-04  0.8997162E+03  0.7818609E-02  0.9425936E-01
        2   -1    0    0  501    0  0.00000000000E+00  0.00000000000E+00  0.42802250298E+03  0.42802250299E+03  0.25500000920E-02 0.  1.
       -2   -1    0    0    0  501  0.00000000000E+00  0.00000000000E+00 -0.47280766009E+03  0.47280766009E+03  0.25500000920E-02 0. -1.
    10030    2    1    2    0    0  0.00000000000E+00  0.00000000000E+00 -0.44785157106E+02  0.90083016308E+03  0.89971621772E+03 0.  0.
        1    1    3    3  502    0  0.17892274493E+03  0.18325688911E+03 -0.39268270557E+03  0.46882421369E+03  0.50400001928E-02 0. -1.
       -1    1    3    3    0  502 -0.17892274493E+03 -0.18325688911E+03  0.34789754846E+03  0.43200594940E+03  0.50400001928E-02 0.  1.
</event>
<event>
 5   0  0.4110039E-04  0.8999192E+03  0.7818609E-02  0.9425682E-01
       -2   -1    0    0    0  501  0.00000000000E+00  0.00000000000E+00  0.16658792096E+03  0.16658792098E+03  0.25500000920E-02 0. -1.
        2   -1    0    0  501    0  0.00000000000E+00  0.00000000000E+00 -0.12153560880E+04  0.12153560880E+04  0.25500000920E-02 0.  1.
    10030    2    1    2    0    0  0.00000000000E+00  0.00000000000E+00 -0.10487681670E+04  0.13819440089E+04  0.89991920511E+03 0.  0.
        3    1    3    3  502    0  0.33718729207E+03 -0.16662626082E+03 -0.14509855544E+03  0.40312923699E+03  0.10100000352E+00 0.  1.
       -3    1    3    3    0  502 -0.33718729207E+03  0.16662626082E+03 -0.90366961156E+03  0.97881477195E+03  0.10100000352E+00 0. -1.
</event>
<event>
 5   0  0.4243516E-04  0.9013498E+03  0.7818609E-02  0.9423896E-01
        2   -1    0    0  501    0  0.00000000000E+00  0.00000000000E+00  0.14366028607E+04  0.14366028607E+04  0.25500000920E-02 0.  1.
       -2   -1    0    0    0  501  0.00000000000E+00  0.00000000000E+00 -0.14138065641E+03  0.14138065643E+03  0.25500000920E-02 0. -1.
    10030    2    1    2    0    0  0.00000000000E+00  0.00000000000E+00  0.12952222043E+04  0.15779835171E+04  0.90134977774E+03 0.  0.
        1    1    3    3  502    0  0.14648895573E+03  0.40166427323E+03  0.39808624848E+03  0.58417965027E+03  0.50400001928E-02 0. -1.
       -1    1    3    3    0  502 -0.14648895573E+03 -0.40166427323E+03  0.89713595580E+03  0.99380386684E+03  0.50400001928E-02 0.  1.
</event>
<event>
 5   0  0.1596250E-04  0.9003057E+03  0.7818609E-02  0.9425199E-01
        3   -1    0    0  501    0  0.00000000000E+00  0.00000000000E+00  0.12265091552E+03  0.12265095711E+03  0.10100000352E+00 0.  1.
       -3   -1    0    0    0  501  0.00000000000E+00  0.00000000000E+00 -0.16521486995E+04  0.16521487026E+04  0.10100000352E+00 0. -1.
    10030    2    1    2    0    0  0.00000000000E+00  0.00000000000E+00 -0.15294977840E+04  0.17747996597E+04  0.90030570411E+03 0.  0.
        3    1    3    3  502    0  0.18749696934E+03 -0.99617008847E+02  0.17744772554E+02  0.21305761924E+03  0.10100000352E+00 0.  1.
       -3    1    3    3    0  502 -0.18749696934E+03  0.99617008847E+02 -0.15472425565E+04  0.15617420405E+04  0.10100000352E+00 0. -1.
</event>
<event>
 5   0  0.4110039E-04  0.9005748E+03  0.7818609E-02  0.9424863E-01
        2   -1    0    0  501    0  0.00000000000E+00  0.00000000000E+00  0.52391223228E+03  0.52391223229E+03  0.25500000920E-02 0.  1.
       -2   -1    0    0    0  501  0.00000000000E+00  0.00000000000E+00 -0.38700901549E+03  0.38700901550E+03  0.25500000920E-02 0. -1.
    10030    2    1    2    0    0  0.00000000000E+00  0.00000000000E+00  0.13690321679E+03  0.91092124779E+03  0.90057483248E+03 0.  0.
        3    1    3    3  502    0 -0.14858890805E+03 -0.41136538517E+03  0.17672627839E+03  0.47173332656E+03  0.10100000352E+00 0. -1.
       -3    1    3    3    0  502  0.14858890805E+03  0.41136538517E+03 -0.39823061604E+02  0.43918792123E+03  0.10100000352E+00 0.  1.
</event>
<event>
 5   0  0.3959804E-04  0.9000029E+03  0.7818609E-02  0.9425578E-01
       -2   -1    0    0    0  501  0.00000000000E+00  0.00000000000E+00  0.10821153516E+03  0.10821153519E+03  0.25500000920E-02 0. -1.
        2   -1    0    0  501    0  0.00000000000E+00  0.00000000000E+00 -0.18713467347E+04  0.18713467347E+04  0.25500000920E-02 0.  1.
    10030    2    1    2    0    0  0.00000000000E+00  0.00000000000E+00 -0.17631351995E+04  0.19795582699E+04  0.90000289558E+03 0.  0.
        5    1    3    3  502    0  0.74896631042E+02 -0.30019775292E+03 -0.16002059565E+04  0.16298494990E+04  0.46999998093E+01 0.  1.
       -5    1    3    3    0  502 -0.74896631042E+02  0.30019775292E+03 -0.16292924304E+03  0.34970877089E+03  0.46999998093E+01 0. -1.
</event>
<event>
 5   0  0.1596250E-04  0.8998669E+03  0.7818609E-02  0.9425748E-01
       -4   -1    0    0    0  501  0.00000000000E+00  0.00000000000E+00  0.82265871370E+03  0.82265969399E+03  0.12699999809E+01 0.  1.
        4   -1    0    0  501    0  0.00000000000E+00  0.00000000000E+00 -0.24607752926E+03  0.24608080645E+03  0.12699999809E+01 0. -1.
    10030    2    1    2    0    0  0.00000000000E+00  0.00000000000E+00  0.57658118444E+03  0.10687405004E+04  0.89986687629E+03 0.  0.
        4    1    3    3  502    0 -0.33870810525E+03  0.29609681795E+03  0.29598568202E+03  0.53852172010E+03  0.12699999809E+01 0. -1.
       -4    1    3    3    0  502  0.33870810525E+03 -0.29609681795E+03  0.28059550242E+03  0.53021878035E+03  0.12699999809E+01 0.  1.
</event>
<event>
 5   0  0.2308362E-04  0.9000047E+03  0.7818609E-02  0.9425576E-01
        1   -1    0    0  501    0  0.00000000000E+00  0.00000000000E+00  0.19563813972E+04  0.19563813972E+04  0.50400001928E-02 0. -1.
       -1   -1    0    0    0  501  0.00000000000E+00  0.00000000000E+00 -0.10350850671E+03  0.10350850683E+03  0.50400001928E-02 0.  1.
    10030    2    1    2    0    0  0.00000000000E+00  0.00000000000E+00  0.18528728905E+04  0.20598899040E+04  0.90000470468E+03 0.  0.
        1    1    3    3  502    0  0.37556886958E+03  0.18676197355E+03  0.55336167762E+03  0.69436385048E+03  0.50400001928E-02 0. -1.
       -1    1    3    3    0  502 -0.37556886958E+03 -0.18676197355E+03  0.12995112128E+04  0.13655260535E+04  0.50400001928E-02 0.  1.
</event>
<event>
 5   0  0.4243516E-04  0.8995567E+03  0.7818609E-02  0.9426136E-01
        2   -1    0    0  501    0  0.00000000000E+00  0.00000000000E+00  0.31222075954E+03  0.31222075955E+03  0.25500000920E-02 0. -1.
       -2   -1    0    0    0  501  0.00000000000E+00  0.00000000000E+00 -0.64794083427E+03  0.64794083427E+03  0.25500000920E-02 0.  1.
    10030    2    1    2    0    0  0.00000000000E+00  0.00000000000E+00 -0.33572007473E+03  0.96016159382E+03  0.89955673399E+03 0.  0.
        1    1    3    3  502    0 -0.24646015030E+03  0.37227678925E+03 -0.10971063919E+03  0.45974888567E+03  0.50400001928E-02 0.  1.
       -1    1    3    3    0  502  0.24646015030E+03 -0.37227678925E+03 -0.22600943554E+03  0.50041270815E+03  0.50400001928E-02 0. -1.
</event>
<event>
 5   0  0.2450427E-04  0.8998570E+03  0.7818609E-02  0.9425760E-01
        1   -1    0    0  501    0  0.00000000000E+00  0.00000000000E+00  0.12060406525E+03  0.12060406536E+03  0.50400001928E-02 0. -1.
       -1   -1    0    0    0  501  0.00000000000E+00  0.00000000000E+00 -0.16785142532E+04  0.16785142532E+04  0.50400001928E-02 0.  1.
    10030    2    1    2    0    0  0.00000000000E+00  0.00000000000E+00 -0.15579101879E+04  0.17991183185E+04  0.89985697223E+03 0.  0.
        3    1    3    3  502    0  0.36885124152E+03 -0.84799639370E+02 -0.29252219676E+03  0.47834241188E+03  0.10100000352E+00 0. -1.
       -3    1    3    3    0  502 -0.36885124152E+03  0.84799639370E+02 -0.12653879912E+04  0.13207759067E+04  0.10100000352E+00 0.  1.
</event>
<event>
 5   0  0.2332791E-04  0.9000518E+03  0.7818609E-02  0.9425517E-01
        1   -1    0    0  501    0  0.00000000000E+00  0.00000000000E+00  0.11070489086E+04  0.11070489086E+04  0.50400001928E-02 0. -1.
       -1   -1    0    0    0  501  0.00000000000E+00  0.00000000000E+00 -0.18293980374E+03  0.18293980381E+03  0.50400001928E-02 0.  1.
    10030    2    1    2    0    0  0.00000000000E+00  0.00000000000E+00  0.92410910486E+03  0.12899887124E+04  0.90005179878E+03 0.  0.
        2    1    3    3  502    0 -0.17229280200E+03  0.96926978441E+02 -0.11737740906E+03  0.22990673094E+03  0.25500000920E-02 0.  1.
       -2    1    3    3    0  502  0.17229280200E+03 -0.96926978441E+02  0.10414865139E+04  0.10600819815E+04  0.25500000920E-02 0. -1.
</event>
<event>
 5   0  0.2351435E-04  0.9004100E+03  0.7818609E-02  0.9425069E-01
       -1   -1    0    0    0  501  0.00000000000E+00  0.00000000000E+00  0.10941802165E+03  0.10941802177E+03  0.50400001928E-02 0. -1.
        1   -1    0    0  501    0  0.00000000000E+00  0.00000000000E+00 -0.18523873233E+04  0.18523873233E+04  0.50400001928E-02 0.  1.
    10030    2    1    2    0    0  0.00000000000E+00  0.00000000000E+00 -0.17429693016E+04  0.19618053450E+04  0.90041003185E+03 0.  0.
        4    1    3    3  502    0  0.39353138410E+03  0.40276988499E+02 -0.40320290046E+03  0.56485695349E+03  0.12699999809E+01 0. -1.
       -4    1    3    3    0  502 -0.39353138410E+03 -0.40276988499E+02 -0.13397664012E+04  0.13969483916E+04  0.12699999809E+01 0.  1.
</event>
<event>
 5   0  0.4033144E-04  0.9000023E+03  0.7818609E-02  0.9425579E-01
        2   -1    0    0  501    0  0.00000000000E+00  0.00000000000E+00  0.22920840160E+04  0.22920840160E+04  0.25500000920E-02 0. -1.
       -2   -1    0    0    0  501  0.00000000000E+00  0.00000000000E+00 -0.88348002469E+02  0.88348002505E+02  0.25500000920E-02 0.  1.
    10030    2    1    2    0    0  0.00000000000E+00  0.00000000000E+00  0.22037360135E+04  0.23804320185E+04  0.90000232077E+03 0.  0.
        4    1    3    3  502    0 -0.30232166383E+02 -0.50247674202E+02 -0.78194001934E+02  0.97748286355E+02  0.12699999809E+01 0.  1.
       -4    1    3    3    0  502  0.30232166383E+02  0.50247674202E+02  0.22819300154E+04  0.22826837321E+04  0.12699999809E+01 0. -1.
</event>
<event>
 5   0  0.2356918E-04  0.8995605E+03  0.7818609E-02  0.9426131E-01
       -1   -1    0    0    0  501  0.00000000000E+00  0.00000000000E+00  0.23764259205E+03  0.23764259210E+03  0.50400001928E-02 0. -1.
        1   -1    0    0  501    0  0.00000000000E+00  0.00000000000E+00 -0.85128790502E+03  0.85128790504E+03  0.50400001928E-02 0.  1.
    10030    2    1    2    0    0  0.00000000000E+00  0.00000000000E+00 -0.61364531297E+03  0.10889304971E+04  0.89956048016E+03 0.  0.
        5    1    3    3  502    0  0.28161596622E+03 -0.34061060251E+03 -0.40779025450E+03  0.60136354781E+03  0.46999998093E+01 0. -1.
       -5    1    3    3    0  502 -0.28161596622E+03  0.34061060251E+03 -0.20585505848E+03  0.48756694933E+03  0.46999998093E+01 0.  1.
</event>
<event>
 5   0  0.2450427E-04  0.8997832E+03  0.7818609E-02  0.9425852E-01
        1   -1    0    0  501    0  0.00000000000E+00  0.00000000000E+00  0.13585073260E+04  0.13585073260E+04  0.50400001928E-02 0.  1.
       -1   -1    0    0    0  501  0.00000000000E+00  0.00000000000E+00 -0.14898886389E+03  0.14898886398E+03  0.50400001928E-02 0. -1.
    10030    2    1    2    0    0  0.00000000000E+00  0.00000000000E+00  0.12095184621E+04  0.15074961900E+04  0.89978322536E+03 0.  0.
        3    1    3    3  502    0 -0.30674488223E+03  0.13558525854E+03  0.11071742129E+04  0.11568537216E+04  0.10100000352E+00 0.  1.
       -3    1    3    3    0  502  0.30674488223E+03 -0.13558525854E+03  0.10234424915E+03  0.35064246840E+03  0.10100000352E+00 0. -1.
</event>
<event>
 5   0  0.2356918E-04  0.8997063E+03  0.7818609E-02  0.9425949E-01
        1   -1    0    0  501    0  0.00000000000E+00  0.00000000000E+00  0.58276546497E+03  0.58276546499E+03  0.50400001928E-02 0.  1.
       -1   -1    0    0    0  501  0.00000000000E+00  0.00000000000E+00 -0.34725434546E+03  0.34725434550E+03  0.50400001928E-02 0. -1.
    10030    2    1    2    0    0  0.00000000000E+00  0.00000000000E+00  0.23551111951E+03  0.93001981049E+03  0.89970626345E+03 0.  0.
        5    1    3    3  502    0 -0.32462634662E+02  0.36907252652E+03  0.38145338287E+03  0.53178672960E+03  0.46999998093E+01 0. -1.
       -5    1    3    3    0  502  0.32462634662E+02 -0.36907252652E+03 -0.14594226335E+03  0.39823308089E+03  0.46999998093E+01 0.  1.
</event>
<event>
 5   0  0.3959804E-04  0.8998392E+03  0.7818609E-02  0.9425782E-01
        2   -1    0    0  501    0  0.00000000000E+00  0.00000000000E+00  0.11670853955E+04  0.11670853955E+04  0.25500000920E-02 0.  1.
       -2   -1    0    0    0  501  0.00000000000E+00  0.00000000000E+00 -0.17344716528E+03  0.17344716530E+03  0.25500000920E-02 0. -1.
    10030    2    1    2    0    0  0.00000000000E+00  0.00000000000E+00  0.99363823019E+03  0.13405325608E+04  0.89983921565E+03 0.  0.
        5    1    3    3  502    0 -0.11002436766E+03  0.43616584541E+03  0.48532223383E+03  0.66174448757E+03  0.46999998093E+01 0. -1.
       -5    1    3    3    0  502  0.11002436766E+03 -0.43616584541E+03  0.50831599636E+03  0.67878807321E+03  0.46999998093E+01 0.  1.
</event>
<event>
 5   0  0.4243516E-04  0.9010306E+03  0.7818609E-02  0.9424294E-01
       -2   -1    0    0    0  501  0.00000000000E+00  0.00000000000E+00  0.20078772862E+03  0.20078772864E+03  0.25500000920E-02 0.  1.
        2   -1    0    0  501    0  0.00000000000E+00  0.00000000000E+00 -0.10108389350E+04  0.10108389350E+04  0.25500000920E-02 0. -1.
    10030    2    1    2    0    0  0.00000000000E+00  0.00000000000E+00 -0.81005120638E+03  0.12116266636E+04  0.90103064049E+03 0.  0.
        1    1    3    3  502    0 -0.30135071193E+03  0.19504956054E+03 -0.38958873980E+02  0.36107392115E+03  0.50400001928E-02 0.  1.
       -1    1    3    3    0  502  0.30135071193E+03 -0.19504956054E+03 -0.77109233240E+03  0.85055274249E+03  0.50400001928E-02 0. -1.
</event>
<event>
 5   0  0.2332791E-04  0.8999449E+03  0.7818609E-02  0.9425650E-01
       -1   -1    0    0    0  501  0.00000000000E+00  0.00000000000E+00  0.33417479167E+03  0.33417479171E+03  0.50400001928E-02 0.  1.
        1   -1    0    0  501    0  0.00000000000E+00  0.00000000000E+00 -0.60589606594E+03  0.60589606597E+03  0.50400001928E-02 0. -1.
    10030    2    1    2    0    0  0.00000000000E+00  0.00000000000E+00 -0.27172127428E+03  0.94007085767E+03  0.89994486862E+03 0.  0.
        2    1    3    3  502    0  0.30418518830E+03 -0.13887106674E+03  0.17866486947E+03  0.37912390791E+03  0.25500000920E-02 0.  1.
       -2    1    3    3    0  502 -0.30418518830E+03  0.13887106674E+03 -0.45038614375E+03  0.56094694976E+03  0.25500000920E-02 0. -1.
</event>
<event>
 5   0  0.1596250E-04  0.8998304E+03  0.7818609E-02  0.9425793E-01
       -4   -1    0    0    0  501  0.00000000000E+00  0.00000000000E+00  0.56908259411E+03  0.56908401121E+03  0.12699999809E+01 0.  1.
        4   -1    0    0  501    0  0.00000000000E+00  0.00000000000E+00 -0.35569877958E+03  0.35570104680E+03  0.12699999809E+01 0. -1.
    10030    2    1    2    0    0  0.00000000000E+00  0.00000000000E+00  0.21338381453E+03  0.92478505801E+03  0.89983040137E+03 0.  0.
        4    1    3    3  502    0  0.50953435359E+02  0.35332398695E+03 -0.17474171280E+03  0.39745486715E+03  0.12699999809E+01 0. -1.
       -4    1    3    3    0  502 -0.50953435359E+02 -0.35332398695E+03  0.38812552733E+03  0.52733019086E+03  0.12699999809E+01 0.  1.
</event>
<event>
 5   0  0.4243516E-04  0.8999167E+03  0.7818609E-02  0.9425686E-01
        2   -1    0    0  501    0  0.00000000000E+00  0.00000000000E+00  0.68257086626E+03  0.68257086626E+03  0.25500000920E-02 0.  1.
       -2   -1    0    0    0  501  0.00000000000E+00  0.00000000000E+00 -0.29661758505E+03  0.29661758506E+03  0.25500000920E-02 0. -1.
    10030    2    1    2    0    0  0.00000000000E+00  0.00000000000E+00  0.38595328121E+03  0.97918845132E+03  0.89991671167E+03 0.  0.
        1    1    3    3  502    0 -0.10607833319E+03  0.17271423309E+03 -0.24413102380E+03  0.31730549300E+03  0.50400001928E-02 0. -1.
       -1    1    3    3    0  502  0.10607833319E+03 -0.17271423309E+03  0.63008430500E+03  0.66188295832E+03  0.50400001928E-02 0.  1.
</event>
<event>
 5   0  0.1596250E-04  0.8991780E+03  0.7818609E-02  0.9426610E-01
       -3   -1    0    0    0  501  0.00000000000E+00  0.00000000000E+00  0.19557546927E+03  0.19557549534E+03  0.10100000352E+00 0. -1.
        3   -1    0    0  501    0  0.00000000000E+00  0.00000000000E+00 -0.10335152464E+04  0.10335152514E+04  0.10100000352E+00 0.  1.
    10030    2    1    2    0    0  0.00000000000E+00  0.00000000000E+00 -0.83793977716E+03  0.12290907467E+04  0.89917795429E+03 0.  0.
        2    1    3    3  502    0  0.40823994976E+03  0.79935149877E+02 -0.65206931322E+03  0.77346226412E+03  0.25500000920E-02 0.  1.
       -2    1    3    3    0  502 -0.40823994976E+03 -0.79935149877E+02 -0.18587046394E+03  0.45562848258E+03  0.25500000920E-02 0. -1.
</event>
<event>
 5   0  0.4243516E-04  0.9000879E+03  0.7818609E-02  0.9425472E-01
       -2   -1    0    0    0  501  0.00000000000E+00  0.00000000000E+00  0.28297676711E+03  0.28297676712E+03  0.25500000920E-02 0.  1.
        2   -1    0    0  501    0  0.00000000000E+00  0.00000000000E+00 -0.71574628252E+03  0.71574628253E+03  0.25500000920E-02 0. -1.
    10030    2    1    2    0    0  0.00000000000E+00  0.00000000000E+00 -0.43276951542E+03  0.99872304965E+03  0.90008792705E+03 0.  0.
        1    1    3    3  502    0  0.29529880581E+03  0.17848328275E+03  0.10420991732E+03  0.36044052745E+03  0.50400001928E-02 0.  1.
       -1    1    3    3    0  502 -0.29529880581E+03 -0.17848328275E+03 -0.53697943274E+03  0.63828252220E+03  0.50400001928E-02 0. -1.
</event>
<event>
 5   0  0.4110039E-04  0.8999312E+03  0.7818609E-02  0.9425667E-01
        2   -1    0    0  501    0  0.00000000000E+00  0.00000000000E+00  0.16479923859E+04  0.16479923859E+04  0.25500000920E-02 0. -1.
       -2   -1    0    0    0  501  0.00000000000E+00  0.00000000000E+00 -0.12285799218E+03  0.12285799220E+03  0.25500000920E-02 0.  1.
    10030    2    1    2    0    0  0.00000000000E+00  0.00000000000E+00  0.15251343937E+04  0.17708503781E+04  0.89993118777E+03 0.  0.
        3    1    3    3  502    0  0.15000222613E+03 -0.36796789527E+03  0.34715038477E+03  0.52764992148E+03  0.10100000352E+00 0.  1.
       -3    1    3    3    0  502 -0.15000222613E+03  0.36796789527E+03  0.11779840090E+04  0.12432004566E+04  0.10100000352E+00 0. -1.
</event>
<event>
 5   0  0.2351435E-04  0.8997519E+03  0.7818609E-02  0.9425892E-01
       -1   -1    0    0    0  501  0.00000000000E+00  0.00000000000E+00  0.22210423018E+03  0.22210423024E+03  0.50400001928E-02 0. -1.
        1   -1    0    0  501    0  0.00000000000E+00  0.00000000000E+00 -0.91123153939E+03  0.91123153940E+03  0.50400001928E-02 0.  1.
    10030    2    1    2    0    0  0.00000000000E+00  0.00000000000E+00 -0.68912730920E+03  0.11333357696E+04  0.89975192051E+03 0.  0.
        4    1    3    3  502    0 -0.29845231333E+03  0.12670246723E+03  0.48263733010E+02  0.32780832717E+03  0.12699999809E+01 0. -1.
       -4    1    3    3    0  502  0.29845231333E+03 -0.12670246723E+03 -0.73739104222E+03  0.80552744247E+03  0.12699999809E+01 0.  1.
</event>
<event>
 5   0  0.2351435E-04  0.8997776E+03  0.7818609E-02  0.9425860E-01
       -1   -1    0    0    0  501  0.00000000000E+00  0.00000000000E+00  0.30377402291E+03  0.30377402295E+03  0.50400001928E-02 0. -1.
        1   -1    0    0  501    0  0.00000000000E+00  0.00000000000E+00 -0.66628447788E+03  0.66628447790E+03  0.50400001928E-02 0.  1.
    10030    2    1    2    0    0  0.00000000000E+00  0.00000000000E+00 -0.36251045497E+03  0.97005850085E+03  0.89977756424E+03 0.  0.
        4    1    3    3  502    0  0.30970913042E+03  0.32365393745E+03 -0.13645610208E+03  0.46828783605E+03  0.12699999809E+01 0.  1.
       -4    1    3    3    0  502 -0.30970913042E+03 -0.32365393745E+03 -0.22605435290E+03  0.50177066480E+03  0.12699999809E+01 0. -1.
</event>
<event>
 5   0  0.2308362E-04  0.9013836E+03  0.7818609E-02  0.9423854E-01
        1   -1    0    0  501    0  0.00000000000E+00  0.00000000000E+00  0.16632326125E+04  0.16632326125E+04  0.50400001928E-02 0. -1.
       -1   -1    0    0    0  501  0.00000000000E+00  0.00000000000E+00 -0.12212549122E+03  0.12212549132E+03  0.50400001928E-02 0.  1.
    10030    2    1    2    0    0  0.00000000000E+00  0.00000000000E+00  0.15411071213E+04  0.17853581039E+04  0.90138360294E+03 0.  0.
        1    1    3    3  502    0  0.33205709785E+03  0.30361551204E+03  0.82215811612E+03  0.93722369972E+03  0.50400001928E-02 0.  1.
       -1    1    3    3    0  502 -0.33205709785E+03 -0.30361551204E+03  0.71894900518E+03  0.84813440413E+03  0.50400001928E-02 0. -1.
</event>
<event>
 5   0  0.3959804E-04  0.9003386E+03  0.7818609E-02  0.9425158E-01
       -2   -1    0    0    0  501  0.00000000000E+00  0.00000000000E+00  0.70671541852E+02  0.70671541898E+02  0.25500000920E-02 0.  1.
        2   -1    0    0  501    0  0.00000000000E+00  0.00000000000E+00 -0.28675246881E+04  0.28675246881E+04  0.25500000920E-02 0. -1.
    10030    2    1    2    0    0  0.00000000000E+00  0.00000000000E+00 -0.27968531462E+04  0.29381962300E+04  0.90033858314E+03 0.  0.
        5    1    3    3  502    0 -0.78032018501E+02  0.40959237145E+03 -0.84483996196E+03  0.94214200521E+03  0.46999998093E+01 0. -1.
       -5    1    3    3    0  502  0.78032018501E+02 -0.40959237145E+03 -0.19520131843E+04  0.19960542248E+04  0.46999998093E+01 0.  1.
</event>
<event>
 5   0  0.2308362E-04  0.8999635E+03  0.7818609E-02  0.9425627E-01
       -1   -1    0    0    0  501  0.00000000000E+00  0.00000000000E+00  0.25174925152E+03  0.25174925157E+03  0.50400001928E-02 0. -1.
        1   -1    0    0  501    0  0.00000000000E+00  0.00000000000E+00 -0.80430651750E+03  0.80430651752E+03  0.50400001928E-02 0.  1.
    10030    2    1    2    0    0  0.00000000000E+00  0.00000000000E+00 -0.55255726598E+03  0.10560557691E+04  0.89996347438E+03 0.  0.
        1    1    3    3  502    0  0.88003107460E+02  0.18997924895E+03 -0.74366685847E+03  0.77257818916E+03  0.50400001928E-02 0.  1.
       -1    1    3    3    0  502 -0.88003107460E+02 -0.18997924895E+03  0.19110959249E+03  0.28347757992E+03  0.50400001928E-02 0. -1.
</event>
<event>
 5   0  0.1596250E-04  0.8999305E+03  0.7818609E-02  0.9425668E-01
       -3   -1    0    0    0  501  0.00000000000E+00  0.00000000000E+00  0.20696157913E+03  0.20696160377E+03  0.10100000352E+00 0. -1.
        3   -1    0    0  501    0  0.00000000000E+00  0.00000000000E+00 -0.97829125823E+03  0.97829126345E+03  0.10100000352E+00 0.  1.
    10030    2    1    2    0    0  0.00000000000E+00  0.00000000000E+00 -0.77132967910E+03  0.11852528672E+04  0.89993048920E+03 0.  0.
        4    1    3    3  502    0  0.12677433268E+03 -0.36503460906E+03 -0.68928716971E+03  0.79021542155E+03  0.12699999809E+01 0.  1.
       -4    1    3    3    0  502 -0.12677433268E+03  0.36503460906E+03 -0.82042509397E+02  0.39503744567E+03  0.12699999809E+01 0. -1.
</event>
<event>
 5   0  0.3959804E-04  0.8998747E+03  0.7818609E-02  0.9425738E-01
       -2   -1    0    0    0  501  0.00000000000E+00  0.00000000000E+00  0.11242328839E+03  0.11242328842E+03  0.25500000920E-02 0.  1.
        2   -1    0    0  501    0  0.00000000000E+00  0.00000000000E+00 -0.18007266576E+04  0.18007266576E+04  0.25500000920E-02 0. -1.
    10030    2    1    2    0    0  0.00000000000E+00  0.00000000000E+00 -0.16883033692E+04  0.19131499460E+04  0.89987468544E+03 0.  0.
        5    1    3    3  502    0 -0.31816761636E+02 -0.16808182137E+03  0.40531761906E+02  0.17586562687E+03  0.46999998093E+01 0.  1.
       -5    1    3    3    0  502  0.31816761636E+02  0.16808182137E+03 -0.17288351311E+04  0.17372843191E+04  0.46999998093E+01 0. -1.
</event>
<event>
 5   0  0.4243516E-04  0.9004284E+03  0.7818609E-02  0.9425046E-01
       -2   -1    0    0    0  501  0.00000000000E+00  0.00000000000E+00  0.19977947185E+03  0.19977947187E+03  0.25500000920E-02 0. -1.
        2   -1    0    0  501    0  0.00000000000E+00  0.00000000000E+00 -0.10145829078E+04  0.10145829078E+04  0.25500000920E-02 0.  1.
    10030    2    1    2    0    0  0.00000000000E+00  0.00000000000E+00 -0.81480343590E+03  0.12143623796E+04  0.90042842575E+03 0.  0.
        1    1    3    3  502    0  0.11048566988E+02  0.34567182940E+03 -0.79613518641E+03  0.86801055267E+03  0.50400001928E-02 0.  1.
       -1    1    3    3    0  502 -0.11048566988E+02 -0.34567182940E+03 -0.18668249485E+02  0.34635182696E+03  0.50400001928E-02 0. -1.
</event>
<event>
 5   0  0.4033144E-04  0.8994819E+03  0.7818609E-02  0.9426229E-01
        2   -1    0    0  501    0  0.00000000000E+00  0.00000000000E+00  0.89172603132E+03  0.89172603133E+03  0.25500000920E-02 0. -1.
       -2   -1    0    0    0  501  0.00000000000E+00  0.00000000000E+00 -0.22682629471E+03  0.22682629473E+03  0.25500000920E-02 0.  1.
    10030    2    1    2    0    0  0.00000000000E+00  0.00000000000E+00  0.66489973661E+03  0.11185523261E+04  0.89948187663E+03 0.  0.
        4    1    3    3  502    0  0.28714481351E+03  0.71106234362E+02  0.75371313508E+03  0.80968718860E+03  0.12699999809E+01 0. -1.
       -4    1    3    3    0  502 -0.28714481351E+03 -0.71106234362E+02 -0.88813398465E+02  0.30886513746E+03  0.12699999809E+01 0.  1.
</event>
<event>
 5   0  0.3959804E-04  0.9002261E+03  0.7818609E-02  0.9425299E-01
       -2   -1    0    0    0  501  0.00000000000E+00  0.00000000000E+00  0.13460072858E+03  0.13460072861E+03  0.25500000920E-02 0. -1.
        2   -1    0    0  501    0  0.00000000000E+00  0.00000000000E+00 -0.15052056045E+04  0.15052056045E+04  0.25500000920E-02 0.  1.
    10030    2    1    2    0    0  0.00000000000E+00  0.00000000000E+00 -0.13706048759E+04  0.16398063331E+04  0.90022612948E+03 0.  0.
        5    1    3    3  502    0  0.31129375408E+03  0.13540398802E+03 -0.14696867873E+03  0.36994583905E+03  0.46999998093E+01 0. -1.
       -5    1    3    3    0  502 -0.31129375408E+03 -0.13540398802E+03 -0.12236361972E+04  0.12698604940E+04  0.46999998093E+01 0.  1.
</event>
<event>
 5   0  0.2351435E-04  0.9001909E+03  0.7818609E-02  0.9425343E-01
        1   -1    0    0  501    0  0.00000000000E+00  0.00000000000E+00  0.28560606712E+03  0.28560606717E+03  0.50400001928E-02 0.  1.
       -1   -1    0    0    0  501  0.00000000000E+00  0.00000000000E+00 -0.70931943366E+03  0.70931943367E+03  0.50400001928E-02 0. -1.
    10030    2    1    2    0    0  0.00000000000E+00  0.00000000000E+00 -0.42371336654E+03  0.99492550084E+03  0.90019094377E+03 0.  0.
        4    1    3    3  502    0  0.37715015980E+03  0.17753225538E+03 -0.39950120138E+03  0.57737575940E+03  0.12699999809E+01 0. -1.
       -4    1    3    3    0  502 -0.37715015980E+03 -0.17753225538E+03 -0.24212165150E+02  0.41754974144E+03  0.12699999809E+01 0.  1.
</event>
<event>
 5   0  0.4243516E-04  0.9002284E+03  0.7818609E-02  0.9425296E-01
       -2   -1    0    0    0  501  0.00000000000E+00  0.00000000000E+00  0.13463587019E+03  0.13463587022E+03  0.25500000920E-02 0.  1.
        2   -1    0    0  501    0  0.00000000000E+00  0.00000000000E+00 -0.15048204275E+04  0.15048204275E+04  0.25500000920E-02 0. -1.
    10030    2    1    2    0    0  0.00000000000E+00  0.00000000000E+00 -0.13701845573E+04  0.16394562978E+04  0.90022843271E+03 0.  0.
        1    1    3    3  502    0  0.44293464183E+03 -0.55966813210E+02 -0.58080145960E+03  0.73256652709E+03  0.50400001928E-02 0.  1.
       -1    1    3    3    0  502 -0.44293464183E+03  0.55966813210E+02 -0.78938309774E+03  0.90688977067E+03  0.50400001928E-02 0. -1.
</event>
<event>
 5   0  0.2351435E-04  0.8998128E+03  0.7818609E-02  0.9425815E-01
       -1   -1    0    0    0  501  0.00000000000E+00  0.00000000000E+00  0.14993554259E+03  0.14993554267E+03  0.50400001928E-02 0.  1.
        1   -1    0    0  501    0  0.00000000000E+00  0.00000000000E+00 -0.13500185943E+04  0.13500185943E+04  0.50400001928E-02 0. -1.
    10030    2    1    2    0    0  0.00000000000E+00  0.00000000000E+00 -0.12000830517E+04  0.14999541370E+04  0.89981280390E+03 0.  0.
        4    1    3    3  502    0 -0.98128525901E+02  0.20747374264E+03 -0.12450926556E+04  0.12660694671E+04  0.12699999809E+01 0. -1.
       -4    1    3    3    0  502  0.98128525901E+02 -0.20747374264E+03  0.45009603897E+02  0.23388466992E+03  0.12699999809E+01 0.  1.
</event>
<event>
 5   0  0.2332791E-04  0.8991940E+03  0.7818609E-02  0.9426590E-01
        1   -1    0    0  501    0  0.00000000000E+00  0.00000000000E+00  0.64023864637E+03  0.64023864639E+03  0.50400001928E-02 0. -1.
       -1   -1    0    0    0  501  0.00000000000E+00  0.00000000000E+00 -0.31572205719E+03  0.31572205723E+03  0.50400001928E-02 0.  1.
    10030    2    1    2    0    0  0.00000000000E+00  0.00000000000E+00  0.32451658918E+03  0.95596070362E+03  0.89919400032E+03 0.  0.
        2    1    3    3  502    0 -0.13507067011E+03 -0.25201728065E+03 -0.20660463582E+03  0.35276376121E+03  0.25500000920E-02 0.  1.
       -2    1    3    3    0  502  0.13507067011E+03  0.25201728065E+03  0.53112122500E+03  0.60319694241E+03  0.25500000920E-02 0. -1.
</event>
<event>
 5   0  0.1596250E-04  0.9004023E+03  0.7818609E-02  0.9425079E-01
        4   -1    0    0  501    0  0.00000000000E+00  0.00000000000E+00  0.23381718073E+03  0.23382062977E+03  0.12699999809E+01 0. -1.
       -4   -1    0    0    0  501  0.00000000000E+00  0.00000000000E+00 -0.86682539434E+03  0.86682632469E+03  0.12699999809E+01 0.  1.
    10030    2    1    2    0    0  0.00000000000E+00  0.00000000000E+00 -0.63300821361E+03  0.11006469545E+04  0.90040231000E+03 0.  0.
        3    1    3    3  502    0  0.22783602514E+03  0.38268953161E+02  0.15583288625E+03  0.27867125034E+03  0.10100000352E+00 0. -1.
       -3    1    3    3    0  502 -0.22783602514E+03 -0.38268953161E+02 -0.78884109986E+03  0.82197570412E+03  0.10100000352E+00 0.  1.
</event>
<event>
 5   0  0.2308362E-04  0.9000710E+03  0.7818609E-02  0.9425493E-01
       -1   -1    0    0    0  501  0.00000000000E+00  0.00000000000E+00  0.91404471971E+02  0.91404472110E+02  0.50400001928E-02 0. -1.
        1   -1    0    0  501    0  0.00000000000E+00  0.00000000000E+00 -0.22157772596E+04  0.22157772596E+04  0.50400001928E-02 0.  1.
    10030    2    1    2    0    0  0.00000000000E+00  0.00000000000E+00 -0.21243727876E+04  0.23071817317E+04  0.90007099850E+03 0.  0.
        1    1    3    3  502    0  0.83889469738E+02  0.12085902556E+03 -0.21523945788E+04  0.21574166890E+04  0.50400001928E-02 0.  1.
       -1    1    3    3    0  502 -0.83889469738E+02 -0.12085902556E+03  0.28021791212E+02  0.14976504265E+03  0.50400001928E-02 0. -1.
</event>
<event>
 5   0  0.2351435E-04  0.9004566E+03  0.7818609E-02  0.9425011E-01
        1   -1    0    0  501    0  0.00000000000E+00  0.00000000000E+00  0.10719402220E+04  0.10719402220E+04  0.50400001928E-02 0. -1.
       -1   -1    0    0    0  501  0.00000000000E+00  0.00000000000E+00 -0.18910152072E+03  0.18910152079E+03  0.50400001928E-02 0.  1.
    10030    2    1    2    0    0  0.00000000000E+00  0.00000000000E+00  0.88283870123E+03  0.12610417428E+04  0.90045660894E+03 0.  0.
        4    1    3    3  502    0  0.26276314802E+03 -0.36409609733E+03  0.39510978114E+03  0.59810015223E+03  0.12699999809E+01 0.  1.
       -4    1    3    3    0  502 -0.26276314802E+03  0.36409609733E+03  0.48772892009E+03  0.66294159052E+03  0.12699999809E+01 0. -1.
</event>
<event>
 5   0  0.4033144E-04  0.9001453E+03  0.7818609E-02  0.9425400E-01
       -2   -1    0    0    0  501  0.00000000000E+00  0.00000000000E+00  0.84972016641E+03  0.84972016642E+03  0.25500000920E-02 0. -1.
        2   -1    0    0  501    0  0.00000000000E+00  0.00000000000E+00 -0.23839071793E+03  0.23839071795E+03  0.25500000920E-02 0.  1.
    10030    2    1    2    0    0  0.00000000000E+00  0.00000000000E+00  0.61132944848E+03  0.10881108844E+04  0.90014532276E+03 0.  0.
        4    1    3    3  502    0  0.28309775713E+03  0.31400093969E+03  0.49224144296E+03  0.64887917310E+03  0.12699999809E+01 0.  1.
       -4    1    3    3    0  502 -0.28309775713E+03 -0.31400093969E+03  0.11908800552E+03  0.43923171126E+03  0.12699999809E+01 0. -1.
</event>
<event>
 5   0  0.4033144E-04  0.9000475E+03  0.7818609E-02  0.9425522E-01
        2   -1    0    0  501    0  0.00000000000E+00  0.00000000000E+00  0.32714389085E+03  0.32714389086E+03  0.25500000920E-02 0. -1.
       -2   -1    0    0    0  501  0.00000000000E+00  0.00000000000E+00 -0.61905898535E+03  0.61905898535E+03  0.25500000920E-02 0.  1.
    10030    2    1    2    0    0  0.00000000000E+00  0.00000000000E+00 -0.29191509449E+03  0.94620287622E+03  0.90004747684E+03 0.  0.
        4    1    3    3  502    0 -0.30826364050E+03 -0.11857542143E+03 -0.46730091409E+03  0.57223977477E+03  0.12699999809E+01 0.  1.
       -4    1    3    3    0  502  0.30826364050E+03  0.11857542143E+03  0.17538581960E+03  0.37396310144E+03  0.12699999809E+01 0. -1.
</event>
<event>
 5   0  0.2450427E-04  0.9003059E+03  0.7818609E-02  0.9425199E-01
       -1   -1    0    0    0  501  0.00000000000E+00  0.00000000000E+00  0.43394806712E+03  0.43394806714E+03  0.50400001928E-02 0. -1.
        1   -1    0    0  501    0  0.00000000000E+00  0.00000000000E+00 -0.46696300998E+03  0.46696301000E+03  0.50400001928E-02 0.  1.
    10030    2    1    2    0    0  0.00000000000E+00  0.00000000000E+00 -0.33014942860E+02  0.90091107715E+03  0.90030593827E+03 0.  0.
        3    1    3    3  502    0 -0.87022243720E+01 -0.10285107604E+03  0.42194638295E+03  0.43438788293E+03  0.10100000352E+00 0. -1.
       -3    1    3    3    0  502  0.87022243720E+01  0.10285107604E+03 -0.45496132581E+03  0.46652319421E+03  0.10100000352E+00 0.  1.
</event>
<event>
 5   0  0.4236284E-04  0.8998828E+03  0.7818609E-02  0.9425728E-01
        2   -1    0    0  501    0  0.00000000000E+00  0.00000000000E+00  0.10615055565E+04  0.10615055565E+04  0.25500000920E-02 0. -1.
       -2   -1    0    0    0  501  0.00000000000E+00  0.00000000000E+00 -0.19071709692E+03  0.19071709694E+03  0.25500000920E-02 0.  1.
    10030    2    1    2    0    0  0.00000000000E+00  0.00000000000E+00  0.87078845954E+03  0.12522226534E+04  0.89988278815E+03 0.  0.
        2    1    3    3  502    0  0.39092452355E+03 -0.71869768877E+02  0.72880793474E+03  0.83014953625E+03  0.25500000920E-02 0. -1.
       -2    1    3    3    0  502 -0.39092452355E+03  0.71869768877E+02  0.14198052480E+03  0.42207311715E+03  0.25500000920E-02 0.  1.
</event>
<event>
 5   0  0.2356918E-04  0.9000886E+03  0.7818609E-02  0.9425471E-01
       -1   -1    0    0    0  501  0.00000000000E+00  0.00000000000E+00  0.13791812919E+03  0.13791812928E+03  0.50400001928E-02 0. -1.
        1   -1    0    0  501    0  0.00000000000E+00  0.00000000000E+00 -0.14685515310E+04  0.14685515311E+04  0.50400001928E-02 0.  1.
    10030    2    1    2    0    0  0.00000000000E+00  0.00000000000E+00 -0.13306334019E+04  0.16064696603E+04  0.90008861755E+03 0.  0.
        5    1    3    3  502    0  0.18781005354E+03 -0.33293208130E+03 -0.10891862438E+04  0.11543245430E+04  0.46999998093E+01 0.  1.
       -5    1    3    3    0  502 -0.18781005354E+03  0.33293208130E+03 -0.24144715805E+03  0.45214511730E+03  0.46999998093E+01 0. -1.
</event>
<event>
 5   0  0.4243516E-04  0.8993292E+03  0.7818609E-02  0.9426420E-01
        2   -1    0    0  501    0  0.00000000000E+00  0.00000000000E+00  0.71099647752E+03  0.71099647753E+03  0.25500000920E-02 0.  1.
       -2   -1    0    0    0  501  0.00000000000E+00  0.00000000000E+00 -0.28438713280E+03  0.28438713282E+03  0.25500000920E-02 0. -1.
    10030    2    1    2    0    0  0.00000000000E+00  0.00000000000E+00  0.42660934472E+03  0.99538361034E+03  0.89932919376E+03 0.  0.
        1    1    3    3  502    0 -0.16945663292E+03 -0.35038107887E+03 -0.35950069418E+02  0.39086424547E+03  0.50400001928E-02 0. -1.
       -1    1    3    3    0  502  0.16945663292E+03  0.35038107887E+03  0.46255941414E+03  0.60451936487E+03  0.50400001928E-02 0.  1.
</event>
<event>
 5   0  0.4033144E-04  0.8997949E+03  0.7818609E-02  0.9425838E-01
       -2   -1    0    0    0  501  0.00000000000E+00  0.00000000000E+00  0.14292175081E+03  0.14292175083E+03  0.25500000920E-02 0.  1.
        2   -1    0    0  501    0  0.00000000000E+00  0.00000000000E+00 -0.14162135064E+04  0.14162135064E+04  0.25500000920E-02 0. -1.
    10030    2    1    2    0    0  0.00000000000E+00  0.00000000000E+00 -0.12732917556E+04  0.15591352572E+04  0.89979489635E+03 0.  0.
        4    1    3    3  502    0  0.22980165388E+03  0.23158684203E+03 -0.99865874738E+02  0.34119799437E+03  0.12699999809E+01 0.  1.
       -4    1    3    3    0  502 -0.22980165388E+03 -0.23158684203E+03 -0.11734258808E+04  0.12179372629E+04  0.12699999809E+01 0. -1.
</event>
<event>
 5   0  0.2450427E-04  0.9037089E+03  0.7818609E-02  0.9420957E-01
       -1   -1    0    0    0  501  0.00000000000E+00  0.00000000000E+00  0.37389193178E+03  0.37389193181E+03  0.50400001928E-02 0.  1.
        1   -1    0    0  501    0  0.00000000000E+00  0.00000000000E+00 -0.54607336645E+03  0.54607336647E+03  0.50400001928E-02 0. -1.
    10030    2    1    2    0    0  0.00000000000E+00  0.00000000000E+00 -0.17218143467E+03  0.91996529828E+03  0.90370885998E+03 0.  0.
        3    1    3    3  502    0 -0.25728762492E+02  0.24199294808E+03 -0.47366219172E+03  0.53252083359E+03  0.10100000352E+00 0. -1.
       -3    1    3    3    0  502  0.25728762492E+02 -0.24199294808E+03  0.30148075706E+03  0.38744446469E+03  0.10100000352E+00 0.  1.
</event>
<event>
 5   0  0.4033144E-04  0.8997063E+03  0.7818609E-02  0.9425949E-01
        2   -1    0    0  501    0  0.00000000000E+00  0.00000000000E+00  0.15696361694E+04  0.15696361694E+04  0.25500000920E-02 0.  1.
       -2   -1    0    0    0  501  0.00000000000E+00  0.00000000000E+00 -0.12892658844E+03  0.12892658847E+03  0.25500000920E-02 0. -1.
    10030    2    1    2    0    0  0.00000000000E+00  0.00000000000E+00  0.14407095809E+04  0.16985627578E+04  0.89970625526E+03 0.  0.
        4    1    3    3  502    0  0.86307062867E+02  0.47611039639E+02  0.15489948631E+04  0.15521283513E+04  0.12699999809E+01 0.  1.
       -4    1    3    3    0  502 -0.86307062867E+02 -0.47611039639E+02 -0.10828528213E+03  0.14643440655E+03  0.12699999809E+01 0. -1.
</event>
<event>
 5   0  0.3959804E-04  0.8987962E+03  0.7818609E-02  0.9427088E-01
        2   -1    0    0  501    0  0.00000000000E+00  0.00000000000E+00  0.14915840976E+04  0.14915840976E+04  0.25500000920E-02 0. -1.
       -2   -1    0    0    0  501  0.00000000000E+00  0.00000000000E+00 -0.13539876241E+03  0.13539876244E+03  0.25500000920E-02 0.  1.
    10030    2    1    2    0    0  0.00000000000E+00  0.00000000000E+00  0.13561853352E+04  0.16269828600E+04  0.89879617460E+03 0.  0.
        5    1    3    3  502    0 -0.54553722003E+02 -0.34376643921E+03  0.11925949853E+04  0.12423591922E+04  0.46999998093E+01 0. -1.
       -5    1    3    3    0  502  0.54553722003E+02  0.34376643921E+03  0.16359034983E+03  0.38462366785E+03  0.46999998093E+01 0.  1.
</event>
<event>
 5   0  0.4243516E-04  0.9003348E+03  0.7818609E-02  0.9425163E-01
       -2   -1    0    0    0  501  0.00000000000E+00  0.00000000000E+00  0.42173186615E+03  0.42173186616E+03  0.25500000920E-02 0. -1.
        2   -1    0    0  501    0  0.00000000000E+00  0.00000000000E+00 -0.48052026020E+03  0.48052026020E+03  0.25500000920E-02 0.  1.
    10030    2    1    2    0    0  0.00000000000E+00  0.00000000000E+00 -0.58788394042E+02  0.90225212637E+03  0.90033484008E+03 0.  0.
        1    1    3    3  502    0 -0.81823364391E+02 -0.14705689127E+03  0.38902327929E+03  0.42386307233E+03  0.50400001928E-02 0. -1.
       -1    1    3    3    0  502  0.81823364391E+02  0.14705689127E+03 -0.44781167333E+03  0.47838905404E+03  0.50400001928E-02 0.  1.
</event>
<event>
 5   0  0.2351435E-04  0.9002669E+03  0.7818609E-02  0.9425248E-01
       -1   -1    0    0    0  501  0.00000000000E+00  0.00000000000E+00  0.12891289550E+03  0.12891289560E+03  0.50400001928E-02 0. -1.
        1   -1    0    0  501    0  0.00000000000E+00  0.00000000000E+00 -0.15717600452E+04  0.15717600452E+04  0.50400001928E-02 0.  1.
    10030    2    1    2    0    0  0.00000000000E+00  0.00000000000E+00 -0.14428471497E+04  0.17006729408E+04  0.90026693495E+03 0.  0.
        4    1    3    3  502    0  0.42521213335E+03  0.93442128351E+02 -0.93748746510E+03  0.10336445955E+04  0.12699999809E+01 0.  1.
       -4    1    3    3    0  502 -0.42521213335E+03 -0.93442128351E+02 -0.50535968457E+03  0.66702834526E+03  0.12699999809E+01 0. -1.
</event>
<event>
 5   0  0.4243516E-04  0.8999824E+03  0.7818609E-02  0.9425603E-01
        2   -1    0    0  501    0  0.00000000000E+00  0.00000000000E+00  0.12222170628E+04  0.12222170628E+04  0.25500000920E-02 0.  1.
       -2   -1    0    0    0  501  0.00000000000E+00  0.00000000000E+00 -0.16567603476E+03  0.16567603477E+03  0.25500000920E-02 0. -1.
    10030    2    1    2    0    0  0.00000000000E+00  0.00000000000E+00  0.10565410281E+04  0.13878930976E+04  0.89998239227E+03 0.  0.
        1    1    3    3  502    0 -0.26842000365E+03  0.36012456047E+03  0.57059018832E+03  0.72616262672E+03  0.50400001928E-02 0. -1.
       -1    1    3    3    0  502  0.26842000365E+03 -0.36012456047E+03  0.48595083977E+03  0.66173047090E+03  0.50400001928E-02 0.  1.
</event>
<event>
 5   0  0.2332791E-04  0.8999300E+03  0.7818609E-02  0.9425669E-01
        1   -1    0    0  501    0  0.00000000000E+00  0.00000000000E+00  0.64311405906E+03  0.64311405908E+03  0.50400001928E-02 0.  1.
       -1   -1    0    0    0  501  0.00000000000E+00  0.00000000000E+00 -0.31482518334E+03  0.31482518338E+03  0.50400001928E-02 0. -1.
    10030    2    1    2    0    0  0.00000000000E+00  0.00000000000E+00  0.32828887572E+03  0.95793924246E+03  0.89993000079E+03 0.  0.
        2    1    3    3  502    0  0.34282755135E+03 -0.37053960137E+02 -0.14356503089E+03  0.37351659136E+03  0.25500000920E-02 0. -1.
       -2    1    3    3    0  502 -0.34282755135E+03  0.37053960137E+02  0.47185390661E+03  0.58442265109E+03  0.25500000920E-02 0.  1.
</event>
<event>
 5   0  0.4110039E-04  0.8994903E+03  0.7818609E-02  0.9426219E-01
       -2   -1    0    0    0  501  0.00000000000E+00  0.00000000000E+00  0.27923336417E+03  0.27923336419E+03  0.25500000920E-02 0.  1.
        2   -1    0    0  501    0  0.00000000000E+00  0.00000000000E+00 -0.72437869071E+03  0.72437869071E+03  0.25500000920E-02 0. -1.
    10030    2    1    2    0    0  0.00000000000E+00  0.00000000000E+00 -0.44514532653E+03  0.10036120549E+04  0.89949029734E+03 0.  0.
        3    1    3    3  502    0 -0.20808078266E+03 -0.18518278315E+03  0.17140219025E+03  0.32706115072E+03  0.10100000352E+00 0.  1.
       -3    1    3    3    0  502  0.20808078266E+03  0.18518278315E+03 -0.61654751679E+03  0.67655090418E+03  0.10100000352E+00 0. -1.
</event>
<event>
 5   0  0.2351435E-04  0.9000546E+03  0.7818609E-02  0.9425513E-01
       -1   -1    0    0    0  501  0.00000000000E+00  0.00000000000E+00  0.22713607630E+03  0.22713607635E+03  0.50400001928E-02 0. -1.
        1   -1    0    0  501    0  0.00000000000E+00  0.00000000000E+00 -0.89164421982E+03  0.89164421983E+03  0.50400001928E-02 0.  1.
    10030    2    1    2    0    0  0.00000000000E+00  0.00000000000E+00 -0.66450814352E+03  0.11187802962E+04  0.90005459742E+03 0.  0.
        4    1    3    3  502    0 -0.42702625495E+03 -0.81382982624E+02 -0.18757055099E+03  0.47345426049E+03  0.12699999809E+01 0. -1.
       -4    1    3    3    0  502  0.42702625495E+03  0.81382982624E+02 -0.47693759252E+03  0.64532603569E+03  0.12699999809E+01 0.  1.
</event>
<event>
 5   0  0.2351435E-04  0.8998761E+03  0.7818609E-02  0.9425736E-01
       -1   -1    0    0    0  501  0.00000000000E+00  0.00000000000E+00  0.21408472677E+03  0.21408472683E+03  0.50400001928E-02 0.  1.
        1   -1    0    0  501    0  0.00000000000E+00  0.00000000000E+00 -0.94562672808E+03  0.94562672809E+03  0.50400001928E-02 0. -1.
    10030    2    1    2    0    0  0.00000000000E+00  0.00000000000E+00 -0.73154200131E+03  0.11597114549E+04  0.89987607980E+03 0.  0.
        4    1    3    3  502    0  0.27450522232E+03  0.21530956736E+03 -0.73194559748E+03  0.81083740506E+03  0.12699999809E+01 0. -1.
       -4    1    3    3    0  502 -0.27450522232E+03 -0.21530956736E+03  0.40359616841E+00  0.34887404986E+03  0.12699999809E+01 0.  1.
</event>
<event>
 5   0  0.4110039E-04  0.9000901E+03  0.7818609E-02  0.9425469E-01
       -2   -1    0    0    0  501  0.00000000000E+00  0.00000000000E+00  0.25601340757E+03  0.25601340758E+03  0.25500000920E-02 0. -1.
        2   -1    0    0  501    0  0.00000000000E+00  0.00000000000E+00 -0.79113249207E+03  0.79113249207E+03  0.25500000920E-02 0.  1.
    10030    2    1    2    0    0  0.00000000000E+00  0.00000000000E+00 -0.53511908449E+03  0.10471458997E+04  0.90009005137E+03 0.  0.
        3    1    3    3  502    0  0.23421930078E+02 -0.62938643784E+02 -0.78527060725E+03  0.78813691482E+03  0.10100000352E+00 0.  1.
       -3    1    3    3    0  502 -0.23421930078E+02  0.62938643784E+02  0.25015152275E+03  0.25900898484E+03  0.10100000352E+00 0. -1.
</event>
<event>
 5   0  0.4033144E-04  0.9004606E+03  0.7818609E-02  0.9425006E-01
       -2   -1    0    0    0  501  0.00000000000E+00  0.00000000000E+00  0.10883904299E+03  0.10883904302E+03  0.25500000920E-02 0.  1.
        2   -1    0    0  501    0  0.00000000000E+00  0.00000000000E+00 -0.18624505883E+04  0.18624505883E+04  0.25500000920E-02 0. -1.
    10030    2    1    2    0    0  0.00000000000E+00  0.00000000000E+00 -0.17536115453E+04  0.19712896313E+04  0.90046063696E+03 0.  0.
        4    1    3    3  502    0 -0.36769561138E+03  0.20096472616E+02 -0.30971474393E+03  0.48117436169E+03  0.12699999809E+01 0.  1.
       -4    1    3    3    0  502  0.36769561138E+03 -0.20096472616E+02 -0.14438968014E+04  0.14901152697E+04  0.12699999809E+01 0. -1.
</event>
<event>
 5   0  0.2356918E-04  0.8997353E+03  0.7818609E-02  0.9425912E-01
       -1   -1    0    0    0  501  0.00000000000E+00  0.00000000000E+00  0.24511740522E+03  0.24511740527E+03  0.50400001928E-02 0.  1.
        1   -1    0    0  501    0  0.00000000000E+00  0.00000000000E+00 -0.82564880477E+03  0.82564880479E+03  0.50400001928E-02 0. -1.
    10030    2    1    2    0    0  0.00000000000E+00  0.00000000000E+00 -0.58053139956E+03  0.10707662101E+04  0.89973527814E+03 0.  0.
        5    1    3    3  502    0 -0.21465222878E+03 -0.88442944207E+02 -0.74881517440E+03  0.78399233995E+03  0.46999998093E+01 0. -1.
       -5    1    3    3    0  502  0.21465222878E+03  0.88442944207E+02  0.16828377484E+03  0.28677387010E+03  0.46999998093E+01 0.  1.
</event>
<event>
 5   0  0.4243516E-04  0.9005370E+03  0.7818609E-02  0.9424910E-01
       -2   -1    0    0    0  501  0.00000000000E+00  0.00000000000E+00  0.41607607240E+03  0.41607607241E+03  0.25500000920E-02 0. -1.
        2   -1    0    0  501    0  0.00000000000E+00  0.00000000000E+00 -0.48727079890E+03  0.48727079891E+03  0.25500000920E-02 0.  1.
    10030    2    1    2    0    0  0.00000000000E+00  0.00000000000E+00 -0.71194726504E+02  0.90334687132E+03  0.90053699582E+03 0.  0.
        1    1    3    3  502    0  0.15411449542E+03 -0.29871935857E+03 -0.33612720518E+03  0.47535884442E+03  0.50400001928E-02 0.  1.
       -1    1    3    3    0  502 -0.15411449542E+03  0.29871935857E+03  0.26493247868E+03  0.42798802690E+03  0.50400001928E-02 0. -1.
</event>
<event>
 5   0  0.4110039E-04  0.9002925E+03  0.7818609E-02  0.9425216E-01
        2   -1    0    0  501    0  0.00000000000E+00  0.00000000000E+00  0.78513729061E+03  0.78513729061E+03  0.25500000920E-02 0. -1.
       -2   -1    0    0    0  501  0.00000000000E+00  0.00000000000E+00 -0.25808435762E+03  0.25808435763E+03  0.25500000920E-02 0.  1.
    10030    2    1    2    0    0  0.00000000000E+00  0.00000000000E+00  0.52705293299E+03  0.10432216482E+04  0.90029251534E+03 0.  0.
        3    1    3    3  502    0 -0.22146963810E+03 -0.37248649600E+03  0.40466997791E+03  0.59291887432E+03  0.10100000352E+00 0.  1.
       -3    1    3    3    0  502  0.22146963810E+03  0.37248649600E+03  0.12238295508E+03  0.45030277392E+03  0.10100000352E+00 0. -1.
</event>
<event>
 5   0  0.2308362E-04  0.8994660E+03  0.7818609E-02  0.9426249E-01
       -1   -1    0    0    0  501  0.00000000000E+00  0.00000000000E+00  0.54641417323E+03  0.54641417325E+03  0.50400001928E-02 0. -1.
        1   -1    0    0  501    0  0.00000000000E+00  0.00000000000E+00 -0.37015832702E+03  0.37015832705E+03  0.50400001928E-02 0.  1.
    10030    2    1    2    0    0  0.00000000000E+00  0.00000000000E+00  0.17625584621E+03  0.91657250030E+03  0.89946596655E+03 0.  0.
        1    1    3    3  502    0  0.92762175332E+02 -0.86091808140E+02  0.52789450611E+03  0.54285286239E+03  0.50400001928E-02 0. -1.
       -1    1    3    3    0  502 -0.92762175332E+02  0.86091808140E+02 -0.35163865990E+03  0.37371963791E+03  0.50400001928E-02 0.  1.
</event>
<event>
 5   0  0.2351435E-04  0.9003565E+03  0.7818609E-02  0.9425136E-01
       -1   -1    0    0    0  501  0.00000000000E+00  0.00000000000E+00  0.26766672598E+03  0.26766672603E+03  0.50400001928E-02 0.  1.
        1   -1    0    0  501    0  0.00000000000E+00  0.00000000000E+00 -0.75713720277E+03  0.75713720279E+03  0.50400001928E-02 0. -1.
    10030    2    1    2    0    0  0.00000000000E+00  0.00000000000E+00 -0.48947047679E+03  0.10248039288E+04  0.90035645434E+03 0.  0.
        4    1    3    3  502    0  0.30896429499E+03  0.27092262302E+03 -0.45399701982E+03  0.61235031653E+03  0.12699999809E+01 0. -1.
       -4    1    3    3    0  502 -0.30896429499E+03 -0.27092262302E+03 -0.35473456972E+02  0.41245361229E+03  0.12699999809E+01 0.  1.
</event>
<event>
 5   0  0.2450427E-04  0.9002826E+03  0.7818609E-02  0.9425228E-01
        1   -1    0    0  501    0  0.00000000000E+00  0.00000000000E+00  0.65533013627E+03  0.65533013629E+03  0.50400001928E-02 0. -1.
       -1   -1    0    0    0  501  0.00000000000E+00  0.00000000000E+00 -0.30919863591E+03  0.30919863595E+03  0.50400001928E-02 0.  1.
    10030    2    1    2    0    0  0.00000000000E+00  0.00000000000E+00  0.34613150036E+03  0.96452877225E+03  0.90028258727E+03 0.  0.
        3    1    3    3  502    0  0.39697650489E+03  0.19126878665E+03  0.74564028199E+02  0.44691598616E+03  0.10100000352E+00 0. -1.
       -3    1    3    3    0  502 -0.39697650489E+03 -0.19126878665E+03  0.27156747216E+03  0.51761278609E+03  0.10100000352E+00 0.  1.
</event>
<event>
 5   0  0.2356918E-04  0.8999840E+03  0.7818609E-02  0.9425601E-01
        1   -1    0    0  501    0  0.00000000000E+00  0.00000000000E+00  0.16671441534E+04  0.16671441534E+04  0.50400001928E-02 0. -1.
       -1   -1    0    0    0  501  0.00000000000E+00  0.00000000000E+00 -0.12146087154E+03  0.12146087164E+03  0.50400001928E-02 0.  1.
    10030    2    1    2    0    0  0.00000000000E+00  0.00000000000E+00  0.15456832819E+04  0.17886050251E+04  0.89998395975E+03 0.  0.
        5    1    3    3  502    0 -0.26989731053E+03 -0.34034586340E+03  0.53945562385E+03  0.69261412422E+03  0.46999998093E+01 0.  1.
       -5    1    3    3    0  502  0.26989731053E+03  0.34034586340E+03  0.10062276580E+04  0.10959909009E+04  0.46999998093E+01 0. -1.
</event>
<event>
 5   0  0.1596250E-04  0.9001849E+03  0.7818609E-02  0.9425350E-01
       -3   -1    0    0    0  501  0.00000000000E+00  0.00000000000E+00  0.50949662529E+03  0.50949663530E+03  0.10100000352E+00 0. -1.
        3   -1    0    0  501    0  0.00000000000E+00  0.00000000000E+00 -0.39761437583E+03  0.39761438866E+03  0.10100000352E+00 0.  1.
    10030    2    1    2    0    0  0.00000000000E+00  0.00000000000E+00  0.11188224946E+03  0.90711102396E+03  0.90018485438E+03 0.  0.
        1    1    3    3  502    0  0.20204564093E+03  0.22883900983E+03  0.38923276581E+03  0.49466340015E+03  0.50400001928E-02 0. -1.
       -1    1    3    3    0  502 -0.20204564093E+03 -0.22883900983E+03 -0.27735051636E+03  0.41244762381E+03  0.50400001928E-02 0.  1.
</event>
<event>
 5   0  0.2450427E-04  0.8999718E+03  0.7818609E-02  0.9425617E-01
        1   -1    0    0  501    0  0.00000000000E+00  0.00000000000E+00  0.11639315676E+04  0.11639315676E+04  0.50400001928E-02 0. -1.
       -1   -1    0    0    0  501  0.00000000000E+00  0.00000000000E+00 -0.17396838441E+03  0.17396838448E+03  0.50400001928E-02 0.  1.
    10030    2    1    2    0    0  0.00000000000E+00  0.00000000000E+00  0.98996318314E+03  0.13378999520E+04  0.89997176494E+03 0.  0.
        3    1    3    3  502    0  0.23600893889E+03  0.18860660052E+03 -0.78320565422E+00  0.30211470108E+03  0.10100000352E+00 0.  1.
       -3    1    3    3    0  502 -0.23600893889E+03 -0.18860660052E+03  0.99074638880E+03  0.10357852510E+04  0.10100000352E+00 0. -1.
</event>
<event>
 5   0  0.4033144E-04  0.8999847E+03  0.7818609E-02  0.9425601E-01
       -2   -1    0    0    0  501  0.00000000000E+00  0.00000000000E+00  0.89601816911E+03  0.89601816911E+03  0.25500000920E-02 0.  1.
        2   -1    0    0  501    0  0.00000000000E+00  0.00000000000E+00 -0.22599219706E+03  0.22599219708E+03  0.25500000920E-02 0. -1.
    10030    2    1    2    0    0  0.00000000000E+00  0.00000000000E+00  0.67002597205E+03  0.11220103662E+04  0.89998469910E+03 0.  0.
        4    1    3    3  502    0 -0.20442830605E+03 -0.96991994697E+00 -0.16475585995E+03  0.26256042990E+03  0.12699999809E+01 0. -1.
       -4    1    3    3    0  502  0.20442830605E+03  0.96991994697E+00  0.83478183199E+03  0.85944993629E+03  0.12699999809E+01 0.  1.
</event>
<event>
 5   0  0.4243516E-04  0.9018585E+03  0.7818609E-02  0.9423261E-01
       -2   -1    0    0    0  501  0.00000000000E+00  0.00000000000E+00  0.10047556851E+03  0.10047556855E+03  0.25500000920E-02 0. -1.
        2   -1    0    0  501    0  0.00000000000E+00  0.00000000000E+00 -0.20237474921E+04  0.20237474921E+04  0.25500000920E-02 0.  1.
    10030    2    1    2    0    0  0.00000000000E+00  0.00000000000E+00 -0.19232719236E+04  0.21242230607E+04  0.90185848077E+03 0.  0.
        1    1    3    3  502    0  0.28849495469E+03 -0.34069924890E+03 -0.81207625873E+03  0.92670014951E+03  0.50400001928E-02 0. -1.
       -1    1    3    3    0  502 -0.28849495469E+03  0.34069924890E+03 -0.11111956649E+04  0.11975229112E+04  0.50400001928E-02 0.  1.
</event>
<event>
 5   0  0.2332791E-04  0.8998228E+03  0.7818609E-02  0.9425803E-01
       -1   -1    0    0    0  501  0.00000000000E+00  0.00000000000E+00  0.46983078138E+03  0.46983078141E+03  0.50400001928E-02 0.  1.
        1   -1    0    0  501    0  0.00000000000E+00  0.00000000000E+00 -0.43083650894E+03  0.43083650897E+03  0.50400001928E-02 0. -1.
    10030    2    1    2    0    0  0.00000000000E+00  0.00000000000E+00  0.38994272441E+02  0.90066729038E+03  0.89982276848E+03 0.  0.
        2    1    3    3  502    0 -0.21824733653E+03 -0.78018778502E+02 -0.36648301891E+03  0.43362268490E+03  0.25500000920E-02 0. -1.
       -2    1    3    3    0  502  0.21824733653E+03  0.78018778502E+02  0.40547729135E+03  0.46704460548E+03  0.25500000920E-02 0.  1.
</event>
<event>
 5   0  0.3959804E-04  0.9021289E+03  0.7818609E-02  0.9422924E-01
       -2   -1    0    0    0  501  0.00000000000E+00  0.00000000000E+00  0.27787144575E+03  0.27787144576E+03  0.25500000920E-02 0. -1.
        2   -1    0    0  501    0  0.00000000000E+00  0.00000000000E+00 -0.73220601494E+03  0.73220601495E+03  0.25500000920E-02 0.  1.
    10030    2    1    2    0    0  0.00000000000E+00  0.00000000000E+00 -0.45433456919E+03  0.10100774607E+04  0.90212891311E+03 0.  0.
        5    1    3    3  502    0 -0.35363465198E+03  0.26838001719E+03 -0.13793276543E+03  0.46490089103E+03  0.46999998093E+01 0.  1.
       -5    1    3    3    0  502  0.35363465198E+03 -0.26838001719E+03 -0.31640180376E+03  0.54517656968E+03  0.46999998093E+01 0. -1.
</event>
<event>
 5   0  0.2332791E-04  0.9002751E+03  0.7818609E-02  0.9425238E-01
       -1   -1    0    0    0  501  0.00000000000E+00  0.00000000000E+00  0.10951965687E+03  0.10951965698E+03  0.50400001928E-02 0. -1.
        1   -1    0    0  501    0  0.00000000000E+00  0.00000000000E+00 -0.18501137235E+04  0.18501137235E+04  0.50400001928E-02 0.  1.
    10030    2    1    2    0    0  0.00000000000E+00  0.00000000000E+00 -0.17405940666E+04  0.19596333805E+04  0.90027511414E+03 0.  0.
        2    1    3    3  502    0 -0.95464382116E+02  0.21996349492E+03 -0.16995229054E+04  0.17163552934E+04  0.25500000920E-02 0.  1.
       -2    1    3    3    0  502  0.95464382116E+02 -0.21996349492E+03 -0.41071161245E+02  0.24327808706E+03  0.25500000920E-02 0. -1.
</event>
<event>
 5   0  0.4236284E-04  0.8997522E+03  0.7818609E-02  0.9425891E-01
       -2   -1    0    0    0  501  0.00000000000E+00  0.00000000000E+00  0.21667222962E+03  0.21667222963E+03  0.25500000920E-02 0.  1.
        2   -1    0    0  501    0  0.00000000000E+00  0.00000000000E+00 -0.93407690824E+03  0.93407690824E+03  0.25500000920E-02 0. -1.
    10030    2    1    2    0    0  0.00000000000E+00  0.00000000000E+00 -0.71740467862E+03  0.11507491379E+04  0.89975224669E+03 0.  0.
        2    1    3    3  502    0 -0.33806790944E+03 -0.32480325037E+02  0.18631929714E+02  0.34013531384E+03  0.25500000920E-02 0.  1.
       -2    1    3    3    0  502  0.33806790944E+03  0.32480325037E+02 -0.73603660834E+03  0.81061382404E+03  0.25500000920E-02 0. -1.
</event>
<event>
 5   0  0.4110039E-04  0.8984640E+03  0.7818609E-02  0.9427504E-01
        2   -1    0    0  501    0  0.00000000000E+00  0.00000000000E+00  0.16373481790E+04  0.16373481790E+04  0.25500000920E-02 0.  1.
       -2   -1    0    0    0  501  0.00000000000E+00  0.00000000000E+00 -0.12325379394E+03  0.12325379397E+03  0.25500000920E-02 0. -1.
    10030    2    1    2    0    0  0.00000000000E+00  0.00000000000E+00  0.15140943850E+04  0.17606019729E+04  0.89846396719E+03 0.  0.
        3    1    3    3  502    0 -0.15357961550E+03 -0.38780704964E+03  0.10839392112E+04  0.11614237943E+04  0.10100000352E+00 0.  1.
       -3    1    3    3    0  502  0.15357961550E+03  0.38780704964E+03  0.43015517379E+03  0.59917817866E+03  0.10100000352E+00 0. -1.
</event>
<event>
 5   0  0.1596250E-04  0.8993372E+03  0.7818609E-02  0.9426410E-01
       -3   -1    0    0    0  501  0.00000000000E+00  0.00000000000E+00  0.38411997158E+03  0.38411998486E+03  0.10100000352E+00 0.  1.
        3   -1    0    0  501    0  0.00000000000E+00  0.00000000000E+00 -0.52640281062E+03  0.52640282030E+03  0.10100000352E+00 0. -1.
    10030    2    1    2    0    0  0.00000000000E+00  0.00000000000E+00 -0.14228283903E+03  0.91052280517E+03  0.89933718507E+03 0.  0.
        2    1    3    3  502    0  0.10525619278E+02 -0.44641343904E+03 -0.17509970548E+02  0.44688068463E+03  0.25500000920E-02 0. -1.
       -2    1    3    3    0  502 -0.10525619278E+02  0.44641343904E+03 -0.12477286848E+03  0.46364212054E+03  0.25500000920E-02 0.  1.
</event>
<event>
 5   0  0.4243516E-04  0.8974199E+03  0.7818609E-02  0.9428812E-01
       -2   -1    0    0    0  501  0.00000000000E+00  0.00000000000E+00  0.23099183388E+03  0.23099183390E+03  0.25500000920E-02 0.  1.
        2   -1    0    0  501    0  0.00000000000E+00  0.00000000000E+00 -0.87163524399E+03  0.87163524400E+03  0.25500000920E-02 0. -1.
    10030    2    1    2    0    0  0.00000000000E+00  0.00000000000E+00 -0.64064341011E+03  0.11026270779E+04  0.89741990952E+03 0.  0.
        1    1    3    3  502    0 -0.18177898895E+02 -0.31254463746E+03 -0.71526781422E+03  0.78078334543E+03  0.50400001928E-02 0. -1.
       -1    1    3    3    0  502  0.18177898895E+02  0.31254463746E+03  0.74624404112E+02  0.32184373247E+03  0.50400001928E-02 0.  1.
</event>
<event>
 5   0  0.4033144E-04  0.8993312E+03  0.7818609E-02  0.9426418E-01
       -2   -1    0    0    0  501  0.00000000000E+00  0.00000000000E+00  0.79411739325E+03  0.79411739325E+03  0.25500000920E-02 0.  1.
        2   -1    0    0  501    0  0.00000000000E+00  0.00000000000E+00 -0.25462126311E+03  0.25462126312E+03  0.25500000920E-02 0. -1.
    10030    2    1    2    0    0  0.00000000000E+00  0.00000000000E+00  0.53949613014E+03  0.10487386564E+04  0.89933124872E+03 0.  0.
        4    1    3    3  502    0 -0.25352483777E+03 -0.25418081503E+03 -0.46002044920E+02  0.36193995515E+03  0.12699999809E+01 0. -1.
       -4    1    3    3    0  502  0.25352483777E+03  0.25418081503E+03  0.58549817506E+03  0.68679870122E+03  0.12699999809E+01 0.  1.
</event>
<event>
 5   0  0.2356918E-04  0.9000252E+03  0.7818609E-02  0.9425550E-01
       -1   -1    0    0    0  501  0.00000000000E+00  0.00000000000E+00  0.82271678962E+03  0.82271678964E+03  0.50400001928E-02 0.  1.
        1   -1    0    0  501    0  0.00000000000E+00  0.00000000000E+00 -0.24614951405E+03  0.24614951410E+03  0.50400001928E-02 0. -1.
    10030    2    1    2    0    0  0.00000000000E+00  0.00000000000E+00  0.57656727557E+03  0.10688663037E+04  0.90002519521E+03 0.  0.
        5    1    3    3  502    0  0.34569944087E+02 -0.11778976428E+03  0.80241770591E+03  0.81176706903E+03  0.46999998093E+01 0.  1.
       -5    1    3    3    0  502 -0.34569944087E+02  0.11778976428E+03 -0.22585043034E+03  0.25709923471E+03  0.46999998093E+01 0. -1.
</event>
<event>
 5   0  0.2332791E-04  0.9004646E+03  0.7818609E-02  0.9425001E-01
        1   -1    0    0  501    0  0.00000000000E+00  0.00000000000E+00  0.16668665175E+04  0.16668665175E+04  0.50400001928E-02 0. -1.
       -1   -1    0    0    0  501  0.00000000000E+00  0.00000000000E+00 -0.12161090273E+03  0.12161090283E+03  0.50400001928E-02 0.  1.
    10030    2    1    2    0    0  0.00000000000E+00  0.00000000000E+00  0.15452556147E+04  0.17884774203E+04  0.90046464010E+03 0.  0.
        2    1    3    3  502    0 -0.34257368548E+03 -0.18674666848E+03  0.32638803904E+03  0.50868477489E+03  0.25500000920E-02 0.  1.
       -2    1    3    3    0  502  0.34257368548E+03  0.18674666848E+03  0.12188675757E+04  0.12797926454E+04  0.25500000920E-02 0. -1.
</event>
<event>
 5   0  0.2356918E-04  0.9004060E+03  0.7818609E-02  0.9425074E-01
        1   -1    0    0  501    0  0.00000000000E+00  0.00000000000E+00  0.99381988669E+03  0.99381988670E+03  0.50400001928E-02 0.  1.
       -1   -1    0    0    0  501  0.00000000000E+00  0.00000000000E+00 -0.20394314114E+03  0.20394314120E+03  0.50400001928E-02 0. -1.
    10030    2    1    2    0    0  0.00000000000E+00  0.00000000000E+00  0.78987674555E+03  0.11977630279E+04  0.90040601833E+03 0.  0.
        5    1    3    3  502    0 -0.69216144851E+02 -0.34075228291E+02  0.98492783943E+03  0.98795593767E+03  0.46999998093E+01 0.  1.
       -5    1    3    3    0  502  0.69216144851E+02  0.34075228291E+02 -0.19505109388E+03  0.20980709023E+03  0.46999998093E+01 0. -1.
</event>
<event>
 5   0  0.4110039E-04  0.9005840E+03  0.7818609E-02  0.9424852E-01
        2   -1    0    0  501    0  0.00000000000E+00  0.00000000000E+00  0.29306097736E+03  0.29306097737E+03  0.25500000920E-02 0.  1.
       -2   -1    0    0    0  501  0.00000000000E+00  0.00000000000E+00 -0.69187958099E+03  0.69187958100E+03  0.25500000920E-02 0. -1.
    10030    2    1    2    0    0  0.00000000000E+00  0.00000000000E+00 -0.39881860363E+03  0.98494055837E+03  0.90058404656E+03 0.  0.
        3    1    3    3  502    0 -0.26139142230E+03  0.12178858222E+03 -0.57764313150E+03  0.64562336697E+03  0.10100000352E+00 0. -1.
       -3    1    3    3    0  502  0.26139142230E+03 -0.12178858222E+03  0.17882452787E+03  0.33931719140E+03  0.10100000352E+00 0.  1.
</event>
<event>
 5   0  0.4236284E-04  0.9013610E+03  0.7818609E-02  0.9423882E-01
        2   -1    0    0  501    0  0.00000000000E+00  0.00000000000E+00  0.42459871701E+03  0.42459871702E+03  0.25500000920E-02 0. -1.
       -2   -1    0    0    0  501  0.00000000000E+00  0.00000000000E+00 -0.47836440958E+03  0.47836440959E+03  0.25500000920E-02 0.  1.
    10030    2    1    2    0    0  0.00000000000E+00  0.00000000000E+00 -0.53765692570E+02  0.90296312661E+03  0.90136100333E+03 0.  0.
        2    1    3    3  502    0  0.27275419220E+03  0.95652021705E+02 -0.37328461946E+03  0.47210757858E+03  0.25500000920E-02 0.  1.
       -2    1    3    3    0  502 -0.27275419220E+03 -0.95652021705E+02  0.31951892689E+03  0.43085554803E+03  0.25500000920E-02 0. -1.
</event>
<event>
 5   0  0.3959804E-04  0.8997991E+03  0.7818609E-02  0.9425833E-01
       -2   -1    0    0    0  501  0.00000000000E+00  0.00000000000E+00  0.10448331542E+03  0.10448331545E+03  0.25500000920E-02 0.  1.
        2   -1    0    0  501    0  0.00000000000E+00  0.00000000000E+00 -0.19372434183E+04  0.19372434183E+04  0.25500000920E-02 0. -1.
    10030    2    1    2    0    0  0.00000000000E+00  0.00000000000E+00 -0.18327601029E+04  0.20417267338E+04  0.89979912238E+03 0.  0.
        5    1    3    3  502    0 -0.76217425478E+02 -0.12166026125E+03 -0.18838149881E+04  0.18892832806E+04  0.46999998093E+01 0. -1.
       -5    1    3    3    0  502  0.76217425478E+02  0.12166026125E+03  0.51054885170E+02  0.15244345316E+03  0.46999998093E+01 0.  1.
</event>
<event>
 5   0  0.2351435E-04  0.9000326E+03  0.7818609E-02  0.9425541E-01
       -1   -1    0    0    0  501  0.00000000000E+00  0.00000000000E+00  0.19314534019E+03  0.19314534026E+03  0.50400001928E-02 0.  1.
        1   -1    0    0  501    0  0.00000000000E+00  0.00000000000E+00 -0.10485093296E+04  0.10485093296E+04  0.50400001928E-02 0. -1.
    10030    2    1    2    0    0  0.00000000000E+00  0.00000000000E+00 -0.85536398938E+03  0.12416546698E+04  0.90003264652E+03 0.  0.
        4    1    3    3  502    0 -0.12881448062E+03 -0.16378356033E+03 -0.97794539650E+03  0.99989851309E+03  0.12699999809E+01 0. -1.
       -4    1    3    3    0  502  0.12881448062E+03  0.16378356033E+03  0.12258140712E+03  0.24175615674E+03  0.12699999809E+01 0.  1.
</event>
<event>
 5   0  0.2308362E-04  0.9000172E+03  0.7818609E-02  0.9425560E-01
        1   -1    0    0  501    0  0.00000000000E+00  0.00000000000E+00  0.29401427328E+03  0.29401427332E+03  0.50400001928E-02 0. -1.
       -1   -1    0    0    0  501  0.00000000000E+00  0.00000000000E+00 -0.68876835120E+03  0.68876835122E+03  0.50400001928E-02 0.  1.
    10030    2    1    2    0    0  0.00000000000E+00  0.00000000000E+00 -0.39475407792E+03  0.98278262454E+03  0.90001716932E+03 0.  0.
        1    1    3    3  502    0  0.10480132258E+03 -0.33066667463E+03 -0.51041730592E+03  0.61713012658E+03  0.50400001928E-02 0.  1.
       -1    1    3    3    0  502 -0.10480132258E+03  0.33066667463E+03  0.11566322800E+03  0.36565249796E+03  0.50400001928E-02 0. -1.
</event>
<event>
 5   0  0.4236284E-04  0.9005080E+03  0.7818609E-02  0.9424947E-01
        2   -1    0    0  501    0  0.00000000000E+00  0.00000000000E+00  0.91888283346E+03  0.91888283346E+03  0.25500000920E-02 0. -1.
       -2   -1    0    0    0  501  0.00000000000E+00  0.00000000000E+00 -0.22062514792E+03  0.22062514794E+03  0.25500000920E-02 0.  1.
    10030    2    1    2    0    0  0.00000000000E+00  0.00000000000E+00  0.69825768554E+03  0.11395079814E+04  0.90050799233E+03 0.  0.
        2    1    3    3  502    0  0.18587525463E+03 -0.41002258762E+03  0.35897370013E+03  0.57578663586E+03  0.25500000920E-02 0.  1.
       -2    1    3    3    0  502 -0.18587525463E+03  0.41002258762E+03  0.33928398541E+03  0.56372134553E+03  0.25500000920E-02 0. -1.
</event>
<event>
 5   0  0.2356918E-04  0.9003323E+03  0.7818609E-02  0.9425166E-01
        1   -1    0    0  501    0  0.00000000000E+00  0.00000000000E+00  0.31254596808E+03  0.31254596813E+03  0.50400001928E-02 0. -1.
       -1   -1    0    0    0  501  0.00000000000E+00  0.00000000000E+00 -0.64838319667E+03  0.64838319669E+03  0.50400001928E-02 0.  1.
    10030    2    1    2    0    0  0.00000000000E+00  0.00000000000E+00 -0.33583722859E+03  0.96092916482E+03  0.90033228071E+03 0.  0.
        5    1    3    3  502    0  0.43118484283E+03  0.12019761142E+03 -0.11718367260E+03  0.46273311704E+03  0.46999998093E+01 0.  1.
       -5    1    3    3    0  502 -0.43118484283E+03 -0.12019761142E+03 -0.21865355599E+03  0.49819604778E+03  0.46999998093E+01 0. -1.
</event>
<event>
 5   0  0.2351435E-04  0.9003825E+03  0.7818609E-02  0.9425103E-01
        1   -1    0    0  501    0  0.00000000000E+00  0.00000000000E+00  0.66407581959E+03  0.66407581961E+03  0.50400001928E-02 0. -1.
       -1   -1    0    0    0  501  0.00000000000E+00  0.00000000000E+00 -0.30519427852E+03  0.30519427857E+03  0.50400001928E-02 0.  1.
    10030    2    1    2    0    0  0.00000000000E+00  0.00000000000E+00  0.35888154106E+03  0.96927009817E+03  0.90038245357E+03 0.  0.
        4    1    3    3  502    0 -0.32208204069E+03  0.13077471863E+03  0.48738953935E+03  0.59865603140E+03  0.12699999809E+01 0. -1.
       -4    1    3    3    0  502  0.32208204069E+03 -0.13077471863E+03 -0.12850799828E+03  0.37061406677E+03  0.12699999809E+01 0.  1.
</event>
<event>
 5   0  0.4033144E-04  0.9012333E+03  0.7818609E-02  0.9424041E-01
       -2   -1    0    0    0  501  0.00000000000E+00  0.00000000000E+00  0.54463116613E+03  0.54463116614E+03  0.25500000920E-02 0. -1.
        2   -1    0    0  501    0  0.00000000000E+00  0.00000000000E+00 -0.37283093533E+03  0.37283093534E+03  0.25500000920E-02 0.  1.
    10030    2    1    2    0    0  0.00000000000E+00  0.00000000000E+00  0.17180023079E+03  0.91746210148E+03  0.90123325968E+03 0.  0.
        4    1    3    3  502    0  0.47703973695E+02 -0.29477184279E+03 -0.25764928293E+03  0.39439938426E+03  0.12699999809E+01 0.  1.
       -4    1    3    3    0  502 -0.47703973695E+02  0.29477184279E+03  0.42944951372E+03  0.52306271722E+03  0.12699999809E+01 0. -1.
</event>
<event>
 5   0  0.2356918E-04  0.8995551E+03  0.7818609E-02  0.9426138E-01
        1   -1    0    0  501    0  0.00000000000E+00  0.00000000000E+00  0.32707335423E+03  0.32707335427E+03  0.50400001928E-02 0. -1.
       -1   -1    0    0    0  501  0.00000000000E+00  0.00000000000E+00 -0.61851523366E+03  0.61851523368E+03  0.50400001928E-02 0.  1.
    10030    2    1    2    0    0  0.00000000000E+00  0.00000000000E+00 -0.29144187944E+03  0.94558858795E+03  0.89955511703E+03 0.  0.
        5    1    3    3  502    0 -0.16718965315E+03  0.41682994931E+03 -0.17099670075E+03  0.48058459030E+03  0.46999998093E+01 0. -1.
       -5    1    3    3    0  502  0.16718965315E+03 -0.41682994931E+03 -0.12044517869E+03  0.46500399765E+03  0.46999998093E+01 0.  1.
</event>
<event>
 5   0  0.3959804E-04  0.9005239E+03  0.7818609E-02  0.9424927E-01
        2   -1    0    0  501    0  0.00000000000E+00  0.00000000000E+00  0.35781001082E+03  0.35781001083E+03  0.25500000920E-02 0. -1.
       -2   -1    0    0    0  501  0.00000000000E+00  0.00000000000E+00 -0.56660188779E+03  0.56660188780E+03  0.25500000920E-02 0.  1.
    10030    2    1    2    0    0  0.00000000000E+00  0.00000000000E+00 -0.20879187697E+03  0.92441189862E+03  0.90052390886E+03 0.  0.
        5    1    3    3  502    0 -0.34541274427E+03 -0.25960229286E+03  0.25492855849E+02  0.43286867530E+03  0.46999998093E+01 0. -1.
       -5    1    3    3    0  502  0.34541274427E+03  0.25960229286E+03 -0.23428473282E+03  0.49154322332E+03  0.46999998093E+01 0.  1.
</event>
<event>
 5   0  0.4243516E-04  0.9004963E+03  0.7818609E-02  0.9424961E-01
        2   -1    0    0  501    0  0.00000000000E+00  0.00000000000E+00  0.31653258625E+03  0.31653258626E+03  0.25500000920E-02 0.  1.
       -2   -1    0    0    0  501  0.00000000000E+00  0.00000000000E+00 -0.64045030365E+03  0.64045030366E+03  0.25500000920E-02 0. -1.
    10030    2    1    2    0    0  0.00000000000E+00  0.00000000000E+00 -0.32391771740E+03  0.95698288992E+03  0.90049628758E+03 0.  0.
        1    1    3    3  502    0  0.23187126322E+01  0.42262729246E+03 -0.32695298470E+03  0.53433833756E+03  0.50400001928E-02 0. -1.
       -1    1    3    3    0  502 -0.23187126322E+01 -0.42262729246E+03  0.30352672985E+01  0.42264455236E+03  0.50400001928E-02 0.  1.
</event>
<event>
 5   0  0.2308362E-04  0.8993795E+03  0.7818609E-02  0.9426357E-01
       -1   -1    0    0    0  501  0.00000000000E+00  0.00000000000E+00  0.16218333048E+03  0.16218333055E+03  0.50400001928E-02 0. -1.
        1   -1    0    0  501    0  0.00000000000E+00  0.00000000000E+00 -0.12468659452E+04  0.12468659452E+04  0.50400001928E-02 0.  1.
    10030    2    1    2    0    0  0.00000000000E+00  0.00000000000E+00 -0.10846826147E+04  0.14090492758E+04  0.89937950102E+03 0.  0.
        1    1    3    3  502    0 -0.23428475670E+03  0.23772220541E+03 -0.10144838930E+04  0.10679788216E+04  0.50400001928E-02 0.  1.
       -1    1    3    3    0  502  0.23428475670E+03 -0.23772220541E+03 -0.70198721743E+02  0.34107045420E+03  0.50400001928E-02 0. -1.
</event>
<event>
 5   0  0.1596250E-04  0.9003306E+03  0.7818609E-02  0.9425168E-01
        3   -1    0    0  501    0  0.00000000000E+00  0.00000000000E+00  0.57444086904E+03  0.57444087792E+03  0.10100000352E+00 0. -1.
       -3   -1    0    0    0  501  0.00000000000E+00  0.00000000000E+00 -0.35277574037E+03  0.35277575483E+03  0.10100000352E+00 0.  1.
    10030    2    1    2    0    0  0.00000000000E+00  0.00000000000E+00  0.22166512867E+03  0.92721663275E+03  0.90033063637E+03 0.  0.
        1    1    3    3  502    0  0.42674769354E+03 -0.12553113970E+03  0.18201350889E+03  0.48062519536E+03  0.50400001928E-02 0. -1.
       -1    1    3    3    0  502 -0.42674769354E+03  0.12553113970E+03  0.39651619783E+02  0.44659143739E+03  0.50400001928E-02 0.  1.
</event>
<event>
 5   0  0.2332791E-04  0.8995951E+03  0.7818609E-02  0.9426088E-01
        1   -1    0    0  501    0  0.00000000000E+00  0.00000000000E+00  0.20228261269E+03  0.20228261275E+03  0.50400001928E-02 0. -1.
       -1   -1    0    0    0  501  0.00000000000E+00  0.00000000000E+00 -0.10001740621E+04  0.10001740621E+04  0.50400001928E-02 0.  1.
    10030    2    1    2    0    0  0.00000000000E+00  0.00000000000E+00 -0.79789144944E+03  0.12024566749E+04  0.89959506996E+03 0.  0.
        2    1    3    3  502    0  0.42451051415E+03  0.14854458984E+03 -0.39016528731E+03  0.59540206854E+03  0.25500000920E-02 0. -1.
       -2    1    3    3    0  502 -0.42451051415E+03 -0.14854458984E+03 -0.40772616213E+03  0.60705460635E+03  0.25500000920E-02 0.  1.
</event>
<event>
 5   0  0.2351435E-04  0.8998749E+03  0.7818609E-02  0.9425738E-01
       -1   -1    0    0    0  501  0.00000000000E+00  0.00000000000E+00  0.19235372529E+03  0.19235372536E+03  0.50400001928E-02 0. -1.
        1   -1    0    0  501    0  0.00000000000E+00  0.00000000000E+00 -0.10524553953E+04  0.10524553953E+04  0.50400001928E-02 0.  1.
    10030    2    1    2    0    0  0.00000000000E+00  0.00000000000E+00 -0.86010167002E+03  0.12448091207E+04  0.89987491584E+03 0.  0.
        4    1    3    3  502    0 -0.19024359434E+03  0.75250634021E+02 -0.98439000200E+03  0.10054255676E+04  0.12699999809E+01 0.  1.
       -4    1    3    3    0  502  0.19024359434E+03 -0.75250634021E+02  0.12428833197E+03  0.23938355305E+03  0.12699999809E+01 0. -1.
</event>
<event>
 5   0  0.2351435E-04  0.9013892E+03  0.7818609E-02  0.9423846E-01
        1   -1    0    0  501    0  0.00000000000E+00  0.00000000000E+00  0.16265431664E+04  0.16265431665E+04  0.50400001928E-02 0.  1.
       -1   -1    0    0    0  501  0.00000000000E+00  0.00000000000E+00 -0.12488180008E+03  0.12488180018E+03  0.50400001928E-02 0. -1.
    10030    2    1    2    0    0  0.00000000000E+00  0.00000000000E+00  0.15016613664E+04  0.17514249666E+04  0.90138923585E+03 0.  0.
        4    1    3    3  502    0 -0.25636708139E+03 -0.36297873053E+03  0.60482677882E+03  0.75052960269E+03  0.12699999809E+01 0. -1.
       -4    1    3    3    0  502  0.25636708139E+03  0.36297873053E+03  0.89683458755E+03  0.10008953639E+04  0.12699999809E+01 0.  1.
</event>
<event>
 5   0  0.2308362E-04  0.9001369E+03  0.7818609E-02  0.9425410E-01
        1   -1    0    0  501    0  0.00000000000E+00  0.00000000000E+00  0.26582510170E+03  0.26582510175E+03  0.50400001928E-02 0. -1.
       -1   -1    0    0    0  501  0.00000000000E+00  0.00000000000E+00 -0.76201090675E+03  0.76201090677E+03  0.50400001928E-02 0.  1.
    10030    2    1    2    0    0  0.00000000000E+00  0.00000000000E+00 -0.49618580505E+03  0.10278360085E+04  0.90013693807E+03 0.  0.
        1    1    3    3  502    0  0.16675937404E+03 -0.31195855783E+03 -0.56584126737E+03  0.66731040043E+03  0.50400001928E-02 0.  1.
       -1    1    3    3    0  502 -0.16675937404E+03  0.31195855783E+03  0.69655462321E+02  0.36052560809E+03  0.50400001928E-02 0. -1.
</event>
<event>
 5   0  0.3959804E-04  0.8998205E+03  0.7818609E-02  0.9425806E-01
       -2   -1    0    0    0  501  0.00000000000E+00  0.00000000000E+00  0.82169260387E+03  0.82169260387E+03  0.25500000920E-02 0.  1.
        2   -1    0    0  501    0  0.00000000000E+00  0.00000000000E+00 -0.24634423156E+03  0.24634423157E+03  0.25500000920E-02 0. -1.
    10030    2    1    2    0    0  0.00000000000E+00  0.00000000000E+00  0.57534837231E+03  0.10680368354E+04  0.89982050007E+03 0.  0.
        5    1    3    3  502    0  0.17176895001E+03 -0.24918165342E+03  0.68276991435E+03  0.74685535048E+03  0.46999998093E+01 0.  1.
       -5    1    3    3    0  502 -0.17176895001E+03  0.24918165342E+03 -0.10742154205E+03  0.32118148497E+03  0.46999998093E+01 0. -1.
</event>
<event>
 5   0  0.4236284E-04  0.8989816E+03  0.7818609E-02  0.9426855E-01
       -2   -1    0    0    0  501  0.00000000000E+00  0.00000000000E+00  0.17051476051E+03  0.17051476053E+03  0.25500000920E-02 0.  1.
        2   -1    0    0  501    0  0.00000000000E+00  0.00000000000E+00 -0.11848943560E+04  0.11848943560E+04  0.25500000920E-02 0. -1.
    10030    2    1    2    0    0  0.00000000000E+00  0.00000000000E+00 -0.10143795955E+04  0.13554091165E+04  0.89898159570E+03 0.  0.
        2    1    3    3  502    0  0.16079475502E+02  0.25139051422E+03  0.54090313211E+02  0.25764607927E+03  0.25500000920E-02 0.  1.
       -2    1    3    3    0  502 -0.16079475502E+02 -0.25139051422E+03 -0.10684699087E+04  0.10977630373E+04  0.25500000920E-02 0. -1.
</event>
<event>
 5   0  0.2332791E-04  0.8982976E+03  0.7818609E-02  0.9427712E-01
        1   -1    0    0  501    0  0.00000000000E+00  0.00000000000E+00  0.89405670881E+03  0.89405670882E+03  0.50400001928E-02 0.  1.
       -1   -1    0    0    0  501  0.00000000000E+00  0.00000000000E+00 -0.22563966617E+03  0.22563966623E+03  0.50400001928E-02 0. -1.
    10030    2    1    2    0    0  0.00000000000E+00  0.00000000000E+00  0.66841704263E+03  0.11196963750E+04  0.89829762852E+03 0.  0.
        2    1    3    3  502    0  0.28181424889E+03 -0.29366694972E+03  0.57095517312E+03  0.70117712310E+03  0.25500000920E-02 0.  1.
       -2    1    3    3    0  502 -0.28181424889E+03  0.29366694972E+03  0.97461869516E+02  0.41851925195E+03  0.25500000920E-02 0. -1.
</event>
<event>
 5   0  0.2351435E-04  0.8997973E+03  0.7818609E-02  0.9425835E-01
       -1   -1    0    0    0  501  0.00000000000E+00  0.00000000000E+00  0.36782136560E+03  0.36782136563E+03  0.50400001928E-02 0. -1.
        1   -1    0    0  501    0  0.00000000000E+00  0.00000000000E+00 -0.55029102560E+03  0.55029102562E+03  0.50400001928E-02 0.  1.
    10030    2    1    2    0    0  0.00000000000E+00  0.00000000000E+00 -0.18246966000E+03  0.91811239125E+03  0.89979730281E+03 0.  0.
        4    1    3    3  502    0  0.31569380817E+03  0.25118132414E+03  0.11194785637E+03  0.41867478257E+03  0.12699999809E+01 0. -1.
       -4    1    3    3    0  502 -0.31569380817E+03 -0.25118132414E+03 -0.29441751637E+03  0.49943760868E+03  0.12699999809E+01 0.  1.
</event>
<event>
 5   0  0.2450427E-04  0.9001626E+03  0.7818609E-02  0.9425378E-01
        1   -1    0    0  501    0  0.00000000000E+00  0.00000000000E+00  0.40561726713E+03  0.40561726716E+03  0.50400001928E-02 0. -1.
       -1   -1    0    0    0  501  0.00000000000E+00  0.00000000000E+00 -0.49941951215E+03  0.49941951217E+03  0.50400001928E-02 0.  1.
    10030    2    1    2    0    0  0.00000000000E+00  0.00000000000E+00 -0.93802245020E+02  0.90503677933E+03  0.90016260240E+03 0.  0.
        3    1    3    3  502    0  0.34692945889E+03 -0.40986884790E+02  0.23841921079E+03  0.42294645577E+03  0.10100000352E+00 0. -1.
       -3    1    3    3    0  502 -0.34692945889E+03  0.40986884790E+02 -0.33222145581E+03  0.48209032356E+03  0.10100000352E+00 0.  1.
</event>
<event>
 5   0  0.2308362E-04  0.9002048E+03  0.7818609E-02  0.9425325E-01
       -1   -1    0    0    0  501  0.00000000000E+00  0.00000000000E+00  0.32032858100E+03  0.32032858104E+03  0.50400001928E-02 0. -1.
        1   -1    0    0  501    0  0.00000000000E+00  0.00000000000E+00 -0.63245109027E+03  0.63245109029E+03  0.50400001928E-02 0.  1.
    10030    2    1    2    0    0  0.00000000000E+00  0.00000000000E+00 -0.31212250927E+03  0.95277967134E+03  0.90020477744E+03 0.  0.
        1    1    3    3  502    0  0.25426440322E+03  0.36128390348E+03 -0.24720516848E+03  0.50624780593E+03  0.50400001928E-02 0.  1.
       -1    1    3    3    0  502 -0.25426440322E+03 -0.36128390348E+03 -0.64917340793E+02  0.44653186541E+03  0.50400001928E-02 0. -1.
</event>
<event>
 5   0  0.2351435E-04  0.9001974E+03  0.7818609E-02  0.9425335E-01
        1   -1    0    0  501    0  0.00000000000E+00  0.00000000000E+00  0.96707721791E+03  0.96707721793E+03  0.50400001928E-02 0. -1.
       -1   -1    0    0    0  501  0.00000000000E+00  0.00000000000E+00 -0.20948569773E+03  0.20948569779E+03  0.50400001928E-02 0.  1.
    10030    2    1    2    0    0  0.00000000000E+00  0.00000000000E+00  0.75759152018E+03  0.11765629157E+04  0.90019741346E+03 0.  0.
        4    1    3    3  502    0 -0.16957580368E+03 -0.30456675403E+03  0.66539394950E+01  0.34865849863E+03  0.12699999809E+01 0.  1.
       -4    1    3    3    0  502  0.16957580368E+03  0.30456675403E+03  0.75093758068E+03  0.82790441709E+03  0.12699999809E+01 0. -1.
</event>
<event>
 5   0  0.2351435E-04  0.9009566E+03  0.7818609E-02  0.9424386E-01
        1   -1    0    0  501    0  0.00000000000E+00  0.00000000000E+00  0.83355088199E+03  0.83355088201E+03  0.50400001928E-02 0. -1.
       -1   -1    0    0    0  501  0.00000000000E+00  0.00000000000E+00 -0.24345328272E+03  0.24345328277E+03  0.50400001928E-02 0.  1.
    10030    2    1    2    0    0  0.00000000000E+00  0.00000000000E+00  0.59009759927E+03  0.10770041648E+04  0.90095659955E+03 0.  0.
        4    1    3    3  502    0 -0.35560421957E+03  0.27144169122E+03  0.35823715415E+03  0.57312339354E+03  0.12699999809E+01 0. -1.
       -4    1    3    3    0  502  0.35560421957E+03 -0.27144169122E+03  0.23186044513E+03  0.50388077124E+03  0.12699999809E+01 0.  1.
</event>
<event>
 5   0  0.2450427E-04  0.9006395E+03  0.7818609E-02  0.9424782E-01
       -1   -1    0    0    0  501  0.00000000000E+00  0.00000000000E+00  0.68748957230E+03  0.68748957232E+03  0.50400001928E-02 0.  1.
        1   -1    0    0  501    0  0.00000000000E+00  0.00000000000E+00 -0.29496868394E+03  0.29496868399E+03  0.50400001928E-02 0. -1.
    10030    2    1    2    0    0  0.00000000000E+00  0.00000000000E+00  0.39252088836E+03  0.98245825631E+03  0.90063953810E+03 0.  0.
        3    1    3    3  502    0 -0.23557206656E+03 -0.38378791530E+03  0.19547252481E+03  0.49091433126E+03  0.10100000352E+00 0. -1.
       -3    1    3    3    0  502  0.23557206656E+03  0.38378791530E+03  0.19704836355E+03  0.49154392505E+03  0.10100000352E+00 0.  1.
</event>
<event>
 5   0  0.4236284E-04  0.9003660E+03  0.7818609E-02  0.9425124E-01
       -2   -1    0    0    0  501  0.00000000000E+00  0.00000000000E+00  0.39922515911E+03  0.39922515912E+03  0.25500000920E-02 0.  1.
        2   -1    0    0  501    0  0.00000000000E+00  0.00000000000E+00 -0.50764515375E+03  0.50764515376E+03  0.25500000920E-02 0. -1.
    10030    2    1    2    0    0  0.00000000000E+00  0.00000000000E+00 -0.10841999464E+03  0.90687031287E+03  0.90036596400E+03 0.  0.
        2    1    3    3  502    0  0.24447970238E+01  0.31817339460E+03  0.26656270758E+03  0.41508548896E+03  0.25500000920E-02 0.  1.
       -2    1    3    3    0  502 -0.24447970238E+01 -0.31817339460E+03 -0.37498270222E+03  0.49178482392E+03  0.25500000920E-02 0. -1.
</event>
<event>
 5   0  0.2356918E-04  0.8989685E+03  0.7818609E-02  0.9426872E-01
       -1   -1    0    0    0  501  0.00000000000E+00  0.00000000000E+00  0.16669516407E+03  0.16669516415E+03  0.50400001928E-02 0.  1.
        1   -1    0    0  501    0  0.00000000000E+00  0.00000000000E+00 -0.12120093532E+04  0.12120093532E+04  0.50400001928E-02 0. -1.
    10030    2    1    2    0    0  0.00000000000E+00  0.00000000000E+00 -0.10453141891E+04  0.13787045173E+04  0.89896851566E+03 0.  0.
        5    1    3    3  502    0 -0.28527709972E+03 -0.27394118752E+03 -0.19520465940E+03  0.44108247176E+03  0.46999998093E+01 0.  1.
       -5    1    3    3    0  502  0.28527709972E+03  0.27394118752E+03 -0.85010952968E+03  0.93762204555E+03  0.46999998093E+01 0. -1.
</event>
<event>
 5   0  0.4243516E-04  0.8999461E+03  0.7818609E-02  0.9425649E-01
       -2   -1    0    0    0  501  0.00000000000E+00  0.00000000000E+00  0.12031821450E+03  0.12031821453E+03  0.25500000920E-02 0.  1.
        2   -1    0    0  501    0  0.00000000000E+00  0.00000000000E+00 -0.16828352620E+04  0.16828352620E+04  0.25500000920E-02 0. -1.
    10030    2    1    2    0    0  0.00000000000E+00  0.00000000000E+00 -0.15625170475E+04  0.18031534765E+04  0.89994607404E+03 0.  0.
        1    1    3    3  502    0  0.20594660213E+03  0.31917929748E+03 -0.29794760749E+03  0.48276516414E+03  0.50400001928E-02 0. -1.
       -1    1    3    3    0  502 -0.20594660213E+03 -0.31917929748E+03 -0.12645694400E+04  0.13203883124E+04  0.50400001928E-02 0.  1.
</event>
<event>
 5   0  0.2450427E-04  0.9006873E+03  0.7818609E-02  0.9424723E-01
        1   -1    0    0  501    0  0.00000000000E+00  0.00000000000E+00  0.13335429111E+04  0.13335429111E+04  0.50400001928E-02 0.  1.
       -1   -1    0    0    0  501  0.00000000000E+00  0.00000000000E+00 -0.15208315012E+03  0.15208315021E+03  0.50400001928E-02 0. -1.
    10030    2    1    2    0    0  0.00000000000E+00  0.00000000000E+00  0.11814597610E+04  0.14856260613E+04  0.90068730826E+03 0.  0.
        3    1    3    3  502    0  0.15899137805E+03  0.18821408827E+03 -0.31058473428E+02  0.24832929809E+03  0.10100000352E+00 0. -1.
       -3    1    3    3    0  502 -0.15899137805E+03 -0.18821408827E+03  0.12125182344E+04  0.12372967632E+04  0.10100000352E+00 0.  1.
</event>
<event>
 5   0  0.4243516E-04  0.9001427E+03  0.7818609E-02  0.9425403E-01
        2   -1    0    0  501    0  0.00000000000E+00  0.00000000000E+00  0.41838414567E+03  0.41838414568E+03  0.25500000920E-02 0. -1.
       -2   -1    0    0    0  501  0.00000000000E+00  0.00000000000E+00 -0.48415842008E+03  0.48415842008E+03  0.25500000920E-02 0.  1.
    10030    2    1    2    0    0  0.00000000000E+00  0.00000000000E+00 -0.65774274404E+02  0.90254256577E+03  0.90014267083E+03 0.  0.
        1    1    3    3  502    0  0.19300950082E+03  0.14360909131E+03  0.34850571797E+03  0.42347665107E+03  0.50400001928E-02 0. -1.
       -1    1    3    3    0  502 -0.19300950082E+03 -0.14360909131E+03 -0.41427999238E+03  0.47906591470E+03  0.50400001928E-02 0.  1.
</event>
<event>
 5   0  0.2308362E-04  0.9005255E+03  0.7818609E-02  0.9424925E-01
        1   -1    0    0  501    0  0.00000000000E+00  0.00000000000E+00  0.37970425404E+03  0.37970425407E+03  0.50400001928E-02 0. -1.
       -1   -1    0    0    0  501  0.00000000000E+00  0.00000000000E+00 -0.53393278245E+03  0.53393278247E+03  0.50400001928E-02 0.  1.
    10030    2    1    2    0    0  0.00000000000E+00  0.00000000000E+00 -0.15422852841E+03  0.91363703654E+03  0.90052551078E+03 0.  0.
        1    1    3    3  502    0 -0.21024954908E+03  0.39815991644E+03 -0.76508134225E+02  0.45671619916E+03  0.50400001928E-02 0. -1.
       -1    1    3    3    0  502  0.21024954908E+03 -0.39815991644E+03 -0.77720394189E+02  0.45692083739E+03  0.50400001928E-02 0.  1.
</event>
<event>
 5   0  0.3959804E-04  0.8993345E+03  0.7818609E-02  0.9426414E-01
        2   -1    0    0  501    0  0.00000000000E+00  0.00000000000E+00  0.17395450713E+04  0.17395450713E+04  0.25500000920E-02 0. -1.
       -2   -1    0    0    0  501  0.00000000000E+00  0.00000000000E+00 -0.11623766130E+03  0.11623766133E+03  0.25500000920E-02 0.  1.
    10030    2    1    2    0    0  0.00000000000E+00  0.00000000000E+00  0.16233074100E+04  0.18557827326E+04  0.89933453364E+03 0.  0.
        5    1    3    3  502    0  0.14238501193E+03  0.39882422913E+03  0.49976846677E+03  0.65507623048E+03  0.46999998093E+01 0.  1.
       -5    1    3    3    0  502 -0.14238501193E+03 -0.39882422913E+03  0.11235389432E+04  0.12007065022E+04  0.46999998093E+01 0. -1.
</event>
<event>
 5   0  0.2332791E-04  0.9001021E+03  0.7818609E-02  0.9425454E-01
       -1   -1    0    0    0  501  0.00000000000E+00  0.00000000000E+00  0.44057977475E+03  0.44057977477E+03  0.50400001928E-02 0. -1.
        1   -1    0    0  501    0  0.00000000000E+00  0.00000000000E+00 -0.45972591482E+03  0.45972591485E+03  0.50400001928E-02 0.  1.
    10030    2    1    2    0    0  0.00000000000E+00  0.00000000000E+00 -0.19146140076E+02  0.90030568962E+03  0.90010208315E+03 0.  0.
        2    1    3    3  502    0  0.36253346363E+03  0.22907273486E+03 -0.14613640421E+03  0.45305703697E+03  0.25500000920E-02 0.  1.
       -2    1    3    3    0  502 -0.36253346363E+03 -0.22907273486E+03  0.12699026413E+03  0.44724865265E+03  0.25500000920E-02 0. -1.
</event>
<event>
 5   0  0.4110039E-04  0.9003019E+03  0.7818609E-02  0.9425204E-01
       -2   -1    0    0    0  501  0.00000000000E+00  0.00000000000E+00  0.96125427257E+02  0.96125427291E+02  0.25500000920E-02 0.  1.
        2   -1    0    0  501    0  0.00000000000E+00  0.00000000000E+00 -0.21080359959E+04  0.21080359959E+04  0.25500000920E-02 0. -1.
    10030    2    1    2    0    0  0.00000000000E+00  0.00000000000E+00 -0.20119105686E+04  0.22041614232E+04  0.90030186230E+03 0.  0.
        3    1    3    3  502    0  0.33242217123E+03 -0.97867828437E+02 -0.30252298297E+03  0.46000301868E+03  0.10100000352E+00 0.  1.
       -3    1    3    3    0  502 -0.33242217123E+03  0.97867828437E+02 -0.17093875857E+04  0.17441584045E+04  0.10100000352E+00 0. -1.
</event>
<event>
 5   0  0.4236284E-04  0.9000911E+03  0.7818609E-02  0.9425468E-01
        2   -1    0    0  501    0  0.00000000000E+00  0.00000000000E+00  0.16339956532E+04  0.16339956532E+04  0.25500000920E-02 0. -1.
       -2   -1    0    0    0  501  0.00000000000E+00  0.00000000000E+00 -0.12395443235E+03  0.12395443237E+03  0.25500000920E-02 0.  1.
    10030    2    1    2    0    0  0.00000000000E+00  0.00000000000E+00  0.15100412209E+04  0.17579500856E+04  0.90009111467E+03 0.  0.
        2    1    3    3  502    0 -0.32276061783E+03 -0.31311927303E+03  0.71992445584E+03  0.84882820269E+03  0.25500000920E-02 0.  1.
       -2    1    3    3    0  502  0.32276061783E+03  0.31311927303E+03  0.79011676505E+03  0.90912188291E+03  0.25500000920E-02 0. -1.
</event>
<event>
 5   0  0.1596250E-04  0.9003331E+03  0.7818609E-02  0.9425165E-01
        4   -1    0    0  501    0  0.00000000000E+00  0.00000000000E+00  0.15781133471E+04  0.15781138581E+04  0.12699999809E+01 0.  1.
       -4   -1    0    0    0  501  0.00000000000E+00  0.00000000000E+00 -0.12840910539E+03  0.12841538555E+03  0.12699999809E+01 0. -1.
    10030    2    1    2    0    0  0.00000000000E+00  0.00000000000E+00  0.14497042417E+04  0.17065292437E+04  0.90033308897E+03 0.  0.
        5    1    3    3  502    0  0.11463304894E+03  0.35251057298E+03  0.12089266144E+04  0.12644880739E+04  0.46999998093E+01 0.  1.
       -5    1    3    3    0  502 -0.11463304894E+03 -0.35251057298E+03  0.24077762729E+03  0.44204116978E+03  0.46999998093E+01 0. -1.
</event>
<event>
 5   0  0.3959804E-04  0.9001660E+03  0.7818609E-02  0.9425374E-01
        2   -1    0    0  501    0  0.00000000000E+00  0.00000000000E+00  0.88483439207E+03  0.88483439207E+03  0.25500000920E-02 0. -1.
       -2   -1    0    0    0  501  0.00000000000E+00  0.00000000000E+00 -0.22894082882E+03  0.22894082883E+03  0.25500000920E-02 0.  1.
    10030    2    1    2    0    0  0.00000000000E+00  0.00000000000E+00  0.65589356325E+03  0.11137752209E+04  0.90016602713E+03 0.  0.
        5    1    3    3  502    0  0.69995878333E+01 -0.32002012352E+03  0.71939283311E+03  0.78740714501E+03  0.46999998093E+01 0. -1.
       -5    1    3    3    0  502 -0.69995878333E+01  0.32002012352E+03 -0.63499269862E+02  0.32636807589E+03  0.46999998093E+01 0.  1.
</event>
<event>
 5   0  0.3959804E-04  0.8999661E+03  0.7818609E-02  0.9425624E-01
        2   -1    0    0  501    0  0.00000000000E+00  0.00000000000E+00  0.27939259011E+03  0.27939259013E+03  0.25500000920E-02 0.  1.
       -2   -1    0    0    0  501  0.00000000000E+00  0.00000000000E+00 -0.72473203492E+03  0.72473203493E+03  0.25500000920E-02 0. -1.
    10030    2    1    2    0    0  0.00000000000E+00  0.00000000000E+00 -0.44533944481E+03  0.10041246251E+04  0.89996613355E+03 0.  0.
        5    1    3    3  502    0 -0.30125637198E+03  0.50830372366E+02  0.14590086766E+03  0.33859752155E+03  0.46999998093E+01 0.  1.
       -5    1    3    3    0  502  0.30125637198E+03 -0.50830372366E+02 -0.59124031247E+03  0.66552710351E+03  0.46999998093E+01 0. -1.
</event>
<event>
 5   0  0.4110039E-04  0.8958596E+03  0.7818609E-02  0.9430772E-01
        2   -1    0    0  501    0  0.00000000000E+00  0.00000000000E+00  0.66541225792E+03  0.66541225792E+03  0.25500000920E-02 0. -1.
       -2   -1    0    0    0  501  0.00000000000E+00  0.00000000000E+00 -0.30152900822E+03  0.30152900823E+03  0.25500000920E-02 0.  1.
    10030    2    1    2    0    0  0.00000000000E+00  0.00000000000E+00  0.36388324970E+03  0.96694126615E+03  0.89585958318E+03 0.  0.
        3    1    3    3  502    0 -0.32397174109E+01 -0.10125696890E+03 -0.28900110413E+03  0.30624355978E+03  0.10100000352E+00 0.  1.
       -3    1    3    3    0  502  0.32397174109E+01  0.10125696890E+03  0.65288435383E+03  0.66069770637E+03  0.10100000352E+00 0. -1.
</event>
<event>
 5   0  0.4243516E-04  0.8999771E+03  0.7818609E-02  0.9425610E-01
        2   -1    0    0  501    0  0.00000000000E+00  0.00000000000E+00  0.91444353643E+03  0.91444353644E+03  0.25500000920E-02 0.  1.
       -2   -1    0    0    0  501  0.00000000000E+00  0.00000000000E+00 -0.22143489740E+03  0.22143489741E+03  0.25500000920E-02 0. -1.
    10030    2    1    2    0    0  0.00000000000E+00  0.00000000000E+00  0.69300863903E+03  0.11358784339E+04  0.89997713455E+03 0.  0.
        1    1    3    3  502    0  0.42876519159E+03 -0.11802425685E+03  0.43321839377E+03  0.62084417647E+03  0.50400001928E-02 0.  1.
       -1    1    3    3    0  502 -0.42876519159E+03  0.11802425685E+03  0.25979024526E+03  0.51503425739E+03  0.50400001928E-02 0. -1.
</event>
<event>
 5   0  0.2356918E-04  0.8969406E+03  0.7818609E-02  0.9429414E-01
       -1   -1    0    0    0  501  0.00000000000E+00  0.00000000000E+00  0.26054649947E+03  0.26054649952E+03  0.50400001928E-02 0.  1.
        1   -1    0    0  501    0  0.00000000000E+00  0.00000000000E+00 -0.77193757106E+03  0.77193757107E+03  0.50400001928E-02 0. -1.
    10030    2    1    2    0    0  0.00000000000E+00  0.00000000000E+00 -0.51139107158E+03  0.10324840706E+04  0.89694064906E+03 0.  0.
        5    1    3    3  502    0 -0.37669732554E+03  0.15853104589E+03 -0.46817129084E+03  0.62148162896E+03  0.46999998093E+01 0. -1.
       -5    1    3    3    0  502  0.37669732554E+03 -0.15853104589E+03 -0.43219780747E+02  0.41100244163E+03  0.46999998093E+01 0.  1.
</event>
<event>
 5   0  0.2308362E-04  0.8966650E+03  0.7818609E-02  0.9429760E-01
        1   -1    0    0  501    0  0.00000000000E+00  0.00000000000E+00  0.51932934318E+03  0.51932934321E+03  0.50400001928E-02 0. -1.
       -1   -1    0    0    0  501  0.00000000000E+00  0.00000000000E+00 -0.38704154545E+03  0.38704154548E+03  0.50400001928E-02 0.  1.
    10030    2    1    2    0    0  0.00000000000E+00  0.00000000000E+00  0.13228779773E+03  0.90637088869E+03  0.89666500235E+03 0.  0.
        1    1    3    3  502    0 -0.23112754633E+03  0.39797740558E+02 -0.32008923013E+03  0.39681345504E+03  0.50400001928E-02 0.  1.
       -1    1    3    3    0  502  0.23112754633E+03 -0.39797740558E+02  0.45237702787E+03  0.50955743366E+03  0.50400001928E-02 0. -1.
</event>
<event>
 5   0  0.1596250E-04  0.8997080E+03  0.7818609E-02  0.9425946E-01
       -3   -1    0    0    0  501  0.00000000000E+00  0.00000000000E+00  0.16838284576E+03  0.16838287605E+03  0.10100000352E+00 0.  1.
        3   -1    0    0  501    0  0.00000000000E+00  0.00000000000E+00 -0.12018362613E+04  0.12018362655E+04  0.10100000352E+00 0. -1.
    10030    2    1    2    0    0  0.00000000000E+00  0.00000000000E+00 -0.10334534155E+04  0.13702191416E+04  0.89970802701E+03 0.  0.
        4    1    3    3  502    0  0.11565722878E+03  0.31261390181E+03 -0.56644175950E+02  0.33810386236E+03  0.12699999809E+01 0.  1.
       -4    1    3    3    0  502 -0.11565722878E+03 -0.31261390181E+03 -0.97680923958E+03  0.10321152792E+04  0.12699999809E+01 0. -1.
</event>
<event>
 5   0  0.4236284E-04  0.8995722E+03  0.7818609E-02  0.9426116E-01
       -2   -1    0    0    0  501  0.00000000000E+00  0.00000000000E+00  0.22712042147E+03  0.22712042148E+03  0.25500000920E-02 0. -1.
        2   -1    0    0  501    0  0.00000000000E+00  0.00000000000E+00 -0.89075003943E+03  0.89075003943E+03  0.25500000920E-02 0.  1.
    10030    2    1    2    0    0  0.00000000000E+00  0.00000000000E+00 -0.66362961796E+03  0.11178704609E+04  0.89957217473E+03 0.  0.
        2    1    3    3  502    0  0.39173122755E+02 -0.22336048658E+03 -0.81451307951E+03  0.84549157134E+03  0.25500000920E-02 0.  1.
       -2    1    3    3    0  502 -0.39173122755E+02  0.22336048658E+03  0.15088346155E+03  0.27237888957E+03  0.25500000920E-02 0. -1.
</event>
<event>
 5   0  0.2332791E-04  0.9000352E+03  0.7818609E-02  0.9425537E-01
       -1   -1    0    0    0  501  0.00000000000E+00  0.00000000000E+00  0.14218141318E+03  0.14218141327E+03  0.50400001928E-02 0. -1.
        1   -1    0    0  501    0  0.00000000000E+00  0.00000000000E+00 -0.14243481317E+04  0.14243481317E+04  0.50400001928E-02 0.  1.
    10030    2    1    2    0    0  0.00000000000E+00  0.00000000000E+00 -0.12821667185E+04  0.15665295450E+04  0.90003517776E+03 0.  0.
        2    1    3    3  502    0 -0.20113423189E+03  0.38820448711E+03 -0.45558824687E+03  0.63144148877E+03  0.25500000920E-02 0. -1.
       -2    1    3    3    0  502  0.20113423189E+03 -0.38820448711E+03 -0.82657847166E+03  0.93508805621E+03  0.25500000920E-02 0.  1.
</event>
<event>
 5   0  0.4110039E-04  0.8989968E+03  0.7818609E-02  0.9426836E-01
       -2   -1    0    0    0  501  0.00000000000E+00  0.00000000000E+00  0.22886469510E+03  0.22886469511E+03  0.25500000920E-02 0.  1.
        2   -1    0    0  501    0  0.00000000000E+00  0.00000000000E+00 -0.88283080968E+03  0.88283080968E+03  0.25500000920E-02 0. -1.
    10030    2    1    2    0    0  0.00000000000E+00  0.00000000000E+00 -0.65396611458E+03  0.11116955048E+04  0.89899678328E+03 0.  0.
        3    1    3    3  502    0 -0.14949532216E+03  0.31068541610E+03  0.29651029003E+02  0.34605414728E+03  0.10100000352E+00 0.  1.
       -3    1    3    3    0  502  0.14949532216E+03 -0.31068541610E+03 -0.68361714358E+03  0.76564135751E+03  0.10100000352E+00 0. -1.
</event>
<event>
 5   0  0.3959804E-04  0.8993799E+03  0.7818609E-02  0.9426357E-01
        2   -1    0    0  501    0  0.00000000000E+00  0.00000000000E+00  0.18052791079E+03  0.18052791081E+03  0.25500000920E-02 0.  1.
       -2   -1    0    0    0  501  0.00000000000E+00  0.00000000000E+00 -0.11201649745E+04  0.11201649745E+04  0.25500000920E-02 0. -1.
    10030    2    1    2    0    0  0.00000000000E+00  0.00000000000E+00 -0.93963706373E+03  0.13006928853E+04  0.89937988104E+03 0.  0.
        5    1    3    3  502    0  0.16122848485E+03 -0.25583949929E+02 -0.10757615047E+04  0.10880873439E+04  0.46999998093E+01 0. -1.
       -5    1    3    3    0  502 -0.16122848485E+03  0.25583949929E+02  0.13612444101E+03  0.21260554146E+03  0.46999998093E+01 0.  1.
</event>
<event>
 5   0  0.1596250E-04  0.8999586E+03  0.7818609E-02  0.9425633E-01
       -3   -1    0    0    0  501  0.00000000000E+00  0.00000000000E+00  0.37751836809E+03  0.37751838160E+03  0.10100000352E+00 0.  1.
        3   -1    0    0  501    0  0.00000000000E+00  0.00000000000E+00 -0.53634839459E+03  0.53634840410E+03  0.10100000352E+00 0. -1.
    10030    2    1    2    0    0  0.00000000000E+00  0.00000000000E+00 -0.15883002650E+03  0.91386678570E+03  0.89995862388E+03 0.  0.
        4    1    3    3  502    0  0.63971663321E+02  0.39244139528E+03  0.13449939307E+03  0.41975507391E+03  0.12699999809E+01 0.  1.
       -4    1    3    3    0  502 -0.63971663321E+02 -0.39244139528E+03 -0.29332941957E+03  0.49411171179E+03  0.12699999809E+01 0. -1.
</event>
<event>
 5   0  0.2450427E-04  0.9006613E+03  0.7818609E-02  0.9424755E-01
       -1   -1    0    0    0  501  0.00000000000E+00  0.00000000000E+00  0.20327913547E+03  0.20327913553E+03  0.50400001928E-02 0.  1.
        1   -1    0    0  501    0  0.00000000000E+00  0.00000000000E+00 -0.99763164102E+03  0.99763164103E+03  0.50400001928E-02 0. -1.
    10030    2    1    2    0    0  0.00000000000E+00  0.00000000000E+00 -0.79435250555E+03  0.12009107766E+04  0.90066130715E+03 0.  0.
        3    1    3    3  502    0  0.11127291065E+03 -0.43634367602E+03 -0.40317241180E+03  0.60442159796E+03  0.10100000352E+00 0. -1.
       -3    1    3    3    0  502 -0.11127291065E+03  0.43634367602E+03 -0.39118009375E+03  0.59648917860E+03  0.10100000352E+00 0.  1.
</event>
<event>
 5   0  0.2356918E-04  0.9003154E+03  0.7818609E-02  0.9425187E-01
        1   -1    0    0  501    0  0.00000000000E+00  0.00000000000E+00  0.22284000752E+03  0.22284000757E+03  0.50400001928E-02 0.  1.
       -1   -1    0    0    0  501  0.00000000000E+00  0.00000000000E+00 -0.90936069459E+03  0.90936069460E+03  0.50400001928E-02 0. -1.
    10030    2    1    2    0    0  0.00000000000E+00  0.00000000000E+00 -0.68652068707E+03  0.11322007022E+04  0.90031537599E+03 0.  0.
        5    1    3    3  502    0 -0.18568679178E+03  0.29614285977E+03  0.13407461427E+02  0.34983142805E+03  0.46999998093E+01 0.  1.
       -5    1    3    3    0  502  0.18568679178E+03 -0.29614285977E+03 -0.69992814850E+03  0.78236927412E+03  0.46999998093E+01 0. -1.
</event>
<event>
 5   0  0.4243516E-04  0.8951510E+03  0.7818609E-02  0.9431663E-01
       -2   -1    0    0    0  501  0.00000000000E+00  0.00000000000E+00  0.21194114849E+03  0.21194114851E+03  0.25500000920E-02 0. -1.
        2   -1    0    0  501    0  0.00000000000E+00  0.00000000000E+00 -0.94518620172E+03  0.94518620172E+03  0.25500000920E-02 0.  1.
    10030    2    1    2    0    0  0.00000000000E+00  0.00000000000E+00 -0.73324505322E+03  0.11571273502E+04  0.89515104679E+03 0.  0.
        1    1    3    3  502    0 -0.24130065097E+03  0.15821515086E+03  0.75660093821E+02  0.29829932608E+03  0.50400001928E-02 0. -1.
       -1    1    3    3    0  502  0.24130065097E+03 -0.15821515086E+03 -0.80890514704E+03  0.85882802415E+03  0.50400001928E-02 0.  1.
</event>
<event>
 5   0  0.4033144E-04  0.9004226E+03  0.7818609E-02  0.9425053E-01
        2   -1    0    0  501    0  0.00000000000E+00  0.00000000000E+00  0.48569327127E+03  0.48569327128E+03  0.25500000920E-02 0.  1.
       -2   -1    0    0    0  501  0.00000000000E+00  0.00000000000E+00 -0.41732144855E+03  0.41732144856E+03  0.25500000920E-02 0. -1.
    10030    2    1    2    0    0  0.00000000000E+00  0.00000000000E+00  0.68371822718E+02  0.90301471984E+03  0.90042261084E+03 0.  0.
        4    1    3    3  502    0  0.39624372343E+02 -0.13710035769E+00 -0.41556747796E+03  0.41745425057E+03  0.12699999809E+01 0. -1.
       -4    1    3    3    0  502 -0.39624372343E+02  0.13710035769E+00  0.48393930068E+03  0.48556046927E+03  0.12699999809E+01 0.  1.
</event>
<event>
 5   0  0.1596250E-04  0.9001996E+03  0.7818609E-02  0.9425332E-01
        4   -1    0    0  501    0  0.00000000000E+00  0.00000000000E+00  0.65907082717E+03  0.65907205079E+03  0.12699999809E+01 0. -1.
       -4   -1    0    0    0  501  0.00000000000E+00  0.00000000000E+00 -0.30738424577E+03  0.30738686935E+03  0.12699999809E+01 0.  1.
    10030    2    1    2    0    0  0.00000000000E+00  0.00000000000E+00  0.35168658140E+03  0.96645892013E+03  0.90019964051E+03 0.  0.
        3    1    3    3  502    0  0.36890280588E+03  0.25767339093E+03  0.18684349555E+03  0.48723234561E+03  0.10100000352E+00 0. -1.
       -3    1    3    3    0  502 -0.36890280588E+03 -0.25767339093E+03  0.16484308585E+03  0.47922657453E+03  0.10100000352E+00 0.  1.
</event>
<event>
 5   0  0.2351435E-04  0.9000366E+03  0.7818609E-02  0.9425536E-01
       -1   -1    0    0    0  501  0.00000000000E+00  0.00000000000E+00  0.33124527148E+03  0.33124527152E+03  0.50400001928E-02 0. -1.
        1   -1    0    0  501    0  0.00000000000E+00  0.00000000000E+00 -0.61137913691E+03  0.61137913693E+03  0.50400001928E-02 0.  1.
    10030    2    1    2    0    0  0.00000000000E+00  0.00000000000E+00 -0.28013386543E+03  0.94262440845E+03  0.90003655083E+03 0.  0.
        4    1    3    3  502    0  0.24103053282E+03 -0.36573968721E+03 -0.31966681650E+02  0.43918642760E+03  0.12699999809E+01 0. -1.
       -4    1    3    3    0  502 -0.24103053282E+03  0.36573968721E+03 -0.24816718378E+03  0.50343798085E+03  0.12699999809E+01 0.  1.
</event>
<event>
 5   0  0.3959804E-04  0.9011791E+03  0.7818609E-02  0.9424109E-01
        2   -1    0    0  501    0  0.00000000000E+00  0.00000000000E+00  0.36612082251E+03  0.36612082252E+03  0.25500000920E-02 0.  1.
       -2   -1    0    0    0  501  0.00000000000E+00  0.00000000000E+00 -0.55454627564E+03  0.55454627565E+03  0.25500000920E-02 0. -1.
    10030    2    1    2    0    0  0.00000000000E+00  0.00000000000E+00 -0.18842545313E+03  0.92066709817E+03  0.90117909112E+03 0.  0.
        5    1    3    3  502    0  0.28413315238E+03 -0.31514839440E+03 -0.24901062713E+03  0.49201477742E+03  0.46999998093E+01 0. -1.
       -5    1    3    3    0  502 -0.28413315238E+03  0.31514839440E+03  0.60585174000E+02  0.42865232075E+03  0.46999998093E+01 0.  1.
</event>
<event>
 5   0  0.2308362E-04  0.8999441E+03  0.7818609E-02  0.9425651E-01
       -1   -1    0    0    0  501  0.00000000000E+00  0.00000000000E+00  0.12422545318E+03  0.12422545328E+03  0.50400001928E-02 0. -1.
        1   -1    0    0  501    0  0.00000000000E+00  0.00000000000E+00 -0.16298982377E+04  0.16298982377E+04  0.50400001928E-02 0.  1.
    10030    2    1    2    0    0  0.00000000000E+00  0.00000000000E+00 -0.15056727845E+04  0.17541236910E+04  0.89994410340E+03 0.  0.
        1    1    3    3  502    0  0.21265656969E+03  0.29858587071E+03 -0.12614798680E+04  0.13136619795E+04  0.50400001928E-02 0.  1.
       -1    1    3    3    0  502 -0.21265656969E+03 -0.29858587071E+03 -0.24419291645E+03  0.44046171149E+03  0.50400001928E-02 0. -1.
</event>
<event>
 5   0  0.3959804E-04  0.8998851E+03  0.7818609E-02  0.9425725E-01
        2   -1    0    0  501    0  0.00000000000E+00  0.00000000000E+00  0.12371052282E+04  0.12371052282E+04  0.25500000920E-02 0.  1.
       -2   -1    0    0    0  501  0.00000000000E+00  0.00000000000E+00 -0.16364679459E+03  0.16364679461E+03  0.25500000920E-02 0. -1.
    10030    2    1    2    0    0  0.00000000000E+00  0.00000000000E+00  0.10734584336E+04  0.14007520228E+04  0.89988511528E+03 0.  0.
        5    1    3    3  502    0  0.26681819693E+03 -0.77957903773E+02  0.10874119606E+04  0.11223886346E+04  0.46999998093E+01 0.  1.
       -5    1    3    3    0  502 -0.26681819693E+03  0.77957903773E+02 -0.13953527025E+02  0.27836338820E+03  0.46999998093E+01 0. -1.
</event>
<event>
 5   0  0.2332791E-04  0.8990591E+03  0.7818609E-02  0.9426758E-01
        1   -1    0    0  501    0  0.00000000000E+00  0.00000000000E+00  0.36005702713E+03  0.36005702717E+03  0.50400001928E-02 0.  1.
       -1   -1    0    0    0  501  0.00000000000E+00  0.00000000000E+00 -0.56123555547E+03  0.56123555549E+03  0.50400001928E-02 0. -1.
    10030    2    1    2    0    0  0.00000000000E+00  0.00000000000E+00 -0.20117852834E+03  0.92129258266E+03  0.89905907626E+03 0.  0.
        2    1    3    3  502    0 -0.19318626622E+03  0.12186060686E+03  0.29616230845E+03  0.37400943025E+03  0.25500000920E-02 0.  1.
       -2    1    3    3    0  502  0.19318626622E+03 -0.12186060686E+03 -0.49734083679E+03  0.54728315241E+03  0.25500000920E-02 0. -1.
</event>
<event>
 5   0  0.4243516E-04  0.9004003E+03  0.7818609E-02  0.9425081E-01
       -2   -1    0    0    0  501  0.00000000000E+00  0.00000000000E+00  0.52677048390E+03  0.52677048390E+03  0.25500000920E-02 0. -1.
        2   -1    0    0  501    0  0.00000000000E+00  0.00000000000E+00 -0.38475992663E+03  0.38475992664E+03  0.25500000920E-02 0.  1.
    10030    2    1    2    0    0  0.00000000000E+00  0.00000000000E+00  0.14201055727E+03  0.91153041054E+03  0.90040029485E+03 0.  0.
        1    1    3    3  502    0  0.36461315127E+03 -0.24884103964E+03 -0.18493183751E+02  0.44182192223E+03  0.50400001928E-02 0.  1.
       -1    1    3    3    0  502 -0.36461315127E+03  0.24884103964E+03  0.16050374102E+03  0.46970848832E+03  0.50400001928E-02 0. -1.
</event>
<event>
 5   0  0.4236284E-04  0.9002522E+03  0.7818609E-02  0.9425266E-01
       -2   -1    0    0    0  501  0.00000000000E+00  0.00000000000E+00  0.19462421311E+03  0.19462421312E+03  0.25500000920E-02 0.  1.
        2   -1    0    0  501    0  0.00000000000E+00  0.00000000000E+00 -0.10410498724E+04  0.10410498724E+04  0.25500000920E-02 0. -1.
    10030    2    1    2    0    0  0.00000000000E+00  0.00000000000E+00 -0.84642565929E+03  0.12356740855E+04  0.90025221406E+03 0.  0.
        2    1    3    3  502    0  0.12975025162E+03  0.33592231860E+03 -0.52526572979E+02  0.36392028359E+03  0.25500000920E-02 0.  1.
       -2    1    3    3    0  502 -0.12975025162E+03 -0.33592231860E+03 -0.79389908631E+03  0.87175380193E+03  0.25500000920E-02 0. -1.
</event>
<event>
 5   0  0.2356918E-04  0.8994837E+03  0.7818609E-02  0.9426227E-01
        1   -1    0    0  501    0  0.00000000000E+00  0.00000000000E+00  0.77866871009E+03  0.77866871011E+03  0.50400001928E-02 0. -1.
       -1   -1    0    0    0  501  0.00000000000E+00  0.00000000000E+00 -0.25976095552E+03  0.25976095557E+03  0.50400001928E-02 0.  1.
    10030    2    1    2    0    0  0.00000000000E+00  0.00000000000E+00  0.51890775457E+03  0.10384296657E+04  0.89948369235E+03 0.  0.
        5    1    3    3  502    0 -0.27592381370E+03 -0.27569491994E+03  0.10375292337E+01  0.39008307616E+03  0.46999998093E+01 0.  1.
       -5    1    3    3    0  502  0.27592381370E+03  0.27569491994E+03  0.51787022534E+03  0.64834658951E+03  0.46999998093E+01 0. -1.
</event>
<event>
 5   0  0.2351435E-04  0.8995784E+03  0.7818609E-02  0.9426109E-01
       -1   -1    0    0    0  501  0.00000000000E+00  0.00000000000E+00  0.34075919290E+03  0.34075919293E+03  0.50400001928E-02 0. -1.
        1   -1    0    0  501    0  0.00000000000E+00  0.00000000000E+00 -0.59370471721E+03  0.59370471724E+03  0.50400001928E-02 0.  1.
    10030    2    1    2    0    0  0.00000000000E+00  0.00000000000E+00 -0.25294552432E+03  0.93446391017E+03  0.89957843523E+03 0.  0.
        4    1    3    3  502    0  0.33984158821E+03  0.18705519375E+02 -0.43192794758E+03  0.54991414451E+03  0.12699999809E+01 0.  1.
       -4    1    3    3    0  502 -0.33984158821E+03 -0.18705519375E+02  0.17898242327E+03  0.38454976566E+03  0.12699999809E+01 0. -1.
</event>
<event>
 5   0  0.1596250E-04  0.8999885E+03  0.7818609E-02  0.9425596E-01
        3   -1    0    0  501    0  0.00000000000E+00  0.00000000000E+00  0.30844031887E+03  0.30844033541E+03  0.10100000352E+00 0.  1.
       -3   -1    0    0    0  501  0.00000000000E+00  0.00000000000E+00 -0.65651218089E+03  0.65651218866E+03  0.10100000352E+00 0. -1.
    10030    2    1    2    0    0  0.00000000000E+00  0.00000000000E+00 -0.34807186202E+03  0.96495252407E+03  0.89998852913E+03 0.  0.
        4    1    3    3  502    0  0.34592102576E+03  0.15232907961E+03 -0.43585005800E+03  0.57691627686E+03  0.12699999809E+01 0. -1.
       -4    1    3    3    0  502 -0.34592102576E+03 -0.15232907961E+03  0.87778195978E+02  0.38803624720E+03  0.12699999809E+01 0.  1.
</event>
<event>
 5   0  0.4033144E-04  0.9005215E+03  0.7818609E-02  0.9424930E-01
        2   -1    0    0  501    0  0.00000000000E+00  0.00000000000E+00  0.26725434845E+03  0.26725434846E+03  0.25500000920E-02 0. -1.
       -2   -1    0    0    0  501  0.00000000000E+00  0.00000000000E+00 -0.75858347713E+03  0.75858347713E+03  0.25500000920E-02 0.  1.
    10030    2    1    2    0    0  0.00000000000E+00  0.00000000000E+00 -0.49132912868E+03  0.10258378256E+04  0.90052147766E+03 0.  0.
        4    1    3    3  502    0 -0.29462228836E+03  0.13041376657E+03  0.11262440779E+03  0.34131497687E+03  0.12699999809E+01 0. -1.
       -4    1    3    3    0  502  0.29462228836E+03 -0.13041376657E+03 -0.60395353647E+03  0.68452284872E+03  0.12699999809E+01 0.  1.
</event>
<event>
 5   0  0.3959804E-04  0.8999400E+03  0.7818609E-02  0.9425656E-01
        2   -1    0    0  501    0  0.00000000000E+00  0.00000000000E+00  0.20809012008E+04  0.20809012008E+04  0.25500000920E-02 0.  1.
       -2   -1    0    0    0  501  0.00000000000E+00  0.00000000000E+00 -0.97300634396E+02  0.97300634429E+02  0.25500000920E-02 0. -1.
    10030    2    1    2    0    0  0.00000000000E+00  0.00000000000E+00  0.19836005664E+04  0.21782018352E+04  0.89994001354E+03 0.  0.
        5    1    3    3  502    0 -0.27426298578E+03 -0.35664345156E+03  0.10063588734E+04  0.11023588385E+04  0.46999998093E+01 0.  1.
       -5    1    3    3    0  502  0.27426298578E+03  0.35664345156E+03  0.97724169305E+03  0.10758429967E+04  0.46999998093E+01 0. -1.
</event>
<event>
 5   0  0.2351435E-04  0.8985406E+03  0.7818609E-02  0.9427408E-01
       -1   -1    0    0    0  501  0.00000000000E+00  0.00000000000E+00  0.38522141913E+03  0.38522141916E+03  0.50400001928E-02 0.  1.
        1   -1    0    0  501    0  0.00000000000E+00  0.00000000000E+00 -0.52396822202E+03  0.52396822204E+03  0.50400001928E-02 0. -1.
    10030    2    1    2    0    0  0.00000000000E+00  0.00000000000E+00 -0.13874680289E+03  0.90918964120E+03  0.89854055465E+03 0.  0.
        4    1    3    3  502    0  0.17203148981E+03 -0.22817878940E+03 -0.42015443554E+03  0.50812572856E+03  0.12699999809E+01 0. -1.
       -4    1    3    3    0  502 -0.17203148981E+03  0.22817878940E+03  0.28140763264E+03  0.40106391265E+03  0.12699999809E+01 0.  1.
</event>
<event>
 5   0  0.4033144E-04  0.8994468E+03  0.7818609E-02  0.9426273E-01
       -2   -1    0    0    0  501  0.00000000000E+00  0.00000000000E+00  0.21760822127E+03  0.21760822128E+03  0.25500000920E-02 0. -1.
        2   -1    0    0  501    0  0.00000000000E+00  0.00000000000E+00 -0.92942787894E+03  0.92942787894E+03  0.25500000920E-02 0.  1.
    10030    2    1    2    0    0  0.00000000000E+00  0.00000000000E+00 -0.71181965767E+03  0.11470361002E+04  0.89944682454E+03 0.  0.
        4    1    3    3  502    0 -0.60700011821E+02 -0.42688923230E+03 -0.51887808459E+03  0.67465175288E+03  0.12699999809E+01 0.  1.
       -4    1    3    3    0  502  0.60700011821E+02  0.42688923230E+03 -0.19294157308E+03  0.47238434734E+03  0.12699999809E+01 0. -1.
</event>
<event>
 5   0  0.1596250E-04  0.8998428E+03  0.7818609E-02  0.9425778E-01
        3   -1    0    0  501    0  0.00000000000E+00  0.00000000000E+00  0.44726150734E+03  0.44726151875E+03  0.10100000352E+00 0. -1.
       -3   -1    0    0    0  501  0.00000000000E+00  0.00000000000E+00 -0.45259709964E+03  0.45259711091E+03  0.10100000352E+00 0.  1.
    10030    2    1    2    0    0  0.00000000000E+00  0.00000000000E+00 -0.53355923002E+01  0.89985862966E+03  0.89984281118E+03 0.  0.
        2    1    3    3  502    0  0.18103306861E+03 -0.22163164282E+03 -0.34985643658E+03  0.45198792379E+03  0.25500000920E-02 0.  1.
       -2    1    3    3    0  502 -0.18103306861E+03  0.22163164282E+03  0.34452084428E+03  0.44787070587E+03  0.25500000920E-02 0. -1.
</event>
<event>
 5   0  0.2450427E-04  0.8997026E+03  0.7818609E-02  0.9425953E-01
        1   -1    0    0  501    0  0.00000000000E+00  0.00000000000E+00  0.11114013033E+04  0.11114013033E+04  0.50400001928E-02 0.  1.
       -1   -1    0    0    0  501  0.00000000000E+00  0.00000000000E+00 -0.18208202856E+03  0.18208202863E+03  0.50400001928E-02 0. -1.
    10030    2    1    2    0    0  0.00000000000E+00  0.00000000000E+00  0.92931927471E+03  0.12934833319E+04  0.89970262619E+03 0.  0.
        3    1    3    3  502    0 -0.19011729384E+03  0.40752923638E+03  0.44755610742E+03  0.63445342100E+03  0.10100000352E+00 0.  1.
       -3    1    3    3    0  502  0.19011729384E+03 -0.40752923638E+03  0.48176316729E+03  0.65902991091E+03  0.10100000352E+00 0. -1.
</event>
<event>
 5   0  0.2332791E-04  0.9002827E+03  0.7818609E-02  0.9425228E-01
        1   -1    0    0  501    0  0.00000000000E+00  0.00000000000E+00  0.16237033829E+04  0.16237033829E+04  0.50400001928E-02 0.  1.
       -1   -1    0    0    0  501  0.00000000000E+00  0.00000000000E+00 -0.12479325487E+03  0.12479325497E+03  0.50400001928E-02 0. -1.
    10030    2    1    2    0    0  0.00000000000E+00  0.00000000000E+00  0.14989101281E+04  0.17484966379E+04  0.90028268935E+03 0.  0.
        2    1    3    3  502    0  0.43205813129E+03  0.14090583205E+02  0.99322919633E+03  0.10832252812E+04  0.25500000920E-02 0.  1.
       -2    1    3    3    0  502 -0.43205813129E+03 -0.14090583205E+02  0.50568093174E+03  0.66527135673E+03  0.25500000920E-02 0. -1.
</event>
<event>
 5   0  0.2332791E-04  0.9003627E+03  0.7818609E-02  0.9425128E-01
        1   -1    0    0  501    0  0.00000000000E+00  0.00000000000E+00  0.11227171230E+04  0.11227171230E+04  0.50400001928E-02 0.  1.
       -1   -1    0    0    0  501  0.00000000000E+00  0.00000000000E+00 -0.18051141075E+03  0.18051141082E+03  0.50400001928E-02 0. -1.
    10030    2    1    2    0    0  0.00000000000E+00  0.00000000000E+00  0.94220571222E+03  0.13032285338E+04  0.90036270868E+03 0.  0.
        2    1    3    3  502    0 -0.44115130022E+03 -0.89298857943E+02  0.45860976925E+03  0.64258203848E+03  0.25500000920E-02 0.  1.
       -2    1    3    3    0  502  0.44115130022E+03  0.89298857943E+02  0.48359594297E+03  0.66064649532E+03  0.25500000920E-02 0. -1.
</event>
<event>
 5   0  0.2308362E-04  0.9002781E+03  0.7818609E-02  0.9425234E-01
        1   -1    0    0  501    0  0.00000000000E+00  0.00000000000E+00  0.11987009981E+04  0.11987009981E+04  0.50400001928E-02 0. -1.
       -1   -1    0    0    0  501  0.00000000000E+00  0.00000000000E+00 -0.16903729965E+03  0.16903729973E+03  0.50400001928E-02 0.  1.
    10030    2    1    2    0    0  0.00000000000E+00  0.00000000000E+00  0.10296636985E+04  0.13677382979E+04  0.90027813452E+03 0.  0.
        1    1    3    3  502    0 -0.32827475312E+02  0.17441821059E+02  0.11963650883E+04  0.11969424734E+04  0.50400001928E-02 0. -1.
       -1    1    3    3    0  502  0.32827475312E+02 -0.17441821059E+02 -0.16670138980E+03  0.17079582443E+03  0.50400001928E-02 0.  1.
</event>
<event>
 5   0  0.2356918E-04  0.9006336E+03  0.7818609E-02  0.9424790E-01
        1   -1    0    0  501    0  0.00000000000E+00  0.00000000000E+00  0.79492307486E+03  0.79492307488E+03  0.50400001928E-02 0. -1.
       -1   -1    0    0    0  501  0.00000000000E+00  0.00000000000E+00 -0.25510045567E+03  0.25510045572E+03  0.50400001928E-02 0.  1.
    10030    2    1    2    0    0  0.00000000000E+00  0.00000000000E+00  0.53982261919E+03  0.10500235306E+04  0.90063364063E+03 0.  0.
        5    1    3    3  502    0 -0.10491196581E+02  0.45009586583E+03  0.26038284570E+03  0.52011313190E+03  0.46999998093E+01 0.  1.
       -5    1    3    3    0  502  0.10491196581E+02 -0.45009586583E+03  0.27943977349E+03  0.52991039870E+03  0.46999998093E+01 0. -1.
</event>
<event>
 5   0  0.2332791E-04  0.8999952E+03  0.7818609E-02  0.9425587E-01
        1   -1    0    0  501    0  0.00000000000E+00  0.00000000000E+00  0.80217266851E+03  0.80217266853E+03  0.50400001928E-02 0.  1.
       -1   -1    0    0    0  501  0.00000000000E+00  0.00000000000E+00 -0.25243674024E+03  0.25243674029E+03  0.50400001928E-02 0. -1.
    10030    2    1    2    0    0  0.00000000000E+00  0.00000000000E+00  0.54973592827E+03  0.10546094088E+04  0.89999523017E+03 0.  0.
        2    1    3    3  502    0  0.42926602226E+03 -0.48668522549E+02  0.12729669862E+03  0.45038027537E+03  0.25500000920E-02 0. -1.
       -2    1    3    3    0  502 -0.42926602226E+03  0.48668522549E+02  0.42243922965E+03  0.60422913345E+03  0.25500000920E-02 0.  1.
</event>
<event>
 5   0  0.4033144E-04  0.8993666E+03  0.7818609E-02  0.9426374E-01
        2   -1    0    0  501    0  0.00000000000E+00  0.00000000000E+00  0.18572954900E+04  0.18572954900E+04  0.25500000920E-02 0. -1.
       -2   -1    0    0    0  501  0.00000000000E+00  0.00000000000E+00 -0.10887609287E+03  0.10887609290E+03  0.25500000920E-02 0.  1.
    10030    2    1    2    0    0  0.00000000000E+00  0.00000000000E+00  0.17484193971E+04  0.19661715829E+04  0.89936661330E+03 0.  0.
        4    1    3    3  502    0 -0.26416217418E+03 -0.33319940751E+03  0.55432562237E+03  0.69862866241E+03  0.12699999809E+01 0. -1.
       -4    1    3    3    0  502  0.26416217418E+03  0.33319940751E+03  0.11940937748E+04  0.12675429205E+04  0.12699999809E+01 0.  1.
</event>
<event>
 5   0  0.4033144E-04  0.9003203E+03  0.7818609E-02  0.9425181E-01
       -2   -1    0    0    0  501  0.00000000000E+00  0.00000000000E+00  0.25790631757E+03  0.25790631759E+03  0.25500000920E-02 0.  1.
        2   -1    0    0  501    0  0.00000000000E+00  0.00000000000E+00 -0.78572781802E+03  0.78572781803E+03  0.25500000920E-02 0. -1.
    10030    2    1    2    0    0  0.00000000000E+00  0.00000000000E+00 -0.52782150045E+03  0.10436341356E+04  0.90032031671E+03 0.  0.
        4    1    3    3  502    0 -0.33610680168E+03 -0.21141851069E+03 -0.50974727162E+03  0.64614972152E+03  0.12699999809E+01 0. -1.
       -4    1    3    3    0  502  0.33610680168E+03  0.21141851069E+03 -0.18074228831E+02  0.39748441409E+03  0.12699999809E+01 0.  1.
</event>
<event>
 5   0  0.4243516E-04  0.8999603E+03  0.7818609E-02  0.9425631E-01
        2   -1    0    0  501    0  0.00000000000E+00  0.00000000000E+00  0.93297697031E+03  0.93297697031E+03  0.25500000920E-02 0. -1.
       -2   -1    0    0    0  501  0.00000000000E+00  0.00000000000E+00 -0.21702799767E+03  0.21702799769E+03  0.25500000920E-02 0.  1.
    10030    2    1    2    0    0  0.00000000000E+00  0.00000000000E+00  0.71594897263E+03  0.11500049680E+04  0.89996027413E+03 0.  0.
        1    1    3    3  502    0  0.34875965076E+03 -0.26991513144E+03  0.24371924105E+03  0.50387155175E+03  0.50400001928E-02 0.  1.
       -1    1    3    3    0  502 -0.34875965076E+03  0.26991513144E+03  0.47222973158E+03  0.64613341625E+03  0.50400001928E-02 0. -1.
</event>
<event>
 5   0  0.2351435E-04  0.9001368E+03  0.7818609E-02  0.9425410E-01
        1   -1    0    0  501    0  0.00000000000E+00  0.00000000000E+00  0.37336683185E+03  0.37336683188E+03  0.50400001928E-02 0.  1.
       -1   -1    0    0    0  501  0.00000000000E+00  0.00000000000E+00 -0.54252697770E+03  0.54252697772E+03  0.50400001928E-02 0. -1.
    10030    2    1    2    0    0  0.00000000000E+00  0.00000000000E+00 -0.16916014585E+03  0.91589380960E+03  0.90013683156E+03 0.  0.
        4    1    3    3  502    0  0.86540647821E+02  0.30754441854E+03  0.23796601260E+03  0.39837455886E+03  0.12699999809E+01 0.  1.
       -4    1    3    3    0  502 -0.86540647821E+02 -0.30754441854E+03 -0.40712615844E+03  0.51751925074E+03  0.12699999809E+01 0. -1.
</event>
<event>
 5   0  0.2351435E-04  0.8998310E+03  0.7818609E-02  0.9425793E-01
        1   -1    0    0  501    0  0.00000000000E+00  0.00000000000E+00  0.16892821927E+04  0.16892821927E+04  0.50400001928E-02 0. -1.
       -1   -1    0    0    0  501  0.00000000000E+00  0.00000000000E+00 -0.11982839378E+03  0.11982839389E+03  0.50400001928E-02 0.  1.
    10030    2    1    2    0    0  0.00000000000E+00  0.00000000000E+00  0.15694537989E+04  0.18091105866E+04  0.89983103278E+03 0.  0.
        4    1    3    3  502    0  0.44111381642E+03 -0.63098995133E+02  0.90962860348E+03  0.10129109988E+04  0.12699999809E+01 0. -1.
       -4    1    3    3    0  502 -0.44111381642E+03  0.63098995133E+02  0.65982519541E+03  0.79619958781E+03  0.12699999809E+01 0.  1.
</event>
<event>
 5   0  0.3959804E-04  0.8999437E+03  0.7818609E-02  0.9425652E-01
       -2   -1    0    0    0  501  0.00000000000E+00  0.00000000000E+00  0.29271489931E+03  0.29271489932E+03  0.25500000920E-02 0. -1.
        2   -1    0    0  501    0  0.00000000000E+00  0.00000000000E+00 -0.69171294034E+03  0.69171294034E+03  0.25500000920E-02 0.  1.
    10030    2    1    2    0    0  0.00000000000E+00  0.00000000000E+00 -0.39899804102E+03  0.98442783966E+03  0.89994373978E+03 0.  0.
        5    1    3    3  502    0 -0.42480708501E+03 -0.14591925014E+03 -0.22842181461E+03  0.50393660556E+03  0.46999998093E+01 0.  1.
       -5    1    3    3    0  502  0.42480708501E+03  0.14591925014E+03 -0.17057622642E+03  0.48049123411E+03  0.46999998093E+01 0. -1.
</event>
<event>
 5   0  0.2356918E-04  0.8989066E+03  0.7818609E-02  0.9426949E-01
        1   -1    0    0  501    0  0.00000000000E+00  0.00000000000E+00  0.79783455396E+03  0.79783455397E+03  0.50400001928E-02 0.  1.
       -1   -1    0    0    0  501  0.00000000000E+00  0.00000000000E+00 -0.25319570841E+03  0.25319570846E+03  0.50400001928E-02 0. -1.
    10030    2    1    2    0    0  0.00000000000E+00  0.00000000000E+00  0.54463884555E+03  0.10510302624E+04  0.89890663612E+03 0.  0.
        5    1    3    3  502    0  0.37009973249E+03 -0.23261438880E+03  0.15023163307E+03  0.46224982362E+03  0.46999998093E+01 0.  1.
       -5    1    3    3    0  502 -0.37009973249E+03  0.23261438880E+03  0.39440721248E+03  0.58878043881E+03  0.46999998093E+01 0. -1.
</event>
<event>
 5   0  0.2356918E-04  0.9001661E+03  0.7818609E-02  0.9425374E-01
       -1   -1    0    0    0  501  0.00000000000E+00  0.00000000000E+00  0.47372284552E+03  0.47372284555E+03  0.50400001928E-02 0.  1.
        1   -1    0    0  501    0  0.00000000000E+00  0.00000000000E+00 -0.42762297616E+03  0.42762297619E+03  0.50400001928E-02 0. -1.
    10030    2    1    2    0    0  0.00000000000E+00  0.00000000000E+00  0.46099869361E+02  0.90134582174E+03  0.90016614711E+03 0.  0.
        5    1    3    3  502    0  0.37956402327E+03 -0.24183381849E+03  0.22559828461E+02  0.45064784409E+03  0.46999998093E+01 0.  1.
       -5    1    3    3    0  502 -0.37956402327E+03  0.24183381849E+03  0.23540040901E+02  0.45069797764E+03  0.46999998093E+01 0. -1.
</event>
<event>
 5   0  0.4236284E-04  0.8980225E+03  0.7818609E-02  0.9428057E-01
        2   -1    0    0  501    0  0.00000000000E+00  0.00000000000E+00  0.74423826440E+03  0.74423826441E+03  0.25500000920E-02 0. -1.
       -2   -1    0    0    0  501  0.00000000000E+00  0.00000000000E+00 -0.27089588364E+03  0.27089588365E+03  0.25500000920E-02 0.  1.
    10030    2    1    2    0    0  0.00000000000E+00  0.00000000000E+00  0.47334238077E+03  0.10151341481E+04  0.89802245469E+03 0.  0.
        2    1    3    3  502    0 -0.41668463066E+03 -0.15500680817E+03  0.16555506031E+03  0.47440665047E+03  0.25500000920E-02 0.  1.
       -2    1    3    3    0  502  0.41668463066E+03  0.15500680817E+03  0.30778732046E+03  0.54072749759E+03  0.25500000920E-02 0. -1.
</event>
<event>
 5   0  0.2450427E-04  0.8996342E+03  0.7818609E-02  0.9426039E-01
       -1   -1    0    0    0  501  0.00000000000E+00  0.00000000000E+00  0.33322099008E+03  0.33322099012E+03  0.50400001928E-02 0.  1.
        1   -1    0    0  501    0  0.00000000000E+00  0.00000000000E+00 -0.60721088298E+03  0.60721088300E+03  0.50400001928E-02 0. -1.
    10030    2    1    2    0    0  0.00000000000E+00  0.00000000000E+00 -0.27398989290E+03  0.94043187312E+03  0.89963417374E+03 0.  0.
        3    1    3    3  502    0 -0.34049853815E+02 -0.14089024515E+03 -0.58212956748E+03  0.59990357330E+03  0.10100000352E+00 0. -1.
       -3    1    3    3    0  502  0.34049853815E+02  0.14089024515E+03  0.30813967458E+03  0.34052829982E+03  0.10100000352E+00 0.  1.
</event>
<event>
 5   0  0.4110039E-04  0.8999786E+03  0.7818609E-02  0.9425608E-01
        2   -1    0    0  501    0  0.00000000000E+00  0.00000000000E+00  0.50223292460E+03  0.50223292461E+03  0.25500000920E-02 0. -1.
       -2   -1    0    0    0  501  0.00000000000E+00  0.00000000000E+00 -0.40318022061E+03  0.40318022061E+03  0.25500000920E-02 0.  1.
    10030    2    1    2    0    0  0.00000000000E+00  0.00000000000E+00  0.99052703999E+02  0.90541314523E+03  0.89997862496E+03 0.  0.
        3    1    3    3  502    0  0.20002390391E+03  0.26702851791E+03 -0.25425159925E+03  0.41947309501E+03  0.10100000352E+00 0.  1.
       -3    1    3    3    0  502 -0.20002390391E+03 -0.26702851791E+03  0.35330430324E+03  0.48594005022E+03  0.10100000352E+00 0. -1.
</event>
<event>
 5   0  0.1596250E-04  0.8998252E+03  0.7818609E-02  0.9425800E-01
        3   -1    0    0  501    0  0.00000000000E+00  0.00000000000E+00  0.21253827472E+03  0.21253829872E+03  0.10100000352E+00 0.  1.
       -3   -1    0    0    0  501  0.00000000000E+00  0.00000000000E+00 -0.95239942757E+03  0.95239943293E+03  0.10100000352E+00 0. -1.
    10030    2    1    2    0    0  0.00000000000E+00  0.00000000000E+00 -0.73986115285E+03  0.11649377316E+04  0.89982520143E+03 0.  0.
        4    1    3    3  502    0 -0.16668564854E+03  0.14875753732E+02  0.17074363632E+03  0.23908240362E+03  0.12699999809E+01 0.  1.
       -4    1    3    3    0  502  0.16668564854E+03 -0.14875753732E+02 -0.91060478917E+03  0.92585532803E+03  0.12699999809E+01 0. -1.
</event>
<event>
 5   0  0.4033144E-04  0.9001909E+03  0.7818609E-02  0.9425343E-01
        2   -1    0    0  501    0  0.00000000000E+00  0.00000000000E+00  0.77419751544E+03  0.77419751545E+03  0.25500000920E-02 0. -1.
       -2   -1    0    0    0  501  0.00000000000E+00  0.00000000000E+00 -0.26167215627E+03  0.26167215629E+03  0.25500000920E-02 0.  1.
    10030    2    1    2    0    0  0.00000000000E+00  0.00000000000E+00  0.51252535917E+03  0.10358696717E+04  0.90019094254E+03 0.  0.
        4    1    3    3  502    0 -0.21421727586E+03  0.60732153892E+02  0.70638024921E+03  0.74064303492E+03  0.12699999809E+01 0. -1.
       -4    1    3    3    0  502  0.21421727586E+03 -0.60732153892E+02 -0.19385489005E+03  0.29522663682E+03  0.12699999809E+01 0.  1.
</event>
<event>
 5   0  0.4033144E-04  0.8998447E+03  0.7818609E-02  0.9425776E-01
        2   -1    0    0  501    0  0.00000000000E+00  0.00000000000E+00  0.14571123669E+04  0.14571123669E+04  0.25500000920E-02 0. -1.
       -2   -1    0    0    0  501  0.00000000000E+00  0.00000000000E+00 -0.13892554448E+03  0.13892554451E+03  0.25500000920E-02 0.  1.
    10030    2    1    2    0    0  0.00000000000E+00  0.00000000000E+00  0.13181868224E+04  0.15960379114E+04  0.89984471763E+03 0.  0.
        4    1    3    3  502    0  0.23248382343E+03 -0.11676134935E+03  0.13101736280E+04  0.13357539030E+04  0.12699999809E+01 0. -1.
       -4    1    3    3    0  502 -0.23248382343E+03  0.11676134935E+03  0.80131943964E+01  0.26028400843E+03  0.12699999809E+01 0.  1.
</event>
<event>
 5   0  0.2332791E-04  0.8999941E+03  0.7818609E-02  0.9425589E-01
        1   -1    0    0  501    0  0.00000000000E+00  0.00000000000E+00  0.49132352797E+03  0.49132352800E+03  0.50400001928E-02 0.  1.
       -1   -1    0    0    0  501  0.00000000000E+00  0.00000000000E+00 -0.41214667784E+03  0.41214667787E+03  0.50400001928E-02 0. -1.
    10030    2    1    2    0    0  0.00000000000E+00  0.00000000000E+00  0.79176850130E+02  0.90347020587E+03  0.89999413292E+03 0.  0.
        2    1    3    3  502    0  0.16510850209E+03 -0.10624753206E+03  0.44605723331E+03  0.48735655421E+03  0.25500000920E-02 0.  1.
       -2    1    3    3    0  502 -0.16510850209E+03  0.10624753206E+03 -0.36688038318E+03  0.41611365166E+03  0.25500000920E-02 0. -1.
</event>
<event>
 5   0  0.4243516E-04  0.9003995E+03  0.7818609E-02  0.9425082E-01
        2   -1    0    0  501    0  0.00000000000E+00  0.00000000000E+00  0.10044273197E+04  0.10044273197E+04  0.25500000920E-02 0.  1.
       -2   -1    0    0    0  501  0.00000000000E+00  0.00000000000E+00 -0.20178646193E+03  0.20178646195E+03  0.25500000920E-02 0. -1.
    10030    2    1    2    0    0  0.00000000000E+00  0.00000000000E+00  0.80264085779E+03  0.12062137817E+04  0.90039954493E+03 0.  0.
        1    1    3    3  502    0  0.35212910343E+03 -0.15311768969E+03  0.71617896502E+03  0.81262060172E+03  0.50400001928E-02 0.  1.
       -1    1    3    3    0  502 -0.35212910343E+03  0.15311768969E+03  0.86461892775E+02  0.39359317995E+03  0.50400001928E-02 0. -1.
</event>
<event>
 5   0  0.2308362E-04  0.9001446E+03  0.7818609E-02  0.9425401E-01
        1   -1    0    0  501    0  0.00000000000E+00  0.00000000000E+00  0.13031737874E+03  0.13031737884E+03  0.50400001928E-02 0. -1.
       -1   -1    0    0    0  501  0.00000000000E+00  0.00000000000E+00 -0.15543979767E+04  0.15543979767E+04  0.50400001928E-02 0.  1.
    10030    2    1    2    0    0  0.00000000000E+00  0.00000000000E+00 -0.14240805979E+04  0.16847153555E+04  0.90014458823E+03 0.  0.
        1    1    3    3  502    0 -0.46168547473E+02 -0.43832295215E+03 -0.88261866157E+03  0.98654662684E+03  0.50400001928E-02 0. -1.
       -1    1    3    3    0  502  0.46168547473E+02  0.43832295215E+03 -0.54146193638E+03  0.69816872870E+03  0.50400001928E-02 0.  1.
</event>
<event>
 5   0  0.2356918E-04  0.8996480E+03  0.7818609E-02  0.9426022E-01
       -1   -1    0    0    0  501  0.00000000000E+00  0.00000000000E+00  0.13987251041E+03  0.13987251050E+03  0.50400001928E-02 0.  1.
        1   -1    0    0  501    0  0.00000000000E+00  0.00000000000E+00 -0.14466147248E+04  0.14466147248E+04  0.50400001928E-02 0. -1.
    10030    2    1    2    0    0  0.00000000000E+00  0.00000000000E+00 -0.13067422144E+04  0.15864872353E+04  0.89964800500E+03 0.  0.
        5    1    3    3  502    0  0.12030629021E+03 -0.14713159975E+03  0.65543256608E+02  0.20109529978E+03  0.46999998093E+01 0.  1.
       -5    1    3    3    0  502 -0.12030629021E+03  0.14713159975E+03 -0.13722854710E+04  0.13853919355E+04  0.46999998093E+01 0. -1.
</event>
<event>
 5   0  0.4243516E-04  0.9001003E+03  0.7818609E-02  0.9425456E-01
        2   -1    0    0  501    0  0.00000000000E+00  0.00000000000E+00  0.13408303105E+04  0.13408303105E+04  0.25500000920E-02 0. -1.
       -2   -1    0    0    0  501  0.00000000000E+00  0.00000000000E+00 -0.15105947507E+03  0.15105947509E+03  0.25500000920E-02 0.  1.
    10030    2    1    2    0    0  0.00000000000E+00  0.00000000000E+00  0.11897708354E+04  0.14918897856E+04  0.90010026749E+03 0.  0.
        1    1    3    3  502    0  0.28258384123E+02 -0.27997787072E+03  0.11770304985E+04  0.12102011977E+04  0.50400001928E-02 0. -1.
       -1    1    3    3    0  502 -0.28258384123E+02  0.27997787072E+03  0.12740336927E+02  0.28168858795E+03  0.50400001928E-02 0.  1.
</event>
<event>
 5   0  0.2356918E-04  0.8998759E+03  0.7818609E-02  0.9425737E-01
       -1   -1    0    0    0  501  0.00000000000E+00  0.00000000000E+00  0.12033808500E+03  0.12033808511E+03  0.50400001928E-02 0.  1.
        1   -1    0    0  501    0  0.00000000000E+00  0.00000000000E+00 -0.16822949617E+04  0.16822949617E+04  0.50400001928E-02 0. -1.
    10030    2    1    2    0    0  0.00000000000E+00  0.00000000000E+00 -0.15619568767E+04  0.18026330468E+04  0.89987588968E+03 0.  0.
        5    1    3    3  502    0  0.39237098172E+03 -0.21342901217E+03 -0.67282160838E+03  0.80760010973E+03  0.46999998093E+01 0.  1.
       -5    1    3    3    0  502 -0.39237098172E+03  0.21342901217E+03 -0.88913526834E+03  0.99503293712E+03  0.46999998093E+01 0. -1.
</event>
<event>
 5   0  0.2450427E-04  0.9002596E+03  0.7818609E-02  0.9425257E-01
        1   -1    0    0  501    0  0.00000000000E+00  0.00000000000E+00  0.42642127508E+03  0.42642127511E+03  0.50400001928E-02 0. -1.
       -1   -1    0    0    0  501  0.00000000000E+00  0.00000000000E+00 -0.47515646791E+03  0.47515646793E+03  0.50400001928E-02 0.  1.
    10030    2    1    2    0    0  0.00000000000E+00  0.00000000000E+00 -0.48735192828E+02  0.90157774304E+03  0.90025957797E+03 0.  0.
        3    1    3    3  502    0 -0.15677722849E+03 -0.38110436684E+03 -0.20573267813E+03  0.46059264307E+03  0.10100000352E+00 0.  1.
       -3    1    3    3    0  502  0.15677722849E+03  0.38110436684E+03  0.15699748530E+03  0.44098509997E+03  0.10100000352E+00 0. -1.
</event>
<event>
 5   0  0.2351435E-04  0.9002167E+03  0.7818609E-02  0.9425311E-01
        1   -1    0    0  501    0  0.00000000000E+00  0.00000000000E+00  0.76113695871E+03  0.76113695872E+03  0.50400001928E-02 0. -1.
       -1   -1    0    0    0  501  0.00000000000E+00  0.00000000000E+00 -0.26617747640E+03  0.26617747645E+03  0.50400001928E-02 0.  1.
    10030    2    1    2    0    0  0.00000000000E+00  0.00000000000E+00  0.49495948230E+03  0.10273144352E+04  0.90021667370E+03 0.  0.
        4    1    3    3  502    0  0.99871817839E+02  0.13977128836E+03  0.72225348422E+03  0.74240292390E+03  0.12699999809E+01 0. -1.
       -4    1    3    3    0  502 -0.99871817839E+02 -0.13977128836E+03 -0.22729400192E+03  0.28491151127E+03  0.12699999809E+01 0.  1.
</event>
<event>
 5   0  0.3959804E-04  0.9001503E+03  0.7818609E-02  0.9425394E-01
       -2   -1    0    0    0  501  0.00000000000E+00  0.00000000000E+00  0.14560311025E+03  0.14560311028E+03  0.25500000920E-02 0. -1.
        2   -1    0    0  501    0  0.00000000000E+00  0.00000000000E+00 -0.13912315483E+04  0.13912315483E+04  0.25500000920E-02 0.  1.
    10030    2    1    2    0    0  0.00000000000E+00  0.00000000000E+00 -0.12456284380E+04  0.15368346586E+04  0.90015029974E+03 0.  0.
        5    1    3    3  502    0  0.34512823065E+03 -0.76939332111E+02 -0.10981469180E+04  0.11536818886E+04  0.46999998093E+01 0.  1.
       -5    1    3    3    0  502 -0.34512823065E+03  0.76939332111E+02 -0.14748151999E+03  0.38315276999E+03  0.46999998093E+01 0. -1.
</event>
<event>
 5   0  0.4243516E-04  0.8997869E+03  0.7818609E-02  0.9425848E-01
       -2   -1    0    0    0  501  0.00000000000E+00  0.00000000000E+00  0.77224679291E+03  0.77224679291E+03  0.25500000920E-02 0.  1.
        2   -1    0    0  501    0  0.00000000000E+00  0.00000000000E+00 -0.26209769529E+03  0.26209769530E+03  0.25500000920E-02 0. -1.
    10030    2    1    2    0    0  0.00000000000E+00  0.00000000000E+00  0.51014909762E+03  0.10343444882E+04  0.89978687394E+03 0.  0.
        1    1    3    3  502    0  0.42074148866E+03  0.13059894753E+03  0.15019091149E+03  0.46544258002E+03  0.50400001928E-02 0. -1.
       -1    1    3    3    0  502 -0.42074148866E+03 -0.13059894753E+03  0.35995818613E+03  0.56890190820E+03  0.50400001928E-02 0.  1.
</event>
<event>
 5   0  0.2332791E-04  0.9001029E+03  0.7818609E-02  0.9425453E-01
       -1   -1    0    0    0  501  0.00000000000E+00  0.00000000000E+00  0.55992781212E+03  0.55992781215E+03  0.50400001928E-02 0.  1.
        1   -1    0    0  501    0  0.00000000000E+00  0.00000000000E+00 -0.36173648997E+03  0.36173649001E+03  0.50400001928E-02 0. -1.
    10030    2    1    2    0    0  0.00000000000E+00  0.00000000000E+00  0.19819132215E+03  0.92166430215E+03  0.90010293061E+03 0.  0.
        2    1    3    3  502    0 -0.16637397182E+03 -0.31991804210E+03  0.37483892070E+03  0.52012697358E+03  0.25500000920E-02 0.  1.
       -2    1    3    3    0  502  0.16637397182E+03  0.31991804210E+03 -0.17664759855E+03  0.40153732858E+03  0.25500000920E-02 0. -1.
</event>
<event>
 5   0  0.2356918E-04  0.9003556E+03  0.7818609E-02  0.9425137E-01
        1   -1    0    0  501    0  0.00000000000E+00  0.00000000000E+00  0.38905137089E+03  0.38905137092E+03  0.50400001928E-02 0.  1.
       -1   -1    0    0    0  501  0.00000000000E+00  0.00000000000E+00 -0.52090825937E+03  0.52090825939E+03  0.50400001928E-02 0. -1.
    10030    2    1    2    0    0  0.00000000000E+00  0.00000000000E+00 -0.13185688848E+03  0.90995963032E+03  0.90035564627E+03 0.  0.
        5    1    3    3  502    0  0.18072736115E+03  0.33355185357E+03 -0.31083278747E+03  0.49046746054E+03  0.46999998093E+01 0. -1.
       -5    1    3    3    0  502 -0.18072736115E+03 -0.33355185357E+03  0.17897589899E+03  0.41949216978E+03  0.46999998093E+01 0.  1.
</event>
<event>
 5   0  0.4110039E-04  0.8994929E+03  0.7818609E-02  0.9426216E-01
        2   -1    0    0  501    0  0.00000000000E+00  0.00000000000E+00  0.62601318646E+03  0.62601318646E+03  0.25500000920E-02 0.  1.
       -2   -1    0    0    0  501  0.00000000000E+00  0.00000000000E+00 -0.32311117770E+03  0.32311117771E+03  0.25500000920E-02 0. -1.
    10030    2    1    2    0    0  0.00000000000E+00  0.00000000000E+00  0.30290200876E+03  0.94912436417E+03  0.89949287476E+03 0.  0.
        3    1    3    3  502    0 -0.38221032260E+03  0.19868138686E+03  0.15039716729E+02  0.43102810520E+03  0.10100000352E+00 0. -1.
       -3    1    3    3    0  502  0.38221032260E+03 -0.19868138686E+03  0.28786229203E+03  0.51809625897E+03  0.10100000352E+00 0.  1.
</event>
<event>
 5   0  0.4243516E-04  0.8999158E+03  0.7818609E-02  0.9425687E-01
       -2   -1    0    0    0  501  0.00000000000E+00  0.00000000000E+00  0.13675572711E+04  0.13675572711E+04  0.25500000920E-02 0.  1.
        2   -1    0    0  501    0  0.00000000000E+00  0.00000000000E+00 -0.14804652600E+03  0.14804652602E+03  0.25500000920E-02 0. -1.
    10030    2    1    2    0    0  0.00000000000E+00  0.00000000000E+00  0.12195107451E+04  0.15156037971E+04  0.89991578075E+03 0.  0.
        1    1    3    3  502    0 -0.16946343466E+03 -0.75643332511E+02 -0.80591438801E+02  0.20232337846E+03  0.50400001928E-02 0. -1.
       -1    1    3    3    0  502  0.16946343466E+03  0.75643332511E+02  0.13001021839E+04  0.13132804186E+04  0.50400001928E-02 0.  1.
</event>
<event>
 5   0  0.1596250E-04  0.8998170E+03  0.7818609E-02  0.9425810E-01
        3   -1    0    0  501    0  0.00000000000E+00  0.00000000000E+00  0.18670170986E+03  0.18670173718E+03  0.10100000352E+00 0.  1.
       -3   -1    0    0    0  501  0.00000000000E+00  0.00000000000E+00 -0.10841767178E+04  0.10841767225E+04  0.10100000352E+00 0. -1.
    10030    2    1    2    0    0  0.00000000000E+00  0.00000000000E+00 -0.89747500796E+03  0.12708784597E+04  0.89981701997E+03 0.  0.
        1    1    3    3  502    0  0.12750188575E+02  0.18873676564E+03 -0.10252795924E+04  0.10425844698E+04  0.50400001928E-02 0. -1.
       -1    1    3    3    0  502 -0.12750188575E+02 -0.18873676564E+03  0.12780458443E+03  0.22829398993E+03  0.50400001928E-02 0.  1.
</event>
<event>
 5   0  0.2356918E-04  0.8995841E+03  0.7818609E-02  0.9426101E-01
       -1   -1    0    0    0  501  0.00000000000E+00  0.00000000000E+00  0.35699625935E+03  0.35699625939E+03  0.50400001928E-02 0. -1.
        1   -1    0    0  501    0  0.00000000000E+00  0.00000000000E+00 -0.56670873957E+03  0.56670873960E+03  0.50400001928E-02 0.  1.
    10030    2    1    2    0    0  0.00000000000E+00  0.00000000000E+00 -0.20971248022E+03  0.92370499898E+03  0.89958412658E+03 0.  0.
        5    1    3    3  502    0  0.19274900140E+03 -0.13275294764E+03  0.28951934915E+03  0.37231581510E+03  0.46999998093E+01 0. -1.
       -5    1    3    3    0  502 -0.19274900140E+03  0.13275294764E+03 -0.49923182937E+03  0.55138918388E+03  0.46999998093E+01 0.  1.
</event>
<event>
 5   0  0.2332791E-04  0.9001816E+03  0.7818609E-02  0.9425354E-01
        1   -1    0    0  501    0  0.00000000000E+00  0.00000000000E+00  0.47784698594E+03  0.47784698597E+03  0.50400001928E-02 0. -1.
       -1   -1    0    0    0  501  0.00000000000E+00  0.00000000000E+00 -0.42394690466E+03  0.42394690469E+03  0.50400001928E-02 0.  1.
    10030    2    1    2    0    0  0.00000000000E+00  0.00000000000E+00  0.53900081281E+02  0.90179389066E+03  0.90018164971E+03 0.  0.
        2    1    3    3  502    0  0.12263662420E+03  0.18162781236E+03 -0.36688680123E+03  0.42735737824E+03  0.25500000920E-02 0.  1.
       -2    1    3    3    0  502 -0.12263662420E+03 -0.18162781236E+03  0.42078688251E+03  0.47443651242E+03  0.25500000920E-02 0. -1.
</event>
<event>
 5   0  0.2356918E-04  0.8998126E+03  0.7818609E-02  0.9425816E-01
       -1   -1    0    0    0  501  0.00000000000E+00  0.00000000000E+00  0.12888936471E+04  0.12888936471E+04  0.50400001928E-02 0.  1.
        1   -1    0    0  501    0  0.00000000000E+00  0.00000000000E+00 -0.15704608390E+03  0.15704608398E+03  0.50400001928E-02 0. -1.
    10030    2    1    2    0    0  0.00000000000E+00  0.00000000000E+00  0.11318475632E+04  0.14459397311E+04  0.89981264697E+03 0.  0.
        5    1    3    3  502    0 -0.29569600354E+03  0.33904335268E+03  0.56164547022E+03  0.71962090417E+03  0.46999998093E+01 0. -1.
       -5    1    3    3    0  502  0.29569600354E+03 -0.33904335268E+03  0.57020209301E+03  0.72631882695E+03  0.46999998093E+01 0.  1.
</event>
<event>
 5   0  0.2332791E-04  0.9002861E+03  0.7818609E-02  0.9425224E-01
        1   -1    0    0  501    0  0.00000000000E+00  0.00000000000E+00  0.23902856270E+03  0.23902856275E+03  0.50400001928E-02 0.  1.
       -1   -1    0    0    0  501  0.00000000000E+00  0.00000000000E+00 -0.84771775783E+03  0.84771775784E+03  0.50400001928E-02 0. -1.
    10030    2    1    2    0    0  0.00000000000E+00  0.00000000000E+00 -0.60868919513E+03  0.10867463206E+04  0.90028608178E+03 0.  0.
        2    1    3    3  502    0 -0.29693509223E+03 -0.33105337933E+03 -0.38851389525E+03  0.59051658383E+03  0.25500000920E-02 0. -1.
       -2    1    3    3    0  502  0.29693509223E+03  0.33105337933E+03 -0.22017529988E+03  0.49622973676E+03  0.25500000920E-02 0.  1.
</event>
<event>
 5   0  0.2356918E-04  0.9000405E+03  0.7818609E-02  0.9425531E-01
       -1   -1    0    0    0  501  0.00000000000E+00  0.00000000000E+00  0.25100731843E+03  0.25100731848E+03  0.50400001928E-02 0.  1.
        1   -1    0    0  501    0  0.00000000000E+00  0.00000000000E+00 -0.80682197771E+03  0.80682197773E+03  0.50400001928E-02 0. -1.
    10030    2    1    2    0    0  0.00000000000E+00  0.00000000000E+00 -0.55581465928E+03  0.10578292962E+04  0.90004049045E+03 0.  0.
        5    1    3    3  502    0  0.78540722284E+02  0.43987491636E+03 -0.21530004821E+03  0.49601893901E+03  0.46999998093E+01 0.  1.
       -5    1    3    3    0  502 -0.78540722284E+02 -0.43987491636E+03 -0.34051461107E+03  0.56181035720E+03  0.46999998093E+01 0. -1.
</event>
<event>
 5   0  0.1596250E-04  0.8998869E+03  0.7818609E-02  0.9425723E-01
       -4   -1    0    0    0  501  0.00000000000E+00  0.00000000000E+00  0.13399238612E+04  0.13399244631E+04  0.12699999809E+01 0.  1.
        4   -1    0    0  501    0  0.00000000000E+00  0.00000000000E+00 -0.15108670107E+03  0.15109203864E+03  0.12699999809E+01 0. -1.
    10030    2    1    2    0    0  0.00000000000E+00  0.00000000000E+00  0.11888371601E+04  0.14910165017E+04  0.89988689013E+03 0.  0.
        5    1    3    3  502    0  0.13308859538E+03  0.36967581723E+03  0.95763070260E+03  0.10351093839E+04  0.46999998093E+01 0.  1.
       -5    1    3    3    0  502 -0.13308859538E+03 -0.36967581723E+03  0.23120645754E+03  0.45590711781E+03  0.46999998093E+01 0. -1.
</event>
<event>
 5   0  0.4110039E-04  0.9001381E+03  0.7818609E-02  0.9425409E-01
       -2   -1    0    0    0  501  0.00000000000E+00  0.00000000000E+00  0.38997694744E+03  0.38997694745E+03  0.25500000920E-02 0. -1.
        2   -1    0    0  501    0  0.00000000000E+00  0.00000000000E+00 -0.51942085686E+03  0.51942085687E+03  0.25500000920E-02 0.  1.
    10030    2    1    2    0    0  0.00000000000E+00  0.00000000000E+00 -0.12944390942E+03  0.90939780432E+03  0.90013812319E+03 0.  0.
        3    1    3    3  502    0  0.52224035384E+02 -0.31398363965E+03 -0.38619182577E+03  0.50045700348E+03  0.10100000352E+00 0.  1.
       -3    1    3    3    0  502 -0.52224035384E+02  0.31398363965E+03  0.25674791635E+03  0.40894080084E+03  0.10100000352E+00 0. -1.
</event>
<event>
 5   0  0.4236284E-04  0.8995941E+03  0.7818609E-02  0.9426089E-01
       -2   -1    0    0    0  501  0.00000000000E+00  0.00000000000E+00  0.24842924408E+03  0.24842924409E+03  0.25500000920E-02 0. -1.
        2   -1    0    0  501    0  0.00000000000E+00  0.00000000000E+00 -0.81438629495E+03  0.81438629496E+03  0.25500000920E-02 0.  1.
    10030    2    1    2    0    0  0.00000000000E+00  0.00000000000E+00 -0.56595705087E+03  0.10628155390E+04  0.89959406768E+03 0.  0.
        2    1    3    3  502    0 -0.24448169915E+02 -0.31190921714E+03  0.98815151693E+02  0.32809984297E+03  0.25500000920E-02 0. -1.
       -2    1    3    3    0  502  0.24448169915E+02  0.31190921714E+03 -0.66477220257E+03  0.73471569608E+03  0.25500000920E-02 0.  1.
</event>
<event>
 5   0  0.4243516E-04  0.9001623E+03  0.7818609E-02  0.9425379E-01
       -2   -1    0    0    0  501  0.00000000000E+00  0.00000000000E+00  0.18048297281E+03  0.18048297283E+03  0.25500000920E-02 0.  1.
        2   -1    0    0  501    0  0.00000000000E+00  0.00000000000E+00 -0.11223942342E+04  0.11223942342E+04  0.25500000920E-02 0. -1.
    10030    2    1    2    0    0  0.00000000000E+00  0.00000000000E+00 -0.94191126137E+03  0.13028772070E+04  0.90016231440E+03 0.  0.
        1    1    3    3  502    0  0.12026399646E+03  0.95753501289E+02 -0.10832178357E+04  0.10940717717E+04  0.50400001928E-02 0. -1.
       -1    1    3    3    0  502 -0.12026399646E+03 -0.95753501289E+02  0.14130657436E+03  0.20880543536E+03  0.50400001928E-02 0.  1.
</event>
<event>
 5   0  0.2332791E-04  0.9000603E+03  0.7818609E-02  0.9425506E-01
        1   -1    0    0  501    0  0.00000000000E+00  0.00000000000E+00  0.16548424696E+04  0.16548424696E+04  0.50400001928E-02 0. -1.
       -1   -1    0    0    0  501  0.00000000000E+00  0.00000000000E+00 -0.12238453829E+03  0.12238453840E+03  0.50400001928E-02 0.  1.
    10030    2    1    2    0    0  0.00000000000E+00  0.00000000000E+00  0.15324579313E+04  0.17772270080E+04  0.90006029063E+03 0.  0.
        2    1    3    3  502    0  0.12045408840E+03  0.39275925268E+03  0.40343472116E+03  0.57578519626E+03  0.25500000920E-02 0. -1.
       -2    1    3    3    0  502 -0.12045408840E+03 -0.39275925268E+03  0.11290232102E+04  0.12014418118E+04  0.25500000920E-02 0.  1.
</event>
<event>
 5   0  0.4033144E-04  0.9011439E+03  0.7818609E-02  0.9424153E-01
        2   -1    0    0  501    0  0.00000000000E+00  0.00000000000E+00  0.44055793650E+03  0.44055793651E+03  0.25500000920E-02 0.  1.
       -2   -1    0    0    0  501  0.00000000000E+00  0.00000000000E+00 -0.46081355998E+03  0.46081355998E+03  0.25500000920E-02 0. -1.
    10030    2    1    2    0    0  0.00000000000E+00  0.00000000000E+00 -0.20255623476E+02  0.90137149649E+03  0.90114387553E+03 0.  0.
        4    1    3    3  502    0 -0.38096234282E+02 -0.31705224385E+03 -0.32807601487E+03  0.45783068140E+03  0.12699999809E+01 0. -1.
       -4    1    3    3    0  502  0.38096234282E+02  0.31705224385E+03  0.30782039140E+03  0.44354081510E+03  0.12699999809E+01 0.  1.
</event>
<event>
 5   0  0.2351435E-04  0.8955076E+03  0.7818609E-02  0.9431215E-01
       -1   -1    0    0    0  501  0.00000000000E+00  0.00000000000E+00  0.21209853288E+03  0.21209853294E+03  0.50400001928E-02 0. -1.
        1   -1    0    0  501    0  0.00000000000E+00  0.00000000000E+00 -0.94523749205E+03  0.94523749206E+03  0.50400001928E-02 0.  1.
    10030    2    1    2    0    0  0.00000000000E+00  0.00000000000E+00 -0.73313895917E+03  0.11573360250E+04  0.89550764447E+03 0.  0.
        4    1    3    3  502    0 -0.28547277509E+03 -0.31104784953E+03 -0.55928754913E+03  0.70074934572E+03  0.12699999809E+01 0.  1.
       -4    1    3    3    0  502  0.28547277509E+03  0.31104784953E+03 -0.17385141004E+03  0.45658667928E+03  0.12699999809E+01 0. -1.
</event>
<event>
 5   0  0.2332791E-04  0.8997933E+03  0.7818609E-02  0.9425840E-01
        1   -1    0    0  501    0  0.00000000000E+00  0.00000000000E+00  0.69697997050E+03  0.69697997052E+03  0.50400001928E-02 0. -1.
       -1   -1    0    0    0  501  0.00000000000E+00  0.00000000000E+00 -0.29040575312E+03  0.29040575316E+03  0.50400001928E-02 0.  1.
    10030    2    1    2    0    0  0.00000000000E+00  0.00000000000E+00  0.40657421739E+03  0.98738572368E+03  0.89979329464E+03 0.  0.
        2    1    3    3  502    0  0.35758892265E+03 -0.48715906752E+02 -0.91497047415E+02  0.37231006817E+03  0.25500000920E-02 0.  1.
       -2    1    3    3    0  502 -0.35758892265E+03  0.48715906752E+02  0.49807126480E+03  0.61507565551E+03  0.25500000920E-02 0. -1.
</event>
<event>
 5   0  0.4110039E-04  0.8996210E+03  0.7818609E-02  0.9426055E-01
       -2   -1    0    0    0  501  0.00000000000E+00  0.00000000000E+00  0.34071229480E+03  0.34071229481E+03  0.25500000920E-02 0. -1.
        2   -1    0    0  501    0  0.00000000000E+00  0.00000000000E+00 -0.59384262524E+03  0.59384262524E+03  0.25500000920E-02 0.  1.
    10030    2    1    2    0    0  0.00000000000E+00  0.00000000000E+00 -0.25313033044E+03  0.93455492005E+03  0.89962099487E+03 0.  0.
        3    1    3    3  502    0  0.17608461724E+03  0.35148818020E+03 -0.35363902272E+03  0.52878190385E+03  0.10100000352E+00 0.  1.
       -3    1    3    3    0  502 -0.17608461724E+03 -0.35148818020E+03  0.10050869228E+03  0.40577301620E+03  0.10100000352E+00 0. -1.
</event>
<event>
 5   0  0.2356918E-04  0.9012571E+03  0.7818609E-02  0.9424011E-01
       -1   -1    0    0    0  501  0.00000000000E+00  0.00000000000E+00  0.11185664484E+03  0.11185664496E+03  0.50400001928E-02 0. -1.
        1   -1    0    0  501    0  0.00000000000E+00  0.00000000000E+00 -0.18154135457E+04  0.18154135457E+04  0.50400001928E-02 0.  1.
    10030    2    1    2    0    0  0.00000000000E+00  0.00000000000E+00 -0.17035569009E+04  0.19272701907E+04  0.90125705177E+03 0.  0.
        5    1    3    3  502    0  0.37907282897E+03  0.13023916094E+03 -0.12920318676E+04  0.13527848630E+04  0.46999998093E+01 0.  1.
       -5    1    3    3    0  502 -0.37907282897E+03 -0.13023916094E+03 -0.41152503332E+03  0.57448532771E+03  0.46999998093E+01 0. -1.
</event>
<event>
 5   0  0.4110039E-04  0.8999543E+03  0.7818609E-02  0.9425639E-01
       -2   -1    0    0    0  501  0.00000000000E+00  0.00000000000E+00  0.12195585209E+03  0.12195585212E+03  0.25500000920E-02 0. -1.
        2   -1    0    0  501    0  0.00000000000E+00  0.00000000000E+00 -0.16602683991E+04  0.16602683991E+04  0.25500000920E-02 0.  1.
    10030    2    1    2    0    0  0.00000000000E+00  0.00000000000E+00 -0.15383125470E+04  0.17822242512E+04  0.89995432627E+03 0.  0.
        3    1    3    3  502    0 -0.15841936032E+03 -0.40958644192E+02  0.60950780274E+02  0.17461188984E+03  0.10100000352E+00 0. -1.
       -3    1    3    3    0  502  0.15841936032E+03  0.40958644192E+02 -0.15992633273E+04  0.16076123614E+04  0.10100000352E+00 0.  1.
</event>
<event>
 5   0  0.1596250E-04  0.8996185E+03  0.7818609E-02  0.9426058E-01
        3   -1    0    0  501    0  0.00000000000E+00  0.00000000000E+00  0.98384133389E+03  0.98384133907E+03  0.10100000352E+00 0.  1.
       -3   -1    0    0    0  501  0.00000000000E+00  0.00000000000E+00 -0.20565141558E+03  0.20565144038E+03  0.10100000352E+00 0. -1.
    10030    2    1    2    0    0  0.00000000000E+00  0.00000000000E+00  0.77818991831E+03  0.11894927795E+04  0.89961854329E+03 0.  0.
        3    1    3    3  502    0  0.37228279425E+03  0.14916596080E+02  0.72231353948E+03  0.81274463594E+03  0.10100000352E+00 0.  1.
       -3    1    3    3    0  502 -0.37228279425E+03 -0.14916596080E+02  0.55876378829E+02  0.37674814352E+03  0.10100000352E+00 0. -1.
</event>
<event>
 5   0  0.2351435E-04  0.8999944E+03  0.7818609E-02  0.9425588E-01
       -1   -1    0    0    0  501  0.00000000000E+00  0.00000000000E+00  0.74087029216E+03  0.74087029218E+03  0.50400001928E-02 0.  1.
        1   -1    0    0  501    0  0.00000000000E+00  0.00000000000E+00 -0.27332378583E+03  0.27332378588E+03  0.50400001928E-02 0. -1.
    10030    2    1    2    0    0  0.00000000000E+00  0.00000000000E+00  0.46754650633E+03  0.10141940781E+04  0.89999438464E+03 0.  0.
        4    1    3    3  502    0 -0.89229360301E+02  0.42163894443E+03  0.37963723645E+03  0.57434077202E+03  0.12699999809E+01 0.  1.
       -4    1    3    3    0  502  0.89229360301E+02 -0.42163894443E+03  0.87909269877E+02  0.43985330604E+03  0.12699999809E+01 0. -1.
</event>
<event>
 5   0  0.2356918E-04  0.8995455E+03  0.7818609E-02  0.9426150E-01
        1   -1    0    0  501    0  0.00000000000E+00  0.00000000000E+00  0.36070058683E+03  0.36070058687E+03  0.50400001928E-02 0. -1.
       -1   -1    0    0    0  501  0.00000000000E+00  0.00000000000E+00 -0.56084063493E+03  0.56084063495E+03  0.50400001928E-02 0.  1.
    10030    2    1    2    0    0  0.00000000000E+00  0.00000000000E+00 -0.20014004809E+03  0.92154122182E+03  0.89954554341E+03 0.  0.
        5    1    3    3  502    0  0.39378366463E+03  0.18510311133E+03 -0.21662691045E+03  0.48608440079E+03  0.46999998093E+01 0.  1.
       -5    1    3    3    0  502 -0.39378366463E+03 -0.18510311133E+03  0.16486862359E+02  0.43545682103E+03  0.46999998093E+01 0. -1.
</event>
<event>
 5   0  0.3959804E-04  0.8999937E+03  0.7818609E-02  0.9425589E-01
        2   -1    0    0  501    0  0.00000000000E+00  0.00000000000E+00  0.27895537499E+04  0.27895537499E+04  0.25500000920E-02 0. -1.
       -2   -1    0    0    0  501  0.00000000000E+00  0.00000000000E+00 -0.72591236205E+02  0.72591236250E+02  0.25500000920E-02 0.  1.
    10030    2    1    2    0    0  0.00000000000E+00  0.00000000000E+00  0.27169625137E+04  0.28621449862E+04  0.89999367828E+03 0.  0.
        5    1    3    3  502    0 -0.56418174672E+02  0.43123983218E+03  0.99139024420E+03  0.10826021936E+04  0.46999998093E+01 0. -1.
       -5    1    3    3    0  502  0.56418174672E+02 -0.43123983218E+03  0.17255722695E+04  0.17795427926E+04  0.46999998093E+01 0.  1.
</event>
<event>
 5   0  0.2308362E-04  0.8988545E+03  0.7818609E-02  0.9427014E-01
       -1   -1    0    0    0  501  0.00000000000E+00  0.00000000000E+00  0.26734257732E+03  0.26734257737E+03  0.50400001928E-02 0. -1.
        1   -1    0    0  501    0  0.00000000000E+00  0.00000000000E+00 -0.75552825818E+03  0.75552825819E+03  0.50400001928E-02 0.  1.
    10030    2    1    2    0    0  0.00000000000E+00  0.00000000000E+00 -0.48818568086E+03  0.10228708356E+04  0.89885454176E+03 0.  0.
        1    1    3    3  502    0 -0.19241706265E+03  0.33512642361E+03  0.17023453597E+02  0.38681241422E+03  0.50400001928E-02 0. -1.
       -1    1    3    3    0  502  0.19241706265E+03 -0.33512642361E+03 -0.50520913445E+03  0.63605842134E+03  0.50400001928E-02 0.  1.
</event>
<event>
 5   0  0.3959804E-04  0.8997013E+03  0.7818609E-02  0.9425955E-01
        2   -1    0    0  501    0  0.00000000000E+00  0.00000000000E+00  0.69563806793E+03  0.69563806793E+03  0.25500000920E-02 0.  1.
       -2   -1    0    0    0  501  0.00000000000E+00  0.00000000000E+00 -0.29090643204E+03  0.29090643205E+03  0.25500000920E-02 0. -1.
    10030    2    1    2    0    0  0.00000000000E+00  0.00000000000E+00  0.40473163589E+03  0.98654449999E+03  0.89970125784E+03 0.  0.
        5    1    3    3  502    0  0.22278645724E+03  0.29216710820E+03  0.48693046294E+03  0.61001540176E+03  0.46999998093E+01 0.  1.
       -5    1    3    3    0  502 -0.22278645724E+03 -0.29216710820E+03 -0.82198827051E+02  0.37652909823E+03  0.46999998093E+01 0. -1.
</event>
<event>
 5   0  0.2332791E-04  0.9000966E+03  0.7818609E-02  0.9425461E-01
        1   -1    0    0  501    0  0.00000000000E+00  0.00000000000E+00  0.19206237929E+04  0.19206237929E+04  0.50400001928E-02 0.  1.
       -1   -1    0    0    0  501  0.00000000000E+00  0.00000000000E+00 -0.10545713795E+03  0.10545713807E+03  0.50400001928E-02 0. -1.
    10030    2    1    2    0    0  0.00000000000E+00  0.00000000000E+00  0.18151666549E+04  0.20260809310E+04  0.90009663573E+03 0.  0.
        2    1    3    3  502    0  0.35078357798E+03 -0.24368744565E+03  0.12267976064E+04  0.12990246559E+04  0.25500000920E-02 0.  1.
       -2    1    3    3    0  502 -0.35078357798E+03  0.24368744565E+03  0.58836904858E+03  0.72705627504E+03  0.25500000920E-02 0. -1.
</event>
<event>
 5   0  0.2450427E-04  0.9009299E+03  0.7818609E-02  0.9424420E-01
        1   -1    0    0  501    0  0.00000000000E+00  0.00000000000E+00  0.56021278673E+03  0.56021278675E+03  0.50400001928E-02 0. -1.
       -1   -1    0    0    0  501  0.00000000000E+00  0.00000000000E+00 -0.36221716076E+03  0.36221716079E+03  0.50400001928E-02 0.  1.
    10030    2    1    2    0    0  0.00000000000E+00  0.00000000000E+00  0.19799562597E+03  0.92242994754E+03  0.90092993081E+03 0.  0.
        3    1    3    3  502    0  0.25983034301E+03 -0.98388698681E+02  0.46203895653E+03  0.53914019580E+03  0.10100000352E+00 0. -1.
       -3    1    3    3    0  502 -0.25983034301E+03  0.98388698681E+02 -0.26404333056E+03  0.38328975174E+03  0.10100000352E+00 0.  1.
</event>
<event>
 5   0  0.1596250E-04  0.9000812E+03  0.7818609E-02  0.9425480E-01
       -3   -1    0    0    0  501  0.00000000000E+00  0.00000000000E+00  0.17863500542E+03  0.17863503398E+03  0.10100000352E+00 0.  1.
        3   -1    0    0  501    0  0.00000000000E+00  0.00000000000E+00 -0.11338008330E+04  0.11338008375E+04  0.10100000352E+00 0. -1.
    10030    2    1    2    0    0  0.00000000000E+00  0.00000000000E+00 -0.95516582759E+03  0.13124358715E+04  0.90008119554E+03 0.  0.
        1    1    3    3  502    0 -0.16844936115E+03  0.24771687535E+03 -0.96730143510E+03  0.10126257472E+04  0.50400001928E-02 0. -1.
       -1    1    3    3    0  502  0.16844936115E+03 -0.24771687535E+03  0.12135607509E+02  0.29981012425E+03  0.50400001928E-02 0.  1.
</event>
<event>
 5   0  0.2356918E-04  0.9016031E+03  0.7818609E-02  0.9423580E-01
       -1   -1    0    0    0  501  0.00000000000E+00  0.00000000000E+00  0.60968937039E+03  0.60968937042E+03  0.50400001928E-02 0.  1.
        1   -1    0    0  501    0  0.00000000000E+00  0.00000000000E+00 -0.33332061240E+03  0.33332061244E+03  0.50400001928E-02 0. -1.
    10030    2    1    2    0    0  0.00000000000E+00  0.00000000000E+00  0.27636875799E+03  0.94300998286E+03  0.90160309304E+03 0.  0.
        5    1    3    3  502    0  0.18548871372E+03  0.29262700615E+03  0.43980900613E+03  0.55990238392E+03  0.46999998093E+01 0.  1.
       -5    1    3    3    0  502 -0.18548871372E+03 -0.29262700615E+03 -0.16344024814E+03  0.38310759893E+03  0.46999998093E+01 0. -1.
</event>
<event>
 5   0  0.4236284E-04  0.8999134E+03  0.7818609E-02  0.9425690E-01
       -2   -1    0    0    0  501  0.00000000000E+00  0.00000000000E+00  0.22992630635E+03  0.22992630636E+03  0.25500000920E-02 0.  1.
        2   -1    0    0  501    0  0.00000000000E+00  0.00000000000E+00 -0.88054748768E+03  0.88054748768E+03  0.25500000920E-02 0. -1.
    10030    2    1    2    0    0  0.00000000000E+00  0.00000000000E+00 -0.65062118133E+03  0.11104737940E+04  0.89991339899E+03 0.  0.
        2    1    3    3  502    0  0.37956172365E+03  0.22215141905E+03 -0.44265329418E+03  0.62398741486E+03  0.25500000920E-02 0. -1.
       -2    1    3    3    0  502 -0.37956172365E+03 -0.22215141905E+03 -0.20796788715E+03  0.48648637919E+03  0.25500000920E-02 0.  1.
</event>
<event>
 5   0  0.4243516E-04  0.9042016E+03  0.7818609E-02  0.9420344E-01
       -2   -1    0    0    0  501  0.00000000000E+00  0.00000000000E+00  0.35400889665E+03  0.35400889666E+03  0.25500000920E-02 0.  1.
        2   -1    0    0  501    0  0.00000000000E+00  0.00000000000E+00 -0.57737280860E+03  0.57737280860E+03  0.25500000920E-02 0. -1.
    10030    2    1    2    0    0  0.00000000000E+00  0.00000000000E+00 -0.22336391194E+03  0.93138170526E+03  0.90420155040E+03 0.  0.
        1    1    3    3  502    0  0.22466704494E+03 -0.25929714799E+02 -0.51491779637E+03  0.56239485083E+03  0.50400001928E-02 0. -1.
       -1    1    3    3    0  502 -0.22466704494E+03  0.25929714799E+02  0.29155388443E+03  0.36898685443E+03  0.50400001928E-02 0.  1.
</event>
<event>
 5   0  0.2351435E-04  0.8997361E+03  0.7818609E-02  0.9425911E-01
        1   -1    0    0  501    0  0.00000000000E+00  0.00000000000E+00  0.14135482973E+04  0.14135482973E+04  0.50400001928E-02 0. -1.
       -1   -1    0    0    0  501  0.00000000000E+00  0.00000000000E+00 -0.14317250781E+03  0.14317250790E+03  0.50400001928E-02 0.  1.
    10030    2    1    2    0    0  0.00000000000E+00  0.00000000000E+00  0.12703757895E+04  0.15567208052E+04  0.89973608287E+03 0.  0.
        4    1    3    3  502    0 -0.22328520747E+03  0.21363116313E+03  0.69529621326E+02  0.31674996271E+03  0.12699999809E+01 0.  1.
       -4    1    3    3    0  502  0.22328520747E+03 -0.21363116313E+03  0.12008461681E+04  0.12399708425E+04  0.12699999809E+01 0. -1.
</event>
<event>
 5   0  0.2450427E-04  0.9001446E+03  0.7818609E-02  0.9425401E-01
       -1   -1    0    0    0  501  0.00000000000E+00  0.00000000000E+00  0.41124182543E+03  0.41124182546E+03  0.50400001928E-02 0. -1.
        1   -1    0    0  501    0  0.00000000000E+00  0.00000000000E+00 -0.49256921446E+03  0.49256921448E+03  0.50400001928E-02 0.  1.
    10030    2    1    2    0    0  0.00000000000E+00  0.00000000000E+00 -0.81327389030E+02  0.90381103994E+03  0.90014457267E+03 0.  0.
        3    1    3    3  502    0 -0.34079738941E+03  0.23160802623E+02  0.25359274767E+03  0.42542752060E+03  0.10100000352E+00 0. -1.
       -3    1    3    3    0  502  0.34079738941E+03 -0.23160802623E+02 -0.33492013670E+03  0.47838351934E+03  0.10100000352E+00 0.  1.
</event>
<event>
 5   0  0.2450427E-04  0.9005385E+03  0.7818609E-02  0.9424908E-01
        1   -1    0    0  501    0  0.00000000000E+00  0.00000000000E+00  0.45960727848E+03  0.45960727851E+03  0.50400001928E-02 0.  1.
       -1   -1    0    0    0  501  0.00000000000E+00  0.00000000000E+00 -0.44112098223E+03  0.44112098226E+03  0.50400001928E-02 0. -1.
    10030    2    1    2    0    0  0.00000000000E+00  0.00000000000E+00  0.18486296246E+02  0.90072826077E+03  0.90053853698E+03 0.  0.
        3    1    3    3  502    0 -0.39230110327E+03  0.16158236544E+03  0.16005086465E+03  0.45345926600E+03  0.10100000352E+00 0.  1.
       -3    1    3    3    0  502  0.39230110327E+03 -0.16158236544E+03 -0.14156456840E+03  0.44726899476E+03  0.10100000352E+00 0. -1.
</event>
<event>
 5   0  0.2332791E-04  0.9022463E+03  0.7818609E-02  0.9422778E-01
       -1   -1    0    0    0  501  0.00000000000E+00  0.00000000000E+00  0.39193004885E+03  0.39193004888E+03  0.50400001928E-02 0. -1.
        1   -1    0    0  501    0  0.00000000000E+00  0.00000000000E+00 -0.51925621010E+03  0.51925621013E+03  0.50400001928E-02 0.  1.
    10030    2    1    2    0    0  0.00000000000E+00  0.00000000000E+00 -0.12732616125E+03  0.91118625901E+03  0.90224633402E+03 0.  0.
        2    1    3    3  502    0  0.54334500285E+01  0.35722049093E+03 -0.34184862927E+03  0.49446586016E+03  0.25500000920E-02 0.  1.
       -2    1    3    3    0  502 -0.54334500285E+01 -0.35722049093E+03  0.21452246802E+03  0.41672039885E+03  0.25500000920E-02 0. -1.
</event>
<event>
 5   0  0.4243516E-04  0.9000105E+03  0.7818609E-02  0.9425568E-01
       -2   -1    0    0    0  501  0.00000000000E+00  0.00000000000E+00  0.18148928223E+03  0.18148928225E+03  0.25500000920E-02 0. -1.
        2   -1    0    0  501    0  0.00000000000E+00  0.00000000000E+00 -0.11157943720E+04  0.11157943720E+04  0.25500000920E-02 0.  1.
    10030    2    1    2    0    0  0.00000000000E+00  0.00000000000E+00 -0.93430508976E+03  0.12972836542E+04  0.90001048817E+03 0.  0.
        1    1    3    3  502    0 -0.21204272344E+03  0.14190821395E+03 -0.10014561561E+04  0.10334478654E+04  0.50400001928E-02 0.  1.
       -1    1    3    3    0  502  0.21204272344E+03 -0.14190821395E+03  0.67151066370E+02  0.26383578888E+03  0.50400001928E-02 0. -1.
</event>
<event>
 5   0  0.4110039E-04  0.9002074E+03  0.7818609E-02  0.9425322E-01
       -2   -1    0    0    0  501  0.00000000000E+00  0.00000000000E+00  0.49464312809E+03  0.49464312809E+03  0.25500000920E-02 0. -1.
        2   -1    0    0  501    0  0.00000000000E+00  0.00000000000E+00 -0.40957471738E+03  0.40957471739E+03  0.25500000920E-02 0.  1.
    10030    2    1    2    0    0  0.00000000000E+00  0.00000000000E+00  0.85068410710E+02  0.90421784548E+03  0.90020735255E+03 0.  0.
        3    1    3    3  502    0 -0.28755238840E+03 -0.29073426035E+03  0.23146930294E+03  0.46988385227E+03  0.10100000352E+00 0. -1.
       -3    1    3    3    0  502  0.28755238840E+03  0.29073426035E+03 -0.14640089224E+03  0.43433399321E+03  0.10100000352E+00 0.  1.
</event>
<event>
 5   0  0.2450427E-04  0.9015275E+03  0.7818609E-02  0.9423674E-01
        1   -1    0    0  501    0  0.00000000000E+00  0.00000000000E+00  0.26148098251E+03  0.26148098256E+03  0.50400001928E-02 0.  1.
       -1   -1    0    0    0  501  0.00000000000E+00  0.00000000000E+00 -0.77706599488E+03  0.77706599490E+03  0.50400001928E-02 0. -1.
    10030    2    1    2    0    0  0.00000000000E+00  0.00000000000E+00 -0.51558501236E+03  0.10385469775E+04  0.90152754778E+03 0.  0.
        3    1    3    3  502    0  0.39187204268E+03 -0.86036350624E+02 -0.21082488165E+02  0.40175917285E+03  0.10100000352E+00 0.  1.
       -3    1    3    3    0  502 -0.39187204268E+03  0.86036350624E+02 -0.49450252420E+03  0.63678780461E+03  0.10100000352E+00 0. -1.
</event>
<event>
 5   0  0.4033144E-04  0.9001235E+03  0.7818609E-02  0.9425427E-01
       -2   -1    0    0    0  501  0.00000000000E+00  0.00000000000E+00  0.21949937862E+03  0.21949937864E+03  0.25500000920E-02 0.  1.
        2   -1    0    0  501    0  0.00000000000E+00  0.00000000000E+00 -0.92280702284E+03  0.92280702284E+03  0.25500000920E-02 0. -1.
    10030    2    1    2    0    0  0.00000000000E+00  0.00000000000E+00 -0.70330764421E+03  0.11423064015E+04  0.90012347622E+03 0.  0.
        4    1    3    3  502    0  0.17212509315E+03  0.19327690045E+03  0.11561180761E+03  0.28346200962E+03  0.12699999809E+01 0.  1.
       -4    1    3    3    0  502 -0.17212509315E+03 -0.19327690045E+03 -0.81891945183E+03  0.85884439185E+03  0.12699999809E+01 0. -1.
</event>
<event>
 5   0  0.2450427E-04  0.8998894E+03  0.7818609E-02  0.9425720E-01
       -1   -1    0    0    0  501  0.00000000000E+00  0.00000000000E+00  0.52290218685E+03  0.52290218688E+03  0.50400001928E-02 0.  1.
        1   -1    0    0  501    0  0.00000000000E+00  0.00000000000E+00 -0.38716654729E+03  0.38716654732E+03  0.50400001928E-02 0. -1.
    10030    2    1    2    0    0  0.00000000000E+00  0.00000000000E+00  0.13573563956E+03  0.91006873420E+03  0.89988940271E+03 0.  0.
        3    1    3    3  502    0 -0.20389549488E+03  0.67298998049E+02  0.46774884763E+03  0.51467613373E+03  0.10100000352E+00 0.  1.
       -3    1    3    3    0  502  0.20389549488E+03 -0.67298998049E+02 -0.33201320806E+03  0.39539260047E+03  0.10100000352E+00 0. -1.
</event>
<event>
 5   0  0.2450427E-04  0.8993398E+03  0.7818609E-02  0.9426407E-01
       -1   -1    0    0    0  501  0.00000000000E+00  0.00000000000E+00  0.24591011959E+03  0.24591011964E+03  0.50400001928E-02 0. -1.
        1   -1    0    0  501    0  0.00000000000E+00  0.00000000000E+00 -0.82226389737E+03  0.82226389739E+03  0.50400001928E-02 0.  1.
    10030    2    1    2    0    0  0.00000000000E+00  0.00000000000E+00 -0.57635377778E+03  0.10681740170E+04  0.89933978757E+03 0.  0.
        3    1    3    3  502    0  0.35719582894E+03 -0.23031219534E+03 -0.46261752450E+03  0.62820979912E+03  0.10100000352E+00 0.  1.
       -3    1    3    3    0  502 -0.35719582894E+03  0.23031219534E+03 -0.11373625328E+03  0.43996421791E+03  0.10100000352E+00 0. -1.
</event>
<event>
 5   0  0.3959804E-04  0.8999555E+03  0.7818609E-02  0.9425637E-01
        2   -1    0    0  501    0  0.00000000000E+00  0.00000000000E+00  0.53411882027E+03  0.53411882027E+03  0.25500000920E-02 0.  1.
       -2   -1    0    0    0  501  0.00000000000E+00  0.00000000000E+00 -0.37909166224E+03  0.37909166225E+03  0.25500000920E-02 0. -1.
    10030    2    1    2    0    0  0.00000000000E+00  0.00000000000E+00  0.15502715803E+03  0.91321048253E+03  0.89995553538E+03 0.  0.
        5    1    3    3  502    0 -0.20158458065E+03  0.36289035794E+02 -0.32901741703E+03  0.38759229608E+03  0.46999998093E+01 0. -1.
       -5    1    3    3    0  502  0.20158458065E+03 -0.36289035794E+02  0.48404457506E+03  0.52561818644E+03  0.46999998093E+01 0.  1.
</event>
<event>
 5   0  0.2351435E-04  0.8998661E+03  0.7818609E-02  0.9425749E-01
       -1   -1    0    0    0  501  0.00000000000E+00  0.00000000000E+00  0.19666116137E+03  0.19666116144E+03  0.50400001928E-02 0.  1.
        1   -1    0    0  501    0  0.00000000000E+00  0.00000000000E+00 -0.10293835126E+04  0.10293835126E+04  0.50400001928E-02 0. -1.
    10030    2    1    2    0    0  0.00000000000E+00  0.00000000000E+00 -0.83272235126E+03  0.12260446741E+04  0.89986611702E+03 0.  0.
        4    1    3    3  502    0 -0.33844342728E+03 -0.14710796479E+03 -0.65663729216E+02  0.37483068846E+03  0.12699999809E+01 0.  1.
       -4    1    3    3    0  502  0.33844342728E+03  0.14710796479E+03 -0.76705862205E+03  0.85121398563E+03  0.12699999809E+01 0. -1.
</event>
<event>
 5   0  0.2450427E-04  0.9007530E+03  0.7818609E-02  0.9424641E-01
        1   -1    0    0  501    0  0.00000000000E+00  0.00000000000E+00  0.10932106182E+04  0.10932106182E+04  0.50400001928E-02 0. -1.
       -1   -1    0    0    0  501  0.00000000000E+00  0.00000000000E+00 -0.18554428481E+03  0.18554428487E+03  0.50400001928E-02 0.  1.
    10030    2    1    2    0    0  0.00000000000E+00  0.00000000000E+00  0.90766633337E+03  0.12787549031E+04  0.90075297911E+03 0.  0.
        3    1    3    3  502    0  0.23822154197E+03  0.35942754719E+03  0.26927139300E+03  0.50837462370E+03  0.10100000352E+00 0.  1.
       -3    1    3    3    0  502 -0.23822154197E+03 -0.35942754719E+03  0.63839494038E+03  0.77038027936E+03  0.10100000352E+00 0. -1.
</event>
<event>
 5   0  0.4236284E-04  0.9010238E+03  0.7818609E-02  0.9424303E-01
        2   -1    0    0  501    0  0.00000000000E+00  0.00000000000E+00  0.19720503591E+03  0.19720503593E+03  0.25500000920E-02 0.  1.
       -2   -1    0    0    0  501  0.00000000000E+00  0.00000000000E+00 -0.10291874766E+04  0.10291874766E+04  0.25500000920E-02 0. -1.
    10030    2    1    2    0    0  0.00000000000E+00  0.00000000000E+00 -0.83198244068E+03  0.12263925125E+04  0.90102375838E+03 0.  0.
        2    1    3    3  502    0  0.29475140988E+03 -0.33791769911E+03 -0.35675261564E+03  0.57300889502E+03  0.25500000920E-02 0. -1.
       -2    1    3    3    0  502 -0.29475140988E+03  0.33791769911E+03 -0.47522982504E+03  0.65338361750E+03  0.25500000920E-02 0.  1.
</event>
<event>
 5   0  0.2351435E-04  0.9000442E+03  0.7818609E-02  0.9425526E-01
        1   -1    0    0  501    0  0.00000000000E+00  0.00000000000E+00  0.38181909829E+03  0.38181909833E+03  0.50400001928E-02 0.  1.
       -1   -1    0    0    0  501  0.00000000000E+00  0.00000000000E+00 -0.53040791185E+03  0.53040791187E+03  0.50400001928E-02 0. -1.
    10030    2    1    2    0    0  0.00000000000E+00  0.00000000000E+00 -0.14858881355E+03  0.91222701020E+03  0.90004415593E+03 0.  0.
        4    1    3    3  502    0  0.40157374653E+03 -0.13977546939E+03 -0.22366497818E+03  0.48044384803E+03  0.12699999809E+01 0. -1.
       -4    1    3    3    0  502 -0.40157374653E+03  0.13977546939E+03  0.75076164627E+02  0.43178316217E+03  0.12699999809E+01 0.  1.
</event>
<event>
 5   0  0.4243516E-04  0.8999459E+03  0.7818609E-02  0.9425649E-01
        2   -1    0    0  501    0  0.00000000000E+00  0.00000000000E+00  0.98819937758E+03  0.98819937758E+03  0.25500000920E-02 0.  1.
       -2   -1    0    0    0  501  0.00000000000E+00  0.00000000000E+00 -0.20489354903E+03  0.20489354905E+03  0.25500000920E-02 0. -1.
    10030    2    1    2    0    0  0.00000000000E+00  0.00000000000E+00  0.78330582855E+03  0.11930929266E+04  0.89994594868E+03 0.  0.
        1    1    3    3  502    0 -0.33710997058E+02  0.41347660291E+03  0.16059247002E+03  0.44484747266E+03  0.50400001928E-02 0. -1.
       -1    1    3    3    0  502  0.33710997058E+02 -0.41347660291E+03  0.62271335853E+03  0.74824545398E+03  0.50400001928E-02 0.  1.
</event>
<event>
 5   0  0.1596250E-04  0.8996480E+03  0.7818609E-02  0.9426022E-01
       -4   -1    0    0    0  501  0.00000000000E+00  0.00000000000E+00  0.10262489029E+04  0.10262496887E+04  0.12699999809E+01 0.  1.
        4   -1    0    0  501    0  0.00000000000E+00  0.00000000000E+00 -0.19716330651E+03  0.19716739674E+03  0.12699999809E+01 0. -1.
    10030    2    1    2    0    0  0.00000000000E+00  0.00000000000E+00  0.82908559638E+03  0.12234170855E+04  0.89964795273E+03 0.  0.
        5    1    3    3  502    0 -0.32618234474E+03  0.22978598715E+03  0.13214817892E+03  0.42033528653E+03  0.46999998093E+01 0. -1.
       -5    1    3    3    0  502  0.32618234474E+03 -0.22978598715E+03  0.69693741746E+03  0.80308179892E+03  0.46999998093E+01 0.  1.
</event>
<event>
 5   0  0.2351435E-04  0.9001399E+03  0.7818609E-02  0.9425406E-01
       -1   -1    0    0    0  501  0.00000000000E+00  0.00000000000E+00  0.19495549052E+03  0.19495549059E+03  0.50400001928E-02 0. -1.
        1   -1    0    0  501    0  0.00000000000E+00  0.00000000000E+00 -0.10390216806E+04  0.10390216806E+04  0.50400001928E-02 0.  1.
    10030    2    1    2    0    0  0.00000000000E+00  0.00000000000E+00 -0.84406619009E+03  0.12339771712E+04  0.90013994791E+03 0.  0.
        4    1    3    3  502    0 -0.38025780398E+02  0.18857151148E+03  0.13575572550E+03  0.23544936785E+03  0.12699999809E+01 0. -1.
       -4    1    3    3    0  502  0.38025780398E+02 -0.18857151148E+03 -0.97982191559E+03  0.99852780336E+03  0.12699999809E+01 0.  1.
</event>
<event>
 5   0  0.4110039E-04  0.9003715E+03  0.7818609E-02  0.9425117E-01
       -2   -1    0    0    0  501  0.00000000000E+00  0.00000000000E+00  0.21298556235E+03  0.21298556236E+03  0.25500000920E-02 0.  1.
        2   -1    0    0  501    0  0.00000000000E+00  0.00000000000E+00 -0.95155375165E+03  0.95155375166E+03  0.25500000920E-02 0. -1.
    10030    2    1    2    0    0  0.00000000000E+00  0.00000000000E+00 -0.73856818931E+03  0.11645393140E+04  0.90037150313E+03 0.  0.
        3    1    3    3  502    0  0.20299358797E+03 -0.30194478823E+03 -0.26374493680E+02  0.36479127733E+03  0.10100000352E+00 0.  1.
       -3    1    3    3    0  502 -0.20299358797E+03  0.30194478823E+03 -0.71219369563E+03  0.79974803669E+03  0.10100000352E+00 0. -1.
</event>
<event>
 5   0  0.2450427E-04  0.8997523E+03  0.7818609E-02  0.9425891E-01
        1   -1    0    0  501    0  0.00000000000E+00  0.00000000000E+00  0.33301323939E+03  0.33301323943E+03  0.50400001928E-02 0.  1.
       -1   -1    0    0    0  501  0.00000000000E+00  0.00000000000E+00 -0.60774919855E+03  0.60774919857E+03  0.50400001928E-02 0. -1.
    10030    2    1    2    0    0  0.00000000000E+00  0.00000000000E+00 -0.27473595915E+03  0.94076243800E+03  0.89975225340E+03 0.  0.
        3    1    3    3  502    0 -0.67946096075E+01 -0.58687322383E+02  0.32893951810E+03  0.33420291036E+03  0.10100000352E+00 0.  1.
       -3    1    3    3    0  502  0.67946096075E+01  0.58687322383E+02 -0.60367547725E+03  0.60655952763E+03  0.10100000352E+00 0. -1.
</event>
<event>
 5   0  0.4236284E-04  0.9002228E+03  0.7818609E-02  0.9425303E-01
        2   -1    0    0  501    0  0.00000000000E+00  0.00000000000E+00  0.90166494252E+03  0.90166494252E+03  0.25500000920E-02 0.  1.
       -2   -1    0    0    0  501  0.00000000000E+00  0.00000000000E+00 -0.22469571655E+03  0.22469571656E+03  0.25500000920E-02 0. -1.
    10030    2    1    2    0    0  0.00000000000E+00  0.00000000000E+00  0.67696922597E+03  0.11263606591E+04  0.90022275100E+03 0.  0.
        2    1    3    3  502    0 -0.39423953341E+03 -0.81721734183E+01  0.61005214586E+03  0.72639879873E+03  0.25500000920E-02 0.  1.
       -2    1    3    3    0  502  0.39423953341E+03  0.81721734183E+01  0.66917080109E+02  0.39996186035E+03  0.25500000920E-02 0. -1.
</event>
<event>
 5   0  0.4110039E-04  0.8985894E+03  0.7818609E-02  0.9427346E-01
       -2   -1    0    0    0  501  0.00000000000E+00  0.00000000000E+00  0.12636533576E+03  0.12636533578E+03  0.25500000920E-02 0.  1.
        2   -1    0    0  501    0  0.00000000000E+00  0.00000000000E+00 -0.15974771739E+04  0.15974771739E+04  0.25500000920E-02 0. -1.
    10030    2    1    2    0    0  0.00000000000E+00  0.00000000000E+00 -0.14711118382E+04  0.17238425097E+04  0.89858942676E+03 0.  0.
        3    1    3    3  502    0  0.38849780432E+03 -0.16156194094E+03 -0.43324751790E+03  0.60393395888E+03  0.10100000352E+00 0.  1.
       -3    1    3    3    0  502 -0.38849780432E+03  0.16156194094E+03 -0.10378643203E+04  0.11199085508E+04  0.10100000352E+00 0. -1.
</event>
<event>
 5   0  0.4236284E-04  0.8986121E+03  0.7818609E-02  0.9427318E-01
       -2   -1    0    0    0  501  0.00000000000E+00  0.00000000000E+00  0.17210371045E+03  0.17210371047E+03  0.25500000920E-02 0.  1.
        2   -1    0    0  501    0  0.00000000000E+00  0.00000000000E+00 -0.11729899781E+04  0.11729899781E+04  0.25500000920E-02 0. -1.
    10030    2    1    2    0    0  0.00000000000E+00  0.00000000000E+00 -0.10008862676E+04  0.13450936886E+04  0.89861210223E+03 0.  0.
        2    1    3    3  502    0  0.41542177984E+03  0.18321123557E+02 -0.75519484171E+03  0.86210797913E+03  0.25500000920E-02 0. -1.
       -2    1    3    3    0  502 -0.41542177984E+03 -0.18321123557E+02 -0.24569142594E+03  0.48298570944E+03  0.25500000920E-02 0.  1.
</event>
<event>
 5   0  0.4033144E-04  0.8998345E+03  0.7818609E-02  0.9425788E-01
       -2   -1    0    0    0  501  0.00000000000E+00  0.00000000000E+00  0.11228175453E+03  0.11228175456E+03  0.25500000920E-02 0. -1.
        2   -1    0    0  501    0  0.00000000000E+00  0.00000000000E+00 -0.18028353397E+04  0.18028353398E+04  0.25500000920E-02 0.  1.
    10030    2    1    2    0    0  0.00000000000E+00  0.00000000000E+00 -0.16905535852E+04  0.19151170943E+04  0.89983446281E+03 0.  0.
        4    1    3    3  502    0 -0.15606780716E+03  0.21460029921E+03 -0.71987838588E+02  0.27494419553E+03  0.12699999809E+01 0. -1.
       -4    1    3    3    0  502  0.15606780716E+03 -0.21460029921E+03 -0.16185657466E+04  0.16401728988E+04  0.12699999809E+01 0.  1.
</event>
<event>
 5   0  0.2356918E-04  0.9001333E+03  0.7818609E-02  0.9425415E-01
       -1   -1    0    0    0  501  0.00000000000E+00  0.00000000000E+00  0.10941816887E+03  0.10941816899E+03  0.50400001928E-02 0. -1.
        1   -1    0    0  501    0  0.00000000000E+00  0.00000000000E+00 -0.18512465531E+04  0.18512465531E+04  0.50400001928E-02 0.  1.
    10030    2    1    2    0    0  0.00000000000E+00  0.00000000000E+00 -0.17418283842E+04  0.19606647221E+04  0.90013334144E+03 0.  0.
        5    1    3    3  502    0  0.52104390721E+02  0.43842583991E+03 -0.68095081043E+03  0.81157142683E+03  0.46999998093E+01 0. -1.
       -5    1    3    3    0  502 -0.52104390721E+02 -0.43842583991E+03 -0.10608775738E+04  0.11490932953E+04  0.46999998093E+01 0.  1.
</event>
<event>
 5   0  0.2351435E-04  0.8994645E+03  0.7818609E-02  0.9426251E-01
       -1   -1    0    0    0  501  0.00000000000E+00  0.00000000000E+00  0.18805394524E+03  0.18805394531E+03  0.50400001928E-02 0.  1.
        1   -1    0    0  501    0  0.00000000000E+00  0.00000000000E+00 -0.10755375226E+04  0.10755375226E+04  0.50400001928E-02 0. -1.
    10030    2    1    2    0    0  0.00000000000E+00  0.00000000000E+00 -0.88748357735E+03  0.12635914679E+04  0.89946445050E+03 0.  0.
        4    1    3    3  502    0 -0.41747260101E+03 -0.69377657550E+02 -0.65753786803E+03  0.78195542888E+03  0.12699999809E+01 0. -1.
       -4    1    3    3    0  502  0.41747260101E+03  0.69377657550E+02 -0.22994570932E+03  0.48163603903E+03  0.12699999809E+01 0.  1.
</event>
<event>
 5   0  0.4236284E-04  0.9012281E+03  0.7818609E-02  0.9424048E-01
        2   -1    0    0  501    0  0.00000000000E+00  0.00000000000E+00  0.22170135734E+04  0.22170135734E+04  0.25500000920E-02 0. -1.
       -2   -1    0    0    0  501  0.00000000000E+00  0.00000000000E+00 -0.91588537185E+02  0.91588537221E+02  0.25500000920E-02 0.  1.
    10030    2    1    2    0    0  0.00000000000E+00  0.00000000000E+00  0.21254250362E+04  0.23086021106E+04  0.90122811796E+03 0.  0.
        2    1    3    3  502    0 -0.24862507453E+02 -0.30940268676E+03  0.22594182305E+03  0.38392430798E+03  0.25500000920E-02 0.  1.
       -2    1    3    3    0  502  0.24862507453E+02  0.30940268676E+03  0.18994832132E+04  0.19246778027E+04  0.25500000920E-02 0. -1.
</event>
<event>
 5   0  0.4236284E-04  0.8995475E+03  0.7818609E-02  0.9426147E-01
       -2   -1    0    0    0  501  0.00000000000E+00  0.00000000000E+00  0.87226292986E+02  0.87226293023E+02  0.25500000920E-02 0. -1.
        2   -1    0    0  501    0  0.00000000000E+00  0.00000000000E+00 -0.23192138260E+04  0.23192138260E+04  0.25500000920E-02 0.  1.
    10030    2    1    2    0    0  0.00000000000E+00  0.00000000000E+00 -0.22319875330E+04  0.24064401190E+04  0.89954749675E+03 0.  0.
        2    1    3    3  502    0 -0.16807900281E+03  0.12384581319E+03 -0.21817318613E+04  0.21916984854E+04  0.25500000920E-02 0.  1.
       -2    1    3    3    0  502  0.16807900281E+03 -0.12384581319E+03 -0.50255671708E+02  0.21474163354E+03  0.25500000920E-02 0. -1.
</event>
<event>
 5   0  0.2356918E-04  0.8995277E+03  0.7818609E-02  0.9426172E-01
       -1   -1    0    0    0  501  0.00000000000E+00  0.00000000000E+00  0.11948790946E+04  0.11948790946E+04  0.50400001928E-02 0.  1.
        1   -1    0    0  501    0  0.00000000000E+00  0.00000000000E+00 -0.16929538321E+03  0.16929538328E+03  0.50400001928E-02 0. -1.
    10030    2    1    2    0    0  0.00000000000E+00  0.00000000000E+00  0.10255837113E+04  0.13641744778E+04  0.89952768553E+03 0.  0.
        5    1    3    3  502    0  0.77897946080E+02  0.41139262692E+03  0.26381298527E+03  0.49490540983E+03  0.46999998093E+01 0. -1.
       -5    1    3    3    0  502 -0.77897946080E+02 -0.41139262692E+03  0.76177072608E+03  0.86926906801E+03  0.46999998093E+01 0.  1.
</event>
<event>
 5   0  0.4110039E-04  0.8993745E+03  0.7818609E-02  0.9426364E-01
        2   -1    0    0  501    0  0.00000000000E+00  0.00000000000E+00  0.18441766122E+03  0.18441766124E+03  0.25500000920E-02 0. -1.
       -2   -1    0    0    0  501  0.00000000000E+00  0.00000000000E+00 -0.10965253416E+04  0.10965253416E+04  0.25500000920E-02 0.  1.
    10030    2    1    2    0    0  0.00000000000E+00  0.00000000000E+00 -0.91210768042E+03  0.12809430029E+04  0.89937453597E+03 0.  0.
        3    1    3    3  502    0  0.26163428673E+03 -0.88019033771E+01 -0.97681249441E+03  0.10112826672E+04  0.10100000352E+00 0.  1.
       -3    1    3    3    0  502 -0.26163428673E+03  0.88019033771E+01  0.64704813992E+02  0.26966033570E+03  0.10100000352E+00 0. -1.
</event>
<event>
 5   0  0.1596250E-04  0.9007383E+03  0.7818609E-02  0.9424659E-01
        4   -1    0    0  501    0  0.00000000000E+00  0.00000000000E+00  0.22191545204E+03  0.22191908605E+03  0.12699999809E+01 0. -1.
       -4   -1    0    0    0  501  0.00000000000E+00  0.00000000000E+00 -0.91399581848E+03  0.91399670082E+03  0.12699999809E+01 0.  1.
    10030    2    1    2    0    0  0.00000000000E+00  0.00000000000E+00 -0.69208036645E+03  0.11359157869E+04  0.90073827566E+03 0.  0.
        3    1    3    3  502    0  0.27133311933E+03  0.87741103108E+02  0.93559566725E+02  0.30012258420E+03  0.10100000352E+00 0. -1.
       -3    1    3    3    0  502 -0.27133311933E+03 -0.87741103108E+02 -0.78563993317E+03  0.83579320266E+03  0.10100000352E+00 0.  1.
</event>
<event>
 5   0  0.2308362E-04  0.9000546E+03  0.7818609E-02  0.9425513E-01
        1   -1    0    0  501    0  0.00000000000E+00  0.00000000000E+00  0.76987028409E+03  0.76987028411E+03  0.50400001928E-02 0. -1.
       -1   -1    0    0    0  501  0.00000000000E+00  0.00000000000E+00 -0.26306325640E+03  0.26306325644E+03  0.50400001928E-02 0.  1.
    10030    2    1    2    0    0  0.00000000000E+00  0.00000000000E+00  0.50680702770E+03  0.10329335406E+04  0.90005462938E+03 0.  0.
        1    1    3    3  502    0 -0.18193088783E+03  0.14289304443E+03 -0.18960013420E+03  0.29910780834E+03  0.50400001928E-02 0.  1.
       -1    1    3    3    0  502  0.18193088783E+03 -0.14289304443E+03  0.69640716190E+03  0.73382573221E+03  0.50400001928E-02 0. -1.
</event>
<event>
 5   0  0.4236284E-04  0.9009716E+03  0.7818609E-02  0.9424368E-01
       -2   -1    0    0    0  501  0.00000000000E+00  0.00000000000E+00  0.11001741578E+04  0.11001741578E+04  0.25500000920E-02 0.  1.
        2   -1    0    0  501    0  0.00000000000E+00  0.00000000000E+00 -0.18445939268E+03  0.18445939270E+03  0.25500000920E-02 0. -1.
    10030    2    1    2    0    0  0.00000000000E+00  0.00000000000E+00  0.91571476514E+03  0.12846335505E+04  0.90097160223E+03 0.  0.
        2    1    3    3  502    0 -0.77791114984E+02  0.73167308469E+02 -0.16614959594E+03  0.19751101447E+03  0.25500000920E-02 0. -1.
       -2    1    3    3    0  502  0.77791114984E+02 -0.73167308469E+02  0.10818643611E+04  0.10871225361E+04  0.25500000920E-02 0.  1.
</event>
<event>
 5   0  0.3959804E-04  0.8942947E+03  0.7818609E-02  0.9432742E-01
       -2   -1    0    0    0  501  0.00000000000E+00  0.00000000000E+00  0.10898249754E+04  0.10898249754E+04  0.25500000920E-02 0.  1.
        2   -1    0    0  501    0  0.00000000000E+00  0.00000000000E+00 -0.18346133817E+03  0.18346133819E+03  0.25500000920E-02 0. -1.
    10030    2    1    2    0    0  0.00000000000E+00  0.00000000000E+00  0.90636363718E+03  0.12732863135E+04  0.89429469049E+03 0.  0.
        5    1    3    3  502    0 -0.22287043048E+03  0.17606989741E+03  0.94484628632E+03  0.98662476774E+03  0.46999998093E+01 0.  1.
       -5    1    3    3    0  502  0.22287043048E+03 -0.17606989741E+03 -0.38482649132E+02  0.28666154580E+03  0.46999998093E+01 0. -1.
</event>
<event>
 5   0  0.1596250E-04  0.8999460E+03  0.7818609E-02  0.9425649E-01
       -4   -1    0    0    0  501  0.00000000000E+00  0.00000000000E+00  0.55769162910E+03  0.55769307515E+03  0.12699999809E+01 0.  1.
        4   -1    0    0  501    0  0.00000000000E+00  0.00000000000E+00 -0.36305730118E+03  0.36305952244E+03  0.12699999809E+01 0. -1.
    10030    2    1    2    0    0  0.00000000000E+00  0.00000000000E+00  0.19463432792E+03  0.92075259759E+03  0.89994601191E+03 0.  0.
        1    1    3    3  502    0 -0.10796651202E+03  0.31083043120E+03  0.41133892294E+03  0.52675614303E+03  0.50400001928E-02 0.  1.
       -1    1    3    3    0  502  0.10796651202E+03 -0.31083043120E+03 -0.21670459502E+03  0.39399645455E+03  0.50400001928E-02 0. -1.
</event>
<event>
 5   0  0.2356918E-04  0.8984529E+03  0.7818609E-02  0.9427517E-01
       -1   -1    0    0    0  501  0.00000000000E+00  0.00000000000E+00  0.24421152033E+03  0.24421152038E+03  0.50400001928E-02 0.  1.
        1   -1    0    0  501    0  0.00000000000E+00  0.00000000000E+00 -0.82635084967E+03  0.82635084969E+03  0.50400001928E-02 0. -1.
    10030    2    1    2    0    0  0.00000000000E+00  0.00000000000E+00 -0.58213932934E+03  0.10705623701E+04  0.89845288660E+03 0.  0.
        5    1    3    3  502    0 -0.72726478592E+02 -0.41811941657E+03 -0.11566573908E+03  0.43990185314E+03  0.46999998093E+01 0.  1.
       -5    1    3    3    0  502  0.72726478592E+02  0.41811941657E+03 -0.46647359026E+03  0.63066051693E+03  0.46999998093E+01 0. -1.
</event>
<event>
 5   0  0.4033144E-04  0.9000506E+03  0.7818609E-02  0.9425518E-01
        2   -1    0    0  501    0  0.00000000000E+00  0.00000000000E+00  0.58742548023E+03  0.58742548024E+03  0.25500000920E-02 0.  1.
       -2   -1    0    0    0  501  0.00000000000E+00  0.00000000000E+00 -0.34476335056E+03  0.34476335057E+03  0.25500000920E-02 0. -1.
    10030    2    1    2    0    0  0.00000000000E+00  0.00000000000E+00  0.24266212967E+03  0.93218883080E+03  0.90005061363E+03 0.  0.
        4    1    3    3  502    0  0.44459776210E+03 -0.29927820697E+02  0.18649276059E+03  0.48305693988E+03  0.12699999809E+01 0.  1.
       -4    1    3    3    0  502 -0.44459776210E+03  0.29927820697E+02  0.56169369083E+02  0.44913189092E+03  0.12699999809E+01 0. -1.
</event>
<event>
 5   0  0.2450427E-04  0.9003163E+03  0.7818609E-02  0.9425186E-01
        1   -1    0    0  501    0  0.00000000000E+00  0.00000000000E+00  0.26668487426E+03  0.26668487431E+03  0.50400001928E-02 0. -1.
       -1   -1    0    0    0  501  0.00000000000E+00  0.00000000000E+00 -0.75985697718E+03  0.75985697719E+03  0.50400001928E-02 0.  1.
    10030    2    1    2    0    0  0.00000000000E+00  0.00000000000E+00 -0.49317210291E+03  0.10265418515E+04  0.90031630542E+03 0.  0.
        3    1    3    3  502    0  0.61062359971E+01  0.26130639908E+03 -0.66447261182E+03  0.71403233986E+03  0.10100000352E+00 0.  1.
       -3    1    3    3    0  502 -0.61062359971E+01 -0.26130639908E+03  0.17130050890E+03  0.31250951164E+03  0.10100000352E+00 0. -1.
</event>
<event>
 5   0  0.2332791E-04  0.8994973E+03  0.7818609E-02  0.9426210E-01
       -1   -1    0    0    0  501  0.00000000000E+00  0.00000000000E+00  0.10066963083E+04  0.10066963083E+04  0.50400001928E-02 0.  1.
        1   -1    0    0  501    0  0.00000000000E+00  0.00000000000E+00 -0.20092835091E+03  0.20092835097E+03  0.50400001928E-02 0. -1.
    10030    2    1    2    0    0  0.00000000000E+00  0.00000000000E+00  0.80576795735E+03  0.12076246592E+04  0.89949725766E+03 0.  0.
        2    1    3    3  502    0 -0.16766165813E+03 -0.29380442043E+03  0.80079331256E+03  0.86931087565E+03  0.25500000920E-02 0.  1.
       -2    1    3    3    0  502  0.16766165813E+03  0.29380442043E+03  0.49746447837E+01  0.33831378359E+03  0.25500000920E-02 0. -1.
</event>
<event>
 5   0  0.4236284E-04  0.9000189E+03  0.7818609E-02  0.9425558E-01
        2   -1    0    0  501    0  0.00000000000E+00  0.00000000000E+00  0.30183872661E+03  0.30183872662E+03  0.25500000920E-02 0.  1.
       -2   -1    0    0    0  501  0.00000000000E+00  0.00000000000E+00 -0.67091620440E+03  0.67091620440E+03  0.25500000920E-02 0. -1.
    10030    2    1    2    0    0  0.00000000000E+00  0.00000000000E+00 -0.36907747779E+03  0.97275493102E+03  0.90001887270E+03 0.  0.
        2    1    3    3  502    0  0.39018153382E+03 -0.13231101279E+03  0.11087966828E+02  0.41215382620E+03  0.25500000920E-02 0. -1.
       -2    1    3    3    0  502 -0.39018153382E+03  0.13231101279E+03 -0.38016544462E+03  0.56060110482E+03  0.25500000920E-02 0.  1.
</event>
<event>
 5   0  0.3959804E-04  0.8999350E+03  0.7818609E-02  0.9425663E-01
       -2   -1    0    0    0  501  0.00000000000E+00  0.00000000000E+00  0.17270570048E+03  0.17270570050E+03  0.25500000920E-02 0.  1.
        2   -1    0    0  501    0  0.00000000000E+00  0.00000000000E+00 -0.11723454714E+04  0.11723454714E+04  0.25500000920E-02 0. -1.
    10030    2    1    2    0    0  0.00000000000E+00  0.00000000000E+00 -0.99963977090E+03  0.13450511719E+04  0.89993498843E+03 0.  0.
        5    1    3    3  502    0  0.28249087034E+03 -0.27253322834E+02  0.22021008760E+02  0.28469431019E+03  0.46999998093E+01 0.  1.
       -5    1    3    3    0  502 -0.28249087034E+03  0.27253322834E+02 -0.10216607797E+04  0.10603568617E+04  0.46999998093E+01 0. -1.
</event>
<event>
 5   0  0.2351435E-04  0.8996341E+03  0.7818609E-02  0.9426039E-01
       -1   -1    0    0    0  501  0.00000000000E+00  0.00000000000E+00  0.65313608110E+03  0.65313608112E+03  0.50400001928E-02 0.  1.
        1   -1    0    0  501    0  0.00000000000E+00  0.00000000000E+00 -0.30979052587E+03  0.30979052591E+03  0.50400001928E-02 0. -1.
    10030    2    1    2    0    0  0.00000000000E+00  0.00000000000E+00  0.34334555524E+03  0.96292660703E+03  0.89963408130E+03 0.  0.
        4    1    3    3  502    0  0.16032110947E+03  0.42027352720E+03  0.17057007846E+03  0.48107012001E+03  0.12699999809E+01 0.  1.
       -4    1    3    3    0  502 -0.16032110947E+03 -0.42027352720E+03  0.17277547678E+03  0.48185648702E+03  0.12699999809E+01 0. -1.
</event>
<event>
 5   0  0.3959804E-04  0.8999952E+03  0.7818609E-02  0.9425587E-01
        2   -1    0    0  501    0  0.00000000000E+00  0.00000000000E+00  0.53033580685E+03  0.53033580685E+03  0.25500000920E-02 0. -1.
       -2   -1    0    0    0  501  0.00000000000E+00  0.00000000000E+00 -0.38182943412E+03  0.38182943413E+03  0.25500000920E-02 0.  1.
    10030    2    1    2    0    0  0.00000000000E+00  0.00000000000E+00  0.14850637272E+03  0.91216524098E+03  0.89999515783E+03 0.  0.
        5    1    3    3  502    0  0.34793048929E+03  0.28493779057E+03  0.58863618740E+02  0.45357709982E+03  0.46999998093E+01 0.  1.
       -5    1    3    3    0  502 -0.34793048929E+03 -0.28493779057E+03  0.89642753984E+02  0.45858814116E+03  0.46999998093E+01 0. -1.
</event>
<event>
 5   0  0.1596250E-04  0.8999354E+03  0.7818609E-02  0.9425662E-01
        3   -1    0    0  501    0  0.00000000000E+00  0.00000000000E+00  0.37295799050E+03  0.37295800418E+03  0.10100000352E+00 0.  1.
       -3   -1    0    0    0  501  0.00000000000E+00  0.00000000000E+00 -0.54287859901E+03  0.54287860840E+03  0.10100000352E+00 0. -1.
    10030    2    1    2    0    0  0.00000000000E+00  0.00000000000E+00 -0.16992060850E+03  0.91583661258E+03  0.89993537976E+03 0.  0.
        3    1    3    3  502    0  0.38614227008E+03  0.11321511535E+03 -0.28988210486E+03  0.49593866557E+03  0.10100000352E+00 0. -1.
       -3    1    3    3    0  502 -0.38614227008E+03 -0.11321511535E+03  0.11996149636E+03  0.41989794701E+03  0.10100000352E+00 0.  1.
</event>
<event>
 5   0  0.2450427E-04  0.9001713E+03  0.7818609E-02  0.9425367E-01
        1   -1    0    0  501    0  0.00000000000E+00  0.00000000000E+00  0.71835260500E+03  0.71835260502E+03  0.50400001928E-02 0. -1.
       -1   -1    0    0    0  501  0.00000000000E+00  0.00000000000E+00 -0.28200227899E+03  0.28200227904E+03  0.50400001928E-02 0.  1.
    10030    2    1    2    0    0  0.00000000000E+00  0.00000000000E+00  0.43635032601E+03  0.10003548841E+04  0.90017125429E+03 0.  0.
        3    1    3    3  502    0  0.33535859399E+03 -0.20878523871E+03  0.45786558087E+03  0.60472933021E+03  0.10100000352E+00 0. -1.
       -3    1    3    3    0  502 -0.33535859399E+03  0.20878523871E+03 -0.21515254865E+02  0.39562555385E+03  0.10100000352E+00 0.  1.
</event>
<event>
 5   0  0.4236284E-04  0.9000697E+03  0.7818609E-02  0.9425494E-01
        2   -1    0    0  501    0  0.00000000000E+00  0.00000000000E+00  0.46523188205E+03  0.46523188205E+03  0.25500000920E-02 0. -1.
       -2   -1    0    0    0  501  0.00000000000E+00  0.00000000000E+00 -0.43533426228E+03  0.43533426229E+03  0.25500000920E-02 0.  1.
    10030    2    1    2    0    0  0.00000000000E+00  0.00000000000E+00  0.29897619768E+02  0.90056614434E+03  0.90006972656E+03 0.  0.
        2    1    3    3  502    0  0.16333029086E+03  0.62760996672E+00 -0.40463221029E+03  0.43635353031E+03  0.25500000920E-02 0.  1.
       -2    1    3    3    0  502 -0.16333029086E+03 -0.62760996672E+00  0.43452983006E+03  0.46421261403E+03  0.25500000920E-02 0. -1.
</event>
<event>
 5   0  0.4110039E-04  0.9004114E+03  0.7818609E-02  0.9425067E-01
        2   -1    0    0  501    0  0.00000000000E+00  0.00000000000E+00  0.14723206365E+04  0.14723206365E+04  0.25500000920E-02 0. -1.
       -2   -1    0    0    0  501  0.00000000000E+00  0.00000000000E+00 -0.13766374440E+03  0.13766374443E+03  0.25500000920E-02 0.  1.
    10030    2    1    2    0    0  0.00000000000E+00  0.00000000000E+00  0.13346568921E+04  0.16099843809E+04  0.90041139887E+03 0.  0.
        3    1    3    3  502    0  0.13477689751E+03 -0.19110883449E+03  0.13552014312E+04  0.13752302819E+04  0.10100000352E+00 0. -1.
       -3    1    3    3    0  502 -0.13477689751E+03  0.19110883449E+03 -0.20544539169E+02  0.23475409904E+03  0.10100000352E+00 0.  1.
</event>
<event>
 5   0  0.4243516E-04  0.9001808E+03  0.7818609E-02  0.9425355E-01
       -2   -1    0    0    0  501  0.00000000000E+00  0.00000000000E+00  0.14822712060E+03  0.14822712063E+03  0.25500000920E-02 0. -1.
        2   -1    0    0  501    0  0.00000000000E+00  0.00000000000E+00 -0.13666957823E+04  0.13666957823E+04  0.25500000920E-02 0.  1.
    10030    2    1    2    0    0  0.00000000000E+00  0.00000000000E+00 -0.12184686617E+04  0.15149229030E+04  0.90018082755E+03 0.  0.
        1    1    3    3  502    0 -0.28290407835E+03  0.87262049058E+02 -0.11797679628E+04  0.12163477418E+04  0.50400001928E-02 0.  1.
       -1    1    3    3    0  502  0.28290407835E+03 -0.87262049058E+02 -0.38700698885E+02  0.29857516118E+03  0.50400001928E-02 0. -1.
</event>
<event>
 5   0  0.2308362E-04  0.9002453E+03  0.7818609E-02  0.9425275E-01
       -1   -1    0    0    0  501  0.00000000000E+00  0.00000000000E+00  0.20872592817E+03  0.20872592823E+03  0.50400001928E-02 0. -1.
        1   -1    0    0  501    0  0.00000000000E+00  0.00000000000E+00 -0.97070066935E+03  0.97070066937E+03  0.50400001928E-02 0.  1.
    10030    2    1    2    0    0  0.00000000000E+00  0.00000000000E+00 -0.76197474119E+03  0.11794265976E+04  0.90024529596E+03 0.  0.
        1    1    3    3  502    0  0.26128879388E+03  0.14692041150E+03 -0.82090769508E+03  0.87392613245E+03  0.50400001928E-02 0.  1.
       -1    1    3    3    0  502 -0.26128879388E+03 -0.14692041150E+03  0.58932953886E+02  0.30550046514E+03  0.50400001928E-02 0. -1.
</event>
<event>
 5   0  0.4110039E-04  0.9003089E+03  0.7818609E-02  0.9425195E-01
       -2   -1    0    0    0  501  0.00000000000E+00  0.00000000000E+00  0.93927343183E+03  0.93927343183E+03  0.25500000920E-02 0.  1.
        2   -1    0    0  501    0  0.00000000000E+00  0.00000000000E+00 -0.21574020429E+03  0.21574020431E+03  0.25500000920E-02 0. -1.
    10030    2    1    2    0    0  0.00000000000E+00  0.00000000000E+00  0.72353322753E+03  0.11550136361E+04  0.90030892938E+03 0.  0.
        3    1    3    3  502    0  0.25210776696E+03 -0.97888564549E+02  0.82343270894E+03  0.86670752483E+03  0.10100000352E+00 0.  1.
       -3    1    3    3    0  502 -0.25210776696E+03  0.97888564549E+02 -0.99899481413E+02  0.28830611131E+03  0.10100000352E+00 0. -1.
</event>
<event>
 5   0  0.2351435E-04  0.9000424E+03  0.7818609E-02  0.9425528E-01
        1   -1    0    0  501    0  0.00000000000E+00  0.00000000000E+00  0.42840132252E+03  0.42840132255E+03  0.50400001928E-02 0. -1.
       -1   -1    0    0    0  501  0.00000000000E+00  0.00000000000E+00 -0.47273214365E+03  0.47273214367E+03  0.50400001928E-02 0.  1.
    10030    2    1    2    0    0  0.00000000000E+00  0.00000000000E+00 -0.44330821130E+02  0.90113346622E+03  0.90004238913E+03 0.  0.
        4    1    3    3  502    0 -0.33023272603E+03 -0.20256058781E+03 -0.25142556535E+03  0.46184507455E+03  0.12699999809E+01 0.  1.
       -4    1    3    3    0  502  0.33023272603E+03  0.20256058781E+03  0.20709474422E+03  0.43928839167E+03  0.12699999809E+01 0. -1.
</event>
<event>
 5   0  0.3959804E-04  0.9001730E+03  0.7818609E-02  0.9425365E-01
       -2   -1    0    0    0  501  0.00000000000E+00  0.00000000000E+00  0.11129874071E+03  0.11129874074E+03  0.25500000920E-02 0.  1.
        2   -1    0    0  501    0  0.00000000000E+00  0.00000000000E+00 -0.18201271541E+04  0.18201271541E+04  0.25500000920E-02 0. -1.
    10030    2    1    2    0    0  0.00000000000E+00  0.00000000000E+00 -0.17088284134E+04  0.19314258948E+04  0.90017300607E+03 0.  0.
        5    1    3    3  502    0  0.40547858153E+03  0.12941565621E+03 -0.54057809650E+03  0.68804655407E+03  0.46999998093E+01 0.  1.
       -5    1    3    3    0  502 -0.40547858153E+03 -0.12941565621E+03 -0.11682503169E+04  0.12433793408E+04  0.46999998093E+01 0. -1.
</event>
<event>
 5   0  0.2351435E-04  0.8997385E+03  0.7818609E-02  0.9425908E-01
        1   -1    0    0  501    0  0.00000000000E+00  0.00000000000E+00  0.98197839691E+03  0.98197839692E+03  0.50400001928E-02 0. -1.
       -1   -1    0    0    0  501  0.00000000000E+00  0.00000000000E+00 -0.20609655070E+03  0.20609655076E+03  0.50400001928E-02 0.  1.
    10030    2    1    2    0    0  0.00000000000E+00  0.00000000000E+00  0.77588184621E+03  0.11880749477E+04  0.89973854093E+03 0.  0.
        4    1    3    3  502    0 -0.28471997158E+03 -0.14746092845E+03 -0.28729802405E+02  0.32192732422E+03  0.12699999809E+01 0.  1.
       -4    1    3    3    0  502  0.28471997158E+03  0.14746092845E+03  0.80461164861E+03  0.86614762346E+03  0.12699999809E+01 0. -1.
</event>
<event>
 5   0  0.2450427E-04  0.9044738E+03  0.7818609E-02  0.9420006E-01
       -1   -1    0    0    0  501  0.00000000000E+00  0.00000000000E+00  0.26911763934E+03  0.26911763939E+03  0.50400001928E-02 0.  1.
        1   -1    0    0  501    0  0.00000000000E+00  0.00000000000E+00 -0.75995834201E+03  0.75995834203E+03  0.50400001928E-02 0. -1.
    10030    2    1    2    0    0  0.00000000000E+00  0.00000000000E+00 -0.49084070267E+03  0.10290759814E+04  0.90447375868E+03 0.  0.
        3    1    3    3  502    0  0.20177379065E+02 -0.16295312827E+03 -0.72484546632E+03  0.74321047415E+03  0.10100000352E+00 0. -1.
       -3    1    3    3    0  502 -0.20177379065E+02  0.16295312827E+03  0.23400476364E+03  0.28586550727E+03  0.10100000352E+00 0.  1.
</event>
<event>
 5   0  0.4243516E-04  0.9003696E+03  0.7818609E-02  0.9425120E-01
       -2   -1    0    0    0  501  0.00000000000E+00  0.00000000000E+00  0.10840377944E+04  0.10840377944E+04  0.25500000920E-02 0.  1.
        2   -1    0    0  501    0  0.00000000000E+00  0.00000000000E+00 -0.18695505355E+03  0.18695505357E+03  0.25500000920E-02 0. -1.
    10030    2    1    2    0    0  0.00000000000E+00  0.00000000000E+00  0.89708274087E+03  0.12709928480E+04  0.90036957728E+03 0.  0.
        1    1    3    3  502    0 -0.22975008209E+03 -0.10949799171E+03  0.97273403330E+03  0.10054781997E+04  0.50400001928E-02 0.  1.
       -1    1    3    3    0  502  0.22975008209E+03  0.10949799171E+03 -0.75651292438E+02  0.26551464834E+03  0.50400001928E-02 0. -1.
</event>
<event>
 5   0  0.4033144E-04  0.8994970E+03  0.7818609E-02  0.9426210E-01
       -2   -1    0    0    0  501  0.00000000000E+00  0.00000000000E+00  0.90195117041E+02  0.90195117077E+02  0.25500000920E-02 0. -1.
        2   -1    0    0  501    0  0.00000000000E+00  0.00000000000E+00 -0.22426237633E+04  0.22426237633E+04  0.25500000920E-02 0.  1.
    10030    2    1    2    0    0  0.00000000000E+00  0.00000000000E+00 -0.21524286463E+04  0.23328188804E+04  0.89949699912E+03 0.  0.
        4    1    3    3  502    0  0.36694755965E+03  0.20853858118E+03 -0.67332181105E+03  0.79467145759E+03  0.12699999809E+01 0. -1.
       -4    1    3    3    0  502 -0.36694755965E+03 -0.20853858118E+03 -0.14791068352E+04  0.15381474228E+04  0.12699999809E+01 0.  1.
</event>
<event>
 5   0  0.4110039E-04  0.8997453E+03  0.7818609E-02  0.9425900E-01
       -2   -1    0    0    0  501  0.00000000000E+00  0.00000000000E+00  0.16346547828E+03  0.16346547830E+03  0.25500000920E-02 0. -1.
        2   -1    0    0  501    0  0.00000000000E+00  0.00000000000E+00 -0.12380925918E+04  0.12380925918E+04  0.25500000920E-02 0.  1.
    10030    2    1    2    0    0  0.00000000000E+00  0.00000000000E+00 -0.10746271135E+04  0.14015580701E+04  0.89974529217E+03 0.  0.
        3    1    3    3  502    0  0.21058652710E+03 -0.36662704802E+03 -0.77673436127E+03  0.88435194121E+03  0.10100000352E+00 0.  1.
       -3    1    3    3    0  502 -0.21058652710E+03  0.36662704802E+03 -0.29789275227E+03  0.51720612892E+03  0.10100000352E+00 0. -1.
</event>
<event>
 5   0  0.2332791E-04  0.9001840E+03  0.7818609E-02  0.9425351E-01
       -1   -1    0    0    0  501  0.00000000000E+00  0.00000000000E+00  0.13417766215E+03  0.13417766225E+03  0.50400001928E-02 0.  1.
        1   -1    0    0  501    0  0.00000000000E+00  0.00000000000E+00 -0.15098103766E+04  0.15098103766E+04  0.50400001928E-02 0. -1.
    10030    2    1    2    0    0  0.00000000000E+00  0.00000000000E+00 -0.13756327145E+04  0.16439880389E+04  0.90018404055E+03 0.  0.
        2    1    3    3  502    0 -0.11164457110E+02 -0.42884389258E+03 -0.43907262445E+03  0.61385380903E+03  0.25500000920E-02 0.  1.
       -2    1    3    3    0  502  0.11164457110E+02  0.42884389258E+03 -0.93656009002E+03  0.10301342299E+04  0.25500000920E-02 0. -1.
</event>
<event>
 5   0  0.2332791E-04  0.8999547E+03  0.7818609E-02  0.9425638E-01
       -1   -1    0    0    0  501  0.00000000000E+00  0.00000000000E+00  0.33180480233E+03  0.33180480236E+03  0.50400001928E-02 0. -1.
        1   -1    0    0  501    0  0.00000000000E+00  0.00000000000E+00 -0.61023711228E+03  0.61023711230E+03  0.50400001928E-02 0.  1.
    10030    2    1    2    0    0  0.00000000000E+00  0.00000000000E+00 -0.27843230995E+03  0.94204191466E+03  0.89995467539E+03 0.  0.
        2    1    3    3  502    0 -0.38200675385E+03 -0.20989932210E+03 -0.25621405729E+03  0.50560115562E+03  0.25500000920E-02 0.  1.
       -2    1    3    3    0  502  0.38200675385E+03  0.20989932210E+03 -0.22218252666E+02  0.43644075905E+03  0.25500000920E-02 0. -1.
</event>
<event>
 5   0  0.3959804E-04  0.8981097E+03  0.7818609E-02  0.9427948E-01
       -2   -1    0    0    0  501  0.00000000000E+00  0.00000000000E+00  0.14789806782E+03  0.14789806784E+03  0.25500000920E-02 0.  1.
        2   -1    0    0  501    0  0.00000000000E+00  0.00000000000E+00 -0.13634407309E+04  0.13634407309E+04  0.25500000920E-02 0. -1.
    10030    2    1    2    0    0  0.00000000000E+00  0.00000000000E+00 -0.12155426631E+04  0.15113387988E+04  0.89810968085E+03 0.  0.
        5    1    3    3  502    0 -0.88786180811E+01  0.33460944767E+03 -0.11114483748E+04  0.11607678028E+04  0.46999998093E+01 0. -1.
       -5    1    3    3    0  502  0.88786180811E+01 -0.33460944767E+03 -0.10409428834E+03  0.35057099594E+03  0.46999998093E+01 0.  1.
</event>
<event>
 5   0  0.2308362E-04  0.9000384E+03  0.7818609E-02  0.9425533E-01
       -1   -1    0    0    0  501  0.00000000000E+00  0.00000000000E+00  0.22555530656E+03  0.22555530662E+03  0.50400001928E-02 0.  1.
        1   -1    0    0  501    0  0.00000000000E+00  0.00000000000E+00 -0.89786082825E+03  0.89786082826E+03  0.50400001928E-02 0. -1.
    10030    2    1    2    0    0  0.00000000000E+00  0.00000000000E+00 -0.67230552169E+03  0.11234161349E+04  0.90003838675E+03 0.  0.
        1    1    3    3  502    0  0.54743118296E+02  0.23754258035E+03 -0.80831398500E+03  0.84427174823E+03  0.50400001928E-02 0. -1.
       -1    1    3    3    0  502 -0.54743118296E+02 -0.23754258035E+03  0.13600846332E+03  0.27914438665E+03  0.50400001928E-02 0.  1.
</event>
<event>
 5   0  0.4110039E-04  0.9001649E+03  0.7818609E-02  0.9425375E-01
       -2   -1    0    0    0  501  0.00000000000E+00  0.00000000000E+00  0.17663914115E+03  0.17663914117E+03  0.25500000920E-02 0. -1.
        2   -1    0    0  501    0  0.00000000000E+00  0.00000000000E+00 -0.11468252329E+04  0.11468252329E+04  0.25500000920E-02 0.  1.
    10030    2    1    2    0    0  0.00000000000E+00  0.00000000000E+00 -0.97018609175E+03  0.13234643741E+04  0.90016492756E+03 0.  0.
        3    1    3    3  502    0 -0.19250807545E+03  0.82650019975E+02 -0.10707677989E+04  0.10910701510E+04  0.10100000352E+00 0.  1.
       -3    1    3    3    0  502  0.19250807545E+03 -0.82650019975E+02  0.10058170717E+03  0.23239422311E+03  0.10100000352E+00 0. -1.
</event>
<event>
 5   0  0.2332791E-04  0.9004810E+03  0.7818609E-02  0.9424980E-01
       -1   -1    0    0    0  501  0.00000000000E+00  0.00000000000E+00  0.25805207162E+03  0.25805207167E+03  0.50400001928E-02 0.  1.
        1   -1    0    0  501    0  0.00000000000E+00  0.00000000000E+00 -0.78556432370E+03  0.78556432372E+03  0.50400001928E-02 0. -1.
    10030    2    1    2    0    0  0.00000000000E+00  0.00000000000E+00 -0.52751225209E+03  0.10436163954E+04  0.90048098515E+03 0.  0.
        2    1    3    3  502    0  0.33956077154E+03  0.67687496578E+02 -0.59731235483E+03  0.69040941767E+03  0.25500000920E-02 0. -1.
       -2    1    3    3    0  502 -0.33956077154E+03 -0.67687496578E+02  0.69800102745E+02  0.35320697772E+03  0.25500000920E-02 0.  1.
</event>
<event>
 5   0  0.2351435E-04  0.8995032E+03  0.7818609E-02  0.9426203E-01
       -1   -1    0    0    0  501  0.00000000000E+00  0.00000000000E+00  0.13862830705E+03  0.13862830714E+03  0.50400001928E-02 0.  1.
        1   -1    0    0  501    0  0.00000000000E+00  0.00000000000E+00 -0.14591283526E+04  0.14591283526E+04  0.50400001928E-02 0. -1.
    10030    2    1    2    0    0  0.00000000000E+00  0.00000000000E+00 -0.13205000455E+04  0.15977566598E+04  0.89950318148E+03 0.  0.
        4    1    3    3  502    0 -0.24195692061E+03 -0.35735434500E+03 -0.43536046476E+03  0.61301356143E+03  0.12699999809E+01 0. -1.
       -4    1    3    3    0  502  0.24195692061E+03  0.35735434500E+03 -0.88513958079E+03  0.98474309833E+03  0.12699999809E+01 0.  1.
</event>
<event>
 5   0  0.2356918E-04  0.9000286E+03  0.7818609E-02  0.9425546E-01
        1   -1    0    0  501    0  0.00000000000E+00  0.00000000000E+00  0.16843052266E+03  0.16843052273E+03  0.50400001928E-02 0. -1.
       -1   -1    0    0    0  501  0.00000000000E+00  0.00000000000E+00 -0.12023524897E+04  0.12023524897E+04  0.50400001928E-02 0.  1.
    10030    2    1    2    0    0  0.00000000000E+00  0.00000000000E+00 -0.10339219670E+04  0.13707830124E+04  0.90002857357E+03 0.  0.
        5    1    3    3  502    0 -0.19746211846E+03 -0.35518122191E+03 -0.22263189750E+03  0.46339188643E+03  0.46999998093E+01 0. -1.
       -5    1    3    3    0  502  0.19746211846E+03  0.35518122191E+03 -0.81129006951E+03  0.90739112598E+03  0.46999998093E+01 0.  1.
</event>
<event>
 5   0  0.4033144E-04  0.8998632E+03  0.7818609E-02  0.9425752E-01
       -2   -1    0    0    0  501  0.00000000000E+00  0.00000000000E+00  0.19202000299E+03  0.19202000300E+03  0.25500000920E-02 0.  1.
        2   -1    0    0  501    0  0.00000000000E+00  0.00000000000E+00 -0.10542570436E+04  0.10542570436E+04  0.25500000920E-02 0. -1.
    10030    2    1    2    0    0  0.00000000000E+00  0.00000000000E+00 -0.86223704059E+03  0.12462770466E+04  0.89986319109E+03 0.  0.
        4    1    3    3  502    0 -0.89380250398E+02  0.87825471203E+02  0.16736280855E+03  0.20907908824E+03  0.12699999809E+01 0.  1.
       -4    1    3    3    0  502  0.89380250398E+02 -0.87825471203E+02 -0.10295998491E+04  0.10371979583E+04  0.12699999809E+01 0. -1.
</event>
<event>
 5   0  0.2356918E-04  0.9000450E+03  0.7818609E-02  0.9425525E-01
       -1   -1    0    0    0  501  0.00000000000E+00  0.00000000000E+00  0.43421382966E+03  0.43421382969E+03  0.50400001928E-02 0.  1.
        1   -1    0    0  501    0  0.00000000000E+00  0.00000000000E+00 -0.46640672948E+03  0.46640672950E+03  0.50400001928E-02 0. -1.
    10030    2    1    2    0    0  0.00000000000E+00  0.00000000000E+00 -0.32192899814E+02  0.90062055920E+03  0.90004500379E+03 0.  0.
        5    1    3    3  502    0  0.34494268501E+03  0.19706516029E+03  0.19541049565E+03  0.44274991265E+03  0.46999998093E+01 0.  1.
       -5    1    3    3    0  502 -0.34494268501E+03 -0.19706516029E+03 -0.22760339547E+03  0.45787064655E+03  0.46999998093E+01 0. -1.
</event>
<event>
 5   0  0.4236284E-04  0.9003928E+03  0.7818609E-02  0.9425091E-01
        2   -1    0    0  501    0  0.00000000000E+00  0.00000000000E+00  0.52752187853E+03  0.52752187853E+03  0.25500000920E-02 0.  1.
       -2   -1    0    0    0  501  0.00000000000E+00  0.00000000000E+00 -0.38420547676E+03  0.38420547677E+03  0.25500000920E-02 0. -1.
    10030    2    1    2    0    0  0.00000000000E+00  0.00000000000E+00  0.14331640176E+03  0.91172735530E+03  0.90039279173E+03 0.  0.
        2    1    3    3  502    0  0.16161705854E+03  0.26984209269E+03 -0.25448641505E+03  0.40459629762E+03  0.25500000920E-02 0. -1.
       -2    1    3    3    0  502 -0.16161705854E+03 -0.26984209269E+03  0.39780281681E+03  0.50713105768E+03  0.25500000920E-02 0.  1.
</event>
<event>
 5   0  0.2332791E-04  0.8999983E+03  0.7818609E-02  0.9425584E-01
        1   -1    0    0  501    0  0.00000000000E+00  0.00000000000E+00  0.11507968834E+04  0.11507968834E+04  0.50400001928E-02 0.  1.
       -1   -1    0    0    0  501  0.00000000000E+00  0.00000000000E+00 -0.17596435565E+03  0.17596435572E+03  0.50400001928E-02 0. -1.
    10030    2    1    2    0    0  0.00000000000E+00  0.00000000000E+00  0.97483252778E+03  0.13267612392E+04  0.89999829362E+03 0.  0.
        2    1    3    3  502    0  0.20604765927E+03  0.25620559557E+03  0.34474520710E+02  0.33058348065E+03  0.25500000920E-02 0. -1.
       -2    1    3    3    0  502 -0.20604765927E+03 -0.25620559557E+03  0.94035800707E+03  0.99617775851E+03  0.25500000920E-02 0.  1.
</event>
<event>
 5   0  0.2351435E-04  0.9000589E+03  0.7818609E-02  0.9425508E-01
        1   -1    0    0  501    0  0.00000000000E+00  0.00000000000E+00  0.14535041236E+04  0.14535041236E+04  0.50400001928E-02 0. -1.
       -1   -1    0    0    0  501  0.00000000000E+00  0.00000000000E+00 -0.13933673851E+03  0.13933673860E+03  0.50400001928E-02 0.  1.
    10030    2    1    2    0    0  0.00000000000E+00  0.00000000000E+00  0.13141673851E+04  0.15928408622E+04  0.90005894044E+03 0.  0.
        4    1    3    3  502    0  0.28352985949E+03  0.12141388905E+02  0.38981111121E+02  0.28645721229E+03  0.12699999809E+01 0.  1.
       -4    1    3    3    0  502 -0.28352985949E+03 -0.12141388905E+02  0.12751862740E+04  0.13063836499E+04  0.12699999809E+01 0. -1.
</event>
<event>
 5   0  0.4236284E-04  0.8994110E+03  0.7818609E-02  0.9426318E-01
        2   -1    0    0  501    0  0.00000000000E+00  0.00000000000E+00  0.61263002063E+03  0.61263002064E+03  0.25500000920E-02 0. -1.
       -2   -1    0    0    0  501  0.00000000000E+00  0.00000000000E+00 -0.33010959555E+03  0.33010959556E+03  0.25500000920E-02 0.  1.
    10030    2    1    2    0    0  0.00000000000E+00  0.00000000000E+00  0.28252042508E+03  0.94273961619E+03  0.89941102581E+03 0.  0.
        2    1    3    3  502    0  0.18916223083E+02 -0.19305841564E+03 -0.28400117285E+03  0.34392737828E+03  0.25500000920E-02 0.  1.
       -2    1    3    3    0  502 -0.18916223083E+02  0.19305841564E+03  0.56652159793E+03  0.59881223791E+03  0.25500000920E-02 0. -1.
</event>
<event>
 5   0  0.4243516E-04  0.9043541E+03  0.7818609E-02  0.9420155E-01
        2   -1    0    0  501    0  0.00000000000E+00  0.00000000000E+00  0.78310730497E+03  0.78310730497E+03  0.25500000920E-02 0. -1.
       -2   -1    0    0    0  501  0.00000000000E+00  0.00000000000E+00 -0.26109332405E+03  0.26109332407E+03  0.25500000920E-02 0.  1.
    10030    2    1    2    0    0  0.00000000000E+00  0.00000000000E+00  0.52201398092E+03  0.10442006290E+04  0.90435411063E+03 0.  0.
        1    1    3    3  502    0 -0.42091866270E+03  0.73740429557E+02  0.90316201484E+02  0.43676903260E+03  0.50400001928E-02 0.  1.
       -1    1    3    3    0  502  0.42091866270E+03 -0.73740429557E+02  0.43169777943E+03  0.60743159644E+03  0.50400001928E-02 0. -1.
</event>
<event>
 5   0  0.2332791E-04  0.8990610E+03  0.7818609E-02  0.9426756E-01
        1   -1    0    0  501    0  0.00000000000E+00  0.00000000000E+00  0.72619044912E+03  0.72619044914E+03  0.50400001928E-02 0.  1.
       -1   -1    0    0    0  501  0.00000000000E+00  0.00000000000E+00 -0.27827088867E+03  0.27827088872E+03  0.50400001928E-02 0. -1.
    10030    2    1    2    0    0  0.00000000000E+00  0.00000000000E+00  0.44791956045E+03  0.10044613379E+04  0.89906098048E+03 0.  0.
        2    1    3    3  502    0  0.19161375536E+03  0.14051678527E+03  0.65029372419E+03  0.69234581382E+03  0.25500000920E-02 0.  1.
       -2    1    3    3    0  502 -0.19161375536E+03 -0.14051678527E+03 -0.20237416374E+03  0.31211552404E+03  0.25500000920E-02 0. -1.
</event>
<event>
 5   0  0.2308362E-04  0.9004492E+03  0.7818609E-02  0.9425020E-01
        1   -1    0    0  501    0  0.00000000000E+00  0.00000000000E+00  0.13602750831E+04  0.13602750831E+04  0.50400001928E-02 0.  1.
       -1   -1    0    0    0  501  0.00000000000E+00  0.00000000000E+00 -0.14901559183E+03  0.14901559192E+03  0.50400001928E-02 0. -1.
    10030    2    1    2    0    0  0.00000000000E+00  0.00000000000E+00  0.12112594912E+04  0.15092906750E+04  0.90044921373E+03 0.  0.
        1    1    3    3  502    0  0.21345505244E+03  0.89533519898E+02 -0.41640756756E+02  0.23518771917E+03  0.50400001928E-02 0. -1.
       -1    1    3    3    0  502 -0.21345505244E+03 -0.89533519898E+02  0.12529002480E+04  0.12741029558E+04  0.50400001928E-02 0.  1.
</event>
<event>
 5   0  0.2351435E-04  0.8982804E+03  0.7818609E-02  0.9427734E-01
       -1   -1    0    0    0  501  0.00000000000E+00  0.00000000000E+00  0.24696819216E+03  0.24696819221E+03  0.50400001928E-02 0.  1.
        1   -1    0    0  501    0  0.00000000000E+00  0.00000000000E+00 -0.81681337072E+03  0.81681337073E+03  0.50400001928E-02 0. -1.
    10030    2    1    2    0    0  0.00000000000E+00  0.00000000000E+00 -0.56984517856E+03  0.10637815629E+04  0.89828040507E+03 0.  0.
        4    1    3    3  502    0 -0.12291997882E+03 -0.36481265714E+03 -0.10935640759E+02  0.38512179521E+03  0.12699999809E+01 0.  1.
       -4    1    3    3    0  502  0.12291997882E+03  0.36481265714E+03 -0.55890953780E+03  0.67865976774E+03  0.12699999809E+01 0. -1.
</event>
<event>
 5   0  0.4033144E-04  0.9000929E+03  0.7818609E-02  0.9425465E-01
       -2   -1    0    0    0  501  0.00000000000E+00  0.00000000000E+00  0.71367429243E+03  0.71367429243E+03  0.25500000920E-02 0. -1.
        2   -1    0    0  501    0  0.00000000000E+00  0.00000000000E+00 -0.28380143591E+03  0.28380143592E+03  0.25500000920E-02 0.  1.
    10030    2    1    2    0    0  0.00000000000E+00  0.00000000000E+00  0.42987285652E+03  0.99747572836E+03  0.90009285959E+03 0.  0.
        4    1    3    3  502    0  0.44088973392E+03 -0.84013275627E+02  0.17821213974E+03  0.48291113842E+03  0.12699999809E+01 0.  1.
       -4    1    3    3    0  502 -0.44088973392E+03  0.84013275627E+02  0.25166071678E+03  0.51456458994E+03  0.12699999809E+01 0. -1.
</event>
<event>
 5   0  0.2450427E-04  0.9000370E+03  0.7818609E-02  0.9425535E-01
       -1   -1    0    0    0  501  0.00000000000E+00  0.00000000000E+00  0.38573735251E+03  0.38573735254E+03  0.50400001928E-02 0.  1.
        1   -1    0    0  501    0  0.00000000000E+00  0.00000000000E+00 -0.52501172187E+03  0.52501172189E+03  0.50400001928E-02 0. -1.
    10030    2    1    2    0    0  0.00000000000E+00  0.00000000000E+00 -0.13927436936E+03  0.91074907443E+03  0.90003695847E+03 0.  0.
        3    1    3    3  502    0 -0.56197209665E+02 -0.30692283848E+03 -0.39777570317E+03  0.50555442376E+03  0.10100000352E+00 0. -1.
       -3    1    3    3    0  502  0.56197209665E+02  0.30692283848E+03  0.25850133381E+03  0.40519465067E+03  0.10100000352E+00 0.  1.
</event>
<event>
 5   0  0.2308362E-04  0.9011839E+03  0.7818609E-02  0.9424103E-01
       -1   -1    0    0    0  501  0.00000000000E+00  0.00000000000E+00  0.48037127948E+03  0.48037127951E+03  0.50400001928E-02 0. -1.
        1   -1    0    0  501    0  0.00000000000E+00  0.00000000000E+00 -0.42265874381E+03  0.42265874384E+03  0.50400001928E-02 0.  1.
    10030    2    1    2    0    0  0.00000000000E+00  0.00000000000E+00  0.57712535670E+02  0.90303002335E+03  0.90118393588E+03 0.  0.
        1    1    3    3  502    0  0.15721498834E+03  0.41137492225E+03  0.12437857490E+03  0.45761983035E+03  0.50400001928E-02 0. -1.
       -1    1    3    3    0  502 -0.15721498834E+03 -0.41137492225E+03 -0.66666039234E+02  0.44541019300E+03  0.50400001928E-02 0.  1.
</event>
<event>
 5   0  0.2308362E-04  0.8997265E+03  0.7818609E-02  0.9425923E-01
       -1   -1    0    0    0  501  0.00000000000E+00  0.00000000000E+00  0.27844790892E+03  0.27844790896E+03  0.50400001928E-02 0.  1.
        1   -1    0    0  501    0  0.00000000000E+00  0.00000000000E+00 -0.72680359523E+03  0.72680359524E+03  0.50400001928E-02 0. -1.
    10030    2    1    2    0    0  0.00000000000E+00  0.00000000000E+00 -0.44835568631E+03  0.10052515042E+04  0.89972649470E+03 0.  0.
        1    1    3    3  502    0 -0.17080074227E+03  0.37001977569E+03 -0.11337379802E+02  0.40769604384E+03  0.50400001928E-02 0.  1.
       -1    1    3    3    0  502  0.17080074227E+03 -0.37001977569E+03 -0.43701830651E+03  0.59755546036E+03  0.50400001928E-02 0. -1.
</event>
<event>
 5   0  0.4033144E-04  0.9017910E+03  0.7818609E-02  0.9423345E-01
        2   -1    0    0  501    0  0.00000000000E+00  0.00000000000E+00  0.31252766961E+03  0.31252766962E+03  0.25500000920E-02 0.  1.
       -2   -1    0    0    0  501  0.00000000000E+00  0.00000000000E+00 -0.65052407446E+03  0.65052407447E+03  0.25500000920E-02 0. -1.
    10030    2    1    2    0    0  0.00000000000E+00  0.00000000000E+00 -0.33799640485E+03  0.96305174409E+03  0.90179104681E+03 0.  0.
        4    1    3    3  502    0  0.17613241400E+03  0.31373905003E+03 -0.45921326981E+03  0.58338088660E+03  0.12699999809E+01 0. -1.
       -4    1    3    3    0  502 -0.17613241400E+03 -0.31373905003E+03  0.12121686496E+03  0.37967085749E+03  0.12699999809E+01 0.  1.
</event>
<event>
 5   0  0.4110039E-04  0.8990930E+03  0.7818609E-02  0.9426716E-01
        2   -1    0    0  501    0  0.00000000000E+00  0.00000000000E+00  0.53518843676E+03  0.53518843676E+03  0.25500000920E-02 0.  1.
       -2   -1    0    0    0  501  0.00000000000E+00  0.00000000000E+00 -0.37760912104E+03  0.37760912105E+03  0.25500000920E-02 0. -1.
    10030    2    1    2    0    0  0.00000000000E+00  0.00000000000E+00  0.15757931571E+03  0.91279755781E+03  0.89909295449E+03 0.  0.
        3    1    3    3  502    0 -0.42758047778E+03 -0.12007068560E+03  0.14949306104E+03  0.46860454545E+03  0.10100000352E+00 0.  1.
       -3    1    3    3    0  502  0.42758047778E+03  0.12007068560E+03  0.80862546704E+01  0.44419301236E+03  0.10100000352E+00 0. -1.
</event>
<event>
 5   0  0.1596250E-04  0.8998723E+03  0.7818609E-02  0.9425741E-01
       -3   -1    0    0    0  501  0.00000000000E+00  0.00000000000E+00  0.14085076505E+03  0.14085080126E+03  0.10100000352E+00 0. -1.
        3   -1    0    0  501    0  0.00000000000E+00  0.00000000000E+00 -0.14372838123E+04  0.14372838159E+04  0.10100000352E+00 0.  1.
    10030    2    1    2    0    0  0.00000000000E+00  0.00000000000E+00 -0.12964330473E+04  0.15781346171E+04  0.89987233746E+03 0.  0.
        3    1    3    3  502    0  0.22765545057E+03 -0.18653234051E+03 -0.12450555682E+04  0.12793688664E+04  0.10100000352E+00 0.  1.
       -3    1    3    3    0  502 -0.22765545057E+03  0.18653234051E+03 -0.51377479042E+02  0.29876575069E+03  0.10100000352E+00 0. -1.
</event>
<event>
 5   0  0.3959804E-04  0.9000341E+03  0.7818609E-02  0.9425539E-01
        2   -1    0    0  501    0  0.00000000000E+00  0.00000000000E+00  0.20927825466E+03  0.20927825468E+03  0.25500000920E-02 0.  1.
       -2   -1    0    0    0  501  0.00000000000E+00  0.00000000000E+00 -0.96768462389E+03  0.96768462390E+03  0.25500000920E-02 0. -1.
    10030    2    1    2    0    0  0.00000000000E+00  0.00000000000E+00 -0.75840636923E+03  0.11769628786E+04  0.90003410861E+03 0.  0.
        5    1    3    3  502    0 -0.40536514697E+03 -0.19248527164E+03 -0.42300146522E+03  0.61670399038E+03  0.46999998093E+01 0.  1.
       -5    1    3    3    0  502  0.40536514697E+03  0.19248527164E+03 -0.33540490401E+03  0.56025888820E+03  0.46999998093E+01 0. -1.
</event>
<event>
 5   0  0.4110039E-04  0.9000080E+03  0.7818609E-02  0.9425571E-01
        2   -1    0    0  501    0  0.00000000000E+00  0.00000000000E+00  0.15620681669E+04  0.15620681670E+04  0.25500000920E-02 0.  1.
       -2   -1    0    0    0  501  0.00000000000E+00  0.00000000000E+00 -0.12963813388E+03  0.12963813390E+03  0.25500000920E-02 0. -1.
    10030    2    1    2    0    0  0.00000000000E+00  0.00000000000E+00  0.14324300331E+04  0.16917063009E+04  0.90000800479E+03 0.  0.
        3    1    3    3  502    0 -0.44733351784E+03  0.21558768803E+02  0.79882450200E+03  0.91580164440E+03  0.10100000352E+00 0. -1.
       -3    1    3    3    0  502  0.44733351784E+03 -0.21558768803E+02  0.63360553107E+03  0.77590465645E+03  0.10100000352E+00 0.  1.
</event>
<event>
 5   0  0.2450427E-04  0.9011234E+03  0.7818609E-02  0.9424178E-01
        1   -1    0    0  501    0  0.00000000000E+00  0.00000000000E+00  0.12187139652E+04  0.12187139652E+04  0.50400001928E-02 0. -1.
       -1   -1    0    0    0  501  0.00000000000E+00  0.00000000000E+00 -0.16657382269E+03  0.16657382276E+03  0.50400001928E-02 0.  1.
    10030    2    1    2    0    0  0.00000000000E+00  0.00000000000E+00  0.10521401425E+04  0.13852877880E+04  0.90112339668E+03 0.  0.
        3    1    3    3  502    0  0.14894305680E+01  0.44294010776E+03  0.39923037598E+03  0.59630785738E+03  0.10100000352E+00 0.  1.
       -3    1    3    3    0  502 -0.14894305680E+01 -0.44294010776E+03  0.65290976657E+03  0.78897993063E+03  0.10100000352E+00 0. -1.
</event>
<event>
 5   0  0.3959804E-04  0.9000882E+03  0.7818609E-02  0.9425471E-01
        2   -1    0    0  501    0  0.00000000000E+00  0.00000000000E+00  0.82150483770E+03  0.82150483770E+03  0.25500000920E-02 0. -1.
       -2   -1    0    0    0  501  0.00000000000E+00  0.00000000000E+00 -0.24654719425E+03  0.24654719427E+03  0.25500000920E-02 0.  1.
    10030    2    1    2    0    0  0.00000000000E+00  0.00000000000E+00  0.57495764345E+03  0.10680520320E+04  0.90008824636E+03 0.  0.
        5    1    3    3  502    0 -0.29741199072E+03 -0.19283790207E+03 -0.41529064487E+02  0.35691329744E+03  0.46999998093E+01 0.  1.
       -5    1    3    3    0  502  0.29741199072E+03  0.19283790207E+03  0.61648670793E+03  0.71113873453E+03  0.46999998093E+01 0. -1.
</event>
<event>
 5   0  0.4236284E-04  0.8997307E+03  0.7818609E-02  0.9425918E-01
        2   -1    0    0  501    0  0.00000000000E+00  0.00000000000E+00  0.84554210950E+03  0.84554210950E+03  0.25500000920E-02 0. -1.
       -2   -1    0    0    0  501  0.00000000000E+00  0.00000000000E+00 -0.23934800466E+03  0.23934800467E+03  0.25500000920E-02 0.  1.
    10030    2    1    2    0    0  0.00000000000E+00  0.00000000000E+00  0.60619410484E+03  0.10848901142E+04  0.89973066364E+03 0.  0.
        2    1    3    3  502    0  0.10525809379E+03  0.35056729095E+03 -0.12263978583E+02  0.36623366444E+03  0.25500000920E-02 0.  1.
       -2    1    3    3    0  502 -0.10525809379E+03 -0.35056729095E+03  0.61845808342E+03  0.71865644973E+03  0.25500000920E-02 0. -1.
</event>
<event>
 5   0  0.3959804E-04  0.8998226E+03  0.7818609E-02  0.9425803E-01
       -2   -1    0    0    0  501  0.00000000000E+00  0.00000000000E+00  0.77158039346E+03  0.77158039347E+03  0.25500000920E-02 0.  1.
        2   -1    0    0  501    0  0.00000000000E+00  0.00000000000E+00 -0.26234487709E+03  0.26234487710E+03  0.25500000920E-02 0. -1.
    10030    2    1    2    0    0  0.00000000000E+00  0.00000000000E+00  0.50923551637E+03  0.10339252706E+04  0.89982256806E+03 0.  0.
        5    1    3    3  502    0  0.30908633845E+03  0.29998932643E+03  0.40385982797E+03  0.59046829825E+03  0.46999998093E+01 0.  1.
       -5    1    3    3    0  502 -0.30908633845E+03 -0.29998932643E+03  0.10537568840E+03  0.44345697232E+03  0.46999998093E+01 0. -1.
</event>
<event>
 5   0  0.2308362E-04  0.8994474E+03  0.7818609E-02  0.9426272E-01
       -1   -1    0    0    0  501  0.00000000000E+00  0.00000000000E+00  0.37340601736E+03  0.37340601739E+03  0.50400001928E-02 0.  1.
        1   -1    0    0  501    0  0.00000000000E+00  0.00000000000E+00 -0.54163943340E+03  0.54163943342E+03  0.50400001928E-02 0. -1.
    10030    2    1    2    0    0  0.00000000000E+00  0.00000000000E+00 -0.16823341604E+03  0.91504545081E+03  0.89944743859E+03 0.  0.
        1    1    3    3  502    0  0.20894707216E+03  0.27720804484E+03  0.20675808998E+03  0.40404465952E+03  0.50400001928E-02 0.  1.
       -1    1    3    3    0  502 -0.20894707216E+03 -0.27720804484E+03 -0.37499150602E+03  0.51100079129E+03  0.50400001928E-02 0. -1.
</event>
<event>
 5   0  0.4236284E-04  0.8983425E+03  0.7818609E-02  0.9427656E-01
        2   -1    0    0  501    0  0.00000000000E+00  0.00000000000E+00  0.11343449948E+04  0.11343449948E+04  0.25500000920E-02 0.  1.
       -2   -1    0    0    0  501  0.00000000000E+00  0.00000000000E+00 -0.17786020268E+03  0.17786020270E+03  0.25500000920E-02 0. -1.
    10030    2    1    2    0    0  0.00000000000E+00  0.00000000000E+00  0.95648479207E+03  0.13122051975E+04  0.89834254200E+03 0.  0.
        2    1    3    3  502    0 -0.38421674302E+03  0.16015172859E+03  0.23171887546E+03  0.47640814333E+03  0.25500000920E-02 0. -1.
       -2    1    3    3    0  502  0.38421674302E+03 -0.16015172859E+03  0.72476591662E+03  0.83579705412E+03  0.25500000920E-02 0.  1.
</event>
<event>
 5   0  0.2356918E-04  0.9000791E+03  0.7818609E-02  0.9425483E-01
        1   -1    0    0  501    0  0.00000000000E+00  0.00000000000E+00  0.18954165760E+03  0.18954165766E+03  0.50400001928E-02 0.  1.
       -1   -1    0    0    0  501  0.00000000000E+00  0.00000000000E+00 -0.10685544436E+04  0.10685544436E+04  0.50400001928E-02 0. -1.
    10030    2    1    2    0    0  0.00000000000E+00  0.00000000000E+00 -0.87901278600E+03  0.12580961013E+04  0.90007906435E+03 0.  0.
        5    1    3    3  502    0 -0.18197970054E+03  0.15136028854E+03 -0.97448031589E+03  0.10028262683E+04  0.46999998093E+01 0. -1.
       -5    1    3    3    0  502  0.18197970054E+03 -0.15136028854E+03  0.95467529892E+02  0.25526983296E+03  0.46999998093E+01 0.  1.
</event>
<event>
 5   0  0.2450427E-04  0.9000350E+03  0.7818609E-02  0.9425538E-01
       -1   -1    0    0    0  501  0.00000000000E+00  0.00000000000E+00  0.29911909860E+03  0.29911909864E+03  0.50400001928E-02 0. -1.
        1   -1    0    0  501    0  0.00000000000E+00  0.00000000000E+00 -0.67704045201E+03  0.67704045203E+03  0.50400001928E-02 0.  1.
    10030    2    1    2    0    0  0.00000000000E+00  0.00000000000E+00 -0.37792135341E+03  0.97615955067E+03  0.90003495432E+03 0.  0.
        3    1    3    3  502    0 -0.31657070139E+03  0.29317957920E+03 -0.32761918358E+03  0.54176158436E+03  0.10100000352E+00 0.  1.
       -3    1    3    3    0  502  0.31657070139E+03 -0.29317957920E+03 -0.50302169827E+02  0.43439796631E+03  0.10100000352E+00 0. -1.
</event>
<event>
 5   0  0.4033144E-04  0.9002161E+03  0.7818609E-02  0.9425311E-01
       -2   -1    0    0    0  501  0.00000000000E+00  0.00000000000E+00  0.11005019492E+03  0.11005019495E+03  0.25500000920E-02 0.  1.
        2   -1    0    0  501    0  0.00000000000E+00  0.00000000000E+00 -0.18409532611E+04  0.18409532611E+04  0.25500000920E-02 0. -1.
    10030    2    1    2    0    0  0.00000000000E+00  0.00000000000E+00 -0.17309030661E+04  0.19510034560E+04  0.90021611907E+03 0.  0.
        4    1    3    3  502    0 -0.23071625109E+02 -0.20862909920E+03 -0.17283842121E+04  0.17410835702E+04  0.12699999809E+01 0. -1.
       -4    1    3    3    0  502  0.23071625109E+02  0.20862909920E+03 -0.25188540057E+01  0.20991988578E+03  0.12699999809E+01 0.  1.
</event>
<event>
 5   0  0.2450427E-04  0.8993642E+03  0.7818609E-02  0.9426377E-01
       -1   -1    0    0    0  501  0.00000000000E+00  0.00000000000E+00  0.22800456028E+03  0.22800456033E+03  0.50400001928E-02 0. -1.
        1   -1    0    0  501    0  0.00000000000E+00  0.00000000000E+00 -0.88688576689E+03  0.88688576691E+03  0.50400001928E-02 0.  1.
    10030    2    1    2    0    0  0.00000000000E+00  0.00000000000E+00 -0.65888120661E+03  0.11148903272E+04  0.89936421840E+03 0.  0.
        3    1    3    3  502    0 -0.15331127894E+03 -0.32650933647E+03 -0.66230555723E+03  0.75416268562E+03  0.10100000352E+00 0.  1.
       -3    1    3    3    0  502  0.15331127894E+03  0.32650933647E+03  0.34243506129E+01  0.36072764162E+03  0.10100000352E+00 0. -1.
</event>
<event>
 5   0  0.2351435E-04  0.8994089E+03  0.7818609E-02  0.9426321E-01
        1   -1    0    0  501    0  0.00000000000E+00  0.00000000000E+00  0.51510704592E+03  0.51510704595E+03  0.50400001928E-02 0.  1.
       -1   -1    0    0    0  501  0.00000000000E+00  0.00000000000E+00 -0.39260591823E+03  0.39260591826E+03  0.50400001928E-02 0. -1.
    10030    2    1    2    0    0  0.00000000000E+00  0.00000000000E+00  0.12250112770E+03  0.90771296421E+03  0.89940886092E+03 0.  0.
        4    1    3    3  502    0 -0.46485331149E+02 -0.34465287745E+03  0.34898985702E+03  0.49268856811E+03  0.12699999809E+01 0.  1.
       -4    1    3    3    0  502  0.46485331149E+02  0.34465287745E+03 -0.22648872932E+03  0.41502439610E+03  0.12699999809E+01 0. -1.
</event>
<event>
 5   0  0.2450427E-04  0.9007380E+03  0.7818609E-02  0.9424659E-01
        1   -1    0    0  501    0  0.00000000000E+00  0.00000000000E+00  0.61833251909E+03  0.61833251911E+03  0.50400001928E-02 0. -1.
       -1   -1    0    0    0  501  0.00000000000E+00  0.00000000000E+00 -0.32803098864E+03  0.32803098868E+03  0.50400001928E-02 0.  1.
    10030    2    1    2    0    0  0.00000000000E+00  0.00000000000E+00  0.29030153045E+03  0.94636350779E+03  0.90073798094E+03 0.  0.
        3    1    3    3  502    0 -0.13057330440E+03 -0.72138925219E+02 -0.30131986661E+03  0.33622475306E+03  0.10100000352E+00 0.  1.
       -3    1    3    3    0  502  0.13057330440E+03  0.72138925219E+02  0.59162139707E+03  0.61013875473E+03  0.10100000352E+00 0. -1.
</event>
<event>
 5   0  0.3959804E-04  0.9002366E+03  0.7818609E-02  0.9425286E-01
        2   -1    0    0  501    0  0.00000000000E+00  0.00000000000E+00  0.12097309324E+04  0.12097309324E+04  0.25500000920E-02 0. -1.
       -2   -1    0    0    0  501  0.00000000000E+00  0.00000000000E+00 -0.16748063331E+03  0.16748063333E+03  0.25500000920E-02 0.  1.
    10030    2    1    2    0    0  0.00000000000E+00  0.00000000000E+00  0.10422502990E+04  0.13772115657E+04  0.90023664155E+03 0.  0.
        5    1    3    3  502    0 -0.16412220554E+03  0.39368252458E+03  0.74102968757E+03  0.85502579866E+03  0.46999998093E+01 0. -1.
       -5    1    3    3    0  502  0.16412220554E+03 -0.39368252458E+03  0.30122061147E+03  0.52218576703E+03  0.46999998093E+01 0.  1.
</event>
<event>
 5   0  0.2351435E-04  0.9000380E+03  0.7818609E-02  0.9425534E-01
       -1   -1    0    0    0  501  0.00000000000E+00  0.00000000000E+00  0.17235604528E+04  0.17235604528E+04  0.50400001928E-02 0. -1.
        1   -1    0    0  501    0  0.00000000000E+00  0.00000000000E+00 -0.11749928019E+03  0.11749928029E+03  0.50400001928E-02 0.  1.
    10030    2    1    2    0    0  0.00000000000E+00  0.00000000000E+00  0.16060611726E+04  0.18410597331E+04  0.90003802734E+03 0.  0.
        4    1    3    3  502    0 -0.16149792640E+03 -0.38849317129E+03  0.11297210835E+04  0.12055205779E+04  0.12699999809E+01 0. -1.
       -4    1    3    3    0  502  0.16149792640E+03  0.38849317129E+03  0.47634008911E+03  0.63553915518E+03  0.12699999809E+01 0.  1.
</event>
<event>
 5   0  0.2356918E-04  0.9008252E+03  0.7818609E-02  0.9424551E-01
       -1   -1    0    0    0  501  0.00000000000E+00  0.00000000000E+00  0.26748818130E+03  0.26748818135E+03  0.50400001928E-02 0.  1.
        1   -1    0    0  501    0  0.00000000000E+00  0.00000000000E+00 -0.75843160888E+03  0.75843160890E+03  0.50400001928E-02 0. -1.
    10030    2    1    2    0    0  0.00000000000E+00  0.00000000000E+00 -0.49094342758E+03  0.10259197902E+04  0.90082515892E+03 0.  0.
        5    1    3    3  502    0 -0.18351328779E+03 -0.32000324287E+03  0.48810651132E+02  0.37213407786E+03  0.46999998093E+01 0.  1.
       -5    1    3    3    0  502  0.18351328779E+03  0.32000324287E+03 -0.53975407871E+03  0.65378571239E+03  0.46999998093E+01 0. -1.
</event>
<event>
 5   0  0.3959804E-04  0.9005347E+03  0.7818609E-02  0.9424913E-01
       -2   -1    0    0    0  501  0.00000000000E+00  0.00000000000E+00  0.13702744263E+03  0.13702744265E+03  0.25500000920E-02 0. -1.
        2   -1    0    0  501    0  0.00000000000E+00  0.00000000000E+00 -0.14795626225E+04  0.14795626225E+04  0.25500000920E-02 0.  1.
    10030    2    1    2    0    0  0.00000000000E+00  0.00000000000E+00 -0.13425351799E+04  0.16165900652E+04  0.90053469093E+03 0.  0.
        5    1    3    3  502    0  0.33107109475E+03 -0.16208825462E+02 -0.12182649858E+04  0.12625618644E+04  0.46999998093E+01 0.  1.
       -5    1    3    3    0  502 -0.33107109475E+03  0.16208825462E+02 -0.12427019408E+03  0.35402820077E+03  0.46999998093E+01 0. -1.
</event>
<event>
 5   0  0.2356918E-04  0.9005885E+03  0.7818609E-02  0.9424846E-01
       -1   -1    0    0    0  501  0.00000000000E+00  0.00000000000E+00  0.74789272028E+03  0.74789272030E+03  0.50400001928E-02 0.  1.
        1   -1    0    0  501    0  0.00000000000E+00  0.00000000000E+00 -0.27111498388E+03  0.27111498393E+03  0.50400001928E-02 0. -1.
    10030    2    1    2    0    0  0.00000000000E+00  0.00000000000E+00  0.47677773640E+03  0.10190077042E+04  0.90058852499E+03 0.  0.
        5    1    3    3  502    0  0.11026526540E+03  0.34040185034E+03 -0.70885043804E+02  0.36479943517E+03  0.46999998093E+01 0. -1.
       -5    1    3    3    0  502 -0.11026526540E+03 -0.34040185034E+03  0.54766278021E+03  0.65420826905E+03  0.46999998093E+01 0.  1.
</event>
<event>
 5   0  0.4033144E-04  0.9004794E+03  0.7818609E-02  0.9424982E-01
       -2   -1    0    0    0  501  0.00000000000E+00  0.00000000000E+00  0.25557760115E+03  0.25557760117E+03  0.25500000920E-02 0.  1.
        2   -1    0    0  501    0  0.00000000000E+00  0.00000000000E+00 -0.79316730280E+03  0.79316730280E+03  0.25500000920E-02 0. -1.
    10030    2    1    2    0    0  0.00000000000E+00  0.00000000000E+00 -0.53758970165E+03  0.10487449040E+04  0.90047942025E+03 0.  0.
        4    1    3    3  502    0 -0.39369569839E+02 -0.27981729201E+03 -0.67703228134E+03  0.73363615152E+03  0.12699999809E+01 0. -1.
       -4    1    3    3    0  502  0.39369569839E+02  0.27981729201E+03  0.13944257969E+03  0.31510875245E+03  0.12699999809E+01 0.  1.
</event>
<event>
 5   0  0.2332791E-04  0.9003171E+03  0.7818609E-02  0.9425185E-01
        1   -1    0    0  501    0  0.00000000000E+00  0.00000000000E+00  0.16753665375E+04  0.16753665375E+04  0.50400001928E-02 0.  1.
       -1   -1    0    0    0  501  0.00000000000E+00  0.00000000000E+00 -0.12095426346E+03  0.12095426357E+03  0.50400001928E-02 0. -1.
    10030    2    1    2    0    0  0.00000000000E+00  0.00000000000E+00  0.15544122741E+04  0.17963208011E+04  0.90031711230E+03 0.  0.
        2    1    3    3  502    0  0.11256899066E+02  0.44945053708E+03  0.73213814142E+03  0.85916166184E+03  0.25500000920E-02 0. -1.
       -2    1    3    3    0  502 -0.11256899066E+02 -0.44945053708E+03  0.82227413265E+03  0.93715913925E+03  0.25500000920E-02 0.  1.
</event>
<event>
 5   0  0.2332791E-04  0.9001723E+03  0.7818609E-02  0.9425366E-01
        1   -1    0    0  501    0  0.00000000000E+00  0.00000000000E+00  0.17529743850E+04  0.17529743850E+04  0.50400001928E-02 0.  1.
       -1   -1    0    0    0  501  0.00000000000E+00  0.00000000000E+00 -0.11556218766E+03  0.11556218777E+03  0.50400001928E-02 0. -1.
    10030    2    1    2    0    0  0.00000000000E+00  0.00000000000E+00  0.16374121974E+04  0.18685365728E+04  0.90017232786E+03 0.  0.
        2    1    3    3  502    0  0.17241564590E+03  0.31349444217E+02 -0.41837674290E+02  0.18016751539E+03  0.25500000920E-02 0. -1.
       -2    1    3    3    0  502 -0.17241564590E+03 -0.31349444217E+02  0.16792498716E+04  0.16883690574E+04  0.25500000920E-02 0.  1.
</event>
<event>
 5   0  0.2308362E-04  0.9001355E+03  0.7818609E-02  0.9425412E-01
        1   -1    0    0  501    0  0.00000000000E+00  0.00000000000E+00  0.84091512279E+03  0.84091512281E+03  0.50400001928E-02 0. -1.
       -1   -1    0    0    0  501  0.00000000000E+00  0.00000000000E+00 -0.24088158133E+03  0.24088158139E+03  0.50400001928E-02 0.  1.
    10030    2    1    2    0    0  0.00000000000E+00  0.00000000000E+00  0.60003354146E+03  0.10817967042E+04  0.90013546666E+03 0.  0.
        1    1    3    3  502    0 -0.13953106165E+03 -0.29458777254E+03 -0.72953038324E+02  0.33402547615E+03  0.50400001928E-02 0.  1.
       -1    1    3    3    0  502  0.13953106165E+03  0.29458777254E+03  0.67298657978E+03  0.74777122804E+03  0.50400001928E-02 0. -1.
</event>
<event>
 5   0  0.4110039E-04  0.8998037E+03  0.7818609E-02  0.9425827E-01
       -2   -1    0    0    0  501  0.00000000000E+00  0.00000000000E+00  0.18179897601E+03  0.18179897603E+03  0.25500000920E-02 0.  1.
        2   -1    0    0  501    0  0.00000000000E+00  0.00000000000E+00 -0.11133818661E+04  0.11133818661E+04  0.25500000920E-02 0. -1.
    10030    2    1    2    0    0  0.00000000000E+00  0.00000000000E+00 -0.93158289009E+03  0.12951808421E+04  0.89980371901E+03 0.  0.
        3    1    3    3  502    0  0.17754365228E+03 -0.37975627009E+02  0.12672521341E+03  0.22141180327E+03  0.10100000352E+00 0.  1.
       -3    1    3    3    0  502 -0.17754365228E+03  0.37975627009E+02 -0.10583081035E+04  0.10737690389E+04  0.10100000352E+00 0. -1.
</event>
<event>
 5   0  0.2332791E-04  0.8984567E+03  0.7818609E-02  0.9427513E-01
       -1   -1    0    0    0  501  0.00000000000E+00  0.00000000000E+00  0.11680504596E+03  0.11680504607E+03  0.50400001928E-02 0. -1.
        1   -1    0    0  501    0  0.00000000000E+00  0.00000000000E+00 -0.17277174423E+04  0.17277174423E+04  0.50400001928E-02 0.  1.
    10030    2    1    2    0    0  0.00000000000E+00  0.00000000000E+00 -0.16109123963E+04  0.18445224884E+04  0.89845671094E+03 0.  0.
        2    1    3    3  502    0  0.21682632514E+03 -0.29821486346E+03 -0.27859182523E+03  0.46212462080E+03  0.25500000920E-02 0.  1.
       -2    1    3    3    0  502 -0.21682632514E+03  0.29821486346E+03 -0.13323205711E+04  0.13823978676E+04  0.25500000920E-02 0. -1.
</event>
<event>
 5   0  0.1596250E-04  0.9001613E+03  0.7818609E-02  0.9425380E-01
       -3   -1    0    0    0  501  0.00000000000E+00  0.00000000000E+00  0.22208073469E+03  0.22208075766E+03  0.10100000352E+00 0.  1.
        3   -1    0    0  501    0  0.00000000000E+00  0.00000000000E+00 -0.91215743607E+03  0.91215744166E+03  0.10100000352E+00 0. -1.
    10030    2    1    2    0    0  0.00000000000E+00  0.00000000000E+00 -0.69007670138E+03  0.11342381993E+04  0.90016134055E+03 0.  0.
        1    1    3    3  502    0  0.49542636123E+02  0.25990177049E+03  0.11374245621E+03  0.28799435666E+03  0.50400001928E-02 0.  1.
       -1    1    3    3    0  502 -0.49542636123E+02 -0.25990177049E+03 -0.80381915759E+03  0.84624384266E+03  0.50400001928E-02 0. -1.
</event>
<event>
 5   0  0.2332791E-04  0.8998259E+03  0.7818609E-02  0.9425799E-01
       -1   -1    0    0    0  501  0.00000000000E+00  0.00000000000E+00  0.19260166351E+03  0.19260166358E+03  0.50400001928E-02 0.  1.
        1   -1    0    0  501    0  0.00000000000E+00  0.00000000000E+00 -0.10509860149E+04  0.10509860149E+04  0.50400001928E-02 0. -1.
    10030    2    1    2    0    0  0.00000000000E+00  0.00000000000E+00 -0.85838435141E+03  0.12435876785E+04  0.89982588282E+03 0.  0.
        2    1    3    3  502    0 -0.89725584761E+02 -0.21794100770E+03  0.10045718927E+03  0.25620423549E+03  0.25500000920E-02 0.  1.
       -2    1    3    3    0  502  0.89725584761E+02  0.21794100770E+03 -0.95884154068E+03  0.98738344302E+03  0.25500000920E-02 0. -1.
</event>
<event>
 5   0  0.3959804E-04  0.9001376E+03  0.7818609E-02  0.9425409E-01
       -2   -1    0    0    0  501  0.00000000000E+00  0.00000000000E+00  0.27559130857E+03  0.27559130858E+03  0.25500000920E-02 0. -1.
        2   -1    0    0  501    0  0.00000000000E+00  0.00000000000E+00 -0.73500838609E+03  0.73500838609E+03  0.25500000920E-02 0.  1.
    10030    2    1    2    0    0  0.00000000000E+00  0.00000000000E+00 -0.45941707752E+03  0.10105996947E+04  0.90013759601E+03 0.  0.
        5    1    3    3  502    0  0.44887896030E+03 -0.32328863825E+02 -0.23143201086E+03  0.50608333512E+03  0.46999998093E+01 0.  1.
       -5    1    3    3    0  502 -0.44887896030E+03  0.32328863825E+02 -0.22798506666E+03  0.50451635955E+03  0.46999998093E+01 0. -1.
</event>
<event>
 5   0  0.4033144E-04  0.9004247E+03  0.7818609E-02  0.9425051E-01
        2   -1    0    0  501    0  0.00000000000E+00  0.00000000000E+00  0.58157558925E+03  0.58157558926E+03  0.25500000920E-02 0. -1.
       -2   -1    0    0    0  501  0.00000000000E+00  0.00000000000E+00 -0.34852074357E+03  0.34852074358E+03  0.25500000920E-02 0.  1.
    10030    2    1    2    0    0  0.00000000000E+00  0.00000000000E+00  0.23305484568E+03  0.93009633284E+03  0.90042469273E+03 0.  0.
        4    1    3    3  502    0  0.19683262461E+03  0.36642568514E+03  0.29447940078E+03  0.50963770977E+03  0.12699999809E+01 0. -1.
       -4    1    3    3    0  502 -0.19683262461E+03 -0.36642568514E+03 -0.61424555095E+02  0.42045862307E+03  0.12699999809E+01 0.  1.
</event>
<event>
 5   0  0.2332791E-04  0.9001430E+03  0.7818609E-02  0.9425403E-01
       -1   -1    0    0    0  501  0.00000000000E+00  0.00000000000E+00  0.62621372289E+03  0.62621372291E+03  0.50400001928E-02 0. -1.
        1   -1    0    0  501    0  0.00000000000E+00  0.00000000000E+00 -0.32347481025E+03  0.32347481029E+03  0.50400001928E-02 0.  1.
    10030    2    1    2    0    0  0.00000000000E+00  0.00000000000E+00  0.30273891264E+03  0.94968853320E+03  0.90014302245E+03 0.  0.
        2    1    3    3  502    0  0.27647672376E+03 -0.18584786283E+03 -0.16791896790E+03  0.37306244342E+03  0.25500000920E-02 0.  1.
       -2    1    3    3    0  502 -0.27647672376E+03  0.18584786283E+03  0.47065788054E+03  0.57662608979E+03  0.25500000920E-02 0. -1.
</event>
<event>
 5   0  0.2308362E-04  0.9000217E+03  0.7818609E-02  0.9425554E-01
        1   -1    0    0  501    0  0.00000000000E+00  0.00000000000E+00  0.31469172451E+03  0.31469172455E+03  0.50400001928E-02 0. -1.
       -1   -1    0    0    0  501  0.00000000000E+00  0.00000000000E+00 -0.64351789195E+03  0.64351789197E+03  0.50400001928E-02 0.  1.
    10030    2    1    2    0    0  0.00000000000E+00  0.00000000000E+00 -0.32882616743E+03  0.95820961652E+03  0.90002167796E+03 0.  0.
        1    1    3    3  502    0 -0.38395781169E+03 -0.23505854323E+02 -0.41303519723E+03  0.56442377743E+03  0.50400001928E-02 0.  1.
       -1    1    3    3    0  502  0.38395781169E+03  0.23505854323E+02  0.84209029797E+02  0.39378583909E+03  0.50400001928E-02 0. -1.
</event>
<event>
 5   0  0.2450427E-04  0.9002096E+03  0.7818609E-02  0.9425319E-01
        1   -1    0    0  501    0  0.00000000000E+00  0.00000000000E+00  0.53143770488E+03  0.53143770490E+03  0.50400001928E-02 0. -1.
       -1   -1    0    0    0  501  0.00000000000E+00  0.00000000000E+00 -0.38121933161E+03  0.38121933165E+03  0.50400001928E-02 0.  1.
    10030    2    1    2    0    0  0.00000000000E+00  0.00000000000E+00  0.15021837326E+03  0.91265703655E+03  0.90020959043E+03 0.  0.
        3    1    3    3  502    0  0.32864171369E+03  0.12395257941E+03  0.36046995705E+03  0.50329734556E+03  0.10100000352E+00 0. -1.
       -3    1    3    3    0  502 -0.32864171369E+03 -0.12395257941E+03 -0.21025158379E+03  0.40935969098E+03  0.10100000352E+00 0.  1.
</event>
<event>
 5   0  0.4236284E-04  0.8999499E+03  0.7818609E-02  0.9425644E-01
        2   -1    0    0  501    0  0.00000000000E+00  0.00000000000E+00  0.96266248412E+03  0.96266248412E+03  0.25500000920E-02 0.  1.
       -2   -1    0    0    0  501  0.00000000000E+00  0.00000000000E+00 -0.21033067589E+03  0.21033067591E+03  0.25500000920E-02 0. -1.
    10030    2    1    2    0    0  0.00000000000E+00  0.00000000000E+00  0.75233180823E+03  0.11729931600E+04  0.89994988961E+03 0.  0.
        2    1    3    3  502    0 -0.13766393190E+03  0.17838556223E+03 -0.13149842243E+03  0.26089193561E+03  0.25500000920E-02 0. -1.
       -2    1    3    3    0  502  0.13766393190E+03 -0.17838556223E+03  0.88383023065E+03  0.91210122442E+03  0.25500000920E-02 0.  1.
</event>
<event>
 5   0  0.2308362E-04  0.8999556E+03  0.7818609E-02  0.9425637E-01
        1   -1    0    0  501    0  0.00000000000E+00  0.00000000000E+00  0.10637864874E+04  0.10637864874E+04  0.50400001928E-02 0.  1.
       -1   -1    0    0    0  501  0.00000000000E+00  0.00000000000E+00 -0.19033894627E+03  0.19033894633E+03  0.50400001928E-02 0. -1.
    10030    2    1    2    0    0  0.00000000000E+00  0.00000000000E+00  0.87344754111E+03  0.12541254337E+04  0.89995555248E+03 0.  0.
        1    1    3    3  502    0 -0.19906246333E+03 -0.36802376281E+03  0.20599838312E+03  0.46637183467E+03  0.50400001928E-02 0. -1.
       -1    1    3    3    0  502  0.19906246333E+03  0.36802376281E+03  0.66744915798E+03  0.78775359905E+03  0.50400001928E-02 0.  1.
</event>
<event>
 5   0  0.3959804E-04  0.8997652E+03  0.7818609E-02  0.9425875E-01
        2   -1    0    0  501    0  0.00000000000E+00  0.00000000000E+00  0.17877776962E+04  0.17877776962E+04  0.25500000920E-02 0. -1.
       -2   -1    0    0    0  501  0.00000000000E+00  0.00000000000E+00 -0.11321002936E+03  0.11321002939E+03  0.25500000920E-02 0.  1.
    10030    2    1    2    0    0  0.00000000000E+00  0.00000000000E+00  0.16745676669E+04  0.19009877256E+04  0.89976522606E+03 0.  0.
        5    1    3    3  502    0 -0.23942129133E+02  0.44390772081E+03  0.69174880105E+03  0.82229300367E+03  0.46999998093E+01 0.  1.
       -5    1    3    3    0  502  0.23942129133E+02 -0.44390772081E+03  0.98281886583E+03  0.10786947219E+04  0.46999998093E+01 0. -1.
</event>
<event>
 5   0  0.2308362E-04  0.8998253E+03  0.7818609E-02  0.9425800E-01
        1   -1    0    0  501    0  0.00000000000E+00  0.00000000000E+00  0.89653345708E+03  0.89653345710E+03  0.50400001928E-02 0.  1.
       -1   -1    0    0    0  501  0.00000000000E+00  0.00000000000E+00 -0.22578230622E+03  0.22578230628E+03  0.50400001928E-02 0. -1.
    10030    2    1    2    0    0  0.00000000000E+00  0.00000000000E+00  0.67075115086E+03  0.11223157634E+04  0.89982529768E+03 0.  0.
        1    1    3    3  502    0  0.15883829158E+03 -0.42026620328E+03  0.30564714641E+03  0.54339070900E+03  0.50400001928E-02 0.  1.
       -1    1    3    3    0  502 -0.15883829158E+03  0.42026620328E+03  0.36510400445E+03  0.57892505438E+03  0.50400001928E-02 0. -1.
</event>
<event>
 5   0  0.4236284E-04  0.9006606E+03  0.7818609E-02  0.9424756E-01
       -2   -1    0    0    0  501  0.00000000000E+00  0.00000000000E+00  0.20572981636E+03  0.20572981638E+03  0.25500000920E-02 0. -1.
        2   -1    0    0  501    0  0.00000000000E+00  0.00000000000E+00 -0.98574620844E+03  0.98574620844E+03  0.25500000920E-02 0.  1.
    10030    2    1    2    0    0  0.00000000000E+00  0.00000000000E+00 -0.78001639208E+03  0.11914760248E+04  0.90066061633E+03 0.  0.
        2    1    3    3  502    0  0.25408001327E+03  0.32711774820E+03 -0.15620906699E+03  0.44267815278E+03  0.25500000920E-02 0. -1.
       -2    1    3    3    0  502 -0.25408001327E+03 -0.32711774820E+03 -0.62380732509E+03  0.74879787204E+03  0.25500000920E-02 0.  1.
</event>
<event>
 5   0  0.2356918E-04  0.8997960E+03  0.7818609E-02  0.9425837E-01
        1   -1    0    0  501    0  0.00000000000E+00  0.00000000000E+00  0.78159146499E+03  0.78159146501E+03  0.50400001928E-02 0.  1.
       -1   -1    0    0    0  501  0.00000000000E+00  0.00000000000E+00 -0.25896929837E+03  0.25896929842E+03  0.50400001928E-02 0. -1.
    10030    2    1    2    0    0  0.00000000000E+00  0.00000000000E+00  0.52262216662E+03  0.10405607634E+04  0.89979596205E+03 0.  0.
        5    1    3    3  502    0 -0.22410379776E+03 -0.78773172680E+02  0.70312350383E+03  0.74218089206E+03  0.46999998093E+01 0.  1.
       -5    1    3    3    0  502  0.22410379776E+03  0.78773172680E+02 -0.18050133720E+03  0.29837987136E+03  0.46999998093E+01 0. -1.
</event>
<event>
 5   0  0.3959804E-04  0.8996866E+03  0.7818609E-02  0.9425973E-01
        2   -1    0    0  501    0  0.00000000000E+00  0.00000000000E+00  0.79328441589E+03  0.79328441589E+03  0.25500000920E-02 0.  1.
       -2   -1    0    0    0  501  0.00000000000E+00  0.00000000000E+00 -0.25509011888E+03  0.25509011890E+03  0.25500000920E-02 0. -1.
    10030    2    1    2    0    0  0.00000000000E+00  0.00000000000E+00  0.53819429701E+03  0.10483745348E+04  0.89968664760E+03 0.  0.
        5    1    3    3  502    0  0.42563521101E+03  0.40095738560E+02  0.43208422930E+03  0.60785843114E+03  0.46999998093E+01 0.  1.
       -5    1    3    3    0  502 -0.42563521101E+03 -0.40095738560E+02  0.10611006771E+03  0.44051610365E+03  0.46999998093E+01 0. -1.
</event>
<event>
 5   0  0.2308362E-04  0.8997262E+03  0.7818609E-02  0.9425924E-01
       -1   -1    0    0    0  501  0.00000000000E+00  0.00000000000E+00  0.16783626870E+03  0.16783626878E+03  0.50400001928E-02 0. -1.
        1   -1    0    0  501    0  0.00000000000E+00  0.00000000000E+00 -0.12057991145E+04  0.12057991145E+04  0.50400001928E-02 0.  1.
    10030    2    1    2    0    0  0.00000000000E+00  0.00000000000E+00 -0.10379628458E+04  0.13736353833E+04  0.89972623445E+03 0.  0.
        1    1    3    3  502    0 -0.36531359444E+03  0.19857506231E+03 -0.25679876083E+03  0.48870408351E+03  0.50400001928E-02 0. -1.
       -1    1    3    3    0  502  0.36531359444E+03 -0.19857506231E+03 -0.78116408494E+03  0.88493129975E+03  0.50400001928E-02 0.  1.
</event>
<event>
 5   0  0.2332791E-04  0.9011553E+03  0.7818609E-02  0.9424138E-01
       -1   -1    0    0    0  501  0.00000000000E+00  0.00000000000E+00  0.26573562533E+03  0.26573562537E+03  0.50400001928E-02 0.  1.
        1   -1    0    0  501    0  0.00000000000E+00  0.00000000000E+00 -0.76399325959E+03  0.76399325961E+03  0.50400001928E-02 0. -1.
    10030    2    1    2    0    0  0.00000000000E+00  0.00000000000E+00 -0.49825763426E+03  0.10297288850E+04  0.90115531761E+03 0.  0.
        2    1    3    3  502    0  0.92100849170E+02  0.42632669227E+03 -0.37832308206E+03  0.57737801256E+03  0.25500000920E-02 0.  1.
       -2    1    3    3    0  502 -0.92100849170E+02 -0.42632669227E+03 -0.11993455221E+03  0.45235087242E+03  0.25500000920E-02 0. -1.
</event>
<event>
 5   0  0.4110039E-04  0.9001785E+03  0.7818609E-02  0.9425358E-01
       -2   -1    0    0    0  501  0.00000000000E+00  0.00000000000E+00  0.55947155656E+03  0.55947155657E+03  0.25500000920E-02 0. -1.
        2   -1    0    0  501    0  0.00000000000E+00  0.00000000000E+00 -0.36209224873E+03  0.36209224874E+03  0.25500000920E-02 0.  1.
    10030    2    1    2    0    0  0.00000000000E+00  0.00000000000E+00  0.19737930784E+03  0.92156380530E+03  0.90017845791E+03 0.  0.
        3    1    3    3  502    0 -0.28042962415E+03 -0.32799179149E+03  0.22963816969E+03  0.48882828127E+03  0.10100000352E+00 0.  1.
       -3    1    3    3    0  502  0.28042962415E+03  0.32799179149E+03 -0.32258861859E+02  0.43273552403E+03  0.10100000352E+00 0. -1.
</event>
<event>
 5   0  0.2450427E-04  0.9000963E+03  0.7818609E-02  0.9425461E-01
        1   -1    0    0  501    0  0.00000000000E+00  0.00000000000E+00  0.75066356090E+03  0.75066356091E+03  0.50400001928E-02 0.  1.
       -1   -1    0    0    0  501  0.00000000000E+00  0.00000000000E+00 -0.26981909035E+03  0.26981909040E+03  0.50400001928E-02 0. -1.
    10030    2    1    2    0    0  0.00000000000E+00  0.00000000000E+00  0.48084447054E+03  0.10204826513E+04  0.90009634861E+03 0.  0.
        3    1    3    3  502    0 -0.35612011689E+03  0.88155471214E+02 -0.55115344355E+02  0.37098603227E+03  0.10100000352E+00 0. -1.
       -3    1    3    3    0  502  0.35612011689E+03 -0.88155471214E+02  0.53595981490E+03  0.64949661904E+03  0.10100000352E+00 0.  1.
</event>
<event>
 5   0  0.4243516E-04  0.8999214E+03  0.7818609E-02  0.9425680E-01
        2   -1    0    0  501    0  0.00000000000E+00  0.00000000000E+00  0.76880839096E+03  0.76880839097E+03  0.25500000920E-02 0.  1.
       -2   -1    0    0    0  501  0.00000000000E+00  0.00000000000E+00 -0.26334864524E+03  0.26334864525E+03  0.25500000920E-02 0. -1.
    10030    2    1    2    0    0  0.00000000000E+00  0.00000000000E+00  0.50545974572E+03  0.10321570362E+04  0.89992143706E+03 0.  0.
        1    1    3    3  502    0 -0.12766625431E+03  0.19760030846E+03  0.69265338793E+03  0.73151436775E+03  0.50400001928E-02 0.  1.
       -1    1    3    3    0  502  0.12766625431E+03 -0.19760030846E+03 -0.18719364221E+03  0.30064266847E+03  0.50400001928E-02 0. -1.
</event>
<event>
 5   0  0.2308362E-04  0.9006773E+03  0.7818609E-02  0.9424735E-01
        1   -1    0    0  501    0  0.00000000000E+00  0.00000000000E+00  0.22374818562E+03  0.22374818568E+03  0.50400001928E-02 0.  1.
       -1   -1    0    0    0  501  0.00000000000E+00  0.00000000000E+00 -0.90639791066E+03  0.90639791067E+03  0.50400001928E-02 0. -1.
    10030    2    1    2    0    0  0.00000000000E+00  0.00000000000E+00 -0.68264972503E+03  0.11301460964E+04  0.90067727406E+03 0.  0.
        1    1    3    3  502    0 -0.17582083501E+03 -0.10974644504E+03  0.16034556220E+03  0.26204569747E+03  0.50400001928E-02 0.  1.
       -1    1    3    3    0  502  0.17582083501E+03  0.10974644504E+03 -0.84299528723E+03  0.86810039888E+03  0.50400001928E-02 0. -1.
</event>
<event>
 5   0  0.4236284E-04  0.8998549E+03  0.7818609E-02  0.9425763E-01
        2   -1    0    0  501    0  0.00000000000E+00  0.00000000000E+00  0.15232225941E+04  0.15232225941E+04  0.25500000920E-02 0.  1.
       -2   -1    0    0    0  501  0.00000000000E+00  0.00000000000E+00 -0.13289895341E+03  0.13289895343E+03  0.25500000920E-02 0. -1.
    10030    2    1    2    0    0  0.00000000000E+00  0.00000000000E+00  0.13903236407E+04  0.16561215475E+04  0.89985485180E+03 0.  0.
        2    1    3    3  502    0 -0.71053202877E+02 -0.35836427230E+03  0.21185593365E+03  0.42232267987E+03  0.25500000920E-02 0. -1.
       -2    1    3    3    0  502  0.71053202877E+02  0.35836427230E+03  0.11784677070E+04  0.12337988676E+04  0.25500000920E-02 0.  1.
</event>
<event>
 5   0  0.2450427E-04  0.9000058E+03  0.7818609E-02  0.9425574E-01
       -1   -1    0    0    0  501  0.00000000000E+00  0.00000000000E+00  0.71903859349E+03  0.71903859350E+03  0.50400001928E-02 0. -1.
        1   -1    0    0  501    0  0.00000000000E+00  0.00000000000E+00 -0.28162968920E+03  0.28162968924E+03  0.50400001928E-02 0.  1.
    10030    2    1    2    0    0  0.00000000000E+00  0.00000000000E+00  0.43740890429E+03  0.10006682827E+04  0.90000581250E+03 0.  0.
        3    1    3    3  502    0  0.31708024129E+03 -0.17437030919E+03  0.51612643967E+03  0.63034228485E+03  0.10100000352E+00 0. -1.
       -3    1    3    3    0  502 -0.31708024129E+03  0.17437030919E+03 -0.78717535374E+02  0.37032599790E+03  0.10100000352E+00 0.  1.
</event>
<event>
 5   0  0.4033144E-04  0.9004714E+03  0.7818609E-02  0.9424992E-01
        2   -1    0    0  501    0  0.00000000000E+00  0.00000000000E+00  0.48819796218E+03  0.48819796218E+03  0.25500000920E-02 0.  1.
       -2   -1    0    0    0  501  0.00000000000E+00  0.00000000000E+00 -0.41522538998E+03  0.41522538999E+03  0.25500000920E-02 0. -1.
    10030    2    1    2    0    0  0.00000000000E+00  0.00000000000E+00  0.72972572192E+02  0.90342335217E+03  0.90047140819E+03 0.  0.
        4    1    3    3  502    0 -0.31466573334E+03 -0.32200646091E+03  0.39304718496E+02  0.45193933044E+03  0.12699999809E+01 0. -1.
       -4    1    3    3    0  502  0.31466573334E+03  0.32200646091E+03  0.33667853696E+02  0.45148402173E+03  0.12699999809E+01 0.  1.
</event>
<event>
 5   0  0.4243516E-04  0.8996482E+03  0.7818609E-02  0.9426021E-01
       -2   -1    0    0    0  501  0.00000000000E+00  0.00000000000E+00  0.52897075913E+03  0.52897075914E+03  0.25500000920E-02 0. -1.
        2   -1    0    0  501    0  0.00000000000E+00  0.00000000000E+00 -0.38251971136E+03  0.38251971137E+03  0.25500000920E-02 0.  1.
    10030    2    1    2    0    0  0.00000000000E+00  0.00000000000E+00  0.14645104777E+03  0.91149047051E+03  0.89964824706E+03 0.  0.
        1    1    3    3  502    0  0.33014048475E+03 -0.29539275450E+03 -0.58539417666E+01  0.44303937493E+03  0.50400001928E-02 0.  1.
       -1    1    3    3    0  502 -0.33014048475E+03  0.29539275450E+03  0.15230498954E+03  0.46845109558E+03  0.50400001928E-02 0. -1.
</event>
<event>
 5   0  0.2450427E-04  0.8999784E+03  0.7818609E-02  0.9425608E-01
       -1   -1    0    0    0  501  0.00000000000E+00  0.00000000000E+00  0.29197087829E+03  0.29197087834E+03  0.50400001928E-02 0.  1.
        1   -1    0    0  501    0  0.00000000000E+00  0.00000000000E+00 -0.69352908225E+03  0.69352908227E+03  0.50400001928E-02 0. -1.
    10030    2    1    2    0    0  0.00000000000E+00  0.00000000000E+00 -0.40155820396E+03  0.98549996061E+03  0.89997843374E+03 0.  0.
        3    1    3    3  502    0 -0.35215390672E+03 -0.52400754328E+02  0.10056620223E+03  0.36996186872E+03  0.10100000352E+00 0.  1.
       -3    1    3    3    0  502  0.35215390672E+03  0.52400754328E+02 -0.50212440619E+03  0.61553809189E+03  0.10100000352E+00 0. -1.
</event>
<event>
 5   0  0.2356918E-04  0.8999627E+03  0.7818609E-02  0.9425628E-01
       -1   -1    0    0    0  501  0.00000000000E+00  0.00000000000E+00  0.12534140687E+04  0.12534140687E+04  0.50400001928E-02 0.  1.
        1   -1    0    0  501    0  0.00000000000E+00  0.00000000000E+00 -0.16154536284E+03  0.16154536292E+03  0.50400001928E-02 0. -1.
    10030    2    1    2    0    0  0.00000000000E+00  0.00000000000E+00  0.10918687059E+04  0.14149594316E+04  0.89996273386E+03 0.  0.
        5    1    3    3  502    0 -0.46257268894E+02  0.34839812757E+03  0.98767609213E+03  0.10483544931E+04  0.46999998093E+01 0.  1.
       -5    1    3    3    0  502  0.46257268894E+02 -0.34839812757E+03  0.10419261375E+03  0.36660493856E+03  0.46999998093E+01 0. -1.
</event>
<event>
 5   0  0.2450427E-04  0.9002757E+03  0.7818609E-02  0.9425237E-01
       -1   -1    0    0    0  501  0.00000000000E+00  0.00000000000E+00  0.16441080006E+03  0.16441080014E+03  0.50400001928E-02 0.  1.
        1   -1    0    0  501    0  0.00000000000E+00  0.00000000000E+00 -0.12324256979E+04  0.12324256979E+04  0.50400001928E-02 0. -1.
    10030    2    1    2    0    0  0.00000000000E+00  0.00000000000E+00 -0.10680148979E+04  0.13968364981E+04  0.90027572459E+03 0.  0.
        3    1    3    3  502    0  0.13651700974E+01  0.19921390062E+03  0.92287078581E+02  0.21955627288E+03  0.10100000352E+00 0.  1.
       -3    1    3    3    0  502 -0.13651700974E+01 -0.19921390062E+03 -0.11603019764E+04  0.11772802252E+04  0.10100000352E+00 0. -1.
</event>
<event>
 5   0  0.2356918E-04  0.9003506E+03  0.7818609E-02  0.9425143E-01
       -1   -1    0    0    0  501  0.00000000000E+00  0.00000000000E+00  0.14729106691E+03  0.14729106699E+03  0.50400001928E-02 0.  1.
        1   -1    0    0  501    0  0.00000000000E+00  0.00000000000E+00 -0.13759002832E+04  0.13759002832E+04  0.50400001928E-02 0. -1.
    10030    2    1    2    0    0  0.00000000000E+00  0.00000000000E+00 -0.12286092163E+04  0.15231913502E+04  0.90035064444E+03 0.  0.
        5    1    3    3  502    0  0.39317989258E+03 -0.55325608521E+02 -0.25548707682E+03  0.47217273037E+03  0.46999998093E+01 0.  1.
       -5    1    3    3    0  502 -0.39317989258E+03  0.55325608521E+02 -0.97312213943E+03  0.10510186198E+04  0.46999998093E+01 0. -1.
</event>
<event>
 5   0  0.4236284E-04  0.9000456E+03  0.7818609E-02  0.9425524E-01
        2   -1    0    0  501    0  0.00000000000E+00  0.00000000000E+00  0.63573949665E+03  0.63573949666E+03  0.25500000920E-02 0. -1.
       -2   -1    0    0    0  501  0.00000000000E+00  0.00000000000E+00 -0.31855898902E+03  0.31855898903E+03  0.25500000920E-02 0.  1.
    10030    2    1    2    0    0  0.00000000000E+00  0.00000000000E+00  0.31718050763E+03  0.95429848569E+03  0.90004562405E+03 0.  0.
        2    1    3    3  502    0  0.17798557827E+03 -0.30519868151E+03  0.45413105576E+03  0.57537823827E+03  0.25500000920E-02 0. -1.
       -2    1    3    3    0  502 -0.17798557827E+03  0.30519868151E+03 -0.13695054813E+03  0.37892024742E+03  0.25500000920E-02 0.  1.
</event>
<event>
 5   0  0.2450427E-04  0.8997666E+03  0.7818609E-02  0.9425873E-01
       -1   -1    0    0    0  501  0.00000000000E+00  0.00000000000E+00  0.14838925616E+03  0.14838925625E+03  0.50400001928E-02 0. -1.
        1   -1    0    0  501    0  0.00000000000E+00  0.00000000000E+00 -0.13639461949E+04  0.13639461949E+04  0.50400001928E-02 0.  1.
    10030    2    1    2    0    0  0.00000000000E+00  0.00000000000E+00 -0.12155569387E+04  0.15123354511E+04  0.89976655055E+03 0.  0.
        3    1    3    3  502    0  0.44763024483E+03  0.35384948796E+02 -0.65441963848E+03  0.79365609940E+03  0.10100000352E+00 0. -1.
       -3    1    3    3    0  502 -0.44763024483E+03 -0.35384948796E+02 -0.56113730022E+03  0.71867935172E+03  0.10100000352E+00 0.  1.
</event>
<event>
 5   0  0.4243516E-04  0.8967211E+03  0.7818609E-02  0.9429690E-01
       -2   -1    0    0    0  501  0.00000000000E+00  0.00000000000E+00  0.22598399403E+03  0.22598399404E+03  0.25500000920E-02 0. -1.
        2   -1    0    0  501    0  0.00000000000E+00  0.00000000000E+00 -0.88956375054E+03  0.88956375055E+03  0.25500000920E-02 0.  1.
    10030    2    1    2    0    0  0.00000000000E+00  0.00000000000E+00 -0.66357975651E+03  0.11155477446E+04  0.89672106990E+03 0.  0.
        1    1    3    3  502    0  0.39700941083E+03 -0.15403205032E+03 -0.50633051713E+03  0.66159877374E+03  0.50400001928E-02 0.  1.
       -1    1    3    3    0  502 -0.39700941083E+03  0.15403205032E+03 -0.15724923938E+03  0.45394897084E+03  0.50400001928E-02 0. -1.
</event>
<event>
 5   0  0.4033144E-04  0.9002210E+03  0.7818609E-02  0.9425305E-01
       -2   -1    0    0    0  501  0.00000000000E+00  0.00000000000E+00  0.51359855510E+03  0.51359855511E+03  0.25500000920E-02 0. -1.
        2   -1    0    0  501    0  0.00000000000E+00  0.00000000000E+00 -0.39447050646E+03  0.39447050647E+03  0.25500000920E-02 0.  1.
    10030    2    1    2    0    0  0.00000000000E+00  0.00000000000E+00  0.11912804864E+03  0.90806906158E+03  0.90022104431E+03 0.  0.
        4    1    3    3  502    0  0.14508774258E+03  0.35383102576E+03 -0.17988915865E+03  0.42262107158E+03  0.12699999809E+01 0.  1.
       -4    1    3    3    0  502 -0.14508774258E+03 -0.35383102576E+03  0.29901720729E+03  0.48544799000E+03  0.12699999809E+01 0. -1.
</event>
<event>
 5   0  0.2450427E-04  0.8996642E+03  0.7818609E-02  0.9426001E-01
       -1   -1    0    0    0  501  0.00000000000E+00  0.00000000000E+00  0.34164515209E+03  0.34164515213E+03  0.50400001928E-02 0.  1.
        1   -1    0    0  501    0  0.00000000000E+00  0.00000000000E+00 -0.59227797298E+03  0.59227797300E+03  0.50400001928E-02 0. -1.
    10030    2    1    2    0    0  0.00000000000E+00  0.00000000000E+00 -0.25063282089E+03  0.93392312513E+03  0.89966415553E+03 0.  0.
        3    1    3    3  502    0 -0.23084878563E+03 -0.38605698086E+03 -0.12968790787E+03  0.46813472201E+03  0.10100000352E+00 0. -1.
       -3    1    3    3    0  502  0.23084878563E+03  0.38605698086E+03 -0.12094491302E+03  0.46578840313E+03  0.10100000352E+00 0.  1.
</event>
<event>
 5   0  0.4110039E-04  0.8998514E+03  0.7818609E-02  0.9425767E-01
       -2   -1    0    0    0  501  0.00000000000E+00  0.00000000000E+00  0.18682175999E+03  0.18682176001E+03  0.25500000920E-02 0. -1.
        2   -1    0    0  501    0  0.00000000000E+00  0.00000000000E+00 -0.10835628445E+04  0.10835628445E+04  0.25500000920E-02 0.  1.
    10030    2    1    2    0    0  0.00000000000E+00  0.00000000000E+00 -0.89674108452E+03  0.12703846045E+04  0.89985136036E+03 0.  0.
        3    1    3    3  502    0  0.42833832012E+03  0.13502231862E+03 -0.48647175697E+03  0.66208724768E+03  0.10100000352E+00 0. -1.
       -3    1    3    3    0  502 -0.42833832012E+03 -0.13502231862E+03 -0.41026932755E+03  0.60829735684E+03  0.10100000352E+00 0.  1.
</event>
<event>
 5   0  0.4110039E-04  0.9007050E+03  0.7818609E-02  0.9424701E-01
        2   -1    0    0  501    0  0.00000000000E+00  0.00000000000E+00  0.72543636581E+03  0.72543636582E+03  0.25500000920E-02 0. -1.
       -2   -1    0    0    0  501  0.00000000000E+00  0.00000000000E+00 -0.27957983199E+03  0.27957983200E+03  0.25500000920E-02 0.  1.
    10030    2    1    2    0    0  0.00000000000E+00  0.00000000000E+00  0.44585653383E+03  0.10050161978E+04  0.90070500671E+03 0.  0.
        3    1    3    3  502    0 -0.19056967627E+03  0.17698062411E+03  0.63317409597E+03  0.68450594507E+03  0.10100000352E+00 0. -1.
       -3    1    3    3    0  502  0.19056967627E+03 -0.17698062411E+03 -0.18731756215E+03  0.32051025274E+03  0.10100000352E+00 0.  1.
</event>
<event>
 5   0  0.2332791E-04  0.8999910E+03  0.7818609E-02  0.9425593E-01
       -1   -1    0    0    0  501  0.00000000000E+00  0.00000000000E+00  0.60777751878E+03  0.60777751881E+03  0.50400001928E-02 0.  1.
        1   -1    0    0  501    0  0.00000000000E+00  0.00000000000E+00 -0.33317449142E+03  0.33317449146E+03  0.50400001928E-02 0. -1.
    10030    2    1    2    0    0  0.00000000000E+00  0.00000000000E+00  0.27460302736E+03  0.94095201027E+03  0.89999103495E+03 0.  0.
        2    1    3    3  502    0 -0.14627181629E+03 -0.67533904690E+02  0.57659066176E+03  0.59867609253E+03  0.25500000920E-02 0.  1.
       -2    1    3    3    0  502  0.14627181629E+03  0.67533904690E+02 -0.30198763440E+03  0.34227591774E+03  0.25500000920E-02 0. -1.
</event>
<event>
 5   0  0.2356918E-04  0.8997829E+03  0.7818609E-02  0.9425853E-01
       -1   -1    0    0    0  501  0.00000000000E+00  0.00000000000E+00  0.28285476108E+03  0.28285476112E+03  0.50400001928E-02 0. -1.
        1   -1    0    0  501    0  0.00000000000E+00  0.00000000000E+00 -0.71556975882E+03  0.71556975883E+03  0.50400001928E-02 0.  1.
    10030    2    1    2    0    0  0.00000000000E+00  0.00000000000E+00 -0.43271499774E+03  0.99842451996E+03  0.89978289202E+03 0.  0.
        5    1    3    3  502    0  0.33804438248E+03  0.69468158616E+02  0.10386282412E+03  0.36042947413E+03  0.46999998093E+01 0. -1.
       -5    1    3    3    0  502 -0.33804438248E+03 -0.69468158616E+02 -0.53657782186E+03  0.63799504583E+03  0.46999998093E+01 0.  1.
</event>
<event>
 5   0  0.2308362E-04  0.9007024E+03  0.7818609E-02  0.9424704E-01
        1   -1    0    0  501    0  0.00000000000E+00  0.00000000000E+00  0.14666461463E+03  0.14666461471E+03  0.50400001928E-02 0.  1.
       -1   -1    0    0    0  501  0.00000000000E+00  0.00000000000E+00 -0.13828571614E+04  0.13828571614E+04  0.50400001928E-02 0. -1.
    10030    2    1    2    0    0  0.00000000000E+00  0.00000000000E+00 -0.12361925468E+04  0.15295217762E+04  0.90070242087E+03 0.  0.
        1    1    3    3  502    0 -0.30953224611E+03  0.10604467071E+02 -0.62895480281E+02  0.31603561124E+03  0.50400001928E-02 0.  1.
       -1    1    3    3    0  502  0.30953224611E+03 -0.10604467071E+02 -0.11732970665E+04  0.12134861649E+04  0.50400001928E-02 0. -1.
</event>
<event>
 5   0  0.3959804E-04  0.8998973E+03  0.7818609E-02  0.9425710E-01
       -2   -1    0    0    0  501  0.00000000000E+00  0.00000000000E+00  0.20001096376E+03  0.20001096378E+03  0.25500000920E-02 0.  1.
        2   -1    0    0  501    0  0.00000000000E+00  0.00000000000E+00 -0.10122133584E+04  0.10122133584E+04  0.25500000920E-02 0. -1.
    10030    2    1    2    0    0  0.00000000000E+00  0.00000000000E+00 -0.81220239466E+03  0.12122243222E+04  0.89989725939E+03 0.  0.
        5    1    3    3  502    0  0.40644016562E+03  0.84241955361E+02 -0.17223281274E+03  0.44941800927E+03  0.46999998093E+01 0.  1.
       -5    1    3    3    0  502 -0.40644016562E+03 -0.84241955361E+02 -0.63996958192E+03  0.76280631293E+03  0.46999998093E+01 0. -1.
</event>
<event>
 5   0  0.4110039E-04  0.8998710E+03  0.7818609E-02  0.9425743E-01
       -2   -1    0    0    0  501  0.00000000000E+00  0.00000000000E+00  0.47949745332E+03  0.47949745333E+03  0.25500000920E-02 0. -1.
        2   -1    0    0  501    0  0.00000000000E+00  0.00000000000E+00 -0.42219608856E+03  0.42219608857E+03  0.25500000920E-02 0.  1.
    10030    2    1    2    0    0  0.00000000000E+00  0.00000000000E+00  0.57301364760E+02  0.90169354190E+03  0.89987098914E+03 0.  0.
        3    1    3    3  502    0  0.16821257256E+03 -0.10613446335E+03  0.43305443965E+03  0.47654606470E+03  0.10100000352E+00 0. -1.
       -3    1    3    3    0  502 -0.16821257256E+03  0.10613446335E+03 -0.37575307489E+03  0.42514747720E+03  0.10100000352E+00 0.  1.
</event>
<event>
 5   0  0.4033144E-04  0.9002569E+03  0.7818609E-02  0.9425260E-01
        2   -1    0    0  501    0  0.00000000000E+00  0.00000000000E+00  0.14878827776E+04  0.14878827776E+04  0.25500000920E-02 0. -1.
       -2   -1    0    0    0  501  0.00000000000E+00  0.00000000000E+00 -0.13617714370E+03  0.13617714373E+03  0.25500000920E-02 0.  1.
    10030    2    1    2    0    0  0.00000000000E+00  0.00000000000E+00  0.13517056339E+04  0.16240599213E+04  0.90025691185E+03 0.  0.
        4    1    3    3  502    0 -0.22949789688E+02  0.33956879089E+03  0.14442253029E+03  0.36972034938E+03  0.12699999809E+01 0.  1.
       -4    1    3    3    0  502  0.22949789688E+02 -0.33956879089E+03  0.12072831036E+04  0.12543395719E+04  0.12699999809E+01 0. -1.
</event>
<event>
 5   0  0.4110039E-04  0.8992455E+03  0.7818609E-02  0.9426525E-01
       -2   -1    0    0    0  501  0.00000000000E+00  0.00000000000E+00  0.12597577618E+04  0.12597577618E+04  0.25500000920E-02 0.  1.
        2   -1    0    0  501    0  0.00000000000E+00  0.00000000000E+00 -0.16047577498E+03  0.16047577500E+03  0.25500000920E-02 0. -1.
    10030    2    1    2    0    0  0.00000000000E+00  0.00000000000E+00  0.10992819868E+04  0.14202335368E+04  0.89924546845E+03 0.  0.
        3    1    3    3  502    0  0.37031006590E+03  0.14727695088E+03  0.22084334432E+03  0.45562247321E+03  0.10100000352E+00 0. -1.
       -3    1    3    3    0  502 -0.37031006590E+03 -0.14727695088E+03  0.87843864252E+03  0.96461106361E+03  0.10100000352E+00 0.  1.
</event>
<event>
 5   0  0.2356918E-04  0.8997874E+03  0.7818609E-02  0.9425847E-01
        1   -1    0    0  501    0  0.00000000000E+00  0.00000000000E+00  0.32055057456E+03  0.32055057460E+03  0.50400001928E-02 0. -1.
       -1   -1    0    0    0  501  0.00000000000E+00  0.00000000000E+00 -0.63142716549E+03  0.63142716551E+03  0.50400001928E-02 0.  1.
    10030    2    1    2    0    0  0.00000000000E+00  0.00000000000E+00 -0.31087659093E+03  0.95197774011E+03  0.89978739871E+03 0.  0.
        5    1    3    3  502    0 -0.16520097085E+03 -0.31021138395E+03  0.14166993808E+03  0.37896559851E+03  0.46999998093E+01 0. -1.
       -5    1    3    3    0  502  0.16520097085E+03  0.31021138395E+03 -0.45254652901E+03  0.57301214160E+03  0.46999998093E+01 0.  1.
</event>
<event>
 5   0  0.2351435E-04  0.9001928E+03  0.7818609E-02  0.9425340E-01
        1   -1    0    0  501    0  0.00000000000E+00  0.00000000000E+00  0.69242151182E+03  0.69242151184E+03  0.50400001928E-02 0. -1.
       -1   -1    0    0    0  501  0.00000000000E+00  0.00000000000E+00 -0.29257723787E+03  0.29257723791E+03  0.50400001928E-02 0.  1.
    10030    2    1    2    0    0  0.00000000000E+00  0.00000000000E+00  0.39984427395E+03  0.98499874975E+03  0.90019280912E+03 0.  0.
        4    1    3    3  502    0  0.39115026747E+03 -0.11083755769E+03  0.41125364204E+03  0.57828597331E+03  0.12699999809E+01 0. -1.
       -4    1    3    3    0  502 -0.39115026747E+03  0.11083755769E+03 -0.11409368091E+02  0.40671277644E+03  0.12699999809E+01 0.  1.
</event>
<event>
 5   0  0.2356918E-04  0.8998701E+03  0.7818609E-02  0.9425744E-01
       -1   -1    0    0    0  501  0.00000000000E+00  0.00000000000E+00  0.18433224243E+03  0.18433224250E+03  0.50400001928E-02 0. -1.
        1   -1    0    0  501    0  0.00000000000E+00  0.00000000000E+00 -0.10982426679E+04  0.10982426679E+04  0.50400001928E-02 0.  1.
    10030    2    1    2    0    0  0.00000000000E+00  0.00000000000E+00 -0.91391042547E+03  0.12825749104E+04  0.89987006563E+03 0.  0.
        5    1    3    3  502    0 -0.16558128253E+03  0.79821190198E+02 -0.10422456960E+04  0.10583415160E+04  0.46999998093E+01 0.  1.
       -5    1    3    3    0  502  0.16558128253E+03 -0.79821190198E+02  0.12833527054E+03  0.22423339446E+03  0.46999998093E+01 0. -1.
</event>
<event>
 5   0  0.2351435E-04  0.9000223E+03  0.7818609E-02  0.9425554E-01
       -1   -1    0    0    0  501  0.00000000000E+00  0.00000000000E+00  0.38014365095E+03  0.38014365098E+03  0.50400001928E-02 0.  1.
        1   -1    0    0  501    0  0.00000000000E+00  0.00000000000E+00 -0.53271970475E+03  0.53271970477E+03  0.50400001928E-02 0. -1.
    10030    2    1    2    0    0  0.00000000000E+00  0.00000000000E+00 -0.15257605380E+03  0.91286335575E+03  0.90002225199E+03 0.  0.
        4    1    3    3  502    0 -0.22680902212E+02  0.13717280157E+03  0.35781089675E+03  0.38387634929E+03  0.12699999809E+01 0.  1.
       -4    1    3    3    0  502  0.22680902212E+02 -0.13717280157E+03 -0.51038695054E+03  0.52898700646E+03  0.12699999809E+01 0. -1.
</event>
<event>
 5   0  0.4110039E-04  0.9001866E+03  0.7818609E-02  0.9425348E-01
       -2   -1    0    0    0  501  0.00000000000E+00  0.00000000000E+00  0.17758571114E+03  0.17758571116E+03  0.25500000920E-02 0. -1.
        2   -1    0    0  501    0  0.00000000000E+00  0.00000000000E+00 -0.11407673798E+04  0.11407673798E+04  0.25500000920E-02 0.  1.
    10030    2    1    2    0    0  0.00000000000E+00  0.00000000000E+00 -0.96318166870E+03  0.13183530910E+04  0.90018661713E+03 0.  0.
        3    1    3    3  502    0 -0.37633461648E+03  0.70733592545E+02 -0.13516454243E+03  0.40607936220E+03  0.10100000352E+00 0. -1.
       -3    1    3    3    0  502  0.37633461648E+03 -0.70733592545E+02 -0.82801712627E+03  0.91227372880E+03  0.10100000352E+00 0.  1.
</event>
<event>
 5   0  0.2450427E-04  0.8997906E+03  0.7818609E-02  0.9425843E-01
        1   -1    0    0  501    0  0.00000000000E+00  0.00000000000E+00  0.96147055632E+03  0.96147055634E+03  0.50400001928E-02 0.  1.
       -1   -1    0    0    0  501  0.00000000000E+00  0.00000000000E+00 -0.21051686614E+03  0.21051686620E+03  0.50400001928E-02 0. -1.
    10030    2    1    2    0    0  0.00000000000E+00  0.00000000000E+00  0.75095369018E+03  0.11719874225E+04  0.89979057219E+03 0.  0.
        3    1    3    3  502    0 -0.41104618865E+03 -0.13811939376E+03  0.53161434049E+03  0.68603917771E+03  0.10100000352E+00 0.  1.
       -3    1    3    3    0  502  0.41104618865E+03  0.13811939376E+03  0.21933934969E+03  0.48594824483E+03  0.10100000352E+00 0. -1.
</event>
<event>
 5   0  0.1596250E-04  0.8997803E+03  0.7818609E-02  0.9425856E-01
       -4   -1    0    0    0  501  0.00000000000E+00  0.00000000000E+00  0.67466839059E+03  0.67466958592E+03  0.12699999809E+01 0. -1.
        4   -1    0    0  501    0  0.00000000000E+00  0.00000000000E+00 -0.29999815474E+03  0.30000084291E+03  0.12699999809E+01 0.  1.
    10030    2    1    2    0    0  0.00000000000E+00  0.00000000000E+00  0.37467023585E+03  0.97467042882E+03  0.89978033941E+03 0.  0.
        2    1    3    3  502    0 -0.21704860094E+03  0.44272365852E+02  0.61150156664E+03  0.65038781012E+03  0.25500000920E-02 0. -1.
       -2    1    3    3    0  502  0.21704860094E+03 -0.44272365852E+02 -0.23683133078E+03  0.32428261870E+03  0.25500000920E-02 0.  1.
</event>
<event>
 5   0  0.4110039E-04  0.9002043E+03  0.7818609E-02  0.9425326E-01
       -2   -1    0    0    0  501  0.00000000000E+00  0.00000000000E+00  0.84452011772E+03  0.84452011772E+03  0.25500000920E-02 0.  1.
        2   -1    0    0  501    0  0.00000000000E+00  0.00000000000E+00 -0.23988999079E+03  0.23988999081E+03  0.25500000920E-02 0. -1.
    10030    2    1    2    0    0  0.00000000000E+00  0.00000000000E+00  0.60463012693E+03  0.10844101085E+04  0.90020425076E+03 0.  0.
        3    1    3    3  502    0  0.27948236190E+02 -0.18719825574E+03  0.79425079244E+03  0.81649165480E+03  0.10100000352E+00 0.  1.
       -3    1    3    3    0  502 -0.27948236190E+02  0.18719825574E+03 -0.18962066552E+03  0.26791845373E+03  0.10100000352E+00 0. -1.
</event>
<event>
 5   0  0.2450427E-04  0.9000616E+03  0.7818609E-02  0.9425504E-01
        1   -1    0    0  501    0  0.00000000000E+00  0.00000000000E+00  0.99640722160E+03  0.99640722161E+03  0.50400001928E-02 0.  1.
       -1   -1    0    0    0  501  0.00000000000E+00  0.00000000000E+00 -0.20325798944E+03  0.20325798951E+03  0.50400001928E-02 0. -1.
    10030    2    1    2    0    0  0.00000000000E+00  0.00000000000E+00  0.79314923216E+03  0.11996652111E+04  0.90006161695E+03 0.  0.
        3    1    3    3  502    0  0.29468972716E+03  0.32968974508E+03  0.50801367637E+03  0.67350966503E+03  0.10100000352E+00 0. -1.
       -3    1    3    3    0  502 -0.29468972716E+03 -0.32968974508E+03  0.28513555578E+03  0.52615554609E+03  0.10100000352E+00 0.  1.
</event>
<event>
 5   0  0.4033144E-04  0.9002447E+03  0.7818609E-02  0.9425276E-01
       -2   -1    0    0    0  501  0.00000000000E+00  0.00000000000E+00  0.39922535749E+03  0.39922535750E+03  0.25500000920E-02 0. -1.
        2   -1    0    0  501    0  0.00000000000E+00  0.00000000000E+00 -0.50750819110E+03  0.50750819111E+03  0.25500000920E-02 0.  1.
    10030    2    1    2    0    0  0.00000000000E+00  0.00000000000E+00 -0.10828283361E+03  0.90673354861E+03  0.90024472013E+03 0.  0.
        4    1    3    3  502    0  0.15333532374E+03 -0.33710153540E+03  0.20355298107E+03  0.42259270661E+03  0.12699999809E+01 0. -1.
       -4    1    3    3    0  502 -0.15333532374E+03  0.33710153540E+03 -0.31183581468E+03  0.48414084200E+03  0.12699999809E+01 0.  1.
</event>
<event>
 5   0  0.1596250E-04  0.8990356E+03  0.7818609E-02  0.9426788E-01
       -4   -1    0    0    0  501  0.00000000000E+00  0.00000000000E+00  0.10958333803E+04  0.10958341163E+04  0.12699999809E+01 0.  1.
        4   -1    0    0  501    0  0.00000000000E+00  0.00000000000E+00 -0.18439204723E+03  0.18439642074E+03  0.12699999809E+01 0. -1.
    10030    2    1    2    0    0  0.00000000000E+00  0.00000000000E+00  0.91144133310E+03  0.12802305370E+04  0.89903555222E+03 0.  0.
        4    1    3    3  502    0 -0.38067135837E+03  0.12677224050E+03  0.74435034477E+03  0.84560092993E+03  0.12699999809E+01 0.  1.
       -4    1    3    3    0  502  0.38067135837E+03 -0.12677224050E+03  0.16709098833E+03  0.43462960706E+03  0.12699999809E+01 0. -1.
</event>
<event>
 5   0  0.2332791E-04  0.8998625E+03  0.7818609E-02  0.9425753E-01
        1   -1    0    0  501    0  0.00000000000E+00  0.00000000000E+00  0.36850979848E+03  0.36850979852E+03  0.50400001928E-02 0.  1.
       -1   -1    0    0    0  501  0.00000000000E+00  0.00000000000E+00 -0.54934261550E+03  0.54934261552E+03  0.50400001928E-02 0. -1.
    10030    2    1    2    0    0  0.00000000000E+00  0.00000000000E+00 -0.18083281702E+03  0.91785241404E+03  0.89986251519E+03 0.  0.
        2    1    3    3  502    0 -0.35071305483E+02 -0.10697223516E+03  0.35391277991E+03  0.37138566390E+03  0.25500000920E-02 0.  1.
       -2    1    3    3    0  502  0.35071305483E+02  0.10697223516E+03 -0.53474559693E+03  0.54646675013E+03  0.25500000920E-02 0. -1.
</event>
<event>
 5   0  0.2351435E-04  0.9000336E+03  0.7818609E-02  0.9425539E-01
       -1   -1    0    0    0  501  0.00000000000E+00  0.00000000000E+00  0.41561685662E+03  0.41561685665E+03  0.50400001928E-02 0. -1.
        1   -1    0    0  501    0  0.00000000000E+00  0.00000000000E+00 -0.48726396934E+03  0.48726396936E+03  0.50400001928E-02 0.  1.
    10030    2    1    2    0    0  0.00000000000E+00  0.00000000000E+00 -0.71647112713E+02  0.90288082601E+03  0.90003359783E+03 0.  0.
        4    1    3    3  502    0  0.43415669162E+03 -0.18036415188E+02  0.81577265941E+02  0.44212420016E+03  0.12699999809E+01 0. -1.
       -4    1    3    3    0  502 -0.43415669162E+03  0.18036415188E+02 -0.15322437865E+03  0.46075662585E+03  0.12699999809E+01 0.  1.
</event>
<event>
 5   0  0.2450427E-04  0.9000062E+03  0.7818609E-02  0.9425574E-01
       -1   -1    0    0    0  501  0.00000000000E+00  0.00000000000E+00  0.33615561339E+03  0.33615561343E+03  0.50400001928E-02 0. -1.
        1   -1    0    0  501    0  0.00000000000E+00  0.00000000000E+00 -0.60240794487E+03  0.60240794489E+03  0.50400001928E-02 0.  1.
    10030    2    1    2    0    0  0.00000000000E+00  0.00000000000E+00 -0.26625233148E+03  0.93856355833E+03  0.90000624942E+03 0.  0.
        3    1    3    3  502    0  0.27453495696E+03 -0.29106381106E+03  0.81646501754E+02  0.40835492669E+03  0.10100000352E+00 0. -1.
       -3    1    3    3    0  502 -0.27453495696E+03  0.29106381106E+03 -0.34789883323E+03  0.53020863164E+03  0.10100000352E+00 0.  1.
</event>
<event>
 5   0  0.2356918E-04  0.9001753E+03  0.7818609E-02  0.9425362E-01
       -1   -1    0    0    0  501  0.00000000000E+00  0.00000000000E+00  0.15215620619E+03  0.15215620627E+03  0.50400001928E-02 0.  1.
        1   -1    0    0  501    0  0.00000000000E+00  0.00000000000E+00 -0.13313874950E+04  0.13313874950E+04  0.50400001928E-02 0. -1.
    10030    2    1    2    0    0  0.00000000000E+00  0.00000000000E+00 -0.11792312888E+04  0.14835437012E+04  0.90017525020E+03 0.  0.
        5    1    3    3  502    0 -0.23682520556E+03 -0.29438349451E+03 -0.99266330322E+03  0.10621442197E+04  0.46999998093E+01 0. -1.
       -5    1    3    3    0  502  0.23682520556E+03  0.29438349451E+03 -0.18656798554E+03  0.42139948156E+03  0.46999998093E+01 0.  1.
</event>
<event>
 5   0  0.4110039E-04  0.8999598E+03  0.7818609E-02  0.9425632E-01
        2   -1    0    0  501    0  0.00000000000E+00  0.00000000000E+00  0.18962832109E+03  0.18962832110E+03  0.25500000920E-02 0. -1.
       -2   -1    0    0    0  501  0.00000000000E+00  0.00000000000E+00 -0.10677830941E+04  0.10677830941E+04  0.25500000920E-02 0.  1.
    10030    2    1    2    0    0  0.00000000000E+00  0.00000000000E+00 -0.87815477298E+03  0.12574114152E+04  0.89995981116E+03 0.  0.
        3    1    3    3  502    0  0.16759691016E+03  0.28170898951E+03 -0.86979439234E+03  0.92951114798E+03  0.10100000352E+00 0.  1.
       -3    1    3    3    0  502 -0.16759691016E+03 -0.28170898951E+03 -0.83603806410E+01  0.32790026720E+03  0.10100000352E+00 0. -1.
</event>
<event>
 5   0  0.2308362E-04  0.8999690E+03  0.7818609E-02  0.9425620E-01
        1   -1    0    0  501    0  0.00000000000E+00  0.00000000000E+00  0.20675074212E+03  0.20675074218E+03  0.50400001928E-02 0.  1.
       -1   -1    0    0    0  501  0.00000000000E+00  0.00000000000E+00 -0.97937285739E+03  0.97937285740E+03  0.50400001928E-02 0. -1.
    10030    2    1    2    0    0  0.00000000000E+00  0.00000000000E+00 -0.77262211527E+03  0.11861235996E+04  0.89996903307E+03 0.  0.
        1    1    3    3  502    0  0.21515992784E+03  0.88637250011E+02 -0.89391529153E+03  0.92370715332E+03  0.50400001928E-02 0. -1.
       -1    1    3    3    0  502 -0.21515992784E+03 -0.88637250011E+02  0.12129317626E+03  0.26241644626E+03  0.50400001928E-02 0.  1.
</event>
<event>
 5   0  0.4243516E-04  0.8995755E+03  0.7818609E-02  0.9426112E-01
       -2   -1    0    0    0  501  0.00000000000E+00  0.00000000000E+00  0.17369802563E+03  0.17369802565E+03  0.25500000920E-02 0. -1.
        2   -1    0    0  501    0  0.00000000000E+00  0.00000000000E+00 -0.11647168195E+04  0.11647168195E+04  0.25500000920E-02 0.  1.
    10030    2    1    2    0    0  0.00000000000E+00  0.00000000000E+00 -0.99101879388E+03  0.13384148452E+04  0.89957548206E+03 0.  0.
        1    1    3    3  502    0  0.22373071281E+03  0.17430221916E+03 -0.10149138490E+04  0.10537963828E+04  0.50400001928E-02 0.  1.
       -1    1    3    3    0  502 -0.22373071281E+03 -0.17430221916E+03  0.23895055087E+02  0.28461846240E+03  0.50400001928E-02 0. -1.
</event>
<event>
 5   0  0.2450427E-04  0.8998148E+03  0.7818609E-02  0.9425813E-01
       -1   -1    0    0    0  501  0.00000000000E+00  0.00000000000E+00  0.37882317359E+03  0.37882317363E+03  0.50400001928E-02 0. -1.
        1   -1    0    0  501    0  0.00000000000E+00  0.00000000000E+00 -0.53433020161E+03  0.53433020163E+03  0.50400001928E-02 0.  1.
    10030    2    1    2    0    0  0.00000000000E+00  0.00000000000E+00 -0.15550702802E+03  0.91315337526E+03  0.89981478705E+03 0.  0.
        3    1    3    3  502    0 -0.26931322592E+03  0.30835731709E+03 -0.26707404769E+03  0.48881735424E+03  0.10100000352E+00 0.  1.
       -3    1    3    3    0  502  0.26931322592E+03 -0.30835731709E+03  0.11156701967E+03  0.42433602102E+03  0.10100000352E+00 0. -1.
</event>
<event>
 5   0  0.2332791E-04  0.8997490E+03  0.7818609E-02  0.9425895E-01
        1   -1    0    0  501    0  0.00000000000E+00  0.00000000000E+00  0.32004606516E+03  0.32004606520E+03  0.50400001928E-02 0.  1.
       -1   -1    0    0    0  501  0.00000000000E+00  0.00000000000E+00 -0.63236854594E+03  0.63236854596E+03  0.50400001928E-02 0. -1.
    10030    2    1    2    0    0  0.00000000000E+00  0.00000000000E+00 -0.31232248078E+03  0.95241461115E+03  0.89974899808E+03 0.  0.
        2    1    3    3  502    0 -0.10764101057E+03  0.43169075700E+03 -0.85599287007E+02  0.45306813481E+03  0.25500000920E-02 0.  1.
       -2    1    3    3    0  502  0.10764101057E+03 -0.43169075700E+03 -0.22672319378E+03  0.49934647635E+03  0.25500000920E-02 0. -1.
</event>
<event>
 5   0  0.2356918E-04  0.9000103E+03  0.7818609E-02  0.9425569E-01
       -1   -1    0    0    0  501  0.00000000000E+00  0.00000000000E+00  0.78962389196E+03  0.78962389197E+03  0.50400001928E-02 0. -1.
        1   -1    0    0  501    0  0.00000000000E+00  0.00000000000E+00 -0.25645707399E+03  0.25645707404E+03  0.50400001928E-02 0.  1.
    10030    2    1    2    0    0  0.00000000000E+00  0.00000000000E+00  0.53316681796E+03  0.10460809660E+04  0.90001029532E+03 0.  0.
        5    1    3    3  502    0  0.27326320505E+03 -0.33448609685E+03  0.41327646382E+03  0.59780703723E+03  0.46999998093E+01 0. -1.
       -5    1    3    3    0  502 -0.27326320505E+03  0.33448609685E+03  0.11989035414E+03  0.44827392879E+03  0.46999998093E+01 0.  1.
</event>
<event>
 5   0  0.3959804E-04  0.8994398E+03  0.7818609E-02  0.9426282E-01
        2   -1    0    0  501    0  0.00000000000E+00  0.00000000000E+00  0.18430560170E+04  0.18430560170E+04  0.25500000920E-02 0. -1.
       -2   -1    0    0    0  501  0.00000000000E+00  0.00000000000E+00 -0.10973512470E+03  0.10973512473E+03  0.25500000920E-02 0.  1.
    10030    2    1    2    0    0  0.00000000000E+00  0.00000000000E+00  0.17333208923E+04  0.19527911417E+04  0.89943978539E+03 0.  0.
        5    1    3    3  502    0  0.39530294246E+03 -0.20621496615E+03  0.99394181352E+03  0.10893720426E+04  0.46999998093E+01 0.  1.
       -5    1    3    3    0  502 -0.39530294246E+03  0.20621496615E+03  0.73937907880E+03  0.86341909913E+03  0.46999998093E+01 0. -1.
</event>
<event>
 5   0  0.3959804E-04  0.9000255E+03  0.7818609E-02  0.9425550E-01
        2   -1    0    0  501    0  0.00000000000E+00  0.00000000000E+00  0.60372988283E+03  0.60372988283E+03  0.25500000920E-02 0.  1.
       -2   -1    0    0    0  501  0.00000000000E+00  0.00000000000E+00 -0.33543392982E+03  0.33543392983E+03  0.25500000920E-02 0. -1.
    10030    2    1    2    0    0  0.00000000000E+00  0.00000000000E+00  0.26829595300E+03  0.93916381267E+03  0.90002552665E+03 0.  0.
        5    1    3    3  502    0 -0.54197914105E+02 -0.37791170483E+02 -0.33031901947E+03  0.33689513365E+03  0.46999998093E+01 0. -1.
       -5    1    3    3    0  502  0.54197914105E+02  0.37791170483E+02  0.59861497247E+03  0.60226867901E+03  0.46999998093E+01 0.  1.
</event>
<event>
 5   0  0.3959804E-04  0.8999662E+03  0.7818609E-02  0.9425624E-01
        2   -1    0    0  501    0  0.00000000000E+00  0.00000000000E+00  0.17336648157E+04  0.17336648157E+04  0.25500000920E-02 0.  1.
       -2   -1    0    0    0  501  0.00000000000E+00  0.00000000000E+00 -0.11679581487E+03  0.11679581490E+03  0.25500000920E-02 0. -1.
    10030    2    1    2    0    0  0.00000000000E+00  0.00000000000E+00  0.16168690008E+04  0.18504606306E+04  0.89996621022E+03 0.  0.
        5    1    3    3  502    0  0.44321005335E+03  0.31018794979E+02  0.66209552907E+03  0.79736434373E+03  0.46999998093E+01 0. -1.
       -5    1    3    3    0  502 -0.44321005335E+03 -0.31018794979E+02  0.95477347177E+03  0.10530962869E+04  0.46999998093E+01 0.  1.
</event>
<event>
 5   0  0.2351435E-04  0.8997164E+03  0.7818609E-02  0.9425936E-01
       -1   -1    0    0    0  501  0.00000000000E+00  0.00000000000E+00  0.58093966043E+03  0.58093966045E+03  0.50400001928E-02 0. -1.
        1   -1    0    0  501    0  0.00000000000E+00  0.00000000000E+00 -0.34835357323E+03  0.34835357327E+03  0.50400001928E-02 0.  1.
    10030    2    1    2    0    0  0.00000000000E+00  0.00000000000E+00  0.23258608719E+03  0.92929323372E+03  0.89971641437E+03 0.  0.
        4    1    3    3  502    0 -0.30511893904E+03  0.31047074996E+03 -0.93304749795E+00  0.43530694575E+03  0.12699999809E+01 0.  1.
       -4    1    3    3    0  502  0.30511893904E+03 -0.31047074996E+03  0.23351913469E+03  0.49398628797E+03  0.12699999809E+01 0. -1.
</event>
<event>
 5   0  0.4236284E-04  0.8998924E+03  0.7818609E-02  0.9425716E-01
       -2   -1    0    0    0  501  0.00000000000E+00  0.00000000000E+00  0.29024426977E+03  0.29024426978E+03  0.25500000920E-02 0. -1.
        2   -1    0    0  501    0  0.00000000000E+00  0.00000000000E+00 -0.69752141347E+03  0.69752141348E+03  0.25500000920E-02 0.  1.
    10030    2    1    2    0    0  0.00000000000E+00  0.00000000000E+00 -0.40727714371E+03  0.98776568326E+03  0.89989242314E+03 0.  0.
        2    1    3    3  502    0  0.10954952074E+03 -0.23762851816E+03 -0.60541872919E+03  0.65954548577E+03  0.25500000920E-02 0.  1.
       -2    1    3    3    0  502 -0.10954952074E+03  0.23762851816E+03  0.19814158548E+03  0.32822019749E+03  0.25500000920E-02 0. -1.
</event>
<event>
 5   0  0.4110039E-04  0.8997857E+03  0.7818609E-02  0.9425849E-01
        2   -1    0    0  501    0  0.00000000000E+00  0.00000000000E+00  0.38802363800E+03  0.38802363801E+03  0.25500000920E-02 0. -1.
       -2   -1    0    0    0  501  0.00000000000E+00  0.00000000000E+00 -0.52162691636E+03  0.52162691636E+03  0.25500000920E-02 0.  1.
    10030    2    1    2    0    0  0.00000000000E+00  0.00000000000E+00 -0.13360327836E+03  0.90965055437E+03  0.89978569397E+03 0.  0.
        3    1    3    3  502    0 -0.26405786746E+03  0.36341693193E+03 -0.91670927527E+02  0.45847790889E+03  0.10100000352E+00 0.  1.
       -3    1    3    3    0  502  0.26405786746E+03 -0.36341693193E+03 -0.41932350832E+02  0.45117264548E+03  0.10100000352E+00 0. -1.
</event>
<event>
 5   0  0.2308362E-04  0.9002527E+03  0.7818609E-02  0.9425266E-01
        1   -1    0    0  501    0  0.00000000000E+00  0.00000000000E+00  0.42643769111E+03  0.42643769114E+03  0.50400001928E-02 0.  1.
       -1   -1    0    0    0  501  0.00000000000E+00  0.00000000000E+00 -0.47513090146E+03  0.47513090148E+03  0.50400001928E-02 0. -1.
    10030    2    1    2    0    0  0.00000000000E+00  0.00000000000E+00 -0.48693210349E+02  0.90156859262E+03  0.90025268590E+03 0.  0.
        1    1    3    3  502    0 -0.43423024086E+03  0.11222659185E+03  0.13958678038E+02  0.44871544960E+03  0.50400001928E-02 0.  1.
       -1    1    3    3    0  502  0.43423024086E+03 -0.11222659185E+03 -0.62651888387E+02  0.45285314302E+03  0.50400001928E-02 0. -1.
</event>
<event>
 5   0  0.4110039E-04  0.9000773E+03  0.7818609E-02  0.9425485E-01
       -2   -1    0    0    0  501  0.00000000000E+00  0.00000000000E+00  0.70800423966E+02  0.70800424012E+02  0.25500000920E-02 0. -1.
        2   -1    0    0  501    0  0.00000000000E+00  0.00000000000E+00 -0.28606435361E+04  0.28606435361E+04  0.25500000920E-02 0.  1.
    10030    2    1    2    0    0  0.00000000000E+00  0.00000000000E+00 -0.27898431121E+04  0.29314439601E+04  0.90007727499E+03 0.  0.
        3    1    3    3  502    0 -0.42599276314E+02 -0.43751559849E+03 -0.17090065525E+04  0.17646353742E+04  0.10100000352E+00 0.  1.
       -3    1    3    3    0  502  0.42599276314E+02  0.43751559849E+03 -0.10808365596E+04  0.11668085859E+04  0.10100000352E+00 0. -1.
</event>
<event>
 5   0  0.2351435E-04  0.8998816E+03  0.7818609E-02  0.9425729E-01
       -1   -1    0    0    0  501  0.00000000000E+00  0.00000000000E+00  0.29714031500E+03  0.29714031504E+03  0.50400001928E-02 0.  1.
        1   -1    0    0  501    0  0.00000000000E+00  0.00000000000E+00 -0.68131689650E+03  0.68131689652E+03  0.50400001928E-02 0. -1.
    10030    2    1    2    0    0  0.00000000000E+00  0.00000000000E+00 -0.38417658150E+03  0.97845721156E+03  0.89988158615E+03 0.  0.
        4    1    3    3  502    0 -0.38702125682E+03 -0.22118219716E+03 -0.25856678352E+03  0.51533039111E+03  0.12699999809E+01 0.  1.
       -4    1    3    3    0  502  0.38702125682E+03  0.22118219716E+03 -0.12560979798E+03  0.46312682045E+03  0.12699999809E+01 0. -1.
</event>
<event>
 5   0  0.3959804E-04  0.9005724E+03  0.7818609E-02  0.9424866E-01
        2   -1    0    0  501    0  0.00000000000E+00  0.00000000000E+00  0.38365425779E+03  0.38365425779E+03  0.25500000920E-02 0.  1.
       -2   -1    0    0    0  501  0.00000000000E+00  0.00000000000E+00 -0.52849054618E+03  0.52849054619E+03  0.25500000920E-02 0. -1.
    10030    2    1    2    0    0  0.00000000000E+00  0.00000000000E+00 -0.14483628840E+03  0.91214480398E+03  0.90057236966E+03 0.  0.
        5    1    3    3  502    0  0.22436080248E+03 -0.37598912820E+03 -0.17879134278E+03  0.47296303076E+03  0.46999998093E+01 0. -1.
       -5    1    3    3    0  502 -0.22436080248E+03  0.37598912820E+03  0.33955054383E+02  0.43918177322E+03  0.46999998093E+01 0.  1.
</event>
<event>
 5   0  0.2450427E-04  0.8995892E+03  0.7818609E-02  0.9426095E-01
        1   -1    0    0  501    0  0.00000000000E+00  0.00000000000E+00  0.78886592499E+03  0.78886592501E+03  0.50400001928E-02 0. -1.
       -1   -1    0    0    0  501  0.00000000000E+00  0.00000000000E+00 -0.25646333302E+03  0.25646333307E+03  0.50400001928E-02 0.  1.
    10030    2    1    2    0    0  0.00000000000E+00  0.00000000000E+00  0.53240259198E+03  0.10453292581E+04  0.89958920505E+03 0.  0.
        3    1    3    3  502    0  0.27899334604E+03  0.23249065118E+03  0.57457357714E+03  0.67972347008E+03  0.10100000352E+00 0. -1.
       -3    1    3    3    0  502 -0.27899334604E+03 -0.23249065118E+03 -0.42170985168E+02  0.36560578800E+03  0.10100000352E+00 0.  1.
</event>
<event>
 5   0  0.4236284E-04  0.9001178E+03  0.7818609E-02  0.9425434E-01
       -2   -1    0    0    0  501  0.00000000000E+00  0.00000000000E+00  0.31926071346E+03  0.31926071347E+03  0.25500000920E-02 0.  1.
        2   -1    0    0  501    0  0.00000000000E+00  0.00000000000E+00 -0.63444391037E+03  0.63444391037E+03  0.25500000920E-02 0. -1.
    10030    2    1    2    0    0  0.00000000000E+00  0.00000000000E+00 -0.31518319690E+03  0.95370462385E+03  0.90011780448E+03 0.  0.
        2    1    3    3  502    0  0.57223577902E+02 -0.13237083061E+03  0.29411812670E+03  0.32756991181E+03  0.25500000920E-02 0.  1.
       -2    1    3    3    0  502 -0.57223577902E+02  0.13237083061E+03 -0.60930132360E+03  0.62613471203E+03  0.25500000920E-02 0. -1.
</event>
<event>
 5   0  0.2356918E-04  0.9001751E+03  0.7818609E-02  0.9425363E-01
       -1   -1    0    0    0  501  0.00000000000E+00  0.00000000000E+00  0.62892951311E+03  0.62892951313E+03  0.50400001928E-02 0. -1.
        1   -1    0    0  501    0  0.00000000000E+00  0.00000000000E+00 -0.32210093633E+03  0.32210093637E+03  0.50400001928E-02 0.  1.
    10030    2    1    2    0    0  0.00000000000E+00  0.00000000000E+00  0.30682857678E+03  0.95103044950E+03  0.90017506094E+03 0.  0.
        5    1    3    3  502    0 -0.29852197155E+02  0.41406958663E+03 -0.30221193952E+02  0.41626936809E+03  0.46999998093E+01 0.  1.
       -5    1    3    3    0  502  0.29852197155E+02 -0.41406958663E+03  0.33704977073E+03  0.53476108141E+03  0.46999998093E+01 0. -1.
</event>
<event>
 5   0  0.2332791E-04  0.9003790E+03  0.7818609E-02  0.9425108E-01
       -1   -1    0    0    0  501  0.00000000000E+00  0.00000000000E+00  0.11196871841E+04  0.11196871841E+04  0.50400001928E-02 0. -1.
        1   -1    0    0  501    0  0.00000000000E+00  0.00000000000E+00 -0.18100642252E+03  0.18100642259E+03  0.50400001928E-02 0.  1.
    10030    2    1    2    0    0  0.00000000000E+00  0.00000000000E+00  0.93868076153E+03  0.13006936067E+04  0.90037896817E+03 0.  0.
        2    1    3    3  502    0  0.13683353212E+03 -0.14760753457E+03 -0.11238822811E+03  0.23052660063E+03  0.25500000920E-02 0.  1.
       -2    1    3    3    0  502 -0.13683353212E+03  0.14760753457E+03  0.10510689896E+04  0.10701670060E+04  0.25500000920E-02 0. -1.
</event>
<event>
 5   0  0.2356918E-04  0.8996911E+03  0.7818609E-02  0.9425968E-01
        1   -1    0    0  501    0  0.00000000000E+00  0.00000000000E+00  0.25552593177E+04  0.25552593177E+04  0.50400001928E-02 0.  1.
       -1   -1    0    0    0  501  0.00000000000E+00  0.00000000000E+00 -0.79193918067E+02  0.79193918228E+02  0.50400001928E-02 0. -1.
    10030    2    1    2    0    0  0.00000000000E+00  0.00000000000E+00  0.24760653997E+04  0.26344532360E+04  0.89969105201E+03 0.  0.
        5    1    3    3  502    0  0.20306071027E+02  0.36684138652E+03  0.19979716165E+04  0.20314767067E+04  0.46999998093E+01 0.  1.
       -5    1    3    3    0  502 -0.20306071027E+02 -0.36684138652E+03  0.47809378313E+03  0.60297652927E+03  0.46999998093E+01 0. -1.
</event>
<event>
 5   0  0.3959804E-04  0.8998805E+03  0.7818609E-02  0.9425731E-01
        2   -1    0    0  501    0  0.00000000000E+00  0.00000000000E+00  0.29051648575E+03  0.29051648576E+03  0.25500000920E-02 0. -1.
       -2   -1    0    0    0  501  0.00000000000E+00  0.00000000000E+00 -0.69684941423E+03  0.69684941424E+03  0.25500000920E-02 0.  1.
    10030    2    1    2    0    0  0.00000000000E+00  0.00000000000E+00 -0.40633292848E+03  0.98736590000E+03  0.89988053191E+03 0.  0.
        5    1    3    3  502    0 -0.20374399322E+03 -0.31795103064E+03 -0.47152493697E+03  0.60412112100E+03  0.46999998093E+01 0.  1.
       -5    1    3    3    0  502  0.20374399322E+03  0.31795103064E+03  0.65192008489E+02  0.38324477900E+03  0.46999998093E+01 0. -1.
</event>
<event>
 5   0  0.2356918E-04  0.9003384E+03  0.7818609E-02  0.9425158E-01
        1   -1    0    0  501    0  0.00000000000E+00  0.00000000000E+00  0.75616013574E+03  0.75616013576E+03  0.50400001928E-02 0.  1.
       -1   -1    0    0    0  501  0.00000000000E+00  0.00000000000E+00 -0.26800186324E+03  0.26800186329E+03  0.50400001928E-02 0. -1.
    10030    2    1    2    0    0  0.00000000000E+00  0.00000000000E+00  0.48815827250E+03  0.10241619990E+04  0.90033843708E+03 0.  0.
        5    1    3    3  502    0 -0.33072398123E+03  0.15066844629E+01 -0.10328612680E+03  0.34651224488E+03  0.46999998093E+01 0. -1.
       -5    1    3    3    0  502  0.33072398123E+03 -0.15066844629E+01  0.59144439930E+03  0.67764975417E+03  0.46999998093E+01 0.  1.
</event>
<event>
 5   0  0.4243516E-04  0.8996088E+03  0.7818609E-02  0.9426071E-01
        2   -1    0    0  501    0  0.00000000000E+00  0.00000000000E+00  0.22379966539E+03  0.22379966541E+03  0.25500000920E-02 0. -1.
       -2   -1    0    0    0  501  0.00000000000E+00  0.00000000000E+00 -0.90404073953E+03  0.90404073953E+03  0.25500000920E-02 0.  1.
    10030    2    1    2    0    0  0.00000000000E+00  0.00000000000E+00 -0.68024107414E+03  0.11278404049E+04  0.89960883725E+03 0.  0.
        1    1    3    3  502    0  0.30866409242E+03 -0.21594274083E+03 -0.31956812973E+02  0.37805558743E+03  0.50400001928E-02 0. -1.
       -1    1    3    3    0  502 -0.30866409242E+03  0.21594274083E+03 -0.64828426116E+03  0.74978481751E+03  0.50400001928E-02 0.  1.
</event>
<event>
 5   0  0.3959804E-04  0.9005055E+03  0.7818609E-02  0.9424950E-01
        2   -1    0    0  501    0  0.00000000000E+00  0.00000000000E+00  0.10974054801E+04  0.10974054801E+04  0.25500000920E-02 0. -1.
       -2   -1    0    0    0  501  0.00000000000E+00  0.00000000000E+00 -0.18473349902E+03  0.18473349904E+03  0.25500000920E-02 0.  1.
    10030    2    1    2    0    0  0.00000000000E+00  0.00000000000E+00  0.91267198110E+03  0.12821389792E+04  0.90050553403E+03 0.  0.
        5    1    3    3  502    0 -0.14990042822E+03 -0.30299487387E+03  0.32939615089E+02  0.33968093884E+03  0.46999998093E+01 0.  1.
       -5    1    3    3    0  502  0.14990042822E+03  0.30299487387E+03  0.87973236602E+03  0.94245804033E+03  0.46999998093E+01 0. -1.
</event>
<event>
 5   0  0.3959804E-04  0.8995274E+03  0.7818609E-02  0.9426172E-01
        2   -1    0    0  501    0  0.00000000000E+00  0.00000000000E+00  0.66215888689E+03  0.66215888690E+03  0.25500000920E-02 0. -1.
       -2   -1    0    0    0  501  0.00000000000E+00  0.00000000000E+00 -0.30549674510E+03  0.30549674511E+03  0.25500000920E-02 0.  1.
    10030    2    1    2    0    0  0.00000000000E+00  0.00000000000E+00  0.35666214179E+03  0.96765563201E+03  0.89952739745E+03 0.  0.
        5    1    3    3  502    0  0.17293131060E+03 -0.14460486337E+03  0.59697070370E+03  0.63813158187E+03  0.46999998093E+01 0. -1.
       -5    1    3    3    0  502 -0.17293131060E+03  0.14460486337E+03 -0.24030856191E+03  0.32952405014E+03  0.46999998093E+01 0.  1.
</event>
<event>
 5   0  0.2450427E-04  0.9009892E+03  0.7818609E-02  0.9424346E-01
       -1   -1    0    0    0  501  0.00000000000E+00  0.00000000000E+00  0.16325085011E+03  0.16325085018E+03  0.50400001928E-02 0. -1.
        1   -1    0    0  501    0  0.00000000000E+00  0.00000000000E+00 -0.12431506516E+04  0.12431506516E+04  0.50400001928E-02 0.  1.
    10030    2    1    2    0    0  0.00000000000E+00  0.00000000000E+00 -0.10798998015E+04  0.14064015018E+04  0.90098923578E+03 0.  0.
        3    1    3    3  502    0 -0.25175718046E+03  0.32589312843E+03 -0.82504233674E+03  0.92210784439E+03  0.10100000352E+00 0.  1.
       -3    1    3    3    0  502  0.25175718046E+03 -0.32589312843E+03 -0.25485746478E+03  0.48429365743E+03  0.10100000352E+00 0. -1.
</event>
<event>
 5   0  0.2356918E-04  0.9039810E+03  0.7818609E-02  0.9420619E-01
        1   -1    0    0  501    0  0.00000000000E+00  0.00000000000E+00  0.15169023225E+04  0.15169023226E+04  0.50400001928E-02 0.  1.
       -1   -1    0    0    0  501  0.00000000000E+00  0.00000000000E+00 -0.13467934009E+03  0.13467934018E+03  0.50400001928E-02 0. -1.
    10030    2    1    2    0    0  0.00000000000E+00  0.00000000000E+00  0.13822229825E+04  0.16515816627E+04  0.90398098180E+03 0.  0.
        5    1    3    3  502    0 -0.22238451307E+03 -0.13221372095E+03  0.13681853979E+04  0.13924398416E+04  0.46999998093E+01 0.  1.
       -5    1    3    3    0  502  0.22238451307E+03  0.13221372095E+03  0.14037584589E+02  0.25914182109E+03  0.46999998093E+01 0. -1.
</event>
<event>
 5   0  0.3959804E-04  0.8993215E+03  0.7818609E-02  0.9426430E-01
        2   -1    0    0  501    0  0.00000000000E+00  0.00000000000E+00  0.40878630562E+03  0.40878630563E+03  0.25500000920E-02 0. -1.
       -2   -1    0    0    0  501  0.00000000000E+00  0.00000000000E+00 -0.49462219284E+03  0.49462219285E+03  0.25500000920E-02 0.  1.
    10030    2    1    2    0    0  0.00000000000E+00  0.00000000000E+00 -0.85835887221E+02  0.90340849848E+03  0.89932147511E+03 0.  0.
        5    1    3    3  502    0 -0.19626935129E+03 -0.29351644890E+03 -0.32256973570E+03  0.47827490883E+03  0.46999998093E+01 0.  1.
       -5    1    3    3    0  502  0.19626935129E+03  0.29351644890E+03  0.23673384848E+03  0.42513358964E+03  0.46999998093E+01 0. -1.
</event>
<event>
 5   0  0.2332791E-04  0.9002572E+03  0.7818609E-02  0.9425260E-01
       -1   -1    0    0    0  501  0.00000000000E+00  0.00000000000E+00  0.14420137297E+03  0.14420137306E+03  0.50400001928E-02 0. -1.
        1   -1    0    0  501    0  0.00000000000E+00  0.00000000000E+00 -0.14050889271E+04  0.14050889271E+04  0.50400001928E-02 0.  1.
    10030    2    1    2    0    0  0.00000000000E+00  0.00000000000E+00 -0.12608875541E+04  0.15492903001E+04  0.90025719103E+03 0.  0.
        2    1    3    3  502    0  0.34612222930E+03 -0.48832763778E+02 -0.14237993951E+03  0.37743513829E+03  0.25500000920E-02 0. -1.
       -2    1    3    3    0  502 -0.34612222930E+03  0.48832763778E+02 -0.11185076146E+04  0.11718551618E+04  0.25500000920E-02 0.  1.
</event>
<event>
 5   0  0.4243516E-04  0.9001452E+03  0.7818609E-02  0.9425400E-01
        2   -1    0    0  501    0  0.00000000000E+00  0.00000000000E+00  0.71404349512E+03  0.71404349513E+03  0.25500000920E-02 0.  1.
       -2   -1    0    0    0  501  0.00000000000E+00  0.00000000000E+00 -0.28368771287E+03  0.28368771288E+03  0.25500000920E-02 0. -1.
    10030    2    1    2    0    0  0.00000000000E+00  0.00000000000E+00  0.43035578225E+03  0.99773120801E+03  0.90014524612E+03 0.  0.
        1    1    3    3  502    0 -0.40294890720E+03  0.18891443777E+03  0.14075007537E+03  0.46676232748E+03  0.50400001928E-02 0. -1.
       -1    1    3    3    0  502  0.40294890720E+03 -0.18891443777E+03  0.28960570688E+03  0.53096888053E+03  0.50400001928E-02 0.  1.
</event>
<event>
 5   0  0.2356918E-04  0.8944642E+03  0.7818609E-02  0.9432528E-01
       -1   -1    0    0    0  501  0.00000000000E+00  0.00000000000E+00  0.14503333234E+03  0.14503333243E+03  0.50400001928E-02 0. -1.
        1   -1    0    0  501    0  0.00000000000E+00  0.00000000000E+00 -0.13791074841E+04  0.13791074841E+04  0.50400001928E-02 0.  1.
    10030    2    1    2    0    0  0.00000000000E+00  0.00000000000E+00 -0.12340741518E+04  0.15241408165E+04  0.89446420643E+03 0.  0.
        5    1    3    3  502    0  0.25137881179E+03  0.27049823539E+03 -0.10468765217E+04  0.11101050148E+04  0.46999998093E+01 0.  1.
       -5    1    3    3    0  502 -0.25137881179E+03 -0.27049823539E+03 -0.18719763010E+03  0.41403580169E+03  0.46999998093E+01 0. -1.
</event>
<event>
 5   0  0.2308362E-04  0.8998996E+03  0.7818609E-02  0.9425707E-01
        1   -1    0    0  501    0  0.00000000000E+00  0.00000000000E+00  0.43719914216E+03  0.43719914219E+03  0.50400001928E-02 0.  1.
       -1   -1    0    0    0  501  0.00000000000E+00  0.00000000000E+00 -0.46307232960E+03  0.46307232963E+03  0.50400001928E-02 0. -1.
    10030    2    1    2    0    0  0.00000000000E+00  0.00000000000E+00 -0.25873187437E+02  0.90027147182E+03  0.89989960615E+03 0.  0.
        1    1    3    3  502    0 -0.39131331336E+03  0.21110299385E+03  0.56115417896E+02  0.44815122824E+03  0.50400001928E-02 0.  1.
       -1    1    3    3    0  502  0.39131331336E+03 -0.21110299385E+03 -0.81988605333E+02  0.45212024358E+03  0.50400001928E-02 0. -1.
</event>
<event>
 5   0  0.2308362E-04  0.8998767E+03  0.7818609E-02  0.9425736E-01
        1   -1    0    0  501    0  0.00000000000E+00  0.00000000000E+00  0.55314658471E+03  0.55314658473E+03  0.50400001928E-02 0. -1.
       -1   -1    0    0    0  501  0.00000000000E+00  0.00000000000E+00 -0.36598711312E+03  0.36598711315E+03  0.50400001928E-02 0.  1.
    10030    2    1    2    0    0  0.00000000000E+00  0.00000000000E+00  0.18715947159E+03  0.91913369789E+03  0.89987670643E+03 0.  0.
        1    1    3    3  502    0  0.14212934977E+03 -0.39109452364E+03  0.26838189306E+03  0.49516110412E+03  0.50400001928E-02 0. -1.
       -1    1    3    3    0  502 -0.14212934977E+03  0.39109452364E+03 -0.81222421466E+02  0.42397259376E+03  0.50400001928E-02 0.  1.
</event>
<event>
 5   0  0.2351435E-04  0.8998179E+03  0.7818609E-02  0.9425809E-01
       -1   -1    0    0    0  501  0.00000000000E+00  0.00000000000E+00  0.60882480978E+03  0.60882480980E+03  0.50400001928E-02 0.  1.
        1   -1    0    0  501    0  0.00000000000E+00  0.00000000000E+00 -0.33247341685E+03  0.33247341689E+03  0.50400001928E-02 0. -1.
    10030    2    1    2    0    0  0.00000000000E+00  0.00000000000E+00  0.27635139293E+03  0.94129822668E+03  0.89981790335E+03 0.  0.
        4    1    3    3  502    0 -0.21325062619E+03 -0.50878716866E+02 -0.27281189603E+03  0.34998916685E+03  0.12699999809E+01 0. -1.
       -4    1    3    3    0  502  0.21325062619E+03  0.50878716866E+02  0.54916328896E+03  0.59130905983E+03  0.12699999809E+01 0.  1.
</event>
<event>
 5   0  0.4033144E-04  0.8999639E+03  0.7818609E-02  0.9425627E-01
       -2   -1    0    0    0  501  0.00000000000E+00  0.00000000000E+00  0.15021213436E+03  0.15021213438E+03  0.25500000920E-02 0. -1.
        2   -1    0    0  501    0  0.00000000000E+00  0.00000000000E+00 -0.13479853500E+04  0.13479853500E+04  0.25500000920E-02 0.  1.
    10030    2    1    2    0    0  0.00000000000E+00  0.00000000000E+00 -0.11977732157E+04  0.14981974844E+04  0.89996390267E+03 0.  0.
        4    1    3    3  502    0 -0.13308181927E+03  0.42921523490E+03 -0.55999972806E+03  0.71800960775E+03  0.12699999809E+01 0. -1.
       -4    1    3    3    0  502  0.13308181927E+03 -0.42921523490E+03 -0.63777348760E+03  0.78018787665E+03  0.12699999809E+01 0.  1.
</event>
<event>
 5   0  0.4110039E-04  0.8975255E+03  0.7818609E-02  0.9428680E-01
       -2   -1    0    0    0  501  0.00000000000E+00  0.00000000000E+00  0.28134078331E+03  0.28134078332E+03  0.25500000920E-02 0.  1.
        2   -1    0    0  501    0  0.00000000000E+00  0.00000000000E+00 -0.71581518426E+03  0.71581518426E+03  0.25500000920E-02 0. -1.
    10030    2    1    2    0    0  0.00000000000E+00  0.00000000000E+00 -0.43447440095E+03  0.99715596759E+03  0.89752549747E+03 0.  0.
        3    1    3    3  502    0  0.24482837434E+03 -0.16649533860E+03  0.15743103442E+03  0.33532994417E+03  0.10100000352E+00 0.  1.
       -3    1    3    3    0  502 -0.24482837434E+03  0.16649533860E+03 -0.59190543537E+03  0.66182602342E+03  0.10100000352E+00 0. -1.
</event>
<event>
 5   0  0.2351435E-04  0.9044678E+03  0.7818609E-02  0.9420014E-01
       -1   -1    0    0    0  501  0.00000000000E+00  0.00000000000E+00  0.12687813475E+04  0.12687813475E+04  0.50400001928E-02 0. -1.
        1   -1    0    0  501    0  0.00000000000E+00  0.00000000000E+00 -0.16119051184E+03  0.16119051192E+03  0.50400001928E-02 0.  1.
    10030    2    1    2    0    0  0.00000000000E+00  0.00000000000E+00  0.11075908356E+04  0.14299718594E+04  0.90446783222E+03 0.  0.
        4    1    3    3  502    0 -0.27549979169E+03 -0.10001984470E+03  0.92994757087E+01  0.29324426287E+03  0.12699999809E+01 0.  1.
       -4    1    3    3    0  502  0.27549979169E+03  0.10001984470E+03  0.10982913599E+04  0.11367275966E+04  0.12699999809E+01 0. -1.
</event>
<event>
 5   0  0.3959804E-04  0.8997949E+03  0.7818609E-02  0.9425838E-01
        2   -1    0    0  501    0  0.00000000000E+00  0.00000000000E+00  0.25401540008E+03  0.25401540010E+03  0.25500000920E-02 0.  1.
       -2   -1    0    0    0  501  0.00000000000E+00  0.00000000000E+00 -0.79683244546E+03  0.79683244547E+03  0.25500000920E-02 0. -1.
    10030    2    1    2    0    0  0.00000000000E+00  0.00000000000E+00 -0.54281704538E+03  0.10508478456E+04  0.89979489317E+03 0.  0.
        5    1    3    3  502    0  0.32176474863E+03 -0.18623114130E+03  0.24437559655E+02  0.37260418110E+03  0.46999998093E+01 0.  1.
       -5    1    3    3    0  502 -0.32176474863E+03  0.18623114130E+03 -0.56725460504E+03  0.67824366446E+03  0.46999998093E+01 0. -1.
</event>
<event>
 5   0  0.4110039E-04  0.8991876E+03  0.7818609E-02  0.9426598E-01
        2   -1    0    0  501    0  0.00000000000E+00  0.00000000000E+00  0.35479961345E+03  0.35479961346E+03  0.25500000920E-02 0. -1.
       -2   -1    0    0    0  501  0.00000000000E+00  0.00000000000E+00 -0.56971476648E+03  0.56971476649E+03  0.25500000920E-02 0.  1.
    10030    2    1    2    0    0  0.00000000000E+00  0.00000000000E+00 -0.21491515304E+03  0.92451437995E+03  0.89918758650E+03 0.  0.
        3    1    3    3  502    0 -0.14044573694E+03 -0.17453362788E+03 -0.50824146688E+03  0.55542451436E+03  0.10100000352E+00 0.  1.
       -3    1    3    3    0  502  0.14044573694E+03  0.17453362788E+03  0.29332631385E+03  0.36908986559E+03  0.10100000352E+00 0. -1.
</event>
<event>
 5   0  0.4033144E-04  0.9006617E+03  0.7818609E-02  0.9424755E-01
       -2   -1    0    0    0  501  0.00000000000E+00  0.00000000000E+00  0.11844464831E+03  0.11844464833E+03  0.25500000920E-02 0.  1.
        2   -1    0    0  501    0  0.00000000000E+00  0.00000000000E+00 -0.17121742080E+04  0.17121742080E+04  0.25500000920E-02 0. -1.
    10030    2    1    2    0    0  0.00000000000E+00  0.00000000000E+00 -0.15937295597E+04  0.18306188563E+04  0.90066169439E+03 0.  0.
        4    1    3    3  502    0  0.42761015729E+03  0.12462201610E+03 -0.66181007004E+03  0.79773133022E+03  0.12699999809E+01 0.  1.
       -4    1    3    3    0  502 -0.42761015729E+03 -0.12462201610E+03 -0.93191948966E+03  0.10328875261E+04  0.12699999809E+01 0. -1.
</event>
<event>
 5   0  0.4236284E-04  0.8995405E+03  0.7818609E-02  0.9426156E-01
       -2   -1    0    0    0  501  0.00000000000E+00  0.00000000000E+00  0.12993740343E+03  0.12993740346E+03  0.25500000920E-02 0.  1.
        2   -1    0    0  501    0  0.00000000000E+00  0.00000000000E+00 -0.15568518962E+04  0.15568518962E+04  0.25500000920E-02 0. -1.
    10030    2    1    2    0    0  0.00000000000E+00  0.00000000000E+00 -0.14269144927E+04  0.16867892996E+04  0.89954053369E+03 0.  0.
        2    1    3    3  502    0  0.30489349887E+03  0.24349400371E+03 -0.11329415831E+04  0.11982512283E+04  0.25500000920E-02 0. -1.
       -2    1    3    3    0  502 -0.30489349887E+03 -0.24349400371E+03 -0.29397290965E+03  0.48853807130E+03  0.25500000920E-02 0.  1.
</event>
<event>
 5   0  0.4236284E-04  0.9007583E+03  0.7818609E-02  0.9424634E-01
       -2   -1    0    0    0  501  0.00000000000E+00  0.00000000000E+00  0.28110883657E+03  0.28110883659E+03  0.25500000920E-02 0. -1.
        2   -1    0    0  501    0  0.00000000000E+00  0.00000000000E+00 -0.72157598152E+03  0.72157598153E+03  0.25500000920E-02 0.  1.
    10030    2    1    2    0    0  0.00000000000E+00  0.00000000000E+00 -0.44046714495E+03  0.10026848181E+04  0.90075831314E+03 0.  0.
        2    1    3    3  502    0  0.70521700532E+02 -0.54800191261E+02  0.27115278654E+03  0.28548240728E+03  0.25500000920E-02 0. -1.
       -2    1    3    3    0  502 -0.70521700532E+02  0.54800191261E+02 -0.71161993149E+03  0.71720241084E+03  0.25500000920E-02 0.  1.
</event>
<event>
 5   0  0.4236284E-04  0.9001621E+03  0.7818609E-02  0.9425379E-01
       -2   -1    0    0    0  501  0.00000000000E+00  0.00000000000E+00  0.16455115423E+03  0.16455115425E+03  0.25500000920E-02 0.  1.
        2   -1    0    0  501    0  0.00000000000E+00  0.00000000000E+00 -0.12310635788E+04  0.12310635788E+04  0.25500000920E-02 0. -1.
    10030    2    1    2    0    0  0.00000000000E+00  0.00000000000E+00 -0.10665124246E+04  0.13956147331E+04  0.90016205838E+03 0.  0.
        2    1    3    3  502    0  0.86961402616E+02  0.13509828220E+03  0.11857587368E+03  0.19968492488E+03  0.25500000920E-02 0.  1.
       -2    1    3    3    0  502 -0.86961402616E+02 -0.13509828220E+03 -0.11850882983E+04  0.11959298082E+04  0.25500000920E-02 0. -1.
</event>
<event>
 5   0  0.4110039E-04  0.8993571E+03  0.7818609E-02  0.9426385E-01
       -2   -1    0    0    0  501  0.00000000000E+00  0.00000000000E+00  0.15920546599E+03  0.15920546601E+03  0.25500000920E-02 0.  1.
        2   -1    0    0  501    0  0.00000000000E+00  0.00000000000E+00 -0.12701248014E+04  0.12701248014E+04  0.25500000920E-02 0. -1.
    10030    2    1    2    0    0  0.00000000000E+00  0.00000000000E+00 -0.11109193354E+04  0.14293302674E+04  0.89935712790E+03 0.  0.
        3    1    3    3  502    0 -0.33461995133E+03  0.97291920652E+02 -0.10071468218E+04  0.10657302475E+04  0.10100000352E+00 0. -1.
       -3    1    3    3    0  502  0.33461995133E+03 -0.97291920652E+02 -0.10377251358E+03  0.36360001984E+03  0.10100000352E+00 0.  1.
</event>
<event>
 5   0  0.4033144E-04  0.8998969E+03  0.7818609E-02  0.9425710E-01
        2   -1    0    0  501    0  0.00000000000E+00  0.00000000000E+00  0.15117777963E+04  0.15117777963E+04  0.25500000920E-02 0.  1.
       -2   -1    0    0    0  501  0.00000000000E+00  0.00000000000E+00 -0.13391756958E+03  0.13391756961E+03  0.25500000920E-02 0. -1.
    10030    2    1    2    0    0  0.00000000000E+00  0.00000000000E+00  0.13778602267E+04  0.16456953659E+04  0.89989690131E+03 0.  0.
        4    1    3    3  502    0  0.23189693295E+03 -0.91096459753E+02  0.37495355101E+01  0.24917950238E+03  0.12699999809E+01 0. -1.
       -4    1    3    3    0  502 -0.23189693295E+03  0.91096459753E+02  0.13741106912E+04  0.13965158635E+04  0.12699999809E+01 0.  1.
</event>
<event>
 5   0  0.4243516E-04  0.9000702E+03  0.7818609E-02  0.9425494E-01
       -2   -1    0    0    0  501  0.00000000000E+00  0.00000000000E+00  0.31085616069E+03  0.31085616070E+03  0.25500000920E-02 0.  1.
        2   -1    0    0  501    0  0.00000000000E+00  0.00000000000E+00 -0.65152832236E+03  0.65152832236E+03  0.25500000920E-02 0. -1.
    10030    2    1    2    0    0  0.00000000000E+00  0.00000000000E+00 -0.34067216167E+03  0.96238448306E+03  0.90007020365E+03 0.  0.
        1    1    3    3  502    0  0.14393494537E+02 -0.36666962135E+03  0.10823506770E+03  0.38258151264E+03  0.50400001928E-02 0.  1.
       -1    1    3    3    0  502 -0.14393494537E+02  0.36666962135E+03 -0.44890722937E+03  0.57980297042E+03  0.50400001928E-02 0. -1.
</event>
<event>
 5   0  0.2308362E-04  0.9003471E+03  0.7818609E-02  0.9425148E-01
       -1   -1    0    0    0  501  0.00000000000E+00  0.00000000000E+00  0.10436997806E+03  0.10436997818E+03  0.50400001928E-02 0. -1.
        1   -1    0    0  501    0  0.00000000000E+00  0.00000000000E+00 -0.19417100292E+04  0.19417100292E+04  0.50400001928E-02 0.  1.
    10030    2    1    2    0    0  0.00000000000E+00  0.00000000000E+00 -0.18373400511E+04  0.20460800074E+04  0.90034711811E+03 0.  0.
        1    1    3    3  502    0  0.16228482414E+03 -0.18582309917E+03 -0.62943704624E+02  0.25461441104E+03  0.50400001928E-02 0. -1.
       -1    1    3    3    0  502 -0.16228482414E+03  0.18582309917E+03 -0.17743963465E+04  0.17914655963E+04  0.50400001928E-02 0.  1.
</event>
<event>
 5   0  0.2450427E-04  0.8999284E+03  0.7818609E-02  0.9425671E-01
       -1   -1    0    0    0  501  0.00000000000E+00  0.00000000000E+00  0.65075358499E+03  0.65075358501E+03  0.50400001928E-02 0.  1.
        1   -1    0    0  501    0  0.00000000000E+00  0.00000000000E+00 -0.31112821101E+03  0.31112821105E+03  0.50400001928E-02 0. -1.
    10030    2    1    2    0    0  0.00000000000E+00  0.00000000000E+00  0.33962537398E+03  0.96188179605E+03  0.89992843878E+03 0.  0.
        3    1    3    3  502    0  0.21432222822E+03 -0.77880260169E+02 -0.24479412470E+03  0.33454973640E+03  0.10100000352E+00 0. -1.
       -3    1    3    3    0  502 -0.21432222822E+03  0.77880260169E+02  0.58441949868E+03  0.62733205966E+03  0.10100000352E+00 0.  1.
</event>
<event>
 5   0  0.2308362E-04  0.8998049E+03  0.7818609E-02  0.9425825E-01
       -1   -1    0    0    0  501  0.00000000000E+00  0.00000000000E+00  0.10364872488E+03  0.10364872501E+03  0.50400001928E-02 0.  1.
        1   -1    0    0  501    0  0.00000000000E+00  0.00000000000E+00 -0.19528672250E+04  0.19528672250E+04  0.50400001928E-02 0. -1.
    10030    2    1    2    0    0  0.00000000000E+00  0.00000000000E+00 -0.18492185001E+04  0.20565159500E+04  0.89980486300E+03 0.  0.
        1    1    3    3  502    0  0.13453828507E+02  0.32319992285E+03 -0.20995954042E+03  0.38564517924E+03  0.50400001928E-02 0.  1.
       -1    1    3    3    0  502 -0.13453828507E+02 -0.32319992285E+03 -0.16392589597E+04  0.16708707708E+04  0.50400001928E-02 0. -1.
</event>
<event>
 5   0  0.4033144E-04  0.8999678E+03  0.7818609E-02  0.9425622E-01
       -2   -1    0    0    0  501  0.00000000000E+00  0.00000000000E+00  0.79206215293E+03  0.79206215293E+03  0.25500000920E-02 0.  1.
        2   -1    0    0  501    0  0.00000000000E+00  0.00000000000E+00 -0.25564345672E+03  0.25564345673E+03  0.25500000920E-02 0. -1.
    10030    2    1    2    0    0  0.00000000000E+00  0.00000000000E+00  0.53641869621E+03  0.10477056097E+04  0.89996779213E+03 0.  0.
        4    1    3    3  502    0 -0.11940685275E+03  0.33129641471E+03 -0.57897716210E+02  0.35688803472E+03  0.12699999809E+01 0. -1.
       -4    1    3    3    0  502  0.11940685275E+03 -0.33129641471E+03  0.59431641242E+03  0.69081757495E+03  0.12699999809E+01 0.  1.
</event>
<event>
 5   0  0.4236284E-04  0.8988825E+03  0.7818609E-02  0.9426979E-01
        2   -1    0    0  501    0  0.00000000000E+00  0.00000000000E+00  0.10594949123E+04  0.10594949123E+04  0.25500000920E-02 0.  1.
       -2   -1    0    0    0  501  0.00000000000E+00  0.00000000000E+00 -0.19065447129E+03  0.19065447130E+03  0.25500000920E-02 0. -1.
    10030    2    1    2    0    0  0.00000000000E+00  0.00000000000E+00  0.86884044105E+03  0.12501493836E+04  0.89888251146E+03 0.  0.
        2    1    3    3  502    0 -0.12854811727E+03 -0.37569678235E+03  0.14161276170E+03  0.42157664191E+03  0.25500000920E-02 0. -1.
       -2    1    3    3    0  502  0.12854811727E+03  0.37569678235E+03  0.72722767935E+03  0.82857274173E+03  0.25500000920E-02 0.  1.
</event>
<event>
 5   0  0.4236284E-04  0.9026161E+03  0.7818609E-02  0.9422317E-01
       -2   -1    0    0    0  501  0.00000000000E+00  0.00000000000E+00  0.19890233969E+03  0.19890233971E+03  0.25500000920E-02 0.  1.
        2   -1    0    0  501    0  0.00000000000E+00  0.00000000000E+00 -0.10240148800E+04  0.10240148800E+04  0.25500000920E-02 0. -1.
    10030    2    1    2    0    0  0.00000000000E+00  0.00000000000E+00 -0.82511254036E+03  0.12229172198E+04  0.90261609897E+03 0.  0.
        2    1    3    3  502    0 -0.19364693791E+03 -0.19124942326E+03 -0.90031192328E+03  0.94055145402E+03  0.25500000920E-02 0. -1.
       -2    1    3    3    0  502  0.19364693791E+03  0.19124942326E+03  0.75199382923E+02  0.28236576573E+03  0.25500000920E-02 0.  1.
</event>
<event>
 5   0  0.4243516E-04  0.8982081E+03  0.7818609E-02  0.9427824E-01
        2   -1    0    0  501    0  0.00000000000E+00  0.00000000000E+00  0.94716305498E+03  0.94716305499E+03  0.25500000920E-02 0. -1.
       -2   -1    0    0    0  501  0.00000000000E+00  0.00000000000E+00 -0.21294586232E+03  0.21294586234E+03  0.25500000920E-02 0.  1.
    10030    2    1    2    0    0  0.00000000000E+00  0.00000000000E+00  0.73421719266E+03  0.11601089173E+04  0.89820811289E+03 0.  0.
        1    1    3    3  502    0  0.24362765350E+03  0.21302464712E+03  0.76928747495E+03  0.83458801392E+03  0.50400001928E-02 0. -1.
       -1    1    3    3    0  502 -0.24362765350E+03 -0.21302464712E+03 -0.35070282295E+02  0.32552090341E+03  0.50400001928E-02 0.  1.
</event>
<event>
 5   0  0.3959804E-04  0.9002604E+03  0.7818609E-02  0.9425256E-01
       -2   -1    0    0    0  501  0.00000000000E+00  0.00000000000E+00  0.84689747458E+03  0.84689747459E+03  0.25500000920E-02 0. -1.
        2   -1    0    0  501    0  0.00000000000E+00  0.00000000000E+00 -0.23924643529E+03  0.23924643531E+03  0.25500000920E-02 0.  1.
    10030    2    1    2    0    0  0.00000000000E+00  0.00000000000E+00  0.60765103929E+03  0.10861439099E+04  0.90026041091E+03 0.  0.
        5    1    3    3  502    0 -0.23905455031E+03  0.37768835852E+03  0.23999000298E+03  0.50735871503E+03  0.46999998093E+01 0.  1.
       -5    1    3    3    0  502  0.23905455031E+03 -0.37768835852E+03  0.36766103630E+03  0.57878519487E+03  0.46999998093E+01 0. -1.
</event>
<event>
 5   0  0.2332791E-04  0.9003240E+03  0.7818609E-02  0.9425177E-01
        1   -1    0    0  501    0  0.00000000000E+00  0.00000000000E+00  0.53105135254E+03  0.53105135256E+03  0.50400001928E-02 0.  1.
       -1   -1    0    0    0  501  0.00000000000E+00  0.00000000000E+00 -0.38159365251E+03  0.38159365254E+03  0.50400001928E-02 0. -1.
    10030    2    1    2    0    0  0.00000000000E+00  0.00000000000E+00  0.14945770003E+03  0.91264500510E+03  0.90032399792E+03 0.  0.
        2    1    3    3  502    0  0.24812870470E+03 -0.34282511202E+03  0.23028546880E+03  0.48179695794E+03  0.25500000920E-02 0.  1.
       -2    1    3    3    0  502 -0.24812870470E+03  0.34282511202E+03 -0.80827768774E+02  0.43084804716E+03  0.25500000920E-02 0. -1.
</event>
<event>
 5   0  0.2450427E-04  0.8999211E+03  0.7818609E-02  0.9425680E-01
       -1   -1    0    0    0  501  0.00000000000E+00  0.00000000000E+00  0.46069265160E+03  0.46069265163E+03  0.50400001928E-02 0. -1.
        1   -1    0    0  501    0  0.00000000000E+00  0.00000000000E+00 -0.43947850716E+03  0.43947850719E+03  0.50400001928E-02 0.  1.
    10030    2    1    2    0    0  0.00000000000E+00  0.00000000000E+00  0.21214144440E+02  0.90017115882E+03  0.89992114946E+03 0.  0.
        3    1    3    3  502    0 -0.39067978495E+03 -0.21340466007E+03 -0.54926510961E+02  0.44854116323E+03  0.10100000352E+00 0.  1.
       -3    1    3    3    0  502  0.39067978495E+03  0.21340466007E+03  0.76140655401E+02  0.45162999559E+03  0.10100000352E+00 0. -1.
</event>
<event>
 5   0  0.2308362E-04  0.8999327E+03  0.7818609E-02  0.9425666E-01
        1   -1    0    0  501    0  0.00000000000E+00  0.00000000000E+00  0.13597428058E+03  0.13597428067E+03  0.50400001928E-02 0. -1.
       -1   -1    0    0    0  501  0.00000000000E+00  0.00000000000E+00 -0.14890294033E+04  0.14890294033E+04  0.50400001928E-02 0.  1.
    10030    2    1    2    0    0  0.00000000000E+00  0.00000000000E+00 -0.13530551227E+04  0.16250036840E+04  0.89993266850E+03 0.  0.
        1    1    3    3  502    0 -0.49248417252E+02 -0.17659054279E+03 -0.14185342532E+04  0.14303317986E+04  0.50400001928E-02 0.  1.
       -1    1    3    3    0  502  0.49248417252E+02  0.17659054279E+03  0.65479130521E+02  0.19467188540E+03  0.50400001928E-02 0. -1.
</event>
<event>
 5   0  0.2332791E-04  0.9001375E+03  0.7818609E-02  0.9425410E-01
        1   -1    0    0  501    0  0.00000000000E+00  0.00000000000E+00  0.51197543387E+03  0.51197543390E+03  0.50400001928E-02 0.  1.
       -1   -1    0    0    0  501  0.00000000000E+00  0.00000000000E+00 -0.39564764204E+03  0.39564764207E+03  0.50400001928E-02 0. -1.
    10030    2    1    2    0    0  0.00000000000E+00  0.00000000000E+00  0.11632779183E+03  0.90762307597E+03  0.90013748555E+03 0.  0.
        2    1    3    3  502    0 -0.25108169048E+03 -0.20229051827E+03  0.37477899640E+03  0.49439130780E+03  0.25500000920E-02 0.  1.
       -2    1    3    3    0  502  0.25108169048E+03  0.20229051827E+03 -0.25845120457E+03  0.41323176817E+03  0.25500000920E-02 0. -1.
</event>
<event>
 5   0  0.4110039E-04  0.8998198E+03  0.7818609E-02  0.9425807E-01
        2   -1    0    0  501    0  0.00000000000E+00  0.00000000000E+00  0.17952476270E+04  0.17952476270E+04  0.25500000920E-02 0. -1.
       -2   -1    0    0    0  501  0.00000000000E+00  0.00000000000E+00 -0.11275263429E+03  0.11275263432E+03  0.25500000920E-02 0.  1.
    10030    2    1    2    0    0  0.00000000000E+00  0.00000000000E+00  0.16824949928E+04  0.19080002614E+04  0.89981975791E+03 0.  0.
        3    1    3    3  502    0 -0.35626664573E+03  0.25716295203E+03  0.10463944427E+04  0.11349008973E+04  0.10100000352E+00 0. -1.
       -3    1    3    3    0  502  0.35626664573E+03 -0.25716295203E+03  0.63610055006E+03  0.77309936408E+03  0.10100000352E+00 0.  1.
</event>
<event>
 5   0  0.2332791E-04  0.8999502E+03  0.7818609E-02  0.9425644E-01
       -1   -1    0    0    0  501  0.00000000000E+00  0.00000000000E+00  0.27108936395E+03  0.27108936400E+03  0.50400001928E-02 0.  1.
        1   -1    0    0  501    0  0.00000000000E+00  0.00000000000E+00 -0.74690346597E+03  0.74690346599E+03  0.50400001928E-02 0. -1.
    10030    2    1    2    0    0  0.00000000000E+00  0.00000000000E+00 -0.47581410202E+03  0.10179928300E+04  0.89995018875E+03 0.  0.
        2    1    3    3  502    0 -0.18903730447E+03 -0.69906685155E+02  0.21717533789E+03  0.29628900504E+03  0.25500000920E-02 0.  1.
       -2    1    3    3    0  502  0.18903730447E+03  0.69906685155E+02 -0.69298943991E+03  0.72170382495E+03  0.25500000920E-02 0. -1.
</event>
<event>
 5   0  0.3959804E-04  0.8998026E+03  0.7818609E-02  0.9425828E-01
       -2   -1    0    0    0  501  0.00000000000E+00  0.00000000000E+00  0.16465977000E+04  0.16465977000E+04  0.25500000920E-02 0. -1.
        2   -1    0    0  501    0  0.00000000000E+00  0.00000000000E+00 -0.12292692165E+03  0.12292692168E+03  0.25500000920E-02 0.  1.
    10030    2    1    2    0    0  0.00000000000E+00  0.00000000000E+00  0.15236707784E+04  0.17695246217E+04  0.89980261498E+03 0.  0.
        5    1    3    3  502    0 -0.27961491566E+03 -0.25201582321E+02  0.70537929619E+02  0.28951219374E+03  0.46999998093E+01 0. -1.
       -5    1    3    3    0  502  0.27961491566E+03  0.25201582321E+02  0.14531328487E+04  0.14800124279E+04  0.46999998093E+01 0.  1.
</event>
<event>
 5   0  0.4243516E-04  0.9003675E+03  0.7818609E-02  0.9425122E-01
       -2   -1    0    0    0  501  0.00000000000E+00  0.00000000000E+00  0.36093067658E+03  0.36093067659E+03  0.25500000920E-02 0. -1.
        2   -1    0    0  501    0  0.00000000000E+00  0.00000000000E+00 -0.56150785151E+03  0.56150785152E+03  0.25500000920E-02 0.  1.
    10030    2    1    2    0    0  0.00000000000E+00  0.00000000000E+00 -0.20057717493E+03  0.92243852811E+03  0.90036749999E+03 0.  0.
        1    1    3    3  502    0 -0.22114926230E+03 -0.36256240472E+03  0.52727601843E+02  0.42794706864E+03  0.50400001928E-02 0. -1.
       -1    1    3    3    0  502  0.22114926230E+03  0.36256240472E+03 -0.25330477677E+03  0.49449145948E+03  0.50400001928E-02 0.  1.
</event>
<event>
 5   0  0.2356918E-04  0.9001619E+03  0.7818609E-02  0.9425379E-01
       -1   -1    0    0    0  501  0.00000000000E+00  0.00000000000E+00  0.19624058752E+03  0.19624058758E+03  0.50400001928E-02 0. -1.
        1   -1    0    0  501    0  0.00000000000E+00  0.00000000000E+00 -0.10322680216E+04  0.10322680216E+04  0.50400001928E-02 0.  1.
    10030    2    1    2    0    0  0.00000000000E+00  0.00000000000E+00 -0.83602743404E+03  0.12285086091E+04  0.90016194781E+03 0.  0.
        5    1    3    3  502    0  0.39347794616E+02 -0.13489994615E+03  0.16549997754E+03  0.21716025643E+03  0.46999998093E+01 0. -1.
       -5    1    3    3    0  502 -0.39347794616E+02  0.13489994615E+03 -0.10015274116E+04  0.10113483527E+04  0.46999998093E+01 0.  1.
</event>
<event>
 5   0  0.2450427E-04  0.9001778E+03  0.7818609E-02  0.9425359E-01
       -1   -1    0    0    0  501  0.00000000000E+00  0.00000000000E+00  0.17379190849E+03  0.17379190857E+03  0.50400001928E-02 0. -1.
        1   -1    0    0  501    0  0.00000000000E+00  0.00000000000E+00 -0.11656469644E+04  0.11656469644E+04  0.50400001928E-02 0.  1.
    10030    2    1    2    0    0  0.00000000000E+00  0.00000000000E+00 -0.99185505589E+03  0.13394388730E+04  0.90017778383E+03 0.  0.
        3    1    3    3  502    0  0.38134283647E+03  0.48105425587E+02 -0.84439097424E+03  0.92775676687E+03  0.10100000352E+00 0.  1.
       -3    1    3    3    0  502 -0.38134283647E+03 -0.48105425587E+02 -0.14746408165E+03  0.41168210609E+03  0.10100000352E+00 0. -1.
</event>
<event>
 5   0  0.2351435E-04  0.8997723E+03  0.7818609E-02  0.9425866E-01
       -1   -1    0    0    0  501  0.00000000000E+00  0.00000000000E+00  0.12618876993E+03  0.12618877003E+03  0.50400001928E-02 0. -1.
        1   -1    0    0  501    0  0.00000000000E+00  0.00000000000E+00 -0.16039266923E+04  0.16039266923E+04  0.50400001928E-02 0.  1.
    10030    2    1    2    0    0  0.00000000000E+00  0.00000000000E+00 -0.14777379224E+04  0.17301154623E+04  0.89977227440E+03 0.  0.
        4    1    3    3  502    0  0.18558267720E+03 -0.47192994618E+02  0.43911871216E+02  0.19646367133E+03  0.12699999809E+01 0. -1.
       -4    1    3    3    0  502 -0.18558267720E+03  0.47192994618E+02 -0.15216497936E+04  0.15336517910E+04  0.12699999809E+01 0.  1.
</event>
<event>
 5   0  0.2356918E-04  0.9043663E+03  0.7818609E-02  0.9420140E-01
       -1   -1    0    0    0  501  0.00000000000E+00  0.00000000000E+00  0.15406862092E+03  0.15406862100E+03  0.50400001928E-02 0. -1.
        1   -1    0    0  501    0  0.00000000000E+00  0.00000000000E+00 -0.13271334056E+04  0.13271334057E+04  0.50400001928E-02 0.  1.
    10030    2    1    2    0    0  0.00000000000E+00  0.00000000000E+00 -0.11730647847E+04  0.14812020267E+04  0.90436632766E+03 0.  0.
        5    1    3    3  502    0 -0.19986760319E+03 -0.16909815421E+03 -0.11903276184E+04  0.12187875835E+04  0.46999998093E+01 0.  1.
       -5    1    3    3    0  502  0.19986760319E+03  0.16909815421E+03  0.17262833665E+02  0.26241444317E+03  0.46999998093E+01 0. -1.
</event>
<event>
 5   0  0.4236284E-04  0.9000212E+03  0.7818609E-02  0.9425555E-01
        2   -1    0    0  501    0  0.00000000000E+00  0.00000000000E+00  0.84985360279E+03  0.84985360280E+03  0.25500000920E-02 0.  1.
       -2   -1    0    0    0  501  0.00000000000E+00  0.00000000000E+00 -0.23828757005E+03  0.23828757007E+03  0.25500000920E-02 0. -1.
    10030    2    1    2    0    0  0.00000000000E+00  0.00000000000E+00  0.61156603274E+03  0.10881411729E+04  0.90002122179E+03 0.  0.
        2    1    3    3  502    0  0.41286685375E+03 -0.13157842723E+03  0.15900997435E+03  0.46157999674E+03  0.25500000920E-02 0. -1.
       -2    1    3    3    0  502 -0.41286685375E+03  0.13157842723E+03  0.45255605839E+03  0.62656117613E+03  0.25500000920E-02 0.  1.
</event>
<event>
 5   0  0.2332791E-04  0.8999602E+03  0.7818609E-02  0.9425631E-01
       -1   -1    0    0    0  501  0.00000000000E+00  0.00000000000E+00  0.36638870594E+03  0.36638870597E+03  0.50400001928E-02 0. -1.
        1   -1    0    0  501    0  0.00000000000E+00  0.00000000000E+00 -0.55264286574E+03  0.55264286577E+03  0.50400001928E-02 0.  1.
    10030    2    1    2    0    0  0.00000000000E+00  0.00000000000E+00 -0.18625415981E+03  0.91903157174E+03  0.89996023124E+03 0.  0.
        2    1    3    3  502    0  0.18484756543E+03  0.82780830788E+02 -0.50346408469E+03  0.54267612161E+03  0.25500000920E-02 0.  1.
       -2    1    3    3    0  502 -0.18484756543E+03 -0.82780830788E+02  0.31720992488E+03  0.37635545013E+03  0.25500000920E-02 0. -1.
</event>
<event>
 5   0  0.3959804E-04  0.8991863E+03  0.7818609E-02  0.9426599E-01
        2   -1    0    0  501    0  0.00000000000E+00  0.00000000000E+00  0.42049218788E+03  0.42049218789E+03  0.25500000920E-02 0.  1.
       -2   -1    0    0    0  501  0.00000000000E+00  0.00000000000E+00 -0.48070812957E+03  0.48070812958E+03  0.25500000920E-02 0. -1.
    10030    2    1    2    0    0  0.00000000000E+00  0.00000000000E+00 -0.60215941697E+02  0.90120031747E+03  0.89918632806E+03 0.  0.
        5    1    3    3  502    0  0.36638437996E+02 -0.23545024362E+03 -0.41218713770E+03  0.47612972901E+03  0.46999998093E+01 0. -1.
       -5    1    3    3    0  502 -0.36638437996E+02  0.23545024362E+03  0.35197119601E+03  0.42507058846E+03  0.46999998093E+01 0.  1.
</event>
<event>
 5   0  0.2308362E-04  0.8995646E+03  0.7818609E-02  0.9426126E-01
       -1   -1    0    0    0  501  0.00000000000E+00  0.00000000000E+00  0.42772867858E+03  0.42772867861E+03  0.50400001928E-02 0.  1.
        1   -1    0    0  501    0  0.00000000000E+00  0.00000000000E+00 -0.47297295248E+03  0.47297295251E+03  0.50400001928E-02 0. -1.
    10030    2    1    2    0    0  0.00000000000E+00  0.00000000000E+00 -0.45244273901E+02  0.90070163111E+03  0.89956455242E+03 0.  0.
        1    1    3    3  502    0 -0.20968374120E+02 -0.24145036624E+03 -0.40200231274E+03  0.46940793724E+03  0.50400001928E-02 0. -1.
       -1    1    3    3    0  502  0.20968374120E+02  0.24145036624E+03  0.35675803884E+03  0.43129369387E+03  0.50400001928E-02 0.  1.
</event>
<event>
 5   0  0.4110039E-04  0.9019487E+03  0.7818609E-02  0.9423149E-01
       -2   -1    0    0    0  501  0.00000000000E+00  0.00000000000E+00  0.14690971250E+03  0.14690971252E+03  0.25500000920E-02 0.  1.
        2   -1    0    0  501    0  0.00000000000E+00  0.00000000000E+00 -0.13843732225E+04  0.13843732225E+04  0.25500000920E-02 0. -1.
    10030    2    1    2    0    0  0.00000000000E+00  0.00000000000E+00 -0.12374635100E+04  0.15312829350E+04  0.90194871723E+03 0.  0.
        3    1    3    3  502    0  0.22460642574E+03  0.24760809583E+03 -0.10484331186E+03  0.35035688354E+03  0.10100000352E+00 0.  1.
       -3    1    3    3    0  502 -0.22460642574E+03 -0.24760809583E+03 -0.11326201982E+04  0.11809260515E+04  0.10100000352E+00 0. -1.
</event>
<event>
 5   0  0.3959804E-04  0.9014731E+03  0.7818609E-02  0.9423742E-01
        2   -1    0    0  501    0  0.00000000000E+00  0.00000000000E+00  0.81514057179E+03  0.81514057180E+03  0.25500000920E-02 0. -1.
       -2   -1    0    0    0  501  0.00000000000E+00  0.00000000000E+00 -0.24923733005E+03  0.24923733007E+03  0.25500000920E-02 0.  1.
    10030    2    1    2    0    0  0.00000000000E+00  0.00000000000E+00  0.56590324174E+03  0.10643779019E+04  0.90147314933E+03 0.  0.
        5    1    3    3  502    0  0.64363902509E+01 -0.40345249875E+03  0.52005391449E+03  0.65825033979E+03  0.46999998093E+01 0. -1.
       -5    1    3    3    0  502 -0.64363902509E+01  0.40345249875E+03  0.45849327252E+02  0.40612756207E+03  0.46999998093E+01 0.  1.
</event>
<event>
 5   0  0.3959804E-04  0.9002679E+03  0.7818609E-02  0.9425247E-01
       -2   -1    0    0    0  501  0.00000000000E+00  0.00000000000E+00  0.25834596574E+03  0.25834596576E+03  0.25500000920E-02 0.  1.
        2   -1    0    0  501    0  0.00000000000E+00  0.00000000000E+00 -0.78429938888E+03  0.78429938889E+03  0.25500000920E-02 0. -1.
    10030    2    1    2    0    0  0.00000000000E+00  0.00000000000E+00 -0.52595342314E+03  0.10426453546E+04  0.90026792248E+03 0.  0.
        5    1    3    3  502    0  0.11768432649E+03  0.30657351752E+03  0.93540878322E+02  0.34148046541E+03  0.46999998093E+01 0.  1.
       -5    1    3    3    0  502 -0.11768432649E+03 -0.30657351752E+03 -0.61949430146E+03  0.70116488923E+03  0.46999998093E+01 0. -1.
</event>
<event>
 5   0  0.4110039E-04  0.8987656E+03  0.7818609E-02  0.9427126E-01
        2   -1    0    0  501    0  0.00000000000E+00  0.00000000000E+00  0.60508031765E+03  0.60508031765E+03  0.25500000920E-02 0.  1.
       -2   -1    0    0    0  501  0.00000000000E+00  0.00000000000E+00 -0.33374889770E+03  0.33374889771E+03  0.25500000920E-02 0. -1.
    10030    2    1    2    0    0  0.00000000000E+00  0.00000000000E+00  0.27133141995E+03  0.93882921536E+03  0.89876557353E+03 0.  0.
        3    1    3    3  502    0 -0.21798316729E+03 -0.20992841925E+03  0.48267621442E+03  0.56970425714E+03  0.10100000352E+00 0.  1.
       -3    1    3    3    0  502  0.21798316729E+03  0.20992841925E+03 -0.21134479447E+03  0.36912495822E+03  0.10100000352E+00 0. -1.
</event>
<event>
 5   0  0.2308362E-04  0.9001274E+03  0.7818609E-02  0.9425422E-01
       -1   -1    0    0    0  501  0.00000000000E+00  0.00000000000E+00  0.89866515923E+02  0.89866516065E+02  0.50400001928E-02 0. -1.
        1   -1    0    0  501    0  0.00000000000E+00  0.00000000000E+00 -0.22539800663E+04  0.22539800663E+04  0.50400001928E-02 0.  1.
    10030    2    1    2    0    0  0.00000000000E+00  0.00000000000E+00 -0.21641135503E+04  0.23438465823E+04  0.90012740362E+03 0.  0.
        1    1    3    3  502    0 -0.11678604683E+03 -0.11115944355E+03  0.12085340356E+02  0.16168320291E+03  0.50400001928E-02 0. -1.
       -1    1    3    3    0  502  0.11678604683E+03  0.11115944355E+03 -0.21761988907E+04  0.21821633794E+04  0.50400001928E-02 0.  1.
</event>
<event>
 5   0  0.2332791E-04  0.9003962E+03  0.7818609E-02  0.9425086E-01
        1   -1    0    0  501    0  0.00000000000E+00  0.00000000000E+00  0.22205541461E+03  0.22205541467E+03  0.50400001928E-02 0.  1.
       -1   -1    0    0    0  501  0.00000000000E+00  0.00000000000E+00 -0.91273757916E+03  0.91273757917E+03  0.50400001928E-02 0. -1.
    10030    2    1    2    0    0  0.00000000000E+00  0.00000000000E+00 -0.69068216455E+03  0.11347929938E+04  0.90039618305E+03 0.  0.
        2    1    3    3  502    0 -0.16367380680E+03  0.14996253538E+03 -0.83896513082E+03  0.86783660201E+03  0.25500000920E-02 0. -1.
       -2    1    3    3    0  502  0.16367380680E+03 -0.14996253538E+03  0.14828296627E+03  0.26695639183E+03  0.25500000920E-02 0.  1.
</event>
<event>
 5   0  0.2356918E-04  0.8998647E+03  0.7818609E-02  0.9425751E-01
       -1   -1    0    0    0  501  0.00000000000E+00  0.00000000000E+00  0.29527896392E+03  0.29527896396E+03  0.50400001928E-02 0.  1.
        1   -1    0    0  501    0  0.00000000000E+00  0.00000000000E+00 -0.68558602628E+03  0.68558602630E+03  0.50400001928E-02 0. -1.
    10030    2    1    2    0    0  0.00000000000E+00  0.00000000000E+00 -0.39030706236E+03  0.98086499026E+03  0.89986472661E+03 0.  0.
        5    1    3    3  502    0  0.35234032091E+03  0.27904668282E+03 -0.21712450633E+03  0.49917521391E+03  0.46999998093E+01 0.  1.
       -5    1    3    3    0  502 -0.35234032091E+03 -0.27904668282E+03 -0.17318255603E+03  0.48168977636E+03  0.46999998093E+01 0. -1.
</event>
<event>
 5   0  0.4236284E-04  0.8999393E+03  0.7818609E-02  0.9425657E-01
        2   -1    0    0  501    0  0.00000000000E+00  0.00000000000E+00  0.12041034234E+04  0.12041034234E+04  0.25500000920E-02 0. -1.
       -2   -1    0    0    0  501  0.00000000000E+00  0.00000000000E+00 -0.16815223157E+03  0.16815223159E+03  0.25500000920E-02 0.  1.
    10030    2    1    2    0    0  0.00000000000E+00  0.00000000000E+00  0.10359511918E+04  0.13722556550E+04  0.89993928172E+03 0.  0.
        2    1    3    3  502    0  0.24483836540E+02  0.12658890955E+03 -0.13938143489E+03  0.18987204816E+03  0.25500000920E-02 0.  1.
       -2    1    3    3    0  502 -0.24483836540E+02 -0.12658890955E+03  0.11753326267E+04  0.11823836068E+04  0.25500000920E-02 0. -1.
</event>
<event>
 5   0  0.2450427E-04  0.8989475E+03  0.7818609E-02  0.9426898E-01
       -1   -1    0    0    0  501  0.00000000000E+00  0.00000000000E+00  0.20507958721E+03  0.20507958727E+03  0.50400001928E-02 0.  1.
        1   -1    0    0  501    0  0.00000000000E+00  0.00000000000E+00 -0.98511350237E+03  0.98511350238E+03  0.50400001928E-02 0. -1.
    10030    2    1    2    0    0  0.00000000000E+00  0.00000000000E+00 -0.78003391516E+03  0.11901930897E+04  0.89894754121E+03 0.  0.
        3    1    3    3  502    0  0.31752945742E+03 -0.31762516575E+03 -0.36648284853E+03  0.57967265825E+03  0.10100000352E+00 0.  1.
       -3    1    3    3    0  502 -0.31752945742E+03  0.31762516575E+03 -0.41355106663E+03  0.61052043140E+03  0.10100000352E+00 0. -1.
</event>
<event>
 5   0  0.2351435E-04  0.9040499E+03  0.7818609E-02  0.9420533E-01
       -1   -1    0    0    0  501  0.00000000000E+00  0.00000000000E+00  0.15491483141E+03  0.15491483149E+03  0.50400001928E-02 0. -1.
        1   -1    0    0  501    0  0.00000000000E+00  0.00000000000E+00 -0.13189605630E+04  0.13189605630E+04  0.50400001928E-02 0.  1.
    10030    2    1    2    0    0  0.00000000000E+00  0.00000000000E+00 -0.11640457316E+04  0.14738753945E+04  0.90404989533E+03 0.  0.
        4    1    3    3  502    0  0.33705431784E+03 -0.22695909563E+03 -0.25920268511E+03  0.48197893018E+03  0.12699999809E+01 0. -1.
       -4    1    3    3    0  502 -0.33705431784E+03  0.22695909563E+03 -0.90484304645E+03  0.99189646429E+03  0.12699999809E+01 0.  1.
</event>
<event>
 5   0  0.4033144E-04  0.9000834E+03  0.7818609E-02  0.9425477E-01
        2   -1    0    0  501    0  0.00000000000E+00  0.00000000000E+00  0.54928602398E+03  0.54928602398E+03  0.25500000920E-02 0. -1.
       -2   -1    0    0    0  501  0.00000000000E+00  0.00000000000E+00 -0.36872871253E+03  0.36872871254E+03  0.25500000920E-02 0.  1.
    10030    2    1    2    0    0  0.00000000000E+00  0.00000000000E+00  0.18055731145E+03  0.91801473652E+03  0.90008339267E+03 0.  0.
        4    1    3    3  502    0 -0.13192698532E+03 -0.12931305200E+03  0.50883118064E+03  0.54132926963E+03  0.12699999809E+01 0. -1.
       -4    1    3    3    0  502  0.13192698532E+03  0.12931305200E+03 -0.32827386919E+03  0.37668546689E+03  0.12699999809E+01 0.  1.
</event>
<event>
 5   0  0.1596250E-04  0.8996069E+03  0.7818609E-02  0.9426073E-01
        3   -1    0    0  501    0  0.00000000000E+00  0.00000000000E+00  0.44892184719E+03  0.44892185856E+03  0.10100000352E+00 0.  1.
       -3   -1    0    0    0  501  0.00000000000E+00  0.00000000000E+00 -0.45068674575E+03  0.45068675706E+03  0.10100000352E+00 0. -1.
    10030    2    1    2    0    0  0.00000000000E+00  0.00000000000E+00 -0.17648985533E+01  0.89960861562E+03  0.89960688438E+03 0.  0.
        1    1    3    3  502    0  0.30386223207E+03  0.15950478448E+03  0.28989139695E+03  0.44923385269E+03  0.50400001928E-02 0.  1.
       -1    1    3    3    0  502 -0.30386223207E+03 -0.15950478448E+03 -0.29165629550E+03  0.45037476293E+03  0.50400001928E-02 0. -1.
</event>
<event>
 5   0  0.2351435E-04  0.8995707E+03  0.7818609E-02  0.9426118E-01
       -1   -1    0    0    0  501  0.00000000000E+00  0.00000000000E+00  0.42739903030E+03  0.42739903033E+03  0.50400001928E-02 0.  1.
        1   -1    0    0  501    0  0.00000000000E+00  0.00000000000E+00 -0.47334417457E+03  0.47334417460E+03  0.50400001928E-02 0. -1.
    10030    2    1    2    0    0  0.00000000000E+00  0.00000000000E+00 -0.45945144271E+02  0.90074320492E+03  0.89957065589E+03 0.  0.
        4    1    3    3  502    0  0.26248636336E+03 -0.13878204202E+03 -0.36126747815E+03  0.46762736213E+03  0.12699999809E+01 0. -1.
       -4    1    3    3    0  502 -0.26248636336E+03  0.13878204202E+03  0.31532233388E+03  0.43311584280E+03  0.12699999809E+01 0.  1.
</event>
<event>
 5   0  0.2351435E-04  0.9002015E+03  0.7818609E-02  0.9425330E-01
        1   -1    0    0  501    0  0.00000000000E+00  0.00000000000E+00  0.51822356724E+03  0.51822356727E+03  0.50400001928E-02 0. -1.
       -1   -1    0    0    0  501  0.00000000000E+00  0.00000000000E+00 -0.39093294752E+03  0.39093294755E+03  0.50400001928E-02 0.  1.
    10030    2    1    2    0    0  0.00000000000E+00  0.00000000000E+00  0.12729061973E+03  0.90915651482E+03  0.90020145888E+03 0.  0.
        4    1    3    3  502    0  0.34027306437E+03  0.25965913494E+02 -0.23275169684E+03  0.41307983766E+03  0.12699999809E+01 0.  1.
       -4    1    3    3    0  502 -0.34027306437E+03 -0.25965913494E+02  0.36004231657E+03  0.49607667716E+03  0.12699999809E+01 0. -1.
</event>
<event>
 5   0  0.2308362E-04  0.8999156E+03  0.7818609E-02  0.9425687E-01
        1   -1    0    0  501    0  0.00000000000E+00  0.00000000000E+00  0.81099088526E+03  0.81099088528E+03  0.50400001928E-02 0. -1.
       -1   -1    0    0    0  501  0.00000000000E+00  0.00000000000E+00 -0.24964774186E+03  0.24964774192E+03  0.50400001928E-02 0.  1.
    10030    2    1    2    0    0  0.00000000000E+00  0.00000000000E+00  0.56134314340E+03  0.10606386272E+04  0.89991564763E+03 0.  0.
        1    1    3    3  502    0 -0.39510335692E+03 -0.20477792090E+03  0.35904064955E+03  0.57179615913E+03  0.50400001928E-02 0. -1.
       -1    1    3    3    0  502  0.39510335692E+03  0.20477792090E+03  0.20230249385E+03  0.48884246806E+03  0.50400001928E-02 0.  1.
</event>
<event>
 5   0  0.4243516E-04  0.9003595E+03  0.7818609E-02  0.9425132E-01
        2   -1    0    0  501    0  0.00000000000E+00  0.00000000000E+00  0.15203794290E+04  0.15203794290E+04  0.25500000920E-02 0. -1.
       -2   -1    0    0    0  501  0.00000000000E+00  0.00000000000E+00 -0.13329686558E+03  0.13329686560E+03  0.25500000920E-02 0.  1.
    10030    2    1    2    0    0  0.00000000000E+00  0.00000000000E+00  0.13870825634E+04  0.16536762946E+04  0.90035951129E+03 0.  0.
        1    1    3    3  502    0 -0.27580975516E+03 -0.12506328660E+03  0.81757259892E+02  0.31368152045E+03  0.50400001928E-02 0.  1.
       -1    1    3    3    0  502  0.27580975516E+03  0.12506328660E+03  0.13053253035E+04  0.13399947741E+04  0.50400001928E-02 0. -1.
</event>
<event>
 5   0  0.2450427E-04  0.8998650E+03  0.7818609E-02  0.9425750E-01
       -1   -1    0    0    0  501  0.00000000000E+00  0.00000000000E+00  0.29808683651E+03  0.29808683655E+03  0.50400001928E-02 0.  1.
        1   -1    0    0  501    0  0.00000000000E+00  0.00000000000E+00 -0.67912840515E+03  0.67912840517E+03  0.50400001928E-02 0. -1.
    10030    2    1    2    0    0  0.00000000000E+00  0.00000000000E+00 -0.38104156865E+03  0.97721524172E+03  0.89986496299E+03 0.  0.
        3    1    3    3  502    0  0.33631808772E+03 -0.29340361213E+03 -0.12867178292E+03  0.46449109104E+03  0.10100000352E+00 0.  1.
       -3    1    3    3    0  502 -0.33631808772E+03  0.29340361213E+03 -0.25236978573E+03  0.51272415068E+03  0.10100000352E+00 0. -1.
</event>
<event>
 5   0  0.4236284E-04  0.9033972E+03  0.7818609E-02  0.9421345E-01
        2   -1    0    0  501    0  0.00000000000E+00  0.00000000000E+00  0.49426988270E+03  0.49426988271E+03  0.25500000920E-02 0.  1.
       -2   -1    0    0    0  501  0.00000000000E+00  0.00000000000E+00 -0.41279393266E+03  0.41279393267E+03  0.25500000920E-02 0. -1.
    10030    2    1    2    0    0  0.00000000000E+00  0.00000000000E+00  0.81475950041E+02  0.90706381538E+03  0.90339716334E+03 0.  0.
        2    1    3    3  502    0  0.22729643775E+03 -0.33121413402E+03  0.24813173458E+03  0.47216081042E+03  0.25500000920E-02 0. -1.
       -2    1    3    3    0  502 -0.22729643775E+03  0.33121413402E+03 -0.16665578454E+03  0.43490300495E+03  0.25500000920E-02 0.  1.
</event>
<event>
 5   0  0.4110039E-04  0.9003588E+03  0.7818609E-02  0.9425133E-01
       -2   -1    0    0    0  501  0.00000000000E+00  0.00000000000E+00  0.15565438716E+03  0.15565438718E+03  0.25500000920E-02 0.  1.
        2   -1    0    0  501    0  0.00000000000E+00  0.00000000000E+00 -0.13019967186E+04  0.13019967186E+04  0.25500000920E-02 0. -1.
    10030    2    1    2    0    0  0.00000000000E+00  0.00000000000E+00 -0.11463423314E+04  0.14576511057E+04  0.90035882030E+03 0.  0.
        3    1    3    3  502    0  0.10370261197E+03 -0.43291650207E+03 -0.46468151932E+03  0.64350590836E+03  0.10100000352E+00 0. -1.
       -3    1    3    3    0  502 -0.10370261197E+03  0.43291650207E+03 -0.68166081209E+03  0.81414519739E+03  0.10100000352E+00 0.  1.
</event>
<event>
 5   0  0.1596250E-04  0.9000518E+03  0.7818609E-02  0.9425517E-01
        3   -1    0    0  501    0  0.00000000000E+00  0.00000000000E+00  0.13953586456E+04  0.13953586492E+04  0.10100000352E+00 0. -1.
       -3   -1    0    0    0  501  0.00000000000E+00  0.00000000000E+00 -0.14514065513E+03  0.14514069027E+03  0.10100000352E+00 0.  1.
    10030    2    1    2    0    0  0.00000000000E+00  0.00000000000E+00  0.12502179905E+04  0.15404993395E+04  0.90005177151E+03 0.  0.
        2    1    3    3  502    0  0.57440280636E+02 -0.37374876591E+03  0.20748733063E+03  0.43132182676E+03  0.25500000920E-02 0.  1.
       -2    1    3    3    0  502 -0.57440280636E+02  0.37374876591E+03  0.10427306598E+04  0.11091775128E+04  0.25500000920E-02 0. -1.
</event>
<event>
 5   0  0.2356918E-04  0.9001092E+03  0.7818609E-02  0.9425445E-01
        1   -1    0    0  501    0  0.00000000000E+00  0.00000000000E+00  0.90957503116E+03  0.90957503118E+03  0.50400001928E-02 0.  1.
       -1   -1    0    0    0  501  0.00000000000E+00  0.00000000000E+00 -0.22268546739E+03  0.22268546745E+03  0.50400001928E-02 0. -1.
    10030    2    1    2    0    0  0.00000000000E+00  0.00000000000E+00  0.68688956377E+03  0.11322604986E+04  0.90010919556E+03 0.  0.
        5    1    3    3  502    0 -0.33211088432E+03 -0.27344363786E+03  0.17723818464E+03  0.46530046922E+03  0.46999998093E+01 0. -1.
       -5    1    3    3    0  502  0.33211088432E+03  0.27344363786E+03  0.50965137914E+03  0.66696002940E+03  0.46999998093E+01 0.  1.
</event>
<event>
 5   0  0.4033144E-04  0.9000589E+03  0.7818609E-02  0.9425508E-01
       -2   -1    0    0    0  501  0.00000000000E+00  0.00000000000E+00  0.22625352057E+03  0.22625352059E+03  0.25500000920E-02 0. -1.
        2   -1    0    0  501    0  0.00000000000E+00  0.00000000000E+00 -0.89513090588E+03  0.89513090588E+03  0.25500000920E-02 0.  1.
    10030    2    1    2    0    0  0.00000000000E+00  0.00000000000E+00 -0.66887738531E+03  0.11213844265E+04  0.90005892882E+03 0.  0.
        4    1    3    3  502    0 -0.42224688054E+03  0.15113977757E+03 -0.28800073973E+03  0.53299315144E+03  0.12699999809E+01 0. -1.
       -4    1    3    3    0  502  0.42224688054E+03 -0.15113977757E+03 -0.38087664557E+03  0.58839127503E+03  0.12699999809E+01 0.  1.
</event>
<event>
 5   0  0.4033144E-04  0.8998697E+03  0.7818609E-02  0.9425744E-01
       -2   -1    0    0    0  501  0.00000000000E+00  0.00000000000E+00  0.23628414253E+03  0.23628414255E+03  0.25500000920E-02 0. -1.
        2   -1    0    0  501    0  0.00000000000E+00  0.00000000000E+00 -0.85677087089E+03  0.85677087090E+03  0.25500000920E-02 0.  1.
    10030    2    1    2    0    0  0.00000000000E+00  0.00000000000E+00 -0.62048672836E+03  0.10930550134E+04  0.89986970298E+03 0.  0.
        4    1    3    3  502    0  0.18393836679E+03  0.26719124412E+03 -0.68897330729E+03  0.76151842707E+03  0.12699999809E+01 0. -1.
       -4    1    3    3    0  502 -0.18393836679E+03 -0.26719124412E+03  0.68486578929E+02  0.33153658637E+03  0.12699999809E+01 0.  1.
</event>
<event>
 5   0  0.4236284E-04  0.9002695E+03  0.7818609E-02  0.9425245E-01
       -2   -1    0    0    0  501  0.00000000000E+00  0.00000000000E+00  0.18184631751E+03  0.18184631753E+03  0.25500000920E-02 0.  1.
        2   -1    0    0  501    0  0.00000000000E+00  0.00000000000E+00 -0.11142447589E+04  0.11142447589E+04  0.25500000920E-02 0. -1.
    10030    2    1    2    0    0  0.00000000000E+00  0.00000000000E+00 -0.93239844137E+03  0.12960910764E+04  0.90026952902E+03 0.  0.
        2    1    3    3  502    0 -0.23138511642E+03  0.15145023411E+03  0.45127036134E+02  0.28020116865E+03  0.25500000920E-02 0.  1.
       -2    1    3    3    0  502  0.23138511642E+03 -0.15145023411E+03 -0.97752547751E+03  0.10158899078E+04  0.25500000920E-02 0. -1.
</event>
<event>
 5   0  0.2450427E-04  0.9002513E+03  0.7818609E-02  0.9425267E-01
        1   -1    0    0  501    0  0.00000000000E+00  0.00000000000E+00  0.11510373514E+04  0.11510373514E+04  0.50400001928E-02 0. -1.
       -1   -1    0    0    0  501  0.00000000000E+00  0.00000000000E+00 -0.17602651675E+03  0.17602651682E+03  0.50400001928E-02 0.  1.
    10030    2    1    2    0    0  0.00000000000E+00  0.00000000000E+00  0.97501083465E+03  0.13270638682E+04  0.90025128862E+03 0.  0.
        3    1    3    3  502    0  0.12348279409E+03  0.41741134597E+03  0.31857509162E+03  0.53941665842E+03  0.10100000352E+00 0.  1.
       -3    1    3    3    0  502 -0.12348279409E+03 -0.41741134597E+03  0.65643574303E+03  0.78764720980E+03  0.10100000352E+00 0. -1.
</event>
<event>
 5   0  0.4110039E-04  0.9000382E+03  0.7818609E-02  0.9425534E-01
       -2   -1    0    0    0  501  0.00000000000E+00  0.00000000000E+00  0.16772450985E+03  0.16772450987E+03  0.25500000920E-02 0.  1.
        2   -1    0    0  501    0  0.00000000000E+00  0.00000000000E+00 -0.12074394747E+04  0.12074394747E+04  0.25500000920E-02 0. -1.
    10030    2    1    2    0    0  0.00000000000E+00  0.00000000000E+00 -0.10397149649E+04  0.13751639846E+04  0.90003820827E+03 0.  0.
        3    1    3    3  502    0 -0.37194545088E+03 -0.19899271174E+03 -0.75937991433E+03  0.86867679965E+03  0.10100000352E+00 0. -1.
       -3    1    3    3    0  502  0.37194545088E+03  0.19899271174E+03 -0.28033505056E+03  0.50648718496E+03  0.10100000352E+00 0.  1.
</event>
<event>
 5   0  0.2356918E-04  0.9005226E+03  0.7818609E-02  0.9424928E-01
       -1   -1    0    0    0  501  0.00000000000E+00  0.00000000000E+00  0.60284634718E+03  0.60284634720E+03  0.50400001928E-02 0.  1.
        1   -1    0    0  501    0  0.00000000000E+00  0.00000000000E+00 -0.33629667890E+03  0.33629667893E+03  0.50400001928E-02 0. -1.
    10030    2    1    2    0    0  0.00000000000E+00  0.00000000000E+00  0.26654966828E+03  0.93914302613E+03  0.90052256933E+03 0.  0.
        5    1    3    3  502    0 -0.28273156918E+03 -0.22198709941E+03 -0.14945658644E+03  0.38932605069E+03  0.46999998093E+01 0. -1.
       -5    1    3    3    0  502  0.28273156918E+03  0.22198709941E+03  0.41600625473E+03  0.54981697544E+03  0.46999998093E+01 0.  1.
</event>
<event>
 5   0  0.2450427E-04  0.8999252E+03  0.7818609E-02  0.9425675E-01
        1   -1    0    0  501    0  0.00000000000E+00  0.00000000000E+00  0.59723439825E+03  0.59723439827E+03  0.50400001928E-02 0.  1.
       -1   -1    0    0    0  501  0.00000000000E+00  0.00000000000E+00 -0.33900652677E+03  0.33900652681E+03  0.50400001928E-02 0. -1.
    10030    2    1    2    0    0  0.00000000000E+00  0.00000000000E+00  0.25822787147E+03  0.93624092508E+03  0.89992523922E+03 0.  0.
        3    1    3    3  502    0  0.11899494991E+03 -0.33691610930E+03  0.41363525827E+03  0.54659527980E+03  0.10100000352E+00 0.  1.
       -3    1    3    3    0  502 -0.11899494991E+03  0.33691610930E+03 -0.15540738680E+03  0.38964564528E+03  0.10100000352E+00 0. -1.
</event>
<event>
 5   0  0.2356918E-04  0.8995980E+03  0.7818609E-02  0.9426084E-01
       -1   -1    0    0    0  501  0.00000000000E+00  0.00000000000E+00  0.44041378666E+03  0.44041378669E+03  0.50400001928E-02 0. -1.
        1   -1    0    0  501    0  0.00000000000E+00  0.00000000000E+00 -0.45938416393E+03  0.45938416396E+03  0.50400001928E-02 0.  1.
    10030    2    1    2    0    0  0.00000000000E+00  0.00000000000E+00 -0.18970377274E+02  0.89979795065E+03  0.89959795285E+03 0.  0.
        5    1    3    3  502    0 -0.20298906381E+02  0.18268243244E+03  0.40110834239E+03  0.44124246062E+03  0.46999998093E+01 0. -1.
       -5    1    3    3    0  502  0.20298906381E+02 -0.18268243244E+03 -0.42007871966E+03  0.45855549003E+03  0.46999998093E+01 0.  1.
</event>
<event>
 5   0  0.4033144E-04  0.8994380E+03  0.7818609E-02  0.9426284E-01
        2   -1    0    0  501    0  0.00000000000E+00  0.00000000000E+00  0.42029720299E+03  0.42029720300E+03  0.25500000920E-02 0.  1.
       -2   -1    0    0    0  501  0.00000000000E+00  0.00000000000E+00 -0.48120043802E+03  0.48120043802E+03  0.25500000920E-02 0. -1.
    10030    2    1    2    0    0  0.00000000000E+00  0.00000000000E+00 -0.60903235023E+02  0.90149764102E+03  0.89943804274E+03 0.  0.
        4    1    3    3  502    0  0.17955586834E+02  0.24068465504E+03 -0.41078606266E+03  0.47644339479E+03  0.12699999809E+01 0. -1.
       -4    1    3    3    0  502 -0.17955586834E+02 -0.24068465504E+03  0.34988282763E+03  0.42505424623E+03  0.12699999809E+01 0.  1.
</event>
<event>
 5   0  0.2351435E-04  0.9000627E+03  0.7818609E-02  0.9425503E-01
        1   -1    0    0  501    0  0.00000000000E+00  0.00000000000E+00  0.17595376926E+04  0.17595376926E+04  0.50400001928E-02 0.  1.
       -1   -1    0    0    0  501  0.00000000000E+00  0.00000000000E+00 -0.11510307528E+03  0.11510307539E+03  0.50400001928E-02 0. -1.
    10030    2    1    2    0    0  0.00000000000E+00  0.00000000000E+00  0.16444346173E+04  0.18746407680E+04  0.90006266361E+03 0.  0.
        4    1    3    3  502    0 -0.29921080580E+03  0.32478068233E+03  0.10027963163E+04  0.10957242640E+04  0.12699999809E+01 0.  1.
       -4    1    3    3    0  502  0.29921080580E+03 -0.32478068233E+03  0.64163830107E+03  0.77891650402E+03  0.12699999809E+01 0. -1.
</event>
<event>
 5   0  0.2450427E-04  0.9063898E+03  0.7818609E-02  0.9417629E-01
       -1   -1    0    0    0  501  0.00000000000E+00  0.00000000000E+00  0.25521796960E+03  0.25521796965E+03  0.50400001928E-02 0.  1.
        1   -1    0    0  501    0  0.00000000000E+00  0.00000000000E+00 -0.80474593207E+03  0.80474593208E+03  0.50400001928E-02 0. -1.
    10030    2    1    2    0    0  0.00000000000E+00  0.00000000000E+00 -0.54952796247E+03  0.10599639017E+04  0.90638981208E+03 0.  0.
        3    1    3    3  502    0  0.18277126912E+03  0.41354141890E+03 -0.31106868666E+03  0.54880377184E+03  0.10100000352E+00 0. -1.
       -3    1    3    3    0  502 -0.18277126912E+03 -0.41354141890E+03 -0.23845927581E+03  0.51116012989E+03  0.10100000352E+00 0.  1.
</event>
<event>
 5   0  0.4236284E-04  0.9000617E+03  0.7818609E-02  0.9425504E-01
        2   -1    0    0  501    0  0.00000000000E+00  0.00000000000E+00  0.42176751958E+03  0.42176751959E+03  0.25500000920E-02 0.  1.
       -2   -1    0    0    0  501  0.00000000000E+00  0.00000000000E+00 -0.48018810215E+03  0.48018810216E+03  0.25500000920E-02 0. -1.
    10030    2    1    2    0    0  0.00000000000E+00  0.00000000000E+00 -0.58420582571E+02  0.90195562175E+03  0.90006165296E+03 0.  0.
        2    1    3    3  502    0 -0.27679340940E+03  0.35257939307E+03 -0.69306045443E+02  0.45357485363E+03  0.25500000920E-02 0.  1.
       -2    1    3    3    0  502  0.27679340940E+03 -0.35257939307E+03  0.10885462872E+02  0.44838076811E+03  0.25500000920E-02 0. -1.
</event>
<event>
 5   0  0.2450427E-04  0.8998985E+03  0.7818609E-02  0.9425708E-01
        1   -1    0    0  501    0  0.00000000000E+00  0.00000000000E+00  0.53875745574E+03  0.53875745576E+03  0.50400001928E-02 0.  1.
       -1   -1    0    0    0  501  0.00000000000E+00  0.00000000000E+00 -0.37578009084E+03  0.37578009087E+03  0.50400001928E-02 0. -1.
    10030    2    1    2    0    0  0.00000000000E+00  0.00000000000E+00  0.16297736490E+03  0.91453754663E+03  0.89989849579E+03 0.  0.
        3    1    3    3  502    0  0.37856813240E+03 -0.61557773370E+02  0.32058409368E+03  0.49987734661E+03  0.10100000352E+00 0.  1.
       -3    1    3    3    0  502 -0.37856813240E+03  0.61557773370E+02 -0.15760672878E+03  0.41466020003E+03  0.10100000352E+00 0. -1.
</event>
<event>
 5   0  0.4033144E-04  0.9002380E+03  0.7818609E-02  0.9425284E-01
        2   -1    0    0  501    0  0.00000000000E+00  0.00000000000E+00  0.14946484989E+04  0.14946484989E+04  0.25500000920E-02 0.  1.
       -2   -1    0    0    0  501  0.00000000000E+00  0.00000000000E+00 -0.13555501678E+03  0.13555501681E+03  0.25500000920E-02 0. -1.
    10030    2    1    2    0    0  0.00000000000E+00  0.00000000000E+00  0.13590934821E+04  0.16302035157E+04  0.90023797381E+03 0.  0.
        4    1    3    3  502    0 -0.52188657622E+02  0.42844581439E+03  0.44823824766E+03  0.62226088694E+03  0.12699999809E+01 0. -1.
       -4    1    3    3    0  502  0.52188657622E+02 -0.42844581439E+03  0.91085523441E+03  0.10079426287E+04  0.12699999809E+01 0.  1.
</event>
<event>
 5   0  0.4243516E-04  0.8997225E+03  0.7818609E-02  0.9425928E-01
        2   -1    0    0  501    0  0.00000000000E+00  0.00000000000E+00  0.58902272286E+03  0.58902272286E+03  0.25500000920E-02 0.  1.
       -2   -1    0    0    0  501  0.00000000000E+00  0.00000000000E+00 -0.34357780009E+03  0.34357780010E+03  0.25500000920E-02 0. -1.
    10030    2    1    2    0    0  0.00000000000E+00  0.00000000000E+00  0.24544492277E+03  0.93260052296E+03  0.89972247127E+03 0.  0.
        1    1    3    3  502    0 -0.33023676010E+03  0.14609683226E+03 -0.15536185990E+03  0.39311310033E+03  0.50400001928E-02 0. -1.
       -1    1    3    3    0  502  0.33023676010E+03 -0.14609683226E+03  0.40080678267E+03  0.53948742263E+03  0.50400001928E-02 0.  1.
</event>
<event>
 5   0  0.4110039E-04  0.8998862E+03  0.7818609E-02  0.9425724E-01
        2   -1    0    0  501    0  0.00000000000E+00  0.00000000000E+00  0.13271853120E+04  0.13271853120E+04  0.25500000920E-02 0.  1.
       -2   -1    0    0    0  501  0.00000000000E+00  0.00000000000E+00 -0.15253996517E+03  0.15253996519E+03  0.25500000920E-02 0. -1.
    10030    2    1    2    0    0  0.00000000000E+00  0.00000000000E+00  0.11746453468E+04  0.14797252772E+04  0.89988621789E+03 0.  0.
        3    1    3    3  502    0  0.40608514746E+03 -0.17097191530E+03  0.43740503046E+03  0.62085401962E+03  0.10100000352E+00 0.  1.
       -3    1    3    3    0  502 -0.40608514746E+03  0.17097191530E+03  0.73724031639E+03  0.85887125759E+03  0.10100000352E+00 0. -1.
</event>
<event>
 5   0  0.4110039E-04  0.9000184E+03  0.7818609E-02  0.9425558E-01
        2   -1    0    0  501    0  0.00000000000E+00  0.00000000000E+00  0.49200377525E+03  0.49200377526E+03  0.25500000920E-02 0. -1.
       -2   -1    0    0    0  501  0.00000000000E+00  0.00000000000E+00 -0.41159906456E+03  0.41159906457E+03  0.25500000920E-02 0.  1.
    10030    2    1    2    0    0  0.00000000000E+00  0.00000000000E+00  0.80404710691E+02  0.90360283983E+03  0.90001843017E+03 0.  0.
        3    1    3    3  502    0  0.16574358845E+03 -0.19774853287E+03 -0.32995673404E+03  0.41886379159E+03  0.10100000352E+00 0.  1.
       -3    1    3    3    0  502 -0.16574358845E+03  0.19774853287E+03  0.41036144473E+03  0.48473904824E+03  0.10100000352E+00 0. -1.
</event>
<event>
 5   0  0.3959804E-04  0.9001756E+03  0.7818609E-02  0.9425362E-01
       -2   -1    0    0    0  501  0.00000000000E+00  0.00000000000E+00  0.34340315696E+03  0.34340315697E+03  0.25500000920E-02 0. -1.
        2   -1    0    0  501    0  0.00000000000E+00  0.00000000000E+00 -0.58991603686E+03  0.58991603686E+03  0.25500000920E-02 0.  1.
    10030    2    1    2    0    0  0.00000000000E+00  0.00000000000E+00 -0.24651287989E+03  0.93331919384E+03  0.90017560377E+03 0.  0.
        5    1    3    3  502    0 -0.23193816209E+03 -0.73272353725E+00  0.27664009098E+03  0.36103694804E+03  0.46999998093E+01 0. -1.
       -5    1    3    3    0  502  0.23193816209E+03  0.73272353725E+00 -0.52315297087E+03  0.57228224579E+03  0.46999998093E+01 0.  1.
</event>
<event>
 5   0  0.2450427E-04  0.8999412E+03  0.7818609E-02  0.9425655E-01
        1   -1    0    0  501    0  0.00000000000E+00  0.00000000000E+00  0.48914275061E+03  0.48914275064E+03  0.50400001928E-02 0. -1.
       -1   -1    0    0    0  501  0.00000000000E+00  0.00000000000E+00 -0.41393545786E+03  0.41393545789E+03  0.50400001928E-02 0.  1.
    10030    2    1    2    0    0  0.00000000000E+00  0.00000000000E+00  0.75207292754E+02  0.90307820853E+03  0.89994117243E+03 0.  0.
        3    1    3    3  502    0 -0.41375598769E+03 -0.54804609730E+02  0.20634436235E+03  0.46559163295E+03  0.10100000352E+00 0. -1.
       -3    1    3    3    0  502  0.41375598769E+03  0.54804609730E+02 -0.13113706960E+03  0.43748657559E+03  0.10100000352E+00 0.  1.
</event>
<event>
 5   0  0.2351435E-04  0.8998794E+03  0.7818609E-02  0.9425732E-01
        1   -1    0    0  501    0  0.00000000000E+00  0.00000000000E+00  0.46715654077E+03  0.46715654080E+03  0.50400001928E-02 0.  1.
       -1   -1    0    0    0  501  0.00000000000E+00  0.00000000000E+00 -0.43335739763E+03  0.43335739766E+03  0.50400001928E-02 0. -1.
    10030    2    1    2    0    0  0.00000000000E+00  0.00000000000E+00  0.33799143140E+02  0.90051393846E+03  0.89987942041E+03 0.  0.
        4    1    3    3  502    0  0.83922478912E+02  0.41491607814E+03  0.16947279665E+03  0.45598352609E+03  0.12699999809E+01 0.  1.
       -4    1    3    3    0  502 -0.83922478912E+02 -0.41491607814E+03 -0.13567365351E+03  0.44453041237E+03  0.12699999809E+01 0. -1.
</event>
<event>
 5   0  0.4033144E-04  0.9005670E+03  0.7818609E-02  0.9424873E-01
       -2   -1    0    0    0  501  0.00000000000E+00  0.00000000000E+00  0.11478512018E+03  0.11478512021E+03  0.25500000920E-02 0.  1.
        2   -1    0    0  501    0  0.00000000000E+00  0.00000000000E+00 -0.17663896688E+04  0.17663896688E+04  0.25500000920E-02 0. -1.
    10030    2    1    2    0    0  0.00000000000E+00  0.00000000000E+00 -0.16516045487E+04  0.18811747891E+04  0.90056704459E+03 0.  0.
        4    1    3    3  502    0  0.19797762094E+03  0.12051467449E+03 -0.16322139673E+04  0.16485881757E+04  0.12699999809E+01 0. -1.
       -4    1    3    3    0  502 -0.19797762094E+03 -0.12051467449E+03 -0.19390581365E+02  0.23258661334E+03  0.12699999809E+01 0.  1.
</event>
<event>
 5   0  0.2450427E-04  0.8999207E+03  0.7818609E-02  0.9425681E-01
       -1   -1    0    0    0  501  0.00000000000E+00  0.00000000000E+00  0.93064211455E+03  0.93064211456E+03  0.50400001928E-02 0.  1.
        1   -1    0    0  501    0  0.00000000000E+00  0.00000000000E+00 -0.21755334950E+03  0.21755334956E+03  0.50400001928E-02 0. -1.
    10030    2    1    2    0    0  0.00000000000E+00  0.00000000000E+00  0.71308876504E+03  0.11481954641E+04  0.89992068372E+03 0.  0.
        3    1    3    3  502    0  0.35592674138E+03  0.20569180236E+03  0.58996978620E+03  0.71906697993E+03  0.10100000352E+00 0.  1.
       -3    1    3    3    0  502 -0.35592674138E+03 -0.20569180236E+03  0.12311897885E+03  0.42912848419E+03  0.10100000352E+00 0. -1.
</event>
<event>
 5   0  0.2332791E-04  0.8995347E+03  0.7818609E-02  0.9426163E-01
        1   -1    0    0  501    0  0.00000000000E+00  0.00000000000E+00  0.17863054442E+04  0.17863054442E+04  0.50400001928E-02 0. -1.
       -1   -1    0    0    0  501  0.00000000000E+00  0.00000000000E+00 -0.11324529391E+03  0.11324529402E+03  0.50400001928E-02 0.  1.
    10030    2    1    2    0    0  0.00000000000E+00  0.00000000000E+00  0.16730601503E+04  0.18995507382E+04  0.89953473565E+03 0.  0.
        2    1    3    3  502    0  0.18159345771E+03 -0.26352225550E+03  0.16918321695E+03  0.36199878996E+03  0.25500000920E-02 0.  1.
       -2    1    3    3    0  502 -0.18159345771E+03  0.26352225550E+03  0.15038769333E+04  0.15375519483E+04  0.25500000920E-02 0. -1.
</event>
<event>
 5   0  0.2450427E-04  0.8998809E+03  0.7818609E-02  0.9425730E-01
        1   -1    0    0  501    0  0.00000000000E+00  0.00000000000E+00  0.60790208469E+03  0.60790208471E+03  0.50400001928E-02 0. -1.
       -1   -1    0    0    0  501  0.00000000000E+00  0.00000000000E+00 -0.33302469816E+03  0.33302469820E+03  0.50400001928E-02 0.  1.
    10030    2    1    2    0    0  0.00000000000E+00  0.00000000000E+00  0.27487738653E+03  0.94092678291E+03  0.89988089944E+03 0.  0.
        3    1    3    3  502    0  0.31961528898E+03  0.24569530282E+03 -0.71491034790E+02  0.40942776290E+03  0.10100000352E+00 0.  1.
       -3    1    3    3    0  502 -0.31961528898E+03 -0.24569530282E+03  0.34636842132E+03  0.53149902001E+03  0.10100000352E+00 0. -1.
</event>
<event>
 5   0  0.2450427E-04  0.9007403E+03  0.7818609E-02  0.9424657E-01
        1   -1    0    0  501    0  0.00000000000E+00  0.00000000000E+00  0.70981988688E+03  0.70981988690E+03  0.50400001928E-02 0.  1.
       -1   -1    0    0    0  501  0.00000000000E+00  0.00000000000E+00 -0.28575314647E+03  0.28575314652E+03  0.50400001928E-02 0. -1.
    10030    2    1    2    0    0  0.00000000000E+00  0.00000000000E+00  0.42406674041E+03  0.99557303342E+03  0.90074028696E+03 0.  0.
        3    1    3    3  502    0  0.23883183700E+03 -0.46858787690E+02  0.63087130939E+03  0.67619154946E+03  0.10100000352E+00 0.  1.
       -3    1    3    3    0  502 -0.23883183700E+03  0.46858787690E+02 -0.20680456898E+03  0.31938148396E+03  0.10100000352E+00 0. -1.
</event>
<event>
 5   0  0.2356918E-04  0.9002400E+03  0.7818609E-02  0.9425282E-01
        1   -1    0    0  501    0  0.00000000000E+00  0.00000000000E+00  0.13983803278E+04  0.13983803279E+04  0.50400001928E-02 0. -1.
       -1   -1    0    0    0  501  0.00000000000E+00  0.00000000000E+00 -0.14488761632E+03  0.14488761640E+03  0.50400001928E-02 0.  1.
    10030    2    1    2    0    0  0.00000000000E+00  0.00000000000E+00  0.12534927115E+04  0.15432679443E+04  0.90023995130E+03 0.  0.
        5    1    3    3  502    0 -0.39224900110E+03 -0.18734996815E+03  0.82686014462E+03  0.93417293806E+03  0.46999998093E+01 0. -1.
       -5    1    3    3    0  502  0.39224900110E+03  0.18734996815E+03  0.42663256691E+03  0.60909500620E+03  0.46999998093E+01 0.  1.
</event>
<event>
 5   0  0.2332791E-04  0.9002797E+03  0.7818609E-02  0.9425232E-01
       -1   -1    0    0    0  501  0.00000000000E+00  0.00000000000E+00  0.11533859665E+03  0.11533859676E+03  0.50400001928E-02 0. -1.
        1   -1    0    0  501    0  0.00000000000E+00  0.00000000000E+00 -0.17567914942E+04  0.17567914942E+04  0.50400001928E-02 0.  1.
    10030    2    1    2    0    0  0.00000000000E+00  0.00000000000E+00 -0.16414528975E+04  0.18721300910E+04  0.90027965801E+03 0.  0.
        2    1    3    3  502    0 -0.74134764112E+02 -0.19010367060E+03 -0.16550964993E+04  0.16676269939E+04  0.25500000920E-02 0.  1.
       -2    1    3    3    0  502  0.74134764112E+02  0.19010367060E+03  0.13643601765E+02  0.20450309704E+03  0.25500000920E-02 0. -1.
</event>
<event>
 5   0  0.1596250E-04  0.9000025E+03  0.7818609E-02  0.9425578E-01
       -3   -1    0    0    0  501  0.00000000000E+00  0.00000000000E+00  0.90609771890E+03  0.90609772453E+03  0.10100000352E+00 0.  1.
        3   -1    0    0  501    0  0.00000000000E+00  0.00000000000E+00 -0.22348705688E+03  0.22348707970E+03  0.10100000352E+00 0. -1.
    10030    2    1    2    0    0  0.00000000000E+00  0.00000000000E+00  0.68261066202E+03  0.11295848042E+04  0.90000250781E+03 0.  0.
        2    1    3    3  502    0  0.37471607741E+03 -0.33586322587E+02  0.65119063492E+03  0.75205679489E+03  0.25500000920E-02 0.  1.
       -2    1    3    3    0  502 -0.37471607741E+03  0.33586322587E+02  0.31420027106E+02  0.37752800935E+03  0.25500000920E-02 0. -1.
</event>
<event>
 5   0  0.1596250E-04  0.8999960E+03  0.7818609E-02  0.9425586E-01
        4   -1    0    0  501    0  0.00000000000E+00  0.00000000000E+00  0.40172238090E+03  0.40172438838E+03  0.12699999809E+01 0. -1.
       -4   -1    0    0    0  501  0.00000000000E+00  0.00000000000E+00 -0.50407087250E+03  0.50407247237E+03  0.12699999809E+01 0.  1.
    10030    2    1    2    0    0  0.00000000000E+00  0.00000000000E+00 -0.10234849160E+03  0.90579686075E+03  0.89999596622E+03 0.  0.
        5    1    3    3  502    0  0.28533379162E+00  0.12015442677E+03 -0.48760377792E+03  0.50221180983E+03  0.46999998093E+01 0.  1.
       -5    1    3    3    0  502 -0.28533379162E+00 -0.12015442677E+03  0.38525528632E+03  0.40358505092E+03  0.46999998093E+01 0. -1.
</event>
<event>
 5   0  0.3959804E-04  0.9005140E+03  0.7818609E-02  0.9424939E-01
        2   -1    0    0  501    0  0.00000000000E+00  0.00000000000E+00  0.16690534563E+04  0.16690534563E+04  0.25500000920E-02 0. -1.
       -2   -1    0    0    0  501  0.00000000000E+00  0.00000000000E+00 -0.12146486298E+03  0.12146486300E+03  0.25500000920E-02 0.  1.
    10030    2    1    2    0    0  0.00000000000E+00  0.00000000000E+00  0.15475885934E+04  0.17905183193E+04  0.90051396303E+03 0.  0.
        5    1    3    3  502    0  0.16907825640E+03  0.36353831096E+02  0.16003277575E+04  0.16096521609E+04  0.46999998093E+01 0. -1.
       -5    1    3    3    0  502 -0.16907825640E+03 -0.36353831096E+02 -0.52739164135E+02  0.18086615840E+03  0.46999998093E+01 0.  1.
</event>
<event>
 5   0  0.2308362E-04  0.8999181E+03  0.7818609E-02  0.9425684E-01
        1   -1    0    0  501    0  0.00000000000E+00  0.00000000000E+00  0.49045708571E+03  0.49045708573E+03  0.50400001928E-02 0. -1.
       -1   -1    0    0    0  501  0.00000000000E+00  0.00000000000E+00 -0.41280501784E+03  0.41280501787E+03  0.50400001928E-02 0.  1.
    10030    2    1    2    0    0  0.00000000000E+00  0.00000000000E+00  0.77652067873E+02  0.90326210360E+03  0.89991809858E+03 0.  0.
        1    1    3    3  502    0  0.27124952671E+03  0.20796394933E+03  0.33255288270E+03  0.47688230180E+03  0.50400001928E-02 0. -1.
       -1    1    3    3    0  502 -0.27124952671E+03 -0.20796394933E+03 -0.25490081482E+03  0.42637980180E+03  0.50400001928E-02 0.  1.
</event>
<event>
 5   0  0.3959804E-04  0.9000048E+03  0.7818609E-02  0.9425575E-01
        2   -1    0    0  501    0  0.00000000000E+00  0.00000000000E+00  0.68208681176E+03  0.68208681177E+03  0.25500000920E-02 0. -1.
       -2   -1    0    0    0  501  0.00000000000E+00  0.00000000000E+00 -0.29688617388E+03  0.29688617389E+03  0.25500000920E-02 0.  1.
    10030    2    1    2    0    0  0.00000000000E+00  0.00000000000E+00  0.38520063789E+03  0.97897298566E+03  0.90000476400E+03 0.  0.
        5    1    3    3  502    0  0.43233742349E+03  0.74310165021E+02  0.83595731700E+02  0.44659599722E+03  0.46999998093E+01 0.  1.
       -5    1    3    3    0  502 -0.43233742349E+03 -0.74310165021E+02  0.30160490619E+03  0.53237698843E+03  0.46999998093E+01 0. -1.
</event>
<event>
 5   0  0.2450427E-04  0.8998444E+03  0.7818609E-02  0.9425776E-01
        1   -1    0    0  501    0  0.00000000000E+00  0.00000000000E+00  0.13688390775E+04  0.13688390775E+04  0.50400001928E-02 0. -1.
       -1   -1    0    0    0  501  0.00000000000E+00  0.00000000000E+00 -0.14788441369E+03  0.14788441377E+03  0.50400001928E-02 0.  1.
    10030    2    1    2    0    0  0.00000000000E+00  0.00000000000E+00  0.12209546638E+04  0.15167234912E+04  0.89984435204E+03 0.  0.
        3    1    3    3  502    0  0.20583164249E+03  0.23911931258E+03  0.11511265300E+04  0.11935815887E+04  0.10100000352E+00 0. -1.
       -3    1    3    3    0  502 -0.20583164249E+03 -0.23911931258E+03  0.69828133788E+02  0.32314190252E+03  0.10100000352E+00 0.  1.
</event>
<event>
 5   0  0.4033144E-04  0.8980338E+03  0.7818609E-02  0.9428043E-01
        2   -1    0    0  501    0  0.00000000000E+00  0.00000000000E+00  0.66107779067E+03  0.66107779068E+03  0.25500000920E-02 0.  1.
       -2   -1    0    0    0  501  0.00000000000E+00  0.00000000000E+00 -0.30498099207E+03  0.30498099208E+03  0.25500000920E-02 0. -1.
    10030    2    1    2    0    0  0.00000000000E+00  0.00000000000E+00  0.35609679860E+03  0.96605878276E+03  0.89803376428E+03 0.  0.
        4    1    3    3  502    0  0.34994696716E+02  0.24410918410E+03  0.58170604127E+03  0.63182074508E+03  0.12699999809E+01 0.  1.
       -4    1    3    3    0  502 -0.34994696716E+02 -0.24410918410E+03 -0.22560924267E+03  0.33423803769E+03  0.12699999809E+01 0. -1.
</event>
<event>
 5   0  0.2351435E-04  0.9002236E+03  0.7818609E-02  0.9425302E-01
        1   -1    0    0  501    0  0.00000000000E+00  0.00000000000E+00  0.42217562456E+03  0.42217562459E+03  0.50400001928E-02 0. -1.
       -1   -1    0    0    0  501  0.00000000000E+00  0.00000000000E+00 -0.47989654634E+03  0.47989654637E+03  0.50400001928E-02 0.  1.
    10030    2    1    2    0    0  0.00000000000E+00  0.00000000000E+00 -0.57720921780E+02  0.90207217096E+03  0.90022358157E+03 0.  0.
        4    1    3    3  502    0 -0.49742401753E+02 -0.37676514230E+03  0.21282505890E+03  0.43557134615E+03  0.12699999809E+01 0. -1.
       -4    1    3    3    0  502  0.49742401753E+02  0.37676514230E+03 -0.27054598068E+03  0.46650082481E+03  0.12699999809E+01 0.  1.
</event>
<event>
 5   0  0.4033144E-04  0.9003848E+03  0.7818609E-02  0.9425101E-01
       -2   -1    0    0    0  501  0.00000000000E+00  0.00000000000E+00  0.33243317014E+03  0.33243317015E+03  0.25500000920E-02 0.  1.
        2   -1    0    0  501    0  0.00000000000E+00  0.00000000000E+00 -0.60966601144E+03  0.60966601145E+03  0.25500000920E-02 0. -1.
    10030    2    1    2    0    0  0.00000000000E+00  0.00000000000E+00 -0.27723284130E+03  0.94209918160E+03  0.90038481755E+03 0.  0.
        4    1    3    3  502    0  0.53016696317E+02 -0.35595849977E+03 -0.42161782831E+03  0.55432881009E+03  0.12699999809E+01 0. -1.
       -4    1    3    3    0  502 -0.53016696317E+02  0.35595849977E+03  0.14438498701E+03  0.38777037151E+03  0.12699999809E+01 0.  1.
</event>
<event>
 5   0  0.4236284E-04  0.8999406E+03  0.7818609E-02  0.9425656E-01
       -2   -1    0    0    0  501  0.00000000000E+00  0.00000000000E+00  0.44361713404E+03  0.44361713405E+03  0.25500000920E-02 0. -1.
        2   -1    0    0  501    0  0.00000000000E+00  0.00000000000E+00 -0.45641444169E+03  0.45641444169E+03  0.25500000920E-02 0.  1.
    10030    2    1    2    0    0  0.00000000000E+00  0.00000000000E+00 -0.12797307648E+02  0.90003157574E+03  0.89994059040E+03 0.  0.
        2    1    3    3  502    0 -0.25443239416E+03  0.63724362858E+01 -0.37751138539E+03  0.45529254029E+03  0.25500000920E-02 0.  1.
       -2    1    3    3    0  502  0.25443239416E+03 -0.63724362858E+01  0.36471407774E+03  0.44473903545E+03  0.25500000920E-02 0. -1.
</event>
<event>
 5   0  0.2308362E-04  0.9000904E+03  0.7818609E-02  0.9425468E-01
        1   -1    0    0  501    0  0.00000000000E+00  0.00000000000E+00  0.37233878055E+03  0.37233878058E+03  0.50400001928E-02 0.  1.
       -1   -1    0    0    0  501  0.00000000000E+00  0.00000000000E+00 -0.54396883166E+03  0.54396883169E+03  0.50400001928E-02 0. -1.
    10030    2    1    2    0    0  0.00000000000E+00  0.00000000000E+00 -0.17163005112E+03  0.91630761227E+03  0.90009042093E+03 0.  0.
        1    1    3    3  502    0 -0.11218476392E+03  0.14396920685E+03 -0.50460033844E+03  0.53659487079E+03  0.50400001928E-02 0. -1.
       -1    1    3    3    0  502  0.11218476392E+03 -0.14396920685E+03  0.33297028733E+03  0.37971274148E+03  0.50400001928E-02 0.  1.
</event>
<event>
 5   0  0.2356918E-04  0.8989350E+03  0.7818609E-02  0.9426914E-01
       -1   -1    0    0    0  501  0.00000000000E+00  0.00000000000E+00  0.20190822725E+03  0.20190822731E+03  0.50400001928E-02 0.  1.
        1   -1    0    0  501    0  0.00000000000E+00  0.00000000000E+00 -0.10005588041E+04  0.10005588041E+04  0.50400001928E-02 0. -1.
    10030    2    1    2    0    0  0.00000000000E+00  0.00000000000E+00 -0.79865057687E+03  0.12024670314E+04  0.89893504648E+03 0.  0.
        5    1    3    3  502    0  0.11877387722E+03  0.40452736766E+03 -0.19102262592E+03  0.46288374211E+03  0.46999998093E+01 0.  1.
       -5    1    3    3    0  502 -0.11877387722E+03 -0.40452736766E+03 -0.60762795095E+03  0.73958328934E+03  0.46999998093E+01 0. -1.
</event>
<event>
 5   0  0.2308362E-04  0.9003312E+03  0.7818609E-02  0.9425167E-01
       -1   -1    0    0    0  501  0.00000000000E+00  0.00000000000E+00  0.40575864300E+03  0.40575864303E+03  0.50400001928E-02 0. -1.
        1   -1    0    0  501    0  0.00000000000E+00  0.00000000000E+00 -0.49943258906E+03  0.49943258908E+03  0.50400001928E-02 0.  1.
    10030    2    1    2    0    0  0.00000000000E+00  0.00000000000E+00 -0.93673946056E+02  0.90519123211E+03  0.90033124933E+03 0.  0.
        1    1    3    3  502    0 -0.15627013270E+03  0.11128745420E+03  0.36260059035E+03  0.41022486514E+03  0.50400001928E-02 0. -1.
       -1    1    3    3    0  502  0.15627013270E+03 -0.11128745420E+03 -0.45627453640E+03  0.49496636697E+03  0.50400001928E-02 0.  1.
</event>
<event>
 5   0  0.3959804E-04  0.9030178E+03  0.7818609E-02  0.9421817E-01
        2   -1    0    0  501    0  0.00000000000E+00  0.00000000000E+00  0.10359352019E+04  0.10359352019E+04  0.25500000920E-02 0. -1.
       -2   -1    0    0    0  501  0.00000000000E+00  0.00000000000E+00 -0.19678865240E+03  0.19678865242E+03  0.25500000920E-02 0.  1.
    10030    2    1    2    0    0  0.00000000000E+00  0.00000000000E+00  0.83914654948E+03  0.12327238543E+04  0.90301781237E+03 0.  0.
        5    1    3    3  502    0  0.97439456228E+02 -0.12468371114E+03 -0.15765883235E+03  0.22342531833E+03  0.46999998093E+01 0.  1.
       -5    1    3    3    0  502 -0.97439456228E+02  0.12468371114E+03  0.99680538184E+03  0.10092985360E+04  0.46999998093E+01 0. -1.
</event>
<event>
 5   0  0.4110039E-04  0.9006282E+03  0.7818609E-02  0.9424797E-01
        2   -1    0    0  501    0  0.00000000000E+00  0.00000000000E+00  0.83695700473E+03  0.83695700473E+03  0.25500000920E-02 0.  1.
       -2   -1    0    0    0  501  0.00000000000E+00  0.00000000000E+00 -0.24228577952E+03  0.24228577953E+03  0.25500000920E-02 0. -1.
    10030    2    1    2    0    0  0.00000000000E+00  0.00000000000E+00  0.59467122521E+03  0.10792427843E+04  0.90062818149E+03 0.  0.
        3    1    3    3  502    0  0.18464844802E+03 -0.15981844720E+03  0.75071618159E+03  0.78943763587E+03  0.10100000352E+00 0.  1.
       -3    1    3    3    0  502 -0.18464844802E+03  0.15981844720E+03 -0.15604495638E+03  0.28980514839E+03  0.10100000352E+00 0. -1.
</event>
<event>
 5   0  0.3959804E-04  0.8998663E+03  0.7818609E-02  0.9425749E-01
       -2   -1    0    0    0  501  0.00000000000E+00  0.00000000000E+00  0.20150018305E+03  0.20150018307E+03  0.25500000920E-02 0. -1.
        2   -1    0    0  501    0  0.00000000000E+00  0.00000000000E+00 -0.10046632973E+04  0.10046632973E+04  0.25500000920E-02 0.  1.
    10030    2    1    2    0    0  0.00000000000E+00  0.00000000000E+00 -0.80316311427E+03  0.12061634804E+04  0.89986629747E+03 0.  0.
        5    1    3    3  502    0  0.38506750101E+03 -0.22094804444E+03 -0.30379134398E+03  0.53796495179E+03  0.46999998093E+01 0. -1.
       -5    1    3    3    0  502 -0.38506750101E+03  0.22094804444E+03 -0.49937177029E+03  0.66819852861E+03  0.46999998093E+01 0.  1.
</event>
<event>
 5   0  0.2332791E-04  0.9002651E+03  0.7818609E-02  0.9425250E-01
        1   -1    0    0  501    0  0.00000000000E+00  0.00000000000E+00  0.48416400361E+03  0.48416400364E+03  0.50400001928E-02 0.  1.
       -1   -1    0    0    0  501  0.00000000000E+00  0.00000000000E+00 -0.41849314063E+03  0.41849314066E+03  0.50400001928E-02 0. -1.
    10030    2    1    2    0    0  0.00000000000E+00  0.00000000000E+00  0.65670862977E+02  0.90265714430E+03  0.90026510424E+03 0.  0.
        2    1    3    3  502    0  0.95745397035E+02 -0.30802452553E+03  0.34763305834E+03  0.47423099080E+03  0.25500000920E-02 0.  1.
       -2    1    3    3    0  502 -0.95745397035E+02  0.30802452553E+03 -0.28196219536E+03  0.42842615350E+03  0.25500000920E-02 0. -1.
</event>
<event>
 5   0  0.4033144E-04  0.9000576E+03  0.7818609E-02  0.9425509E-01
       -2   -1    0    0    0  501  0.00000000000E+00  0.00000000000E+00  0.22110156307E+03  0.22110156309E+03  0.25500000920E-02 0.  1.
        2   -1    0    0  501    0  0.00000000000E+00  0.00000000000E+00 -0.91598593202E+03  0.91598593203E+03  0.25500000920E-02 0. -1.
    10030    2    1    2    0    0  0.00000000000E+00  0.00000000000E+00 -0.69488436895E+03  0.11370874951E+04  0.90005760112E+03 0.  0.
        4    1    3    3  502    0  0.23641911397E+03  0.20009722405E+03  0.65020521844E+02  0.31648408757E+03  0.12699999809E+01 0.  1.
       -4    1    3    3    0  502 -0.23641911397E+03 -0.20009722405E+03 -0.75990489079E+03  0.82060340755E+03  0.12699999809E+01 0. -1.
</event>
<event>
 5   0  0.2308362E-04  0.9001353E+03  0.7818609E-02  0.9425412E-01
        1   -1    0    0  501    0  0.00000000000E+00  0.00000000000E+00  0.69793471052E+03  0.69793471054E+03  0.50400001928E-02 0. -1.
       -1   -1    0    0    0  501  0.00000000000E+00  0.00000000000E+00 -0.29022900043E+03  0.29022900048E+03  0.50400001928E-02 0.  1.
    10030    2    1    2    0    0  0.00000000000E+00  0.00000000000E+00  0.40770571009E+03  0.98816371101E+03  0.90013530857E+03 0.  0.
        1    1    3    3  502    0  0.20223715214E+03  0.80708302715E+01  0.64515522316E+03  0.67615846220E+03  0.50400001928E-02 0. -1.
       -1    1    3    3    0  502 -0.20223715214E+03 -0.80708302715E+01 -0.23744951307E+03  0.31200524882E+03  0.50400001928E-02 0.  1.
</event>
<event>
 5   0  0.4110039E-04  0.9002626E+03  0.7818609E-02  0.9425253E-01
        2   -1    0    0  501    0  0.00000000000E+00  0.00000000000E+00  0.61490981174E+03  0.61490981174E+03  0.25500000920E-02 0. -1.
       -2   -1    0    0    0  501  0.00000000000E+00  0.00000000000E+00 -0.32950875844E+03  0.32950875845E+03  0.25500000920E-02 0.  1.
    10030    2    1    2    0    0  0.00000000000E+00  0.00000000000E+00  0.28540105330E+03  0.94441857019E+03  0.90026255864E+03 0.  0.
        3    1    3    3  502    0 -0.28321650174E+03 -0.10745319698E+03  0.49198840565E+03  0.57776325419E+03  0.10100000352E+00 0. -1.
       -3    1    3    3    0  502  0.28321650174E+03  0.10745319698E+03 -0.20658735235E+03  0.36665531600E+03  0.10100000352E+00 0.  1.
</event>
<event>
 5   0  0.2308362E-04  0.8996409E+03  0.7818609E-02  0.9426030E-01
       -1   -1    0    0    0  501  0.00000000000E+00  0.00000000000E+00  0.15968976471E+03  0.15968976479E+03  0.50400001928E-02 0.  1.
        1   -1    0    0  501    0  0.00000000000E+00  0.00000000000E+00 -0.12670720023E+04  0.12670720023E+04  0.50400001928E-02 0. -1.
    10030    2    1    2    0    0  0.00000000000E+00  0.00000000000E+00 -0.11073822376E+04  0.14267617671E+04  0.89964088385E+03 0.  0.
        1    1    3    3  502    0 -0.38770327176E+03  0.12564502206E+03 -0.85559172078E+03  0.94770126685E+03  0.50400001928E-02 0. -1.
       -1    1    3    3    0  502  0.38770327176E+03 -0.12564502206E+03 -0.25179051678E+03  0.47906050022E+03  0.50400001928E-02 0.  1.
</event>
<event>
 5   0  0.3959804E-04  0.8995394E+03  0.7818609E-02  0.9426157E-01
       -2   -1    0    0    0  501  0.00000000000E+00  0.00000000000E+00  0.12277029483E+03  0.12277029485E+03  0.25500000920E-02 0.  1.
        2   -1    0    0  501    0  0.00000000000E+00  0.00000000000E+00 -0.16477338546E+04  0.16477338546E+04  0.25500000920E-02 0. -1.
    10030    2    1    2    0    0  0.00000000000E+00  0.00000000000E+00 -0.15249635597E+04  0.17705041494E+04  0.89953937356E+03 0.  0.
        5    1    3    3  502    0 -0.95596090172E+02  0.34787139309E+01 -0.16274305011E+04  0.16302462513E+04  0.46999998093E+01 0. -1.
       -5    1    3    3    0  502  0.95596090172E+02 -0.34787139309E+01  0.10246694139E+03  0.14025789811E+03  0.46999998093E+01 0.  1.
</event>
<event>
 5   0  0.1596250E-04  0.8999965E+03  0.7818609E-02  0.9425586E-01
        3   -1    0    0  501    0  0.00000000000E+00  0.00000000000E+00  0.78539307661E+03  0.78539308311E+03  0.10100000352E+00 0. -1.
       -3   -1    0    0    0  501  0.00000000000E+00  0.00000000000E+00 -0.25783065438E+03  0.25783067417E+03  0.10100000352E+00 0.  1.
    10030    2    1    2    0    0  0.00000000000E+00  0.00000000000E+00  0.52756242223E+03  0.10432237573E+04  0.89999649910E+03 0.  0.
        2    1    3    3  502    0 -0.68541831554E+02  0.32862486811E+03 -0.83586669400E+02  0.34594655356E+03  0.25500000920E-02 0.  1.
       -2    1    3    3    0  502  0.68541831554E+02 -0.32862486811E+03  0.61114909163E+03  0.69727720371E+03  0.25500000920E-02 0. -1.
</event>
<event>
 5   0  0.2351435E-04  0.8991012E+03  0.7818609E-02  0.9426706E-01
       -1   -1    0    0    0  501  0.00000000000E+00  0.00000000000E+00  0.20712891276E+03  0.20712891283E+03  0.50400001928E-02 0. -1.
        1   -1    0    0  501    0  0.00000000000E+00  0.00000000000E+00 -0.97570039697E+03  0.97570039699E+03  0.50400001928E-02 0.  1.
    10030    2    1    2    0    0  0.00000000000E+00  0.00000000000E+00 -0.76857148421E+03  0.11828293098E+04  0.89910124558E+03 0.  0.
        4    1    3    3  502    0  0.24990634631E+03  0.46123401887E+02 -0.87213573519E+03  0.90840679414E+03  0.12699999809E+01 0.  1.
       -4    1    3    3    0  502 -0.24990634631E+03 -0.46123401887E+02  0.10356425098E+03  0.27442251568E+03  0.12699999809E+01 0. -1.
</event>
<event>
 5   0  0.4236284E-04  0.8989081E+03  0.7818609E-02  0.9426947E-01
       -2   -1    0    0    0  501  0.00000000000E+00  0.00000000000E+00  0.39730773598E+03  0.39730773599E+03  0.25500000920E-02 0.  1.
        2   -1    0    0  501    0  0.00000000000E+00  0.00000000000E+00 -0.50844454026E+03  0.50844454027E+03  0.25500000920E-02 0. -1.
    10030    2    1    2    0    0  0.00000000000E+00  0.00000000000E+00 -0.11113680428E+03  0.90575227626E+03  0.89890811359E+03 0.  0.
        2    1    3    3  502    0 -0.13112596861E+03 -0.58290038287E+01  0.37756605462E+03  0.39973006209E+03  0.25500000920E-02 0.  1.
       -2    1    3    3    0  502  0.13112596861E+03  0.58290038287E+01 -0.48870285890E+03  0.50602221417E+03  0.25500000920E-02 0. -1.
</event>
<event>
 5   0  0.4110039E-04  0.8999910E+03  0.7818609E-02  0.9425593E-01
        2   -1    0    0  501    0  0.00000000000E+00  0.00000000000E+00  0.39951618805E+03  0.39951618806E+03  0.25500000920E-02 0.  1.
       -2   -1    0    0    0  501  0.00000000000E+00  0.00000000000E+00 -0.50685287547E+03  0.50685287548E+03  0.25500000920E-02 0. -1.
    10030    2    1    2    0    0  0.00000000000E+00  0.00000000000E+00 -0.10733668742E+03  0.90636906354E+03  0.89999095266E+03 0.  0.
        3    1    3    3  502    0  0.40706563699E+03  0.11200442500E+03 -0.21049118565E+03  0.47175626490E+03  0.10100000352E+00 0. -1.
       -3    1    3    3    0  502 -0.40706563699E+03 -0.11200442500E+03  0.10315449823E+03  0.43461279864E+03  0.10100000352E+00 0.  1.
</event>
<event>
 5   0  0.2450427E-04  0.9007139E+03  0.7818609E-02  0.9424689E-01
        1   -1    0    0  501    0  0.00000000000E+00  0.00000000000E+00  0.24358750845E+03  0.24358750850E+03  0.50400001928E-02 0. -1.
       -1   -1    0    0    0  501  0.00000000000E+00  0.00000000000E+00 -0.83264281593E+03  0.83264281594E+03  0.50400001928E-02 0.  1.
    10030    2    1    2    0    0  0.00000000000E+00  0.00000000000E+00 -0.58905530748E+03  0.10762303244E+04  0.90071391462E+03 0.  0.
        3    1    3    3  502    0  0.17861187036E+03 -0.21399238115E+03 -0.71718935425E+03  0.76945144062E+03  0.10100000352E+00 0.  1.
       -3    1    3    3    0  502 -0.17861187036E+03  0.21399238115E+03  0.12813404676E+03  0.30677888383E+03  0.10100000352E+00 0. -1.
</event>
<event>
 5   0  0.1596250E-04  0.9000478E+03  0.7818609E-02  0.9425522E-01
       -4   -1    0    0    0  501  0.00000000000E+00  0.00000000000E+00  0.11465119395E+04  0.11465126429E+04  0.12699999809E+01 0. -1.
        4   -1    0    0  501    0  0.00000000000E+00  0.00000000000E+00 -0.17663838035E+03  0.17664294583E+03  0.12699999809E+01 0.  1.
    10030    2    1    2    0    0  0.00000000000E+00  0.00000000000E+00  0.96987355919E+03  0.13231555888E+04  0.90004777166E+03 0.  0.
        4    1    3    3  502    0 -0.82121931585E+02  0.43011255818E+03  0.63756534090E+03  0.77345458895E+03  0.12699999809E+01 0. -1.
       -4    1    3    3    0  502  0.82121931585E+02 -0.43011255818E+03  0.33230821828E+03  0.54970099981E+03  0.12699999809E+01 0.  1.
</event>
<event>
 5   0  0.4033144E-04  0.8994787E+03  0.7818609E-02  0.9426233E-01
        2   -1    0    0  501    0  0.00000000000E+00  0.00000000000E+00  0.10004769524E+04  0.10004769524E+04  0.25500000920E-02 0.  1.
       -2   -1    0    0    0  501  0.00000000000E+00  0.00000000000E+00 -0.20216907300E+03  0.20216907301E+03  0.25500000920E-02 0. -1.
    10030    2    1    2    0    0  0.00000000000E+00  0.00000000000E+00  0.79830787940E+03  0.12026460254E+04  0.89947873356E+03 0.  0.
        4    1    3    3  502    0  0.23120993071E+03  0.38387858264E+03  0.34836219202E+03  0.56760781179E+03  0.12699999809E+01 0. -1.
       -4    1    3    3    0  502 -0.23120993071E+03 -0.38387858264E+03  0.44994568737E+03  0.63503821362E+03  0.12699999809E+01 0.  1.
</event>
<event>
 5   0  0.4236284E-04  0.8997449E+03  0.7818609E-02  0.9425900E-01
       -2   -1    0    0    0  501  0.00000000000E+00  0.00000000000E+00  0.27292454052E+03  0.27292454053E+03  0.25500000920E-02 0. -1.
        2   -1    0    0  501    0  0.00000000000E+00  0.00000000000E+00 -0.74154284009E+03  0.74154284010E+03  0.25500000920E-02 0.  1.
    10030    2    1    2    0    0  0.00000000000E+00  0.00000000000E+00 -0.46861829957E+03  0.10144673806E+04  0.89974493923E+03 0.  0.
        2    1    3    3  502    0 -0.26192804685E+03 -0.27247302670E+03 -0.50942369971E+03  0.63431881403E+03  0.25500000920E-02 0.  1.
       -2    1    3    3    0  502  0.26192804685E+03  0.27247302670E+03  0.40805400137E+02  0.38014856660E+03  0.25500000920E-02 0. -1.
</event>
<event>
 5   0  0.2332791E-04  0.9007622E+03  0.7818609E-02  0.9424629E-01
        1   -1    0    0  501    0  0.00000000000E+00  0.00000000000E+00  0.10020217752E+04  0.10020217753E+04  0.50400001928E-02 0.  1.
       -1   -1    0    0    0  501  0.00000000000E+00  0.00000000000E+00 -0.20243384145E+03  0.20243384151E+03  0.50400001928E-02 0. -1.
    10030    2    1    2    0    0  0.00000000000E+00  0.00000000000E+00  0.79958793379E+03  0.12044556168E+04  0.90076216000E+03 0.  0.
        2    1    3    3  502    0 -0.39091734825E+03  0.14850627438E+03  0.17615507998E+03  0.45376326306E+03  0.25500000920E-02 0. -1.
       -2    1    3    3    0  502  0.39091734825E+03 -0.14850627438E+03  0.62343285381E+03  0.75069235371E+03  0.25500000920E-02 0.  1.
</event>
<event>
 5   0  0.4033144E-04  0.9000648E+03  0.7818609E-02  0.9425500E-01
       -2   -1    0    0    0  501  0.00000000000E+00  0.00000000000E+00  0.17685823929E+03  0.17685823931E+03  0.25500000920E-02 0.  1.
        2   -1    0    0  501    0  0.00000000000E+00  0.00000000000E+00 -0.11451497892E+04  0.11451497892E+04  0.25500000920E-02 0. -1.
    10030    2    1    2    0    0  0.00000000000E+00  0.00000000000E+00 -0.96829154986E+03  0.13220080285E+04  0.90006483200E+03 0.  0.
        4    1    3    3  502    0  0.47911978253E+02 -0.74366699765E+02 -0.11322503073E+04  0.11357016928E+04  0.12699999809E+01 0. -1.
       -4    1    3    3    0  502 -0.47911978253E+02  0.74366699765E+02  0.16395875742E+03  0.18630633571E+03  0.12699999809E+01 0.  1.
</event>
<event>
 5   0  0.3959804E-04  0.8990863E+03  0.7818609E-02  0.9426724E-01
       -2   -1    0    0    0  501  0.00000000000E+00  0.00000000000E+00  0.42799632445E+03  0.42799632446E+03  0.25500000920E-02 0.  1.
        2   -1    0    0  501    0  0.00000000000E+00  0.00000000000E+00 -0.47217475443E+03  0.47217475444E+03  0.25500000920E-02 0. -1.
    10030    2    1    2    0    0  0.00000000000E+00  0.00000000000E+00 -0.44178429982E+02  0.90017107890E+03  0.89908633490E+03 0.  0.
        5    1    3    3  502    0  0.39089947405E+02  0.15724796686E+03 -0.44189454038E+03  0.47068866769E+03  0.46999998093E+01 0. -1.
       -5    1    3    3    0  502 -0.39089947405E+02 -0.15724796686E+03  0.39771611040E+03  0.42948241121E+03  0.46999998093E+01 0.  1.
</event>
<event>
 5   0  0.4033144E-04  0.8996480E+03  0.7818609E-02  0.9426022E-01
       -2   -1    0    0    0  501  0.00000000000E+00  0.00000000000E+00  0.13993480236E+03  0.13993480238E+03  0.25500000920E-02 0.  1.
        2   -1    0    0  501    0  0.00000000000E+00  0.00000000000E+00 -0.14459707261E+04  0.14459707261E+04  0.25500000920E-02 0. -1.
    10030    2    1    2    0    0  0.00000000000E+00  0.00000000000E+00 -0.13060359238E+04  0.15859055285E+04  0.89964799293E+03 0.  0.
        4    1    3    3  502    0 -0.12522229105E+03  0.18382104484E+03 -0.13422488259E+04  0.13605529472E+04  0.12699999809E+01 0. -1.
       -4    1    3    3    0  502  0.12522229105E+03 -0.18382104484E+03  0.36212902145E+02  0.22535258127E+03  0.12699999809E+01 0.  1.
</event>
<event>
 5   0  0.4236284E-04  0.8999939E+03  0.7818609E-02  0.9425589E-01
       -2   -1    0    0    0  501  0.00000000000E+00  0.00000000000E+00  0.22701262429E+03  0.22701262431E+03  0.25500000920E-02 0.  1.
        2   -1    0    0  501    0  0.00000000000E+00  0.00000000000E+00 -0.89200879464E+03  0.89200879465E+03  0.25500000920E-02 0. -1.
    10030    2    1    2    0    0  0.00000000000E+00  0.00000000000E+00 -0.66499617035E+03  0.11190214190E+04  0.89999390526E+03 0.  0.
        2    1    3    3  502    0  0.20315970259E+03  0.11245081915E+03 -0.81176382629E+03  0.84432195350E+03  0.25500000920E-02 0. -1.
       -2    1    3    3    0  502 -0.20315970259E+03 -0.11245081915E+03  0.14676765594E+03  0.27469946545E+03  0.25500000920E-02 0.  1.
</event>
<event>
 5   0  0.1596250E-04  0.8981249E+03  0.7818609E-02  0.9427928E-01
       -4   -1    0    0    0  501  0.00000000000E+00  0.00000000000E+00  0.23793960340E+03  0.23794299268E+03  0.12699999809E+01 0.  1.
        4   -1    0    0  501    0  0.00000000000E+00  0.00000000000E+00 -0.84750374836E+03  0.84750469992E+03  0.12699999809E+01 0. -1.
    10030    2    1    2    0    0  0.00000000000E+00  0.00000000000E+00 -0.60956414496E+03  0.10854476926E+04  0.89812485020E+03 0.  0.
        2    1    3    3  502    0  0.15425429195E+03 -0.16376760093E+03  0.16491977629E+03  0.27894936156E+03  0.25500000920E-02 0.  1.
       -2    1    3    3    0  502 -0.15425429195E+03  0.16376760093E+03 -0.77448392124E+03  0.80649833104E+03  0.25500000920E-02 0. -1.
</event>
<event>
 5   0  0.2308362E-04  0.9001261E+03  0.7818609E-02  0.9425424E-01
       -1   -1    0    0    0  501  0.00000000000E+00  0.00000000000E+00  0.29266959581E+03  0.29266959585E+03  0.50400001928E-02 0.  1.
        1   -1    0    0  501    0  0.00000000000E+00  0.00000000000E+00 -0.69210046258E+03  0.69210046260E+03  0.50400001928E-02 0. -1.
    10030    2    1    2    0    0  0.00000000000E+00  0.00000000000E+00 -0.39943086677E+03  0.98477005845E+03  0.90012613043E+03 0.  0.
        1    1    3    3  502    0  0.41747642084E+03 -0.16724731837E+03 -0.18081249894E+03  0.48471784293E+03  0.50400001928E-02 0. -1.
       -1    1    3    3    0  502 -0.41747642084E+03  0.16724731837E+03 -0.21861836783E+03  0.50005221551E+03  0.50400001928E-02 0.  1.
</event>
<event>
 5   0  0.4110039E-04  0.8996114E+03  0.7818609E-02  0.9426067E-01
        2   -1    0    0  501    0  0.00000000000E+00  0.00000000000E+00  0.10596989878E+04  0.10596989878E+04  0.25500000920E-02 0.  1.
       -2   -1    0    0    0  501  0.00000000000E+00  0.00000000000E+00 -0.19092702365E+03  0.19092702367E+03  0.25500000920E-02 0. -1.
    10030    2    1    2    0    0  0.00000000000E+00  0.00000000000E+00  0.86877196419E+03  0.12506260115E+04  0.89961141329E+03 0.  0.
        3    1    3    3  502    0 -0.30579883204E+03 -0.26273476288E+03  0.15710535282E+03  0.43269456131E+03  0.10100000352E+00 0. -1.
       -3    1    3    3    0  502  0.30579883204E+03  0.26273476288E+03  0.71166661137E+03  0.81793145021E+03  0.10100000352E+00 0.  1.
</event>
<event>
 5   0  0.2308362E-04  0.8999266E+03  0.7818609E-02  0.9425673E-01
        1   -1    0    0  501    0  0.00000000000E+00  0.00000000000E+00  0.64376072191E+03  0.64376072193E+03  0.50400001928E-02 0.  1.
       -1   -1    0    0    0  501  0.00000000000E+00  0.00000000000E+00 -0.31450654898E+03  0.31450654903E+03  0.50400001928E-02 0. -1.
    10030    2    1    2    0    0  0.00000000000E+00  0.00000000000E+00  0.32925417292E+03  0.95826727095E+03  0.89992658156E+03 0.  0.
        1    1    3    3  502    0  0.28206141130E+03 -0.32919203206E+03  0.36223942724E+02  0.43501518108E+03  0.50400001928E-02 0.  1.
       -1    1    3    3    0  502 -0.28206141130E+03  0.32919203206E+03  0.29303023020E+03  0.52325208987E+03  0.50400001928E-02 0. -1.
</event>
<event>
 5   0  0.4236284E-04  0.8998975E+03  0.7818609E-02  0.9425710E-01
       -2   -1    0    0    0  501  0.00000000000E+00  0.00000000000E+00  0.14092989566E+03  0.14092989569E+03  0.25500000920E-02 0.  1.
        2   -1    0    0  501    0  0.00000000000E+00  0.00000000000E+00 -0.14365574244E+04  0.14365574244E+04  0.25500000920E-02 0. -1.
    10030    2    1    2    0    0  0.00000000000E+00  0.00000000000E+00 -0.12956275287E+04  0.15774873200E+04  0.89989752294E+03 0.  0.
        2    1    3    3  502    0 -0.18195961466E+03  0.51514258899E+02 -0.13635099857E+04  0.13765618408E+04  0.25500000920E-02 0. -1.
       -2    1    3    3    0  502  0.18195961466E+03 -0.51514258899E+02  0.67882457056E+02  0.20092547927E+03  0.25500000920E-02 0.  1.
</event>
<event>
 5   0  0.3959804E-04  0.8979905E+03  0.7818609E-02  0.9428097E-01
       -2   -1    0    0    0  501  0.00000000000E+00  0.00000000000E+00  0.18984704688E+03  0.18984704689E+03  0.25500000920E-02 0. -1.
        2   -1    0    0  501    0  0.00000000000E+00  0.00000000000E+00 -0.10618901794E+04  0.10618901794E+04  0.25500000920E-02 0.  1.
    10030    2    1    2    0    0  0.00000000000E+00  0.00000000000E+00 -0.87204313248E+03  0.12517372262E+04  0.89799045578E+03 0.  0.
        5    1    3    3  502    0 -0.16913367462E+03  0.17276177939E+03  0.91322824143E+02  0.25848555186E+03  0.46999998093E+01 0. -1.
       -5    1    3    3    0  502  0.16913367462E+03 -0.17276177939E+03 -0.96336595662E+03  0.99325167439E+03  0.46999998093E+01 0.  1.
</event>
<event>
 5   0  0.2308362E-04  0.8998681E+03  0.7818609E-02  0.9425746E-01
       -1   -1    0    0    0  501  0.00000000000E+00  0.00000000000E+00  0.28438957589E+03  0.28438957593E+03  0.50400001928E-02 0. -1.
        1   -1    0    0  501    0  0.00000000000E+00  0.00000000000E+00 -0.71184278896E+03  0.71184278897E+03  0.50400001928E-02 0.  1.
    10030    2    1    2    0    0  0.00000000000E+00  0.00000000000E+00 -0.42745321307E+03  0.99623236491E+03  0.89986814341E+03 0.  0.
        1    1    3    3  502    0  0.11545102740E+03  0.19047673659E+03  0.21907270538E+03  0.31241507194E+03  0.50400001928E-02 0. -1.
       -1    1    3    3    0  502 -0.11545102740E+03 -0.19047673659E+03 -0.64652591844E+03  0.68381729296E+03  0.50400001928E-02 0.  1.
</event>
<event>
 5   0  0.2351435E-04  0.8996661E+03  0.7818609E-02  0.9425999E-01
        1   -1    0    0  501    0  0.00000000000E+00  0.00000000000E+00  0.41470157156E+03  0.41470157159E+03  0.50400001928E-02 0.  1.
       -1   -1    0    0    0  501  0.00000000000E+00  0.00000000000E+00 -0.48794066805E+03  0.48794066807E+03  0.50400001928E-02 0. -1.
    10030    2    1    2    0    0  0.00000000000E+00  0.00000000000E+00 -0.73239096486E+02  0.90264223967E+03  0.89966607559E+03 0.  0.
        4    1    3    3  502    0 -0.40851712498E+03  0.78129192126E+02 -0.20852735341E+03  0.46526947254E+03  0.12699999809E+01 0. -1.
       -4    1    3    3    0  502  0.40851712498E+03 -0.78129192126E+02  0.13528825692E+03  0.43737276712E+03  0.12699999809E+01 0.  1.
</event>
<event>
 5   0  0.2450427E-04  0.8980115E+03  0.7818609E-02  0.9428071E-01
        1   -1    0    0  501    0  0.00000000000E+00  0.00000000000E+00  0.49344440245E+03  0.49344440248E+03  0.50400001928E-02 0.  1.
       -1   -1    0    0    0  501  0.00000000000E+00  0.00000000000E+00 -0.40856915621E+03  0.40856915624E+03  0.50400001928E-02 0. -1.
    10030    2    1    2    0    0  0.00000000000E+00  0.00000000000E+00  0.84875246246E+02  0.90201355872E+03  0.89801149920E+03 0.  0.
        3    1    3    3  502    0  0.30582620008E+03  0.23869436516E+03 -0.18462619822E+03  0.42964113850E+03  0.10100000352E+00 0. -1.
       -3    1    3    3    0  502 -0.30582620008E+03 -0.23869436516E+03  0.26950144447E+03  0.47237242022E+03  0.10100000352E+00 0.  1.
</event>
<event>
 5   0  0.1596250E-04  0.8999996E+03  0.7818609E-02  0.9425582E-01
        3   -1    0    0  501    0  0.00000000000E+00  0.00000000000E+00  0.99664321930E+03  0.99664322441E+03  0.10100000352E+00 0. -1.
       -3   -1    0    0    0  501  0.00000000000E+00  0.00000000000E+00 -0.20318185259E+03  0.20318187769E+03  0.10100000352E+00 0.  1.
    10030    2    1    2    0    0  0.00000000000E+00  0.00000000000E+00  0.79346136671E+03  0.11998251021E+04  0.89999963065E+03 0.  0.
        2    1    3    3  502    0 -0.23943209076E+03  0.36962721976E+03  0.51998537284E+03  0.68142262631E+03  0.25500000920E-02 0. -1.
       -2    1    3    3    0  502  0.23943209076E+03 -0.36962721976E+03  0.27347599387E+03  0.51840247579E+03  0.25500000920E-02 0.  1.
</event>
<event>
 5   0  0.2356918E-04  0.9000439E+03  0.7818609E-02  0.9425527E-01
        1   -1    0    0  501    0  0.00000000000E+00  0.00000000000E+00  0.48443714302E+03  0.48443714305E+03  0.50400001928E-02 0. -1.
       -1   -1    0    0    0  501  0.00000000000E+00  0.00000000000E+00 -0.41805167462E+03  0.41805167465E+03  0.50400001928E-02 0.  1.
    10030    2    1    2    0    0  0.00000000000E+00  0.00000000000E+00  0.66385468405E+02  0.90248881770E+03  0.90004390763E+03 0.  0.
        5    1    3    3  502    0  0.49679212048E+02  0.35775753445E+03  0.30232300448E+03  0.47104115171E+03  0.46999998093E+01 0. -1.
       -5    1    3    3    0  502 -0.49679212048E+02 -0.35775753445E+03 -0.23593753607E+03  0.43144766599E+03  0.46999998093E+01 0.  1.
</event>
<event>
 5   0  0.2450427E-04  0.8999703E+03  0.7818609E-02  0.9425619E-01
       -1   -1    0    0    0  501  0.00000000000E+00  0.00000000000E+00  0.49344459457E+03  0.49344459460E+03  0.50400001928E-02 0.  1.
        1   -1    0    0  501    0  0.00000000000E+00  0.00000000000E+00 -0.41035333671E+03  0.41035333674E+03  0.50400001928E-02 0. -1.
    10030    2    1    2    0    0  0.00000000000E+00  0.00000000000E+00  0.83091257864E+02  0.90379793134E+03  0.89997030149E+03 0.  0.
        3    1    3    3  502    0  0.43964976417E+03 -0.60793377567E+02  0.11601541738E+03  0.45874539470E+03  0.10100000352E+00 0.  1.
       -3    1    3    3    0  502 -0.43964976417E+03  0.60793377567E+02 -0.32924159512E+02  0.44505253664E+03  0.10100000352E+00 0. -1.
</event>
<event>
 5   0  0.3959804E-04  0.8999923E+03  0.7818609E-02  0.9425591E-01
       -2   -1    0    0    0  501  0.00000000000E+00  0.00000000000E+00  0.12049411139E+03  0.12049411142E+03  0.25500000920E-02 0. -1.
        2   -1    0    0  501    0  0.00000000000E+00  0.00000000000E+00 -0.16805512346E+04  0.16805512346E+04  0.25500000920E-02 0.  1.
    10030    2    1    2    0    0  0.00000000000E+00  0.00000000000E+00 -0.15600571233E+04  0.18010453461E+04  0.89999228372E+03 0.  0.
        5    1    3    3  502    0  0.26176335117E+03 -0.14201546346E+03 -0.14550697383E+04  0.14852402085E+04  0.46999998093E+01 0.  1.
       -5    1    3    3    0  502 -0.26176335117E+03  0.14201546346E+03 -0.10498738500E+03  0.31580513753E+03  0.46999998093E+01 0. -1.
</event>
<event>
 5   0  0.1596250E-04  0.8973997E+03  0.7818609E-02  0.9428838E-01
        3   -1    0    0  501    0  0.00000000000E+00  0.00000000000E+00  0.30379872065E+03  0.30379873744E+03  0.10100000352E+00 0. -1.
       -3   -1    0    0    0  501  0.00000000000E+00  0.00000000000E+00 -0.66271363032E+03  0.66271363802E+03  0.10100000352E+00 0.  1.
    10030    2    1    2    0    0  0.00000000000E+00  0.00000000000E+00 -0.35891490967E+03  0.96651237545E+03  0.89739972115E+03 0.  0.
        5    1    3    3  502    0  0.26424540847E+03  0.58471410282E+02 -0.56487954525E+03  0.62638289596E+03  0.46999998093E+01 0.  1.
       -5    1    3    3    0  502 -0.26424540847E+03 -0.58471410282E+02  0.20596463558E+03  0.34012947949E+03  0.46999998093E+01 0. -1.
</event>
<event>
 5   0  0.2356918E-04  0.9002481E+03  0.7818609E-02  0.9425271E-01
       -1   -1    0    0    0  501  0.00000000000E+00  0.00000000000E+00  0.23754318766E+03  0.23754318771E+03  0.50400001928E-02 0. -1.
        1   -1    0    0  501    0  0.00000000000E+00  0.00000000000E+00 -0.85294661661E+03  0.85294661663E+03  0.50400001928E-02 0.  1.
    10030    2    1    2    0    0  0.00000000000E+00  0.00000000000E+00 -0.61540342895E+03  0.10904898043E+04  0.90024809525E+03 0.  0.
        5    1    3    3  502    0  0.38087182903E+03 -0.16837454922E+03 -0.51460814090E+03  0.66200979423E+03  0.46999998093E+01 0.  1.
       -5    1    3    3    0  502 -0.38087182903E+03  0.16837454922E+03 -0.10079528805E+03  0.42848001011E+03  0.46999998093E+01 0. -1.
</event>
<event>
 5   0  0.3959804E-04  0.9000565E+03  0.7818609E-02  0.9425511E-01
        2   -1    0    0  501    0  0.00000000000E+00  0.00000000000E+00  0.51600618970E+03  0.51600618971E+03  0.25500000920E-02 0.  1.
       -2   -1    0    0    0  501  0.00000000000E+00  0.00000000000E+00 -0.39248644067E+03  0.39248644068E+03  0.25500000920E-02 0. -1.
    10030    2    1    2    0    0  0.00000000000E+00  0.00000000000E+00  0.12351974903E+03  0.90849263039E+03  0.90005651549E+03 0.  0.
        5    1    3    3  502    0  0.39781841864E+03  0.15029294309E+03  0.21029854928E+03  0.47444181180E+03  0.46999998093E+01 0.  1.
       -5    1    3    3    0  502 -0.39781841864E+03 -0.15029294309E+03 -0.86778800245E+02  0.43405081860E+03  0.46999998093E+01 0. -1.
</event>
<event>
 5   0  0.2351435E-04  0.8992497E+03  0.7818609E-02  0.9426520E-01
       -1   -1    0    0    0  501  0.00000000000E+00  0.00000000000E+00  0.41719976534E+03  0.41719976537E+03  0.50400001928E-02 0.  1.
        1   -1    0    0  501    0  0.00000000000E+00  0.00000000000E+00 -0.48457004166E+03  0.48457004169E+03  0.50400001928E-02 0. -1.
    10030    2    1    2    0    0  0.00000000000E+00  0.00000000000E+00 -0.67370276322E+02  0.90176980705E+03  0.89924970435E+03 0.  0.
        4    1    3    3  502    0  0.20427795135E+02  0.44743363896E+03  0.57536774276E+01  0.44793847099E+03  0.12699999809E+01 0.  1.
       -4    1    3    3    0  502 -0.20427795135E+02 -0.44743363896E+03 -0.73123953750E+02  0.45383133607E+03  0.12699999809E+01 0. -1.
</event>
<event>
 5   0  0.2356918E-04  0.9002374E+03  0.7818609E-02  0.9425285E-01
       -1   -1    0    0    0  501  0.00000000000E+00  0.00000000000E+00  0.36641613139E+03  0.36641613142E+03  0.50400001928E-02 0. -1.
        1   -1    0    0  501    0  0.00000000000E+00  0.00000000000E+00 -0.55294187434E+03  0.55294187436E+03  0.50400001928E-02 0.  1.
    10030    2    1    2    0    0  0.00000000000E+00  0.00000000000E+00 -0.18652574295E+03  0.91935800578E+03  0.90023735204E+03 0.  0.
        5    1    3    3  502    0 -0.15654644920E+03  0.42184301220E+03 -0.10474511087E+03  0.46200859944E+03  0.46999998093E+01 0.  1.
       -5    1    3    3    0  502  0.15654644920E+03 -0.42184301220E+03 -0.81780632080E+02  0.45734940635E+03  0.46999998093E+01 0. -1.
</event>
<event>
 5   0  0.4110039E-04  0.9000067E+03  0.7818609E-02  0.9425573E-01
       -2   -1    0    0    0  501  0.00000000000E+00  0.00000000000E+00  0.14870801899E+03  0.14870801901E+03  0.25500000920E-02 0.  1.
        2   -1    0    0  501    0  0.00000000000E+00  0.00000000000E+00 -0.13617492008E+04  0.13617492008E+04  0.25500000920E-02 0. -1.
    10030    2    1    2    0    0  0.00000000000E+00  0.00000000000E+00 -0.12130411818E+04  0.15104572198E+04  0.90000672448E+03 0.  0.
        3    1    3    3  502    0 -0.13120280650E+02  0.13130053791E+03 -0.13285508129E+04  0.13350877296E+04  0.10100000352E+00 0. -1.
       -3    1    3    3    0  502  0.13120280650E+02 -0.13130053791E+03  0.11550963111E+03  0.17536949022E+03  0.10100000352E+00 0.  1.
</event>
<event>
 5   0  0.3959804E-04  0.8989209E+03  0.7818609E-02  0.9426931E-01
       -2   -1    0    0    0  501  0.00000000000E+00  0.00000000000E+00  0.18351298144E+03  0.18351298146E+03  0.25500000920E-02 0.  1.
        2   -1    0    0  501    0  0.00000000000E+00  0.00000000000E+00 -0.11008197703E+04  0.11008197703E+04  0.25500000920E-02 0. -1.
    10030    2    1    2    0    0  0.00000000000E+00  0.00000000000E+00 -0.91730678889E+03  0.12843327518E+04  0.89892094891E+03 0.  0.
        5    1    3    3  502    0 -0.35672296495E+03 -0.16158475256E+03 -0.77372979866E+03  0.86720285823E+03  0.46999998093E+01 0. -1.
       -5    1    3    3    0  502  0.35672296495E+03  0.16158475256E+03 -0.14357699023E+03  0.41712989357E+03  0.46999998093E+01 0.  1.
</event>
<event>
 5   0  0.2356918E-04  0.9004522E+03  0.7818609E-02  0.9425016E-01
       -1   -1    0    0    0  501  0.00000000000E+00  0.00000000000E+00  0.27725112185E+03  0.27725112189E+03  0.50400001928E-02 0.  1.
        1   -1    0    0  501    0  0.00000000000E+00  0.00000000000E+00 -0.73111890109E+03  0.73111890111E+03  0.50400001928E-02 0. -1.
    10030    2    1    2    0    0  0.00000000000E+00  0.00000000000E+00 -0.45386777924E+03  0.10083700230E+04  0.90045218765E+03 0.  0.
        5    1    3    3  502    0 -0.28199353564E+03 -0.29126247537E+03 -0.76972353130E+01  0.40550649949E+03  0.46999998093E+01 0. -1.
       -5    1    3    3    0  502  0.28199353564E+03  0.29126247537E+03 -0.44617054393E+03  0.60286352350E+03  0.46999998093E+01 0.  1.
</event>
<event>
 5   0  0.4033144E-04  0.9005251E+03  0.7818609E-02  0.9424925E-01
       -2   -1    0    0    0  501  0.00000000000E+00  0.00000000000E+00  0.14963477187E+03  0.14963477189E+03  0.25500000920E-02 0. -1.
        2   -1    0    0  501    0  0.00000000000E+00  0.00000000000E+00 -0.13548746125E+04  0.13548746125E+04  0.25500000920E-02 0.  1.
    10030    2    1    2    0    0  0.00000000000E+00  0.00000000000E+00 -0.12052398407E+04  0.15045093844E+04  0.90052507699E+03 0.  0.
        4    1    3    3  502    0 -0.31035761669E+03 -0.25347214327E+03 -0.94568295243E+03  0.10270773277E+04  0.12699999809E+01 0.  1.
       -4    1    3    3    0  502  0.31035761669E+03  0.25347214327E+03 -0.25955688823E+03  0.47743205672E+03  0.12699999809E+01 0. -1.
</event>
<event>
 5   0  0.2308362E-04  0.9000219E+03  0.7818609E-02  0.9425554E-01
        1   -1    0    0  501    0  0.00000000000E+00  0.00000000000E+00  0.63521751041E+03  0.63521751043E+03  0.50400001928E-02 0. -1.
       -1   -1    0    0    0  501  0.00000000000E+00  0.00000000000E+00 -0.31880395985E+03  0.31880395988E+03  0.50400001928E-02 0.  1.
    10030    2    1    2    0    0  0.00000000000E+00  0.00000000000E+00  0.31641355057E+03  0.95402147032E+03  0.90002190576E+03 0.  0.
        1    1    3    3  502    0 -0.27370254723E+03 -0.77841861030E+02  0.52774559859E+03  0.59957306189E+03  0.50400001928E-02 0. -1.
       -1    1    3    3    0  502  0.27370254723E+03  0.77841861030E+02 -0.21133204802E+03  0.35444840843E+03  0.50400001928E-02 0.  1.
</event>
<event>
 5   0  0.2332791E-04  0.9001158E+03  0.7818609E-02  0.9425437E-01
        1   -1    0    0  501    0  0.00000000000E+00  0.00000000000E+00  0.22548739422E+04  0.22548739422E+04  0.50400001928E-02 0. -1.
       -1   -1    0    0    0  501  0.00000000000E+00  0.00000000000E+00 -0.89828566576E+02  0.89828566717E+02  0.50400001928E-02 0.  1.
    10030    2    1    2    0    0  0.00000000000E+00  0.00000000000E+00  0.21650453756E+04  0.23447025089E+04  0.90011575747E+03 0.  0.
        2    1    3    3  502    0  0.11826118320E+03 -0.24122373615E+03  0.14195360018E+03  0.30385098806E+03  0.25500000920E-02 0.  1.
       -2    1    3    3    0  502 -0.11826118320E+03  0.24122373615E+03  0.20230917754E+04  0.20408515209E+04  0.25500000920E-02 0. -1.
</event>
<event>
 5   0  0.2351435E-04  0.8994952E+03  0.7818609E-02  0.9426213E-01
       -1   -1    0    0    0  501  0.00000000000E+00  0.00000000000E+00  0.22241152160E+03  0.22241152165E+03  0.50400001928E-02 0.  1.
        1   -1    0    0  501    0  0.00000000000E+00  0.00000000000E+00 -0.90945342355E+03  0.90945342356E+03  0.50400001928E-02 0. -1.
    10030    2    1    2    0    0  0.00000000000E+00  0.00000000000E+00 -0.68704190195E+03  0.11318649452E+04  0.89949523577E+03 0.  0.
        4    1    3    3  502    0  0.79880554500E+02 -0.17892234853E+03  0.16587443387E+03  0.25672952792E+03  0.12699999809E+01 0.  1.
       -4    1    3    3    0  502 -0.79880554500E+02  0.17892234853E+03 -0.85291633582E+03  0.87513541730E+03  0.12699999809E+01 0. -1.
</event>
<event>
 5   0  0.2351435E-04  0.9000227E+03  0.7818609E-02  0.9425553E-01
        1   -1    0    0  501    0  0.00000000000E+00  0.00000000000E+00  0.88799489089E+03  0.88799489090E+03  0.50400001928E-02 0. -1.
       -1   -1    0    0    0  501  0.00000000000E+00  0.00000000000E+00 -0.22805337551E+03  0.22805337556E+03  0.50400001928E-02 0.  1.
    10030    2    1    2    0    0  0.00000000000E+00  0.00000000000E+00  0.65994151538E+03  0.11160482665E+04  0.90002273824E+03 0.  0.
        4    1    3    3  502    0 -0.79080080562E+02 -0.15085135998E+03  0.84647960822E+03  0.86344607937E+03  0.12699999809E+01 0. -1.
       -4    1    3    3    0  502  0.79080080562E+02  0.15085135998E+03 -0.18653809284E+03  0.25260218710E+03  0.12699999809E+01 0.  1.
</event>
<event>
 5   0  0.2308362E-04  0.9001434E+03  0.7818609E-02  0.9425402E-01
       -1   -1    0    0    0  501  0.00000000000E+00  0.00000000000E+00  0.24926528922E+03  0.24926528927E+03  0.50400001928E-02 0.  1.
        1   -1    0    0  501    0  0.00000000000E+00  0.00000000000E+00 -0.81264638168E+03  0.81264638169E+03  0.50400001928E-02 0. -1.
    10030    2    1    2    0    0  0.00000000000E+00  0.00000000000E+00 -0.56338109246E+03  0.10619116710E+04  0.90014340056E+03 0.  0.
        1    1    3    3  502    0 -0.72233746102E+02 -0.60100409302E+02 -0.80094528549E+03  0.80643854300E+03  0.50400001928E-02 0. -1.
       -1    1    3    3    0  502  0.72233746102E+02  0.60100409302E+02  0.23756419302E+03  0.25547312795E+03  0.50400001928E-02 0.  1.
</event>
<event>
 5   0  0.2356918E-04  0.9001457E+03  0.7818609E-02  0.9425399E-01
        1   -1    0    0  501    0  0.00000000000E+00  0.00000000000E+00  0.19076331358E+03  0.19076331364E+03  0.50400001928E-02 0.  1.
       -1   -1    0    0    0  501  0.00000000000E+00  0.00000000000E+00 -0.10618686435E+04  0.10618686435E+04  0.50400001928E-02 0. -1.
    10030    2    1    2    0    0  0.00000000000E+00  0.00000000000E+00 -0.87110532990E+03  0.12526319571E+04  0.90014572390E+03 0.  0.
        5    1    3    3  502    0 -0.19847207575E+03 -0.27114700488E+03 -0.18931521315E+02  0.33658929811E+03  0.46999998093E+01 0.  1.
       -5    1    3    3    0  502  0.19847207575E+03  0.27114700488E+03 -0.85217380858E+03  0.91604265902E+03  0.46999998093E+01 0. -1.
</event>
<event>
 5   0  0.4033144E-04  0.8999151E+03  0.7818609E-02  0.9425688E-01
       -2   -1    0    0    0  501  0.00000000000E+00  0.00000000000E+00  0.29024153550E+03  0.29024153551E+03  0.25500000920E-02 0.  1.
        2   -1    0    0  501    0  0.00000000000E+00  0.00000000000E+00 -0.69756316086E+03  0.69756316087E+03  0.25500000920E-02 0. -1.
    10030    2    1    2    0    0  0.00000000000E+00  0.00000000000E+00 -0.40732162536E+03  0.98780469637E+03  0.89991511360E+03 0.  0.
        4    1    3    3  502    0 -0.40161846015E+03  0.46000632243E+02  0.13240387628E+02  0.40446305945E+03  0.12699999809E+01 0. -1.
       -4    1    3    3    0  502  0.40161846015E+03 -0.46000632243E+02 -0.42056201299E+03  0.58334163692E+03  0.12699999809E+01 0.  1.
</event>
<event>
 5   0  0.2356918E-04  0.8996363E+03  0.7818609E-02  0.9426036E-01
       -1   -1    0    0    0  501  0.00000000000E+00  0.00000000000E+00  0.21399762485E+03  0.21399762491E+03  0.50400001928E-02 0.  1.
        1   -1    0    0  501    0  0.00000000000E+00  0.00000000000E+00 -0.94550757074E+03  0.94550757076E+03  0.50400001928E-02 0. -1.
    10030    2    1    2    0    0  0.00000000000E+00  0.00000000000E+00 -0.73150994590E+03  0.11595051957E+04  0.89963631420E+03 0.  0.
        5    1    3    3  502    0  0.24389347126E+03  0.24863680016E+03 -0.73259358322E+03  0.81118415412E+03  0.46999998093E+01 0. -1.
       -5    1    3    3    0  502 -0.24389347126E+03 -0.24863680016E+03  0.10836373209E+01  0.34832104155E+03  0.46999998093E+01 0.  1.
</event>
<event>
 5   0  0.4033144E-04  0.8996314E+03  0.7818609E-02  0.9426042E-01
        2   -1    0    0  501    0  0.00000000000E+00  0.00000000000E+00  0.60539415189E+03  0.60539415189E+03  0.25500000920E-02 0. -1.
       -2   -1    0    0    0  501  0.00000000000E+00  0.00000000000E+00 -0.33421889387E+03  0.33421889388E+03  0.25500000920E-02 0.  1.
    10030    2    1    2    0    0  0.00000000000E+00  0.00000000000E+00  0.27117525802E+03  0.93961304577E+03  0.89963139964E+03 0.  0.
        4    1    3    3  502    0  0.13259769165E+03  0.13294171996E+03  0.56250383382E+03  0.59301587222E+03  0.12699999809E+01 0. -1.
       -4    1    3    3    0  502 -0.13259769165E+03 -0.13294171996E+03 -0.29132857580E+03  0.34659717356E+03  0.12699999809E+01 0.  1.
</event>
<event>
 5   0  0.2308362E-04  0.8999095E+03  0.7818609E-02  0.9425695E-01
       -1   -1    0    0    0  501  0.00000000000E+00  0.00000000000E+00  0.14868128065E+03  0.14868128074E+03  0.50400001928E-02 0.  1.
        1   -1    0    0  501    0  0.00000000000E+00  0.00000000000E+00 -0.13616999829E+04  0.13616999829E+04  0.50400001928E-02 0. -1.
    10030    2    1    2    0    0  0.00000000000E+00  0.00000000000E+00 -0.12130187022E+04  0.15103812636E+04  0.89990954521E+03 0.  0.
        1    1    3    3  502    0 -0.40711350669E+03 -0.68385291100E+02 -0.30607950181E+03  0.51390915230E+03  0.50400001928E-02 0.  1.
       -1    1    3    3    0  502  0.40711350669E+03  0.68385291100E+02 -0.90693920043E+03  0.99647211133E+03  0.50400001928E-02 0. -1.
</event>
<event>
 5   0  0.1596250E-04  0.9008755E+03  0.7818609E-02  0.9424488E-01
       -3   -1    0    0    0  501  0.00000000000E+00  0.00000000000E+00  0.34155167662E+03  0.34155169156E+03  0.10100000352E+00 0.  1.
        3   -1    0    0  501    0  0.00000000000E+00  0.00000000000E+00 -0.59403652955E+03  0.59403653813E+03  0.10100000352E+00 0. -1.
    10030    2    1    2    0    0  0.00000000000E+00  0.00000000000E+00 -0.25248485292E+03  0.93558822969E+03  0.90087553778E+03 0.  0.
        1    1    3    3  502    0  0.31460878675E+03  0.72820069071E+02 -0.45236919825E+03  0.55580513016E+03  0.50400001928E-02 0. -1.
       -1    1    3    3    0  502 -0.31460878675E+03 -0.72820069071E+02  0.19988434532E+03  0.37978309953E+03  0.50400001928E-02 0.  1.
</event>
<event>
 5   0  0.4243516E-04  0.9001293E+03  0.7818609E-02  0.9425420E-01
       -2   -1    0    0    0  501  0.00000000000E+00  0.00000000000E+00  0.86575073046E+02  0.86575073084E+02  0.25500000920E-02 0. -1.
        2   -1    0    0  501    0  0.00000000000E+00  0.00000000000E+00 -0.23396828099E+04  0.23396828099E+04  0.25500000920E-02 0.  1.
    10030    2    1    2    0    0  0.00000000000E+00  0.00000000000E+00 -0.22531077369E+04  0.24262578830E+04  0.90012934675E+03 0.  0.
        1    1    3    3  502    0 -0.39750513294E+03 -0.21087710776E+03 -0.11504698443E+04  0.12353381513E+04  0.50400001928E-02 0. -1.
       -1    1    3    3    0  502  0.39750513294E+03  0.21087710776E+03 -0.11026378926E+04  0.11909197317E+04  0.50400001928E-02 0.  1.
</event>
<event>
 5   0  0.2308362E-04  0.9001054E+03  0.7818609E-02  0.9425450E-01
        1   -1    0    0  501    0  0.00000000000E+00  0.00000000000E+00  0.12868483724E+04  0.12868483724E+04  0.50400001928E-02 0.  1.
       -1   -1    0    0    0  501  0.00000000000E+00  0.00000000000E+00 -0.15739806080E+03  0.15739806088E+03  0.50400001928E-02 0. -1.
    10030    2    1    2    0    0  0.00000000000E+00  0.00000000000E+00  0.11294503116E+04  0.14442464333E+04  0.90010541256E+03 0.  0.
        1    1    3    3  502    0 -0.36822296458E+02  0.10141778563E+03  0.12657892225E+04  0.12703793939E+04  0.50400001928E-02 0.  1.
       -1    1    3    3    0  502  0.36822296458E+02 -0.10141778563E+03 -0.13633891084E+03  0.17386703940E+03  0.50400001928E-02 0. -1.
</event>
<event>
 5   0  0.4236284E-04  0.8998244E+03  0.7818609E-02  0.9425801E-01
        2   -1    0    0  501    0  0.00000000000E+00  0.00000000000E+00  0.11938475899E+04  0.11938475899E+04  0.25500000920E-02 0.  1.
       -2   -1    0    0    0  501  0.00000000000E+00  0.00000000000E+00 -0.16955347603E+03  0.16955347605E+03  0.25500000920E-02 0. -1.
    10030    2    1    2    0    0  0.00000000000E+00  0.00000000000E+00  0.10242941138E+04  0.13634010659E+04  0.89982444672E+03 0.  0.
        2    1    3    3  502    0 -0.17725648538E+03  0.16217852003E+03 -0.64219825119E+02  0.24868839923E+03  0.25500000920E-02 0.  1.
       -2    1    3    3    0  502  0.17725648538E+03 -0.16217852003E+03  0.10885139389E+04  0.11147126667E+04  0.25500000920E-02 0. -1.
</event>
<event>
 5   0  0.2308362E-04  0.9002572E+03  0.7818609E-02  0.9425260E-01
       -1   -1    0    0    0  501  0.00000000000E+00  0.00000000000E+00  0.98122942594E+03  0.98122942595E+03  0.50400001928E-02 0.  1.
        1   -1    0    0  501    0  0.00000000000E+00  0.00000000000E+00 -0.20649174569E+03  0.20649174575E+03  0.50400001928E-02 0. -1.
    10030    2    1    2    0    0  0.00000000000E+00  0.00000000000E+00  0.77473768025E+03  0.11877211717E+04  0.90025724575E+03 0.  0.
        1    1    3    3  502    0  0.10339364635E+03 -0.34375261015E+03  0.29060128891E+02  0.36013968707E+03  0.50400001928E-02 0. -1.
       -1    1    3    3    0  502 -0.10339364635E+03  0.34375261015E+03  0.74567755136E+03  0.82758148463E+03  0.50400001928E-02 0.  1.
</event>
<event>
 5   0  0.2450427E-04  0.8997158E+03  0.7818609E-02  0.9425937E-01
       -1   -1    0    0    0  501  0.00000000000E+00  0.00000000000E+00  0.13260449531E+03  0.13260449541E+03  0.50400001928E-02 0. -1.
        1   -1    0    0  501    0  0.00000000000E+00  0.00000000000E+00 -0.15261333962E+04  0.15261333962E+04  0.50400001928E-02 0.  1.
    10030    2    1    2    0    0  0.00000000000E+00  0.00000000000E+00 -0.13935289009E+04  0.16587378916E+04  0.89971584153E+03 0.  0.
        3    1    3    3  502    0 -0.34421076827E+03  0.25173529589E+03 -0.43266616020E+03  0.60749627865E+03  0.10100000352E+00 0.  1.
       -3    1    3    3    0  502  0.34421076827E+03 -0.25173529589E+03 -0.96086274072E+03  0.10512416130E+04  0.10100000352E+00 0. -1.
</event>
<event>
 5   0  0.2308362E-04  0.8999640E+03  0.7818609E-02  0.9425626E-01
        1   -1    0    0  501    0  0.00000000000E+00  0.00000000000E+00  0.17801929975E+04  0.17801929975E+04  0.50400001928E-02 0. -1.
       -1   -1    0    0    0  501  0.00000000000E+00  0.00000000000E+00 -0.11374260294E+03  0.11374260305E+03  0.50400001928E-02 0.  1.
    10030    2    1    2    0    0  0.00000000000E+00  0.00000000000E+00  0.16664503946E+04  0.18939356006E+04  0.89996396681E+03 0.  0.
        1    1    3    3  502    0  0.33612490897E+03  0.93735019562E+02  0.23533126672E+03  0.42088836221E+03  0.50400001928E-02 0.  1.
       -1    1    3    3    0  502 -0.33612490897E+03 -0.93735019562E+02  0.14311191279E+04  0.14730472384E+04  0.50400001928E-02 0. -1.
</event>
<event>
 5   0  0.3959804E-04  0.9004133E+03  0.7818609E-02  0.9425065E-01
        2   -1    0    0  501    0  0.00000000000E+00  0.00000000000E+00  0.14510223050E+04  0.14510223050E+04  0.25500000920E-02 0.  1.
       -2   -1    0    0    0  501  0.00000000000E+00  0.00000000000E+00 -0.13968497221E+03  0.13968497223E+03  0.25500000920E-02 0. -1.
    10030    2    1    2    0    0  0.00000000000E+00  0.00000000000E+00  0.13113373327E+04  0.15907072772E+04  0.90041326149E+03 0.  0.
        5    1    3    3  502    0 -0.28631723703E+03  0.29366013016E+03  0.32776705296E+03  0.52504015396E+03  0.46999998093E+01 0. -1.
       -5    1    3    3    0  502  0.28631723703E+03 -0.29366013016E+03  0.98357027979E+03  0.10656671232E+04  0.46999998093E+01 0.  1.
</event>
<event>
 5   0  0.4110039E-04  0.8972315E+03  0.7818609E-02  0.9429049E-01
       -2   -1    0    0    0  501  0.00000000000E+00  0.00000000000E+00  0.72583530230E+02  0.72583530275E+02  0.25500000920E-02 0.  1.
        2   -1    0    0  501    0  0.00000000000E+00  0.00000000000E+00 -0.27727514879E+04  0.27727514879E+04  0.25500000920E-02 0. -1.
    10030    2    1    2    0    0  0.00000000000E+00  0.00000000000E+00 -0.27001679576E+04  0.28453350181E+04  0.89723150080E+03 0.  0.
        3    1    3    3  502    0  0.43717057187E+03  0.29842124901E+02 -0.10451265713E+04  0.11332688214E+04  0.10100000352E+00 0. -1.
       -3    1    3    3    0  502 -0.43717057187E+03 -0.29842124901E+02 -0.16550413863E+04  0.17120661967E+04  0.10100000352E+00 0.  1.
</event>
<event>
 5   0  0.4243516E-04  0.9000613E+03  0.7818609E-02  0.9425505E-01
       -2   -1    0    0    0  501  0.00000000000E+00  0.00000000000E+00  0.73535458395E+03  0.73535458396E+03  0.25500000920E-02 0.  1.
        2   -1    0    0  501    0  0.00000000000E+00  0.00000000000E+00 -0.27541489873E+03  0.27541489874E+03  0.25500000920E-02 0. -1.
    10030    2    1    2    0    0  0.00000000000E+00  0.00000000000E+00  0.45993968522E+03  0.10107694827E+04  0.90006134964E+03 0.  0.
        1    1    3    3  502    0  0.84187356144E+02  0.12282837296E+03 -0.24694631993E+03  0.28836921662E+03  0.50400001928E-02 0. -1.
       -1    1    3    3    0  502 -0.84187356144E+02 -0.12282837296E+03  0.70688600515E+03  0.72240026609E+03  0.50400001928E-02 0.  1.
</event>
<event>
 5   0  0.2332791E-04  0.9003584E+03  0.7818609E-02  0.9425134E-01
        1   -1    0    0  501    0  0.00000000000E+00  0.00000000000E+00  0.21110577706E+03  0.21110577712E+03  0.50400001928E-02 0. -1.
       -1   -1    0    0    0  501  0.00000000000E+00  0.00000000000E+00 -0.95999886705E+03  0.95999886707E+03  0.50400001928E-02 0.  1.
    10030    2    1    2    0    0  0.00000000000E+00  0.00000000000E+00 -0.74889308999E+03  0.11711046442E+04  0.90035838831E+03 0.  0.
        2    1    3    3  502    0 -0.23935542731E+03 -0.24485146743E+03 -0.75459663899E+03  0.82864911107E+03  0.25500000920E-02 0.  1.
       -2    1    3    3    0  502  0.23935542731E+03  0.24485146743E+03  0.57035490030E+01  0.34245553312E+03  0.25500000920E-02 0. -1.
</event>
<event>
 5   0  0.2308362E-04  0.8997404E+03  0.7818609E-02  0.9425906E-01
       -1   -1    0    0    0  501  0.00000000000E+00  0.00000000000E+00  0.22805919525E+03  0.22805919530E+03  0.50400001928E-02 0. -1.
        1   -1    0    0  501    0  0.00000000000E+00  0.00000000000E+00 -0.88741514241E+03  0.88741514242E+03  0.50400001928E-02 0.  1.
    10030    2    1    2    0    0  0.00000000000E+00  0.00000000000E+00 -0.65935594716E+03  0.11154743377E+04  0.89974036981E+03 0.  0.
        1    1    3    3  502    0 -0.33286186766E+03 -0.19861847911E+03 -0.46594306639E+02  0.39040665033E+03  0.50400001928E-02 0. -1.
       -1    1    3    3    0  502  0.33286186766E+03  0.19861847911E+03 -0.61276164053E+03  0.72506768740E+03  0.50400001928E-02 0.  1.
</event>
<event>
 5   0  0.3959804E-04  0.8943362E+03  0.7818609E-02  0.9432689E-01
       -2   -1    0    0    0  501  0.00000000000E+00  0.00000000000E+00  0.12562850107E+03  0.12562850109E+03  0.25500000920E-02 0.  1.
        2   -1    0    0  501    0  0.00000000000E+00  0.00000000000E+00 -0.15916714313E+04  0.15916714313E+04  0.25500000920E-02 0. -1.
    10030    2    1    2    0    0  0.00000000000E+00  0.00000000000E+00 -0.14660429302E+04  0.17172999324E+04  0.89433616976E+03 0.  0.
        5    1    3    3  502    0  0.59179081686E+02 -0.11025986840E+03 -0.15573149579E+04  0.15623416305E+04  0.46999998093E+01 0. -1.
       -5    1    3    3    0  502 -0.59179081686E+02  0.11025986840E+03  0.91272027681E+02  0.15495830189E+03  0.46999998093E+01 0.  1.
</event>
<event>
 5   0  0.2450427E-04  0.9000197E+03  0.7818609E-02  0.9425557E-01
        1   -1    0    0  501    0  0.00000000000E+00  0.00000000000E+00  0.43378400426E+03  0.43378400429E+03  0.50400001928E-02 0.  1.
       -1   -1    0    0    0  501  0.00000000000E+00  0.00000000000E+00 -0.46684267111E+03  0.46684267114E+03  0.50400001928E-02 0. -1.
    10030    2    1    2    0    0  0.00000000000E+00  0.00000000000E+00 -0.33058666848E+02  0.90062667543E+03  0.90001974036E+03 0.  0.
        3    1    3    3  502    0 -0.20773569496E+03 -0.21548681997E+03  0.31973326191E+03  0.43797038429E+03  0.10100000352E+00 0.  1.
       -3    1    3    3    0  502  0.20773569496E+03  0.21548681997E+03 -0.35279192875E+03  0.46265629115E+03  0.10100000352E+00 0. -1.
</event>
<event>
 5   0  0.2351435E-04  0.8999340E+03  0.7818609E-02  0.9425664E-01
        1   -1    0    0  501    0  0.00000000000E+00  0.00000000000E+00  0.11151069217E+04  0.11151069217E+04  0.50400001928E-02 0. -1.
       -1   -1    0    0    0  501  0.00000000000E+00  0.00000000000E+00 -0.18157030654E+03  0.18157030661E+03  0.50400001928E-02 0.  1.
    10030    2    1    2    0    0  0.00000000000E+00  0.00000000000E+00  0.93353661516E+03  0.12966772283E+04  0.89993401015E+03 0.  0.
        4    1    3    3  502    0 -0.19535961083E+03  0.12861854919E+03  0.10206289672E+04  0.10470879669E+04  0.12699999809E+01 0. -1.
       -4    1    3    3    0  502  0.19535961083E+03 -0.12861854919E+03 -0.87092352072E+02  0.24958926145E+03  0.12699999809E+01 0.  1.
</event>
<event>
 5   0  0.3959804E-04  0.9005619E+03  0.7818609E-02  0.9424879E-01
       -2   -1    0    0    0  501  0.00000000000E+00  0.00000000000E+00  0.21454399751E+03  0.21454399753E+03  0.25500000920E-02 0.  1.
        2   -1    0    0  501    0  0.00000000000E+00  0.00000000000E+00 -0.94504122792E+03  0.94504122792E+03  0.25500000920E-02 0. -1.
    10030    2    1    2    0    0  0.00000000000E+00  0.00000000000E+00 -0.73049723040E+03  0.11595852254E+04  0.90056187541E+03 0.  0.
        5    1    3    3  502    0  0.32628477991E+03 -0.30928503652E+03 -0.39709855101E+03  0.59985693347E+03  0.46999998093E+01 0.  1.
       -5    1    3    3    0  502 -0.32628477991E+03  0.30928503652E+03 -0.33339867940E+03  0.55972829198E+03  0.46999998093E+01 0. -1.
</event>
<event>
 5   0  0.2356918E-04  0.9000514E+03  0.7818609E-02  0.9425517E-01
       -1   -1    0    0    0  501  0.00000000000E+00  0.00000000000E+00  0.46329378362E+03  0.46329378365E+03  0.50400001928E-02 0. -1.
        1   -1    0    0  501    0  0.00000000000E+00  0.00000000000E+00 -0.43713763934E+03  0.43713763937E+03  0.50400001928E-02 0.  1.
    10030    2    1    2    0    0  0.00000000000E+00  0.00000000000E+00  0.26156144277E+02  0.90043142302E+03  0.90005144502E+03 0.  0.
        5    1    3    3  502    0 -0.51214534098E+02 -0.19333372396E+03  0.41636139583E+03  0.46193047016E+03  0.46999998093E+01 0. -1.
       -5    1    3    3    0  502  0.51214534098E+02  0.19333372396E+03 -0.39020525155E+03  0.43850095286E+03  0.46999998093E+01 0.  1.
</event>
<event>
 5   0  0.3959804E-04  0.9000050E+03  0.7818609E-02  0.9425575E-01
        2   -1    0    0  501    0  0.00000000000E+00  0.00000000000E+00  0.33687814169E+03  0.33687814170E+03  0.25500000920E-02 0.  1.
       -2   -1    0    0    0  501  0.00000000000E+00  0.00000000000E+00 -0.60111418932E+03  0.60111418933E+03  0.25500000920E-02 0. -1.
    10030    2    1    2    0    0  0.00000000000E+00  0.00000000000E+00 -0.26423604763E+03  0.93799233103E+03  0.90000495788E+03 0.  0.
        5    1    3    3  502    0 -0.12803357245E+03 -0.17155783506E+03 -0.54462105707E+03  0.58519985667E+03  0.46999998093E+01 0. -1.
       -5    1    3    3    0  502  0.12803357245E+03  0.17155783506E+03  0.28038500944E+03  0.35279247436E+03  0.46999998093E+01 0.  1.
</event>
<event>
 5   0  0.4033144E-04  0.9003079E+03  0.7818609E-02  0.9425197E-01
        2   -1    0    0  501    0  0.00000000000E+00  0.00000000000E+00  0.95946460841E+03  0.95946460841E+03  0.25500000920E-02 0. -1.
       -2   -1    0    0    0  501  0.00000000000E+00  0.00000000000E+00 -0.21119965650E+03  0.21119965651E+03  0.25500000920E-02 0.  1.
    10030    2    1    2    0    0  0.00000000000E+00  0.00000000000E+00  0.74826495191E+03  0.11706642649E+04  0.90030793783E+03 0.  0.
        4    1    3    3  502    0 -0.32050962851E+03  0.31312494332E+03  0.43026134037E+03  0.62120856885E+03  0.12699999809E+01 0. -1.
       -4    1    3    3    0  502  0.32050962851E+03 -0.31312494332E+03  0.31800361154E+03  0.54945569607E+03  0.12699999809E+01 0.  1.
</event>
<event>
 5   0  0.4243516E-04  0.9002407E+03  0.7818609E-02  0.9425281E-01
        2   -1    0    0  501    0  0.00000000000E+00  0.00000000000E+00  0.16850795865E+04  0.16850795865E+04  0.25500000920E-02 0. -1.
       -2   -1    0    0    0  501  0.00000000000E+00  0.00000000000E+00 -0.12023666088E+03  0.12023666091E+03  0.25500000920E-02 0.  1.
    10030    2    1    2    0    0  0.00000000000E+00  0.00000000000E+00  0.15648429256E+04  0.18053162474E+04  0.90024072963E+03 0.  0.
        1    1    3    3  502    0  0.58839385830E+02 -0.89601340631E+01  0.16771538580E+04  0.16782095879E+04  0.50400001928E-02 0. -1.
       -1    1    3    3    0  502 -0.58839385830E+02  0.89601340631E+01 -0.11231093242E+03  0.12710665952E+03  0.50400001928E-02 0.  1.
</event>
<event>
 5   0  0.4243516E-04  0.9000498E+03  0.7818609E-02  0.9425519E-01
        2   -1    0    0  501    0  0.00000000000E+00  0.00000000000E+00  0.11820569825E+04  0.11820569825E+04  0.25500000920E-02 0. -1.
       -2   -1    0    0    0  501  0.00000000000E+00  0.00000000000E+00 -0.17133047854E+03  0.17133047856E+03  0.25500000920E-02 0.  1.
    10030    2    1    2    0    0  0.00000000000E+00  0.00000000000E+00  0.10107265039E+04  0.13533874610E+04  0.90004975081E+03 0.  0.
        1    1    3    3  502    0  0.43993663467E+03 -0.86083077456E+02  0.44582338674E+03  0.63222862237E+03  0.50400001928E-02 0.  1.
       -1    1    3    3    0  502 -0.43993663467E+03  0.86083077456E+02  0.56490311719E+03  0.72115883867E+03  0.50400001928E-02 0. -1.
</event>
<event>
 5   0  0.2332791E-04  0.8999332E+03  0.7818609E-02  0.9425665E-01
       -1   -1    0    0    0  501  0.00000000000E+00  0.00000000000E+00  0.20421585741E+03  0.20421585747E+03  0.50400001928E-02 0.  1.
        1   -1    0    0  501    0  0.00000000000E+00  0.00000000000E+00 -0.99145057954E+03  0.99145057955E+03  0.50400001928E-02 0. -1.
    10030    2    1    2    0    0  0.00000000000E+00  0.00000000000E+00 -0.78723472213E+03  0.11956664370E+04  0.89993317579E+03 0.  0.
        2    1    3    3  502    0 -0.56867578114E+02 -0.24535178099E+03  0.10179556348E+03  0.27165005913E+03  0.25500000920E-02 0.  1.
       -2    1    3    3    0  502  0.56867578114E+02  0.24535178099E+03 -0.88903028560E+03  0.92401637789E+03  0.25500000920E-02 0. -1.
</event>
<event>
 5   0  0.4243516E-04  0.9005724E+03  0.7818609E-02  0.9424866E-01
       -2   -1    0    0    0  501  0.00000000000E+00  0.00000000000E+00  0.86553300821E+02  0.86553300858E+02  0.25500000920E-02 0.  1.
        2   -1    0    0  501    0  0.00000000000E+00  0.00000000000E+00 -0.23425756610E+04  0.23425756610E+04  0.25500000920E-02 0. -1.
    10030    2    1    2    0    0  0.00000000000E+00  0.00000000000E+00 -0.22560223602E+04  0.24291289619E+04  0.90057238672E+03 0.  0.
        1    1    3    3  502    0  0.28465841698E+03 -0.13663774739E+03 -0.26210374669E+03  0.41036406083E+03  0.50400001928E-02 0.  1.
       -1    1    3    3    0  502 -0.28465841698E+03  0.13663774739E+03 -0.19939186135E+04  0.20187649010E+04  0.50400001928E-02 0. -1.
</event>
<event>
 5   0  0.2356918E-04  0.9014655E+03  0.7818609E-02  0.9423751E-01
       -1   -1    0    0    0  501  0.00000000000E+00  0.00000000000E+00  0.57483186797E+03  0.57483186800E+03  0.50400001928E-02 0. -1.
        1   -1    0    0  501    0  0.00000000000E+00  0.00000000000E+00 -0.35342513823E+03  0.35342513826E+03  0.50400001928E-02 0.  1.
    10030    2    1    2    0    0  0.00000000000E+00  0.00000000000E+00  0.22140672975E+03  0.92825700626E+03  0.90146554548E+03 0.  0.
        5    1    3    3  502    0 -0.38410492653E+03 -0.22591816126E+03  0.41150894773E+02  0.44753893273E+03  0.46999998093E+01 0.  1.
       -5    1    3    3    0  502  0.38410492653E+03  0.22591816126E+03  0.18025583498E+03  0.48071807352E+03  0.46999998093E+01 0. -1.
</event>
<event>
 5   0  0.2450427E-04  0.8997494E+03  0.7818609E-02  0.9425895E-01
        1   -1    0    0  501    0  0.00000000000E+00  0.00000000000E+00  0.19013271608E+04  0.19013271608E+04  0.50400001928E-02 0.  1.
       -1   -1    0    0    0  501  0.00000000000E+00  0.00000000000E+00 -0.10644524669E+03  0.10644524681E+03  0.50400001928E-02 0. -1.
    10030    2    1    2    0    0  0.00000000000E+00  0.00000000000E+00  0.17948819141E+04  0.20077724076E+04  0.89974938467E+03 0.  0.
        3    1    3    3  502    0  0.12094623701E+03  0.32670528618E+03  0.15326209271E+04  0.15717160216E+04  0.10100000352E+00 0. -1.
       -3    1    3    3    0  502 -0.12094623701E+03 -0.32670528618E+03  0.26226098704E+03  0.43605638602E+03  0.10100000352E+00 0.  1.
</event>
<event>
 5   0  0.4033144E-04  0.9007896E+03  0.7818609E-02  0.9424595E-01
       -2   -1    0    0    0  501  0.00000000000E+00  0.00000000000E+00  0.44465168229E+03  0.44465168230E+03  0.25500000920E-02 0. -1.
        2   -1    0    0  501    0  0.00000000000E+00  0.00000000000E+00 -0.45621211414E+03  0.45621211415E+03  0.25500000920E-02 0.  1.
    10030    2    1    2    0    0  0.00000000000E+00  0.00000000000E+00 -0.11560431845E+02  0.90086379645E+03  0.90078961815E+03 0.  0.
        4    1    3    3  502    0  0.32383651430E+03  0.30526933670E+03  0.63467201882E+02  0.44954327327E+03  0.12699999809E+01 0.  1.
       -4    1    3    3    0  502 -0.32383651430E+03 -0.30526933670E+03 -0.75027633727E+02  0.45132052318E+03  0.12699999809E+01 0. -1.
</event>
<event>
 5   0  0.2351435E-04  0.9002408E+03  0.7818609E-02  0.9425280E-01
       -1   -1    0    0    0  501  0.00000000000E+00  0.00000000000E+00  0.97308512834E+03  0.97308512835E+03  0.50400001928E-02 0. -1.
        1   -1    0    0  501    0  0.00000000000E+00  0.00000000000E+00 -0.20821239004E+03  0.20821239010E+03  0.50400001928E-02 0.  1.
    10030    2    1    2    0    0  0.00000000000E+00  0.00000000000E+00  0.76487273829E+03  0.11812975185E+04  0.90024081296E+03 0.  0.
        4    1    3    3  502    0 -0.14289796267E+03  0.38231227804E+03  0.63149301697E+03  0.75190926916E+03  0.12699999809E+01 0. -1.
       -4    1    3    3    0  502  0.14289796267E+03 -0.38231227804E+03  0.13337972133E+03  0.42938824929E+03  0.12699999809E+01 0.  1.
</event>
<event>
 5   0  0.4110039E-04  0.9000802E+03  0.7818609E-02  0.9425481E-01
       -2   -1    0    0    0  501  0.00000000000E+00  0.00000000000E+00  0.85973498665E+02  0.85973498702E+02  0.25500000920E-02 0.  1.
        2   -1    0    0  501    0  0.00000000000E+00  0.00000000000E+00 -0.23557969790E+04  0.23557969790E+04  0.25500000920E-02 0. -1.
    10030    2    1    2    0    0  0.00000000000E+00  0.00000000000E+00 -0.22698234803E+04  0.24417704777E+04  0.90008023747E+03 0.  0.
        3    1    3    3  502    0 -0.38005694254E+03  0.23921264002E+02 -0.48427994109E+03  0.61607027033E+03  0.10100000352E+00 0.  1.
       -3    1    3    3    0  502  0.38005694254E+03 -0.23921264002E+02 -0.17855435392E+04  0.18257002073E+04  0.10100000352E+00 0. -1.
</event>
<event>
 5   0  0.4110039E-04  0.9003398E+03  0.7818609E-02  0.9425157E-01
        2   -1    0    0  501    0  0.00000000000E+00  0.00000000000E+00  0.78149546264E+03  0.78149546264E+03  0.25500000920E-02 0.  1.
       -2   -1    0    0    0  501  0.00000000000E+00  0.00000000000E+00 -0.25931425974E+03  0.25931425976E+03  0.25500000920E-02 0. -1.
    10030    2    1    2    0    0  0.00000000000E+00  0.00000000000E+00  0.52218120290E+03  0.10408097224E+04  0.90033975231E+03 0.  0.
        3    1    3    3  502    0 -0.49290880561E+02 -0.28730266508E+03  0.65765813638E+03  0.71936544733E+03  0.10100000352E+00 0.  1.
       -3    1    3    3    0  502  0.49290880561E+02  0.28730266508E+03 -0.13547693348E+03  0.32144427507E+03  0.10100000352E+00 0. -1.
</event>
<event>
 5   0  0.4110039E-04  0.8996127E+03  0.7818609E-02  0.9426066E-01
       -2   -1    0    0    0  501  0.00000000000E+00  0.00000000000E+00  0.28423307571E+03  0.28423307572E+03  0.25500000920E-02 0.  1.
        2   -1    0    0  501    0  0.00000000000E+00  0.00000000000E+00 -0.71183040569E+03  0.71183040569E+03  0.25500000920E-02 0. -1.
    10030    2    1    2    0    0  0.00000000000E+00  0.00000000000E+00 -0.42759732997E+03  0.99606348142E+03  0.89961268466E+03 0.  0.
        3    1    3    3  502    0 -0.72774962533E+02 -0.10888514292E+03 -0.69025262663E+03  0.70256734075E+03  0.10100000352E+00 0. -1.
       -3    1    3    3    0  502  0.72774962533E+02  0.10888514292E+03  0.26265529666E+03  0.29349614066E+03  0.10100000352E+00 0.  1.
</event>
<event>
 5   0  0.2332791E-04  0.9001531E+03  0.7818609E-02  0.9425390E-01
        1   -1    0    0  501    0  0.00000000000E+00  0.00000000000E+00  0.16822722529E+04  0.16822722529E+04  0.50400001928E-02 0.  1.
       -1   -1    0    0    0  501  0.00000000000E+00  0.00000000000E+00 -0.12041386387E+03  0.12041386397E+03  0.50400001928E-02 0. -1.
    10030    2    1    2    0    0  0.00000000000E+00  0.00000000000E+00  0.15618583890E+04  0.18026861168E+04  0.90015310286E+03 0.  0.
        2    1    3    3  502    0  0.18003107676E+03  0.10557806865E+03 -0.17648719885E+02  0.20945021962E+03  0.25500000920E-02 0. -1.
       -2    1    3    3    0  502 -0.18003107676E+03 -0.10557806865E+03  0.15795071089E+04  0.15932358972E+04  0.25500000920E-02 0.  1.
</event>
<event>
 5   0  0.3959804E-04  0.8971115E+03  0.7818609E-02  0.9429199E-01
       -2   -1    0    0    0  501  0.00000000000E+00  0.00000000000E+00  0.21772383007E+03  0.21772383008E+03  0.25500000920E-02 0. -1.
        2   -1    0    0  501    0  0.00000000000E+00  0.00000000000E+00 -0.92411679082E+03  0.92411679082E+03  0.25500000920E-02 0.  1.
    10030    2    1    2    0    0  0.00000000000E+00  0.00000000000E+00 -0.70639296075E+03  0.11418406209E+04  0.89711146941E+03 0.  0.
        5    1    3    3  502    0 -0.13581160284E+03 -0.32648901200E+03 -0.70440605348E+03  0.78819403994E+03  0.46999998093E+01 0.  1.
       -5    1    3    3    0  502  0.13581160284E+03  0.32648901200E+03 -0.19869072698E+01  0.35364658096E+03  0.46999998093E+01 0. -1.
</event>
<event>
 5   0  0.3959804E-04  0.8983575E+03  0.7818609E-02  0.9427637E-01
        2   -1    0    0  501    0  0.00000000000E+00  0.00000000000E+00  0.90632304117E+03  0.90632304117E+03  0.25500000920E-02 0.  1.
       -2   -1    0    0    0  501  0.00000000000E+00  0.00000000000E+00 -0.22261550544E+03  0.22261550545E+03  0.25500000920E-02 0. -1.
    10030    2    1    2    0    0  0.00000000000E+00  0.00000000000E+00  0.68370753573E+03  0.11289385466E+04  0.89835752774E+03 0.  0.
        5    1    3    3  502    0 -0.20279662479E+03 -0.23832764513E+02 -0.16088473362E+03  0.26000088308E+03  0.46999998093E+01 0. -1.
       -5    1    3    3    0  502  0.20279662479E+03  0.23832764513E+02  0.84459226935E+03  0.86893766355E+03  0.46999998093E+01 0.  1.
</event>
<event>
 5   0  0.4033144E-04  0.9002389E+03  0.7818609E-02  0.9425283E-01
        2   -1    0    0  501    0  0.00000000000E+00  0.00000000000E+00  0.15882913124E+04  0.15882913124E+04  0.25500000920E-02 0.  1.
       -2   -1    0    0    0  501  0.00000000000E+00  0.00000000000E+00 -0.12756320082E+03  0.12756320084E+03  0.25500000920E-02 0. -1.
    10030    2    1    2    0    0  0.00000000000E+00  0.00000000000E+00  0.14607281116E+04  0.17158545132E+04  0.90023890975E+03 0.  0.
        4    1    3    3  502    0  0.35300209277E+03  0.27768038381E+03  0.67353338635E+03  0.80954660674E+03  0.12699999809E+01 0. -1.
       -4    1    3    3    0  502 -0.35300209277E+03 -0.27768038381E+03  0.78719472521E+03  0.90630790648E+03  0.12699999809E+01 0.  1.
</event>
<event>
 5   0  0.4033144E-04  0.9006105E+03  0.7818609E-02  0.9424819E-01
        2   -1    0    0  501    0  0.00000000000E+00  0.00000000000E+00  0.30795581684E+03  0.30795581685E+03  0.25500000920E-02 0.  1.
       -2   -1    0    0    0  501  0.00000000000E+00  0.00000000000E+00 -0.65845424842E+03  0.65845424843E+03  0.25500000920E-02 0. -1.
    10030    2    1    2    0    0  0.00000000000E+00  0.00000000000E+00 -0.35049843158E+03  0.96641006527E+03  0.90061049501E+03 0.  0.
        4    1    3    3  502    0 -0.12449880742E+03 -0.36530664760E+03 -0.42420008622E+03  0.57349474791E+03  0.12699999809E+01 0. -1.
       -4    1    3    3    0  502  0.12449880742E+03  0.36530664760E+03  0.73701654634E+02  0.39291531737E+03  0.12699999809E+01 0.  1.
</event>
<event>
 5   0  0.2332791E-04  0.9002082E+03  0.7818609E-02  0.9425321E-01
        1   -1    0    0  501    0  0.00000000000E+00  0.00000000000E+00  0.48742021050E+03  0.48742021053E+03  0.50400001928E-02 0. -1.
       -1   -1    0    0    0  501  0.00000000000E+00  0.00000000000E+00 -0.41564486685E+03  0.41564486688E+03  0.50400001928E-02 0.  1.
    10030    2    1    2    0    0  0.00000000000E+00  0.00000000000E+00  0.71775343647E+02  0.90306507741E+03  0.90020821707E+03 0.  0.
        2    1    3    3  502    0  0.43509259805E+03  0.76893756024E+02  0.12204089142E+03  0.45837997096E+03  0.25500000920E-02 0. -1.
       -2    1    3    3    0  502 -0.43509259805E+03 -0.76893756024E+02 -0.50265547772E+02  0.44468510645E+03  0.25500000920E-02 0.  1.
</event>
<event>
 5   0  0.4110039E-04  0.8996396E+03  0.7818609E-02  0.9426032E-01
        2   -1    0    0  501    0  0.00000000000E+00  0.00000000000E+00  0.15787136335E+04  0.15787136336E+04  0.25500000920E-02 0.  1.
       -2   -1    0    0    0  501  0.00000000000E+00  0.00000000000E+00 -0.12816628933E+03  0.12816628936E+03  0.25500000920E-02 0. -1.
    10030    2    1    2    0    0  0.00000000000E+00  0.00000000000E+00  0.14505473442E+04  0.17068799229E+04  0.89963963531E+03 0.  0.
        3    1    3    3  502    0 -0.26341919000E+03  0.35471011900E+03  0.56507966723E+03  0.71730326828E+03  0.10100000352E+00 0. -1.
       -3    1    3    3    0  502  0.26341919000E+03 -0.35471011900E+03  0.88546767699E+03  0.98957665462E+03  0.10100000352E+00 0.  1.
</event>
<event>
 5   0  0.2351435E-04  0.8999771E+03  0.7818609E-02  0.9425610E-01
       -1   -1    0    0    0  501  0.00000000000E+00  0.00000000000E+00  0.46917380585E+03  0.46917380587E+03  0.50400001928E-02 0. -1.
        1   -1    0    0  501    0  0.00000000000E+00  0.00000000000E+00 -0.43158784925E+03  0.43158784928E+03  0.50400001928E-02 0.  1.
    10030    2    1    2    0    0  0.00000000000E+00  0.00000000000E+00  0.37585956595E+02  0.90076165515E+03  0.89997714152E+03 0.  0.
        4    1    3    3  502    0 -0.42330290084E+03  0.14330483800E+03  0.71436151294E+02  0.45257746195E+03  0.12699999809E+01 0. -1.
       -4    1    3    3    0  502  0.42330290084E+03 -0.14330483800E+03 -0.33850194699E+02  0.44818419320E+03  0.12699999809E+01 0.  1.
</event>
<event>
 5   0  0.4243516E-04  0.8998785E+03  0.7818609E-02  0.9425733E-01
        2   -1    0    0  501    0  0.00000000000E+00  0.00000000000E+00  0.11850214386E+04  0.11850214386E+04  0.25500000920E-02 0.  1.
       -2   -1    0    0    0  501  0.00000000000E+00  0.00000000000E+00 -0.17083683588E+03  0.17083683590E+03  0.25500000920E-02 0. -1.
    10030    2    1    2    0    0  0.00000000000E+00  0.00000000000E+00  0.10141846027E+04  0.13558582745E+04  0.89987846521E+03 0.  0.
        1    1    3    3  502    0 -0.96100423107E+01 -0.13633032292E+03 -0.13880609074E+03  0.19479589501E+03  0.50400001928E-02 0. -1.
       -1    1    3    3    0  502  0.96100423107E+01  0.13633032292E+03  0.11529906935E+04  0.11610623795E+04  0.50400001928E-02 0.  1.
</event>
<event>
 5   0  0.4236284E-04  0.9000885E+03  0.7818609E-02  0.9425471E-01
       -2   -1    0    0    0  501  0.00000000000E+00  0.00000000000E+00  0.30248196256E+03  0.30248196257E+03  0.25500000920E-02 0. -1.
        2   -1    0    0  501    0  0.00000000000E+00  0.00000000000E+00 -0.66959307814E+03  0.66959307814E+03  0.25500000920E-02 0.  1.
    10030    2    1    2    0    0  0.00000000000E+00  0.00000000000E+00 -0.36711111557E+03  0.97207504071E+03  0.90008850320E+03 0.  0.
        2    1    3    3  502    0 -0.30545291625E+03 -0.23340861575E+03  0.69165476274E+02  0.39059560810E+03  0.25500000920E-02 0. -1.
       -2    1    3    3    0  502  0.30545291625E+03  0.23340861575E+03 -0.43627659185E+03  0.58147943261E+03  0.25500000920E-02 0.  1.
</event>
<event>
 5   0  0.2351435E-04  0.9000266E+03  0.7818609E-02  0.9425548E-01
       -1   -1    0    0    0  501  0.00000000000E+00  0.00000000000E+00  0.33311679916E+03  0.33311679919E+03  0.50400001928E-02 0. -1.
        1   -1    0    0  501    0  0.00000000000E+00  0.00000000000E+00 -0.60793084993E+03  0.60793084995E+03  0.50400001928E-02 0.  1.
    10030    2    1    2    0    0  0.00000000000E+00  0.00000000000E+00 -0.27481405078E+03  0.94104764915E+03  0.90002661931E+03 0.  0.
        4    1    3    3  502    0 -0.40223601054E+03 -0.17380752710E+03 -0.24458510873E+03  0.50182302952E+03  0.12699999809E+01 0.  1.
       -4    1    3    3    0  502  0.40223601054E+03  0.17380752710E+03 -0.30228942048E+02  0.43922461963E+03  0.12699999809E+01 0. -1.
</event>
<event>
 5   0  0.2332791E-04  0.8998665E+03  0.7818609E-02  0.9425748E-01
       -1   -1    0    0    0  501  0.00000000000E+00  0.00000000000E+00  0.79258844916E+03  0.79258844918E+03  0.50400001928E-02 0. -1.
        1   -1    0    0  501    0  0.00000000000E+00  0.00000000000E+00 -0.25541621552E+03  0.25541621557E+03  0.50400001928E-02 0.  1.
    10030    2    1    2    0    0  0.00000000000E+00  0.00000000000E+00  0.53717223364E+03  0.10480046647E+04  0.89986652829E+03 0.  0.
        2    1    3    3  502    0  0.22185526278E+03  0.26024295676E+03  0.60911377971E+03  0.69854545364E+03  0.25500000920E-02 0. -1.
       -2    1    3    3    0  502 -0.22185526278E+03 -0.26024295676E+03 -0.71941546064E+02  0.34945921110E+03  0.25500000920E-02 0.  1.
</event>
<event>
 5   0  0.4033144E-04  0.8999984E+03  0.7818609E-02  0.9425583E-01
       -2   -1    0    0    0  501  0.00000000000E+00  0.00000000000E+00  0.62292482427E+03  0.62292482427E+03  0.25500000920E-02 0.  1.
        2   -1    0    0  501    0  0.00000000000E+00  0.00000000000E+00 -0.32507822076E+03  0.32507822077E+03  0.25500000920E-02 0. -1.
    10030    2    1    2    0    0  0.00000000000E+00  0.00000000000E+00  0.29784660350E+03  0.94800304504E+03  0.89999843011E+03 0.  0.
        4    1    3    3  502    0 -0.34213320919E+03  0.59131136645E+02  0.45045433079E+03  0.56873749760E+03  0.12699999809E+01 0.  1.
       -4    1    3    3    0  502  0.34213320919E+03 -0.59131136645E+02 -0.15260772729E+03  0.37926554745E+03  0.12699999809E+01 0. -1.
</event>
<event>
 5   0  0.4033144E-04  0.9004724E+03  0.7818609E-02  0.9424991E-01
       -2   -1    0    0    0  501  0.00000000000E+00  0.00000000000E+00  0.39017541730E+03  0.39017541731E+03  0.25500000920E-02 0.  1.
        2   -1    0    0  501    0  0.00000000000E+00  0.00000000000E+00 -0.51954229316E+03  0.51954229316E+03  0.25500000920E-02 0. -1.
    10030    2    1    2    0    0  0.00000000000E+00  0.00000000000E+00 -0.12936687586E+03  0.90971771047E+03  0.90047238946E+03 0.  0.
        4    1    3    3  502    0 -0.43973438600E+02  0.12800068895E+03 -0.49850254294E+03  0.51655032464E+03  0.12699999809E+01 0. -1.
       -4    1    3    3    0  502  0.43973438600E+02 -0.12800068895E+03  0.36913566708E+03  0.39316738583E+03  0.12699999809E+01 0.  1.
</event>
<event>
 5   0  0.2351435E-04  0.8966637E+03  0.7818609E-02  0.9429762E-01
       -1   -1    0    0    0  501  0.00000000000E+00  0.00000000000E+00  0.59308818037E+03  0.59308818040E+03  0.50400001928E-02 0.  1.
        1   -1    0    0  501    0  0.00000000000E+00  0.00000000000E+00 -0.33890652837E+03  0.33890652841E+03  0.50400001928E-02 0. -1.
    10030    2    1    2    0    0  0.00000000000E+00  0.00000000000E+00  0.25418165200E+03  0.93199470880E+03  0.89666371903E+03 0.  0.
        4    1    3    3  502    0  0.35621391517E+03  0.25881549101E+03  0.21483286474E+03  0.48992712154E+03  0.12699999809E+01 0.  1.
       -4    1    3    3    0  502 -0.35621391517E+03 -0.25881549101E+03  0.39348787260E+02  0.44206758726E+03  0.12699999809E+01 0. -1.
</event>
<event>
 5   0  0.2332791E-04  0.9000142E+03  0.7818609E-02  0.9425564E-01
        1   -1    0    0  501    0  0.00000000000E+00  0.00000000000E+00  0.11105011404E+04  0.11105011404E+04  0.50400001928E-02 0.  1.
       -1   -1    0    0    0  501  0.00000000000E+00  0.00000000000E+00 -0.18235584276E+03  0.18235584283E+03  0.50400001928E-02 0. -1.
    10030    2    1    2    0    0  0.00000000000E+00  0.00000000000E+00  0.92814529761E+03  0.12928569832E+04  0.90001415852E+03 0.  0.
        2    1    3    3  502    0  0.79690974716E+02 -0.14279970278E+03  0.10663077495E+04  0.10787745933E+04  0.25500000920E-02 0.  1.
       -2    1    3    3    0  502 -0.79690974716E+02  0.14279970278E+03 -0.13816245185E+03  0.21408238992E+03  0.25500000920E-02 0. -1.
</event>
<event>
 5   0  0.3959804E-04  0.9066480E+03  0.7818609E-02  0.9417309E-01
        2   -1    0    0  501    0  0.00000000000E+00  0.00000000000E+00  0.12374595511E+04  0.12374595511E+04  0.25500000920E-02 0. -1.
       -2   -1    0    0    0  501  0.00000000000E+00  0.00000000000E+00 -0.16606816508E+03  0.16606816510E+03  0.25500000920E-02 0.  1.
    10030    2    1    2    0    0  0.00000000000E+00  0.00000000000E+00  0.10713913860E+04  0.14035277162E+04  0.90664797364E+03 0.  0.
        5    1    3    3  502    0 -0.29641571315E+03  0.32064670655E+03  0.72404814277E+03  0.84554384184E+03  0.46999998093E+01 0. -1.
       -5    1    3    3    0  502  0.29641571315E+03 -0.32064670655E+03  0.34734324323E+03  0.55798387435E+03  0.46999998093E+01 0.  1.
</event>
<event>
 5   0  0.1596250E-04  0.8997368E+03  0.7818609E-02  0.9425910E-01
       -4   -1    0    0    0  501  0.00000000000E+00  0.00000000000E+00  0.52239075777E+03  0.52239230154E+03  0.12699999809E+01 0.  1.
        4   -1    0    0  501    0  0.00000000000E+00  0.00000000000E+00 -0.38741101313E+03  0.38741309476E+03  0.12699999809E+01 0. -1.
    10030    2    1    2    0    0  0.00000000000E+00  0.00000000000E+00  0.13497974465E+03  0.90980539630E+03  0.89973681022E+03 0.  0.
        2    1    3    3  502    0  0.33356203048E+03  0.22921270110E+03 -0.13112477275E+03  0.42543600760E+03  0.25500000920E-02 0.  1.
       -2    1    3    3    0  502 -0.33356203048E+03 -0.22921270110E+03  0.26610451739E+03  0.48436938870E+03  0.25500000920E-02 0. -1.
</event>
<event>
 5   0  0.2450427E-04  0.9002267E+03  0.7818609E-02  0.9425298E-01
        1   -1    0    0  501    0  0.00000000000E+00  0.00000000000E+00  0.30003279893E+03  0.30003279897E+03  0.50400001928E-02 0.  1.
       -1   -1    0    0    0  501  0.00000000000E+00  0.00000000000E+00 -0.67526630868E+03  0.67526630870E+03  0.50400001928E-02 0. -1.
    10030    2    1    2    0    0  0.00000000000E+00  0.00000000000E+00 -0.37523350976E+03  0.97529910767E+03  0.90022672843E+03 0.  0.
        3    1    3    3  502    0  0.68122453275E+02 -0.42957569158E+03 -0.31315054816E+03  0.53594703045E+03  0.10100000352E+00 0. -1.
       -3    1    3    3    0  502 -0.68122453275E+02  0.42957569158E+03 -0.62082961598E+02  0.43935207722E+03  0.10100000352E+00 0.  1.
</event>
<event>
 5   0  0.4236284E-04  0.9004859E+03  0.7818609E-02  0.9424974E-01
       -2   -1    0    0    0  501  0.00000000000E+00  0.00000000000E+00  0.17852584504E+03  0.17852584506E+03  0.25500000920E-02 0.  1.
        2   -1    0    0  501    0  0.00000000000E+00  0.00000000000E+00 -0.11355147592E+04  0.11355147592E+04  0.25500000920E-02 0. -1.
    10030    2    1    2    0    0  0.00000000000E+00  0.00000000000E+00 -0.95698891418E+03  0.13140406043E+04  0.90048593984E+03 0.  0.
        2    1    3    3  502    0 -0.36230195465E+03  0.26711242048E+03 -0.46340116314E+03  0.64602816465E+03  0.25500000920E-02 0. -1.
       -2    1    3    3    0  502  0.36230195465E+03 -0.26711242048E+03 -0.49358775104E+03  0.66801243963E+03  0.25500000920E-02 0.  1.
</event>
<event>
 5   0  0.2351435E-04  0.9005462E+03  0.7818609E-02  0.9424899E-01
       -1   -1    0    0    0  501  0.00000000000E+00  0.00000000000E+00  0.17986627333E+03  0.17986627340E+03  0.50400001928E-02 0.  1.
        1   -1    0    0  501    0  0.00000000000E+00  0.00000000000E+00 -0.11272033790E+04  0.11272033790E+04  0.50400001928E-02 0. -1.
    10030    2    1    2    0    0  0.00000000000E+00  0.00000000000E+00 -0.94733710569E+03  0.13070696524E+04  0.90054621452E+03 0.  0.
        4    1    3    3  502    0  0.29818400693E+03  0.33694929896E+03 -0.49862815170E+03  0.67162502829E+03  0.12699999809E+01 0.  1.
       -4    1    3    3    0  502 -0.29818400693E+03 -0.33694929896E+03 -0.44870895399E+03  0.63544462414E+03  0.12699999809E+01 0. -1.
</event>
<event>
 5   0  0.4110039E-04  0.8997922E+03  0.7818609E-02  0.9425841E-01
        2   -1    0    0  501    0  0.00000000000E+00  0.00000000000E+00  0.18221137511E+04  0.18221137511E+04  0.25500000920E-02 0. -1.
       -2   -1    0    0    0  501  0.00000000000E+00  0.00000000000E+00 -0.11108335282E+03  0.11108335285E+03  0.25500000920E-02 0.  1.
    10030    2    1    2    0    0  0.00000000000E+00  0.00000000000E+00  0.17110303983E+04  0.19331971040E+04  0.89979220872E+03 0.  0.
        3    1    3    3  502    0 -0.55431580545E+02 -0.17460538842E+03 -0.27321372034E+02  0.18521924672E+03  0.10100000352E+00 0.  1.
       -3    1    3    3    0  502  0.55431580545E+02  0.17460538842E+03  0.17383517703E+04  0.17479778572E+04  0.10100000352E+00 0. -1.
</event>
<event>
 5   0  0.1596250E-04  0.8999451E+03  0.7818609E-02  0.9425650E-01
        4   -1    0    0  501    0  0.00000000000E+00  0.00000000000E+00  0.17024447815E+03  0.17024921510E+03  0.12699999809E+01 0. -1.
       -4   -1    0    0    0  501  0.00000000000E+00  0.00000000000E+00 -0.11892990887E+04  0.11892997667E+04  0.12699999809E+01 0.  1.
    10030    2    1    2    0    0  0.00000000000E+00  0.00000000000E+00 -0.10190546105E+04  0.13595489818E+04  0.89994507323E+03 0.  0.
        4    1    3    3  502    0 -0.43372878872E+03  0.10221365532E+03 -0.60393564383E+03  0.75053858547E+03  0.12699999809E+01 0. -1.
       -4    1    3    3    0  502  0.43372878872E+03 -0.10221365532E+03 -0.41511896667E+03  0.60901039636E+03  0.12699999809E+01 0.  1.
</event>
<event>
 5   0  0.4236284E-04  0.9006458E+03  0.7818609E-02  0.9424774E-01
       -2   -1    0    0    0  501  0.00000000000E+00  0.00000000000E+00  0.12523946358E+03  0.12523946360E+03  0.25500000920E-02 0. -1.
        2   -1    0    0  501    0  0.00000000000E+00  0.00000000000E+00 -0.16192238100E+04  0.16192238100E+04  0.25500000920E-02 0.  1.
    10030    2    1    2    0    0  0.00000000000E+00  0.00000000000E+00 -0.14939843465E+04  0.17444632736E+04  0.90064581586E+03 0.  0.
        2    1    3    3  502    0  0.22867435687E+03 -0.34064671406E+03 -0.38744451980E+03  0.56430966784E+03  0.25500000920E-02 0. -1.
       -2    1    3    3    0  502 -0.22867435687E+03  0.34064671406E+03 -0.11065398267E+04  0.11801536058E+04  0.25500000920E-02 0.  1.
</event>
<event>
 5   0  0.2450427E-04  0.8995303E+03  0.7818609E-02  0.9426169E-01
       -1   -1    0    0    0  501  0.00000000000E+00  0.00000000000E+00  0.57996013356E+03  0.57996013358E+03  0.50400001928E-02 0.  1.
        1   -1    0    0  501    0  0.00000000000E+00  0.00000000000E+00 -0.34879754784E+03  0.34879754788E+03  0.50400001928E-02 0. -1.
    10030    2    1    2    0    0  0.00000000000E+00  0.00000000000E+00  0.23116258572E+03  0.92875768145E+03  0.89953026065E+03 0.  0.
        3    1    3    3  502    0  0.34628462074E+03  0.27395768258E+03  0.27227422500E+02  0.44238805719E+03  0.10100000352E+00 0.  1.
       -3    1    3    3    0  502 -0.34628462074E+03 -0.27395768258E+03  0.20393516322E+03  0.48636962426E+03  0.10100000352E+00 0. -1.
</event>
<event>
 5   0  0.4236284E-04  0.8995579E+03  0.7818609E-02  0.9426134E-01
        2   -1    0    0  501    0  0.00000000000E+00  0.00000000000E+00  0.20808428904E+03  0.20808428905E+03  0.25500000920E-02 0.  1.
       -2   -1    0    0    0  501  0.00000000000E+00  0.00000000000E+00 -0.97220745590E+03  0.97220745590E+03  0.25500000920E-02 0. -1.
    10030    2    1    2    0    0  0.00000000000E+00  0.00000000000E+00 -0.76412316686E+03  0.11802917450E+04  0.89955788534E+03 0.  0.
        2    1    3    3  502    0  0.37870891030E+02 -0.18174852369E+03 -0.91958910144E+03  0.93814223108E+03  0.25500000920E-02 0. -1.
       -2    1    3    3    0  502 -0.37870891030E+02  0.18174852369E+03  0.15546593457E+03  0.24214951388E+03  0.25500000920E-02 0.  1.
</event>
<event>
 5   0  0.2356918E-04  0.8995912E+03  0.7818609E-02  0.9426093E-01
        1   -1    0    0  501    0  0.00000000000E+00  0.00000000000E+00  0.12632464155E+04  0.12632464155E+04  0.50400001928E-02 0. -1.
       -1   -1    0    0    0  501  0.00000000000E+00  0.00000000000E+00 -0.16015568862E+03  0.16015568870E+03  0.50400001928E-02 0.  1.
    10030    2    1    2    0    0  0.00000000000E+00  0.00000000000E+00  0.11030907269E+04  0.14234021042E+04  0.89959123972E+03 0.  0.
        5    1    3    3  502    0  0.13849921254E+03 -0.33595528683E+03  0.13217932528E+03  0.38670589685E+03  0.46999998093E+01 0.  1.
       -5    1    3    3    0  502 -0.13849921254E+03  0.33595528683E+03  0.97091140163E+03  0.10366962074E+04  0.46999998093E+01 0. -1.
</event>
<event>
 5   0  0.2351435E-04  0.8997691E+03  0.7818609E-02  0.9425870E-01
       -1   -1    0    0    0  501  0.00000000000E+00  0.00000000000E+00  0.40614934846E+03  0.40614934849E+03  0.50400001928E-02 0. -1.
        1   -1    0    0  501    0  0.00000000000E+00  0.00000000000E+00 -0.49832924343E+03  0.49832924346E+03  0.50400001928E-02 0.  1.
    10030    2    1    2    0    0  0.00000000000E+00  0.00000000000E+00 -0.92179894980E+02  0.90447859195E+03  0.89976907607E+03 0.  0.
        4    1    3    3  502    0  0.16617891072E+03 -0.78177713434E+02 -0.45893080816E+03  0.49431395370E+03  0.12699999809E+01 0.  1.
       -4    1    3    3    0  502 -0.16617891072E+03  0.78177713434E+02  0.36675091318E+03  0.41016463824E+03  0.12699999809E+01 0. -1.
</event>
<event>
 5   0  0.4110039E-04  0.8997560E+03  0.7818609E-02  0.9425886E-01
       -2   -1    0    0    0  501  0.00000000000E+00  0.00000000000E+00  0.12358213622E+03  0.12358213624E+03  0.25500000920E-02 0.  1.
        2   -1    0    0  501    0  0.00000000000E+00  0.00000000000E+00 -0.16376979500E+04  0.16376979500E+04  0.25500000920E-02 0. -1.
    10030    2    1    2    0    0  0.00000000000E+00  0.00000000000E+00 -0.15141158138E+04  0.17612800863E+04  0.89975599174E+03 0.  0.
        3    1    3    3  502    0 -0.89365585212E+02  0.43964528897E+03 -0.69166384552E+03  0.82442287288E+03  0.10100000352E+00 0.  1.
       -3    1    3    3    0  502  0.89365585212E+02 -0.43964528897E+03 -0.82245196831E+03  0.93685721340E+03  0.10100000352E+00 0. -1.
</event>
<event>
 5   0  0.2308362E-04  0.9000056E+03  0.7818609E-02  0.9425574E-01
        1   -1    0    0  501    0  0.00000000000E+00  0.00000000000E+00  0.20342920622E+04  0.20342920622E+04  0.50400001928E-02 0. -1.
       -1   -1    0    0    0  501  0.00000000000E+00  0.00000000000E+00 -0.99544462727E+02  0.99544462855E+02  0.50400001928E-02 0.  1.
    10030    2    1    2    0    0  0.00000000000E+00  0.00000000000E+00  0.19347475995E+04  0.21338365251E+04  0.90000557888E+03 0.  0.
        1    1    3    3  502    0  0.34869508903E+03  0.12984473393E+03  0.36731878089E+03  0.52284893312E+03  0.50400001928E-02 0.  1.
       -1    1    3    3    0  502 -0.34869508903E+03 -0.12984473393E+03  0.15674288186E+04  0.16109875920E+04  0.50400001928E-02 0. -1.
</event>
<event>
 5   0  0.2332791E-04  0.9000269E+03  0.7818609E-02  0.9425548E-01
       -1   -1    0    0    0  501  0.00000000000E+00  0.00000000000E+00  0.16176421935E+03  0.16176421943E+03  0.50400001928E-02 0. -1.
        1   -1    0    0  501    0  0.00000000000E+00  0.00000000000E+00 -0.12518967621E+04  0.12518967621E+04  0.50400001928E-02 0.  1.
    10030    2    1    2    0    0  0.00000000000E+00  0.00000000000E+00 -0.10901325427E+04  0.14136609815E+04  0.90002689403E+03 0.  0.
        2    1    3    3  502    0 -0.39583728982E+03 -0.19373967448E+03 -0.40205708609E+03  0.59655018395E+03  0.25500000920E-02 0. -1.
       -2    1    3    3    0  502  0.39583728982E+03  0.19373967448E+03 -0.68807545666E+03  0.81711079759E+03  0.25500000920E-02 0.  1.
</event>
<event>
 5   0  0.2332791E-04  0.9000587E+03  0.7818609E-02  0.9425508E-01
       -1   -1    0    0    0  501  0.00000000000E+00  0.00000000000E+00  0.41862839257E+03  0.41862839260E+03  0.50400001928E-02 0. -1.
        1   -1    0    0  501    0  0.00000000000E+00  0.00000000000E+00 -0.48378567979E+03  0.48378567981E+03  0.50400001928E-02 0.  1.
    10030    2    1    2    0    0  0.00000000000E+00  0.00000000000E+00 -0.65157287221E+02  0.90241407241E+03  0.90005871253E+03 0.  0.
        2    1    3    3  502    0 -0.29803815671E+03 -0.20962083054E+03  0.23223141419E+03  0.43208687228E+03  0.25500000920E-02 0.  1.
       -2    1    3    3    0  502  0.29803815671E+03  0.20962083054E+03 -0.29738870141E+03  0.47032720013E+03  0.25500000920E-02 0. -1.
</event>
<event>
 5   0  0.4033144E-04  0.9000896E+03  0.7818609E-02  0.9425469E-01
        2   -1    0    0  501    0  0.00000000000E+00  0.00000000000E+00  0.94173775491E+03  0.94173775491E+03  0.25500000920E-02 0.  1.
       -2   -1    0    0    0  501  0.00000000000E+00  0.00000000000E+00 -0.21507082777E+03  0.21507082779E+03  0.25500000920E-02 0. -1.
    10030    2    1    2    0    0  0.00000000000E+00  0.00000000000E+00  0.72666692713E+03  0.11568085827E+04  0.90008959222E+03 0.  0.
        4    1    3    3  502    0 -0.27514388059E+03  0.26084910974E+03  0.67496109572E+03  0.77415793396E+03  0.12699999809E+01 0.  1.
       -4    1    3    3    0  502  0.27514388059E+03 -0.26084910974E+03  0.51705831414E+02  0.38265064874E+03  0.12699999809E+01 0. -1.
</event>
<event>
 5   0  0.2351435E-04  0.8986372E+03  0.7818609E-02  0.9427287E-01
        1   -1    0    0  501    0  0.00000000000E+00  0.00000000000E+00  0.44564136084E+03  0.44564136087E+03  0.50400001928E-02 0.  1.
       -1   -1    0    0    0  501  0.00000000000E+00  0.00000000000E+00 -0.45302623159E+03  0.45302623162E+03  0.50400001928E-02 0. -1.
    10030    2    1    2    0    0  0.00000000000E+00  0.00000000000E+00 -0.73848707500E+01  0.89866759249E+03  0.89863724911E+03 0.  0.
        4    1    3    3  502    0  0.28360840201E+03 -0.33398130444E+03 -0.10323662258E+03  0.45015180834E+03  0.12699999809E+01 0.  1.
       -4    1    3    3    0  502 -0.28360840201E+03  0.33398130444E+03  0.95851751832E+02  0.44851578415E+03  0.12699999809E+01 0. -1.
</event>
<event>
 5   0  0.2308362E-04  0.9001536E+03  0.7818609E-02  0.9425389E-01
        1   -1    0    0  501    0  0.00000000000E+00  0.00000000000E+00  0.26837089944E+03  0.26837089949E+03  0.50400001928E-02 0. -1.
       -1   -1    0    0    0  501  0.00000000000E+00  0.00000000000E+00 -0.75481029453E+03  0.75481029455E+03  0.50400001928E-02 0.  1.
    10030    2    1    2    0    0  0.00000000000E+00  0.00000000000E+00 -0.48643939510E+03  0.10231811940E+04  0.90015358175E+03 0.  0.
        1    1    3    3  502    0 -0.65325796530E+02  0.38927971078E+03  0.25831750584E+01  0.39473133361E+03  0.50400001928E-02 0. -1.
       -1    1    3    3    0  502  0.65325796530E+02 -0.38927971078E+03 -0.48902257016E+03  0.62844986042E+03  0.50400001928E-02 0.  1.
</event>
<event>
 5   0  0.3959804E-04  0.9033816E+03  0.7818609E-02  0.9421364E-01
       -2   -1    0    0    0  501  0.00000000000E+00  0.00000000000E+00  0.20491254776E+03  0.20491254778E+03  0.25500000920E-02 0. -1.
        2   -1    0    0  501    0  0.00000000000E+00  0.00000000000E+00 -0.99566670217E+03  0.99566670217E+03  0.25500000920E-02 0.  1.
    10030    2    1    2    0    0  0.00000000000E+00  0.00000000000E+00 -0.79075415441E+03  0.12005792499E+04  0.90338164842E+03 0.  0.
        5    1    3    3  502    0 -0.16115982831E+03  0.20227052560E+03 -0.88748989147E+03  0.92441670974E+03  0.46999998093E+01 0.  1.
       -5    1    3    3    0  502  0.16115982831E+03 -0.20227052560E+03  0.96735737065E+02  0.27616254021E+03  0.46999998093E+01 0. -1.
</event>
<event>
 5   0  0.4243516E-04  0.9002361E+03  0.7818609E-02  0.9425286E-01
       -2   -1    0    0    0  501  0.00000000000E+00  0.00000000000E+00  0.40911799067E+03  0.40911799068E+03  0.25500000920E-02 0.  1.
        2   -1    0    0  501    0  0.00000000000E+00  0.00000000000E+00 -0.49522690927E+03  0.49522690928E+03  0.25500000920E-02 0. -1.
    10030    2    1    2    0    0  0.00000000000E+00  0.00000000000E+00 -0.86108918603E+02  0.90434489996E+03  0.90023605361E+03 0.  0.
        1    1    3    3  502    0  0.11308388871E+03  0.41214256080E+03  0.98858790437E+02  0.43865991016E+03  0.50400001928E-02 0.  1.
       -1    1    3    3    0  502 -0.11308388871E+03 -0.41214256080E+03 -0.18496770904E+03  0.46568498980E+03  0.50400001928E-02 0. -1.
</event>
<event>
 5   0  0.4243516E-04  0.8998911E+03  0.7818609E-02  0.9425718E-01
       -2   -1    0    0    0  501  0.00000000000E+00  0.00000000000E+00  0.11367964421E+03  0.11367964424E+03  0.25500000920E-02 0.  1.
        2   -1    0    0  501    0  0.00000000000E+00  0.00000000000E+00 -0.17808905731E+04  0.17808905731E+04  0.25500000920E-02 0. -1.
    10030    2    1    2    0    0  0.00000000000E+00  0.00000000000E+00 -0.16672109288E+04  0.18945702173E+04  0.89989111955E+03 0.  0.
        1    1    3    3  502    0 -0.64261241188E+02  0.22772794218E+03 -0.27888598182E+02  0.23825888588E+03  0.50400001928E-02 0.  1.
       -1    1    3    3    0  502  0.64261241188E+02 -0.22772794218E+03 -0.16393223307E+04  0.16563113314E+04  0.50400001928E-02 0. -1.
</event>
<event>
 5   0  0.1596250E-04  0.9000312E+03  0.7818609E-02  0.9425542E-01
       -3   -1    0    0    0  501  0.00000000000E+00  0.00000000000E+00  0.18671742280E+04  0.18671742307E+04  0.10100000352E+00 0. -1.
        3   -1    0    0  501    0  0.00000000000E+00  0.00000000000E+00 -0.10846014631E+03  0.10846019333E+03  0.10100000352E+00 0.  1.
    10030    2    1    2    0    0  0.00000000000E+00  0.00000000000E+00  0.17587140817E+04  0.19756344241E+04  0.90003119746E+03 0.  0.
        5    1    3    3  502    0  0.39934715821E+03 -0.61455247403E+02  0.44454937809E+03  0.60075048045E+03  0.46999998093E+01 0.  1.
       -5    1    3    3    0  502 -0.39934715821E+03  0.61455247403E+02  0.13141647036E+04  0.13748839436E+04  0.46999998093E+01 0. -1.
</event>
<event>
 5   0  0.2450427E-04  0.9002484E+03  0.7818609E-02  0.9425271E-01
       -1   -1    0    0    0  501  0.00000000000E+00  0.00000000000E+00  0.17871366468E+04  0.17871366468E+04  0.50400001928E-02 0. -1.
        1   -1    0    0  501    0  0.00000000000E+00  0.00000000000E+00 -0.11337231423E+03  0.11337231435E+03  0.50400001928E-02 0.  1.
    10030    2    1    2    0    0  0.00000000000E+00  0.00000000000E+00  0.16737643325E+04  0.19005089611E+04  0.90024844929E+03 0.  0.
        3    1    3    3  502    0  0.68015320622E+02 -0.27199945518E+03  0.15802810756E+04  0.16049604592E+04  0.10100000352E+00 0. -1.
       -3    1    3    3    0  502 -0.68015320622E+02  0.27199945518E+03  0.93483256909E+02  0.29554850191E+03  0.10100000352E+00 0.  1.
</event>
<event>
 5   0  0.3959804E-04  0.9007173E+03  0.7818609E-02  0.9424685E-01
       -2   -1    0    0    0  501  0.00000000000E+00  0.00000000000E+00  0.22123784275E+03  0.22123784277E+03  0.25500000920E-02 0. -1.
        2   -1    0    0  501    0  0.00000000000E+00  0.00000000000E+00 -0.91676416879E+03  0.91676416879E+03  0.25500000920E-02 0.  1.
    10030    2    1    2    0    0  0.00000000000E+00  0.00000000000E+00 -0.69552632604E+03  0.11380020116E+04  0.90071732975E+03 0.  0.
        5    1    3    3  502    0  0.12465045406E+03 -0.67029202195E+01 -0.89443727929E+03  0.90311837620E+03  0.46999998093E+01 0.  1.
       -5    1    3    3    0  502 -0.12465045406E+03  0.67029202195E+01  0.19891095326E+03  0.23488363536E+03  0.46999998093E+01 0. -1.
</event>
<event>
 5   0  0.4236284E-04  0.8992958E+03  0.7818609E-02  0.9426462E-01
        2   -1    0    0  501    0  0.00000000000E+00  0.00000000000E+00  0.82667113069E+03  0.82667113069E+03  0.25500000920E-02 0.  1.
       -2   -1    0    0    0  501  0.00000000000E+00  0.00000000000E+00 -0.24457519892E+03  0.24457519893E+03  0.25500000920E-02 0. -1.
    10030    2    1    2    0    0  0.00000000000E+00  0.00000000000E+00  0.58209593177E+03  0.10712463296E+04  0.89929584951E+03 0.  0.
        2    1    3    3  502    0 -0.54694225405E+02  0.40310630232E+03  0.51924115179E+03  0.65961922576E+03  0.25500000920E-02 0.  1.
       -2    1    3    3    0  502  0.54694225405E+02 -0.40310630232E+03  0.62854779978E+02  0.41162710387E+03  0.25500000920E-02 0. -1.
</event>
<event>
 5   0  0.2356918E-04  0.9000208E+03  0.7818609E-02  0.9425555E-01
        1   -1    0    0  501    0  0.00000000000E+00  0.00000000000E+00  0.14691402676E+04  0.14691402677E+04  0.50400001928E-02 0.  1.
       -1   -1    0    0    0  501  0.00000000000E+00  0.00000000000E+00 -0.13784208749E+03  0.13784208758E+03  0.50400001928E-02 0. -1.
    10030    2    1    2    0    0  0.00000000000E+00  0.00000000000E+00  0.13312981802E+04  0.16069823552E+04  0.90002080285E+03 0.  0.
        5    1    3    3  502    0  0.44609753165E+03  0.73706644679E+01  0.56108040928E+03  0.71686166735E+03  0.46999998093E+01 0. -1.
       -5    1    3    3    0  502 -0.44609753165E+03 -0.73706644679E+01  0.77021777088E+03  0.89012068789E+03  0.46999998093E+01 0.  1.
</event>
<event>
 5   0  0.4243516E-04  0.8997122E+03  0.7818609E-02  0.9425941E-01
       -2   -1    0    0    0  501  0.00000000000E+00  0.00000000000E+00  0.28747757946E+03  0.28747757947E+03  0.25500000920E-02 0. -1.
        2   -1    0    0  501    0  0.00000000000E+00  0.00000000000E+00 -0.70395238979E+03  0.70395238979E+03  0.25500000920E-02 0.  1.
    10030    2    1    2    0    0  0.00000000000E+00  0.00000000000E+00 -0.41647481033E+03  0.99142996927E+03  0.89971224084E+03 0.  0.
        1    1    3    3  502    0 -0.18508322775E+03 -0.39344479004E+03 -0.33539552113E+03  0.54913091301E+03  0.50400001928E-02 0.  1.
       -1    1    3    3    0  502  0.18508322775E+03  0.39344479004E+03 -0.81079289193E+02  0.44229905626E+03  0.50400001928E-02 0. -1.
</event>
<event>
 5   0  0.4033144E-04  0.8999507E+03  0.7818609E-02  0.9425643E-01
       -2   -1    0    0    0  501  0.00000000000E+00  0.00000000000E+00  0.43935506876E+03  0.43935506876E+03  0.25500000920E-02 0. -1.
        2   -1    0    0  501    0  0.00000000000E+00  0.00000000000E+00 -0.46085233605E+03  0.46085233606E+03  0.25500000920E-02 0.  1.
    10030    2    1    2    0    0  0.00000000000E+00  0.00000000000E+00 -0.21497267297E+02  0.90020740483E+03  0.89995068709E+03 0.  0.
        4    1    3    3  502    0  0.23795588627E+03  0.58397868283E+02  0.36677508677E+03  0.44108830409E+03  0.12699999809E+01 0. -1.
       -4    1    3    3    0  502 -0.23795588627E+03 -0.58397868283E+02 -0.38827235406E+03  0.45911910074E+03  0.12699999809E+01 0.  1.
</event>
<event>
 5   0  0.4243516E-04  0.8998943E+03  0.7818609E-02  0.9425714E-01
        2   -1    0    0  501    0  0.00000000000E+00  0.00000000000E+00  0.97815108535E+03  0.97815108535E+03  0.25500000920E-02 0. -1.
       -2   -1    0    0    0  501  0.00000000000E+00  0.00000000000E+00 -0.20697461097E+03  0.20697461099E+03  0.25500000920E-02 0.  1.
    10030    2    1    2    0    0  0.00000000000E+00  0.00000000000E+00  0.77117647438E+03  0.11851256963E+04  0.89989430573E+03 0.  0.
        1    1    3    3  502    0  0.43768808600E+03  0.10347075947E+03  0.40302898068E+03  0.60391176341E+03  0.50400001928E-02 0. -1.
       -1    1    3    3    0  502 -0.43768808600E+03 -0.10347075947E+03  0.36814749370E+03  0.58121393293E+03  0.50400001928E-02 0.  1.
</event>
<event>
 5   0  0.4236284E-04  0.9000534E+03  0.7818609E-02  0.9425515E-01
        2   -1    0    0  501    0  0.00000000000E+00  0.00000000000E+00  0.12477126205E+04  0.12477126205E+04  0.25500000920E-02 0.  1.
       -2   -1    0    0    0  501  0.00000000000E+00  0.00000000000E+00 -0.16231625767E+03  0.16231625769E+03  0.25500000920E-02 0. -1.
    10030    2    1    2    0    0  0.00000000000E+00  0.00000000000E+00  0.10853963628E+04  0.14100288782E+04  0.90005342780E+03 0.  0.
        2    1    3    3  502    0  0.36386862971E+03  0.26389509204E+03  0.57712945053E+03  0.73151855886E+03  0.25500000920E-02 0.  1.
       -2    1    3    3    0  502 -0.36386862971E+03 -0.26389509204E+03  0.50826691229E+03  0.67851031932E+03  0.25500000920E-02 0. -1.
</event>
<event>
 5   0  0.2332791E-04  0.9000182E+03  0.7818609E-02  0.9425559E-01
       -1   -1    0    0    0  501  0.00000000000E+00  0.00000000000E+00  0.21262533173E+03  0.21262533179E+03  0.50400001928E-02 0.  1.
        1   -1    0    0  501    0  0.00000000000E+00  0.00000000000E+00 -0.95241808812E+03  0.95241808813E+03  0.50400001928E-02 0. -1.
    10030    2    1    2    0    0  0.00000000000E+00  0.00000000000E+00 -0.73979275638E+03  0.11650434199E+04  0.90001824865E+03 0.  0.
        2    1    3    3  502    0  0.30534545018E+03  0.28405742464E+03 -0.15104444876E+03  0.44355257856E+03  0.25500000920E-02 0. -1.
       -2    1    3    3    0  502 -0.30534545018E+03 -0.28405742464E+03 -0.58874830763E+03  0.72149084137E+03  0.25500000920E-02 0.  1.
</event>
<event>
 5   0  0.2332791E-04  0.8994673E+03  0.7818609E-02  0.9426248E-01
        1   -1    0    0  501    0  0.00000000000E+00  0.00000000000E+00  0.59011729471E+03  0.59011729473E+03  0.50400001928E-02 0. -1.
       -1   -1    0    0    0  501  0.00000000000E+00  0.00000000000E+00 -0.34274603357E+03  0.34274603361E+03  0.50400001928E-02 0.  1.
    10030    2    1    2    0    0  0.00000000000E+00  0.00000000000E+00  0.24737126114E+03  0.93286332834E+03  0.89946731376E+03 0.  0.
        2    1    3    3  502    0 -0.74881611725E+02  0.56791730185E+02  0.57981925463E+03  0.58738652048E+03  0.25500000920E-02 0. -1.
       -2    1    3    3    0  502  0.74881611725E+02 -0.56791730185E+02 -0.33244799349E+03  0.34547680787E+03  0.25500000920E-02 0.  1.
</event>
<event>
 5   0  0.4243516E-04  0.9003740E+03  0.7818609E-02  0.9425114E-01
        2   -1    0    0  501    0  0.00000000000E+00  0.00000000000E+00  0.15917054933E+04  0.15917054933E+04  0.25500000920E-02 0. -1.
       -2   -1    0    0    0  501  0.00000000000E+00  0.00000000000E+00 -0.12732778264E+03  0.12732778266E+03  0.25500000920E-02 0.  1.
    10030    2    1    2    0    0  0.00000000000E+00  0.00000000000E+00  0.14643777107E+04  0.17190332760E+04  0.90037399141E+03 0.  0.
        1    1    3    3  502    0  0.58919513515E+02 -0.42467793354E+03  0.99428756556E+03  0.10827883539E+04  0.50400001928E-02 0. -1.
       -1    1    3    3    0  502 -0.58919513515E+02  0.42467793354E+03  0.47009014512E+03  0.63624492208E+03  0.50400001928E-02 0.  1.
</event>
<event>
 5   0  0.2308362E-04  0.8998509E+03  0.7818609E-02  0.9425768E-01
       -1   -1    0    0    0  501  0.00000000000E+00  0.00000000000E+00  0.25335447677E+03  0.25335447682E+03  0.50400001928E-02 0. -1.
        1   -1    0    0  501    0  0.00000000000E+00  0.00000000000E+00 -0.79901062269E+03  0.79901062270E+03  0.50400001928E-02 0.  1.
    10030    2    1    2    0    0  0.00000000000E+00  0.00000000000E+00 -0.54565614592E+03  0.10523650995E+04  0.89985091716E+03 0.  0.
        1    1    3    3  502    0  0.20132894774E+03  0.39851096877E+03 -0.20783375981E+03  0.49248269936E+03  0.50400001928E-02 0. -1.
       -1    1    3    3    0  502 -0.20132894774E+03 -0.39851096877E+03 -0.33782238611E+03  0.55988240016E+03  0.50400001928E-02 0.  1.
</event>
<event>
 5   0  0.2356918E-04  0.8997528E+03  0.7818609E-02  0.9425890E-01
        1   -1    0    0  501    0  0.00000000000E+00  0.00000000000E+00  0.94727919254E+03  0.94727919255E+03  0.50400001928E-02 0.  1.
       -1   -1    0    0    0  501  0.00000000000E+00  0.00000000000E+00 -0.21365271876E+03  0.21365271882E+03  0.50400001928E-02 0. -1.
    10030    2    1    2    0    0  0.00000000000E+00  0.00000000000E+00  0.73362647378E+03  0.11609319114E+04  0.89975279929E+03 0.  0.
        5    1    3    3  502    0 -0.12562915592E+02  0.13591780766E+03 -0.18625629588E+03  0.23096531134E+03  0.46999998093E+01 0. -1.
       -5    1    3    3    0  502  0.12562915592E+02 -0.13591780766E+03  0.91988276966E+03  0.92996660004E+03  0.46999998093E+01 0.  1.
</event>
<event>
 5   0  0.4110039E-04  0.8995697E+03  0.7818609E-02  0.9426120E-01
       -2   -1    0    0    0  501  0.00000000000E+00  0.00000000000E+00  0.18562328986E+03  0.18562328987E+03  0.25500000920E-02 0. -1.
        2   -1    0    0  501    0  0.00000000000E+00  0.00000000000E+00 -0.10898761228E+04  0.10898761228E+04  0.25500000920E-02 0.  1.
    10030    2    1    2    0    0  0.00000000000E+00  0.00000000000E+00 -0.90425283296E+03  0.12754994127E+04  0.89956965593E+03 0.  0.
        3    1    3    3  502    0 -0.29322128442E+03  0.32039512375E+03 -0.61793353320E+03  0.75529703999E+03  0.10100000352E+00 0.  1.
       -3    1    3    3    0  502  0.29322128442E+03 -0.32039512375E+03 -0.28631929976E+03  0.52020237271E+03  0.10100000352E+00 0. -1.
</event>
<event>
 5   0  0.2351435E-04  0.9001341E+03  0.7818609E-02  0.9425414E-01
        1   -1    0    0  501    0  0.00000000000E+00  0.00000000000E+00  0.17582431245E+04  0.17582431245E+04  0.50400001928E-02 0. -1.
       -1   -1    0    0    0  501  0.00000000000E+00  0.00000000000E+00 -0.11520610389E+03  0.11520610400E+03  0.50400001928E-02 0.  1.
    10030    2    1    2    0    0  0.00000000000E+00  0.00000000000E+00  0.16430370206E+04  0.18734492285E+04  0.90013407930E+03 0.  0.
        4    1    3    3  502    0  0.21170818635E+03  0.33002114393E+03  0.36162926808E+03  0.53339633673E+03  0.12699999809E+01 0. -1.
       -4    1    3    3    0  502 -0.21170818635E+03 -0.33002114393E+03  0.12814077526E+04  0.13400528918E+04  0.12699999809E+01 0.  1.
</event>
<event>
 5   0  0.4236284E-04  0.9000283E+03  0.7818609E-02  0.9425546E-01
       -2   -1    0    0    0  501  0.00000000000E+00  0.00000000000E+00  0.40074555897E+03  0.40074555898E+03  0.25500000920E-02 0. -1.
        2   -1    0    0  501    0  0.00000000000E+00  0.00000000000E+00 -0.50533997083E+03  0.50533997084E+03  0.25500000920E-02 0.  1.
    10030    2    1    2    0    0  0.00000000000E+00  0.00000000000E+00 -0.10459441187E+03  0.90608552982E+03  0.90002833086E+03 0.  0.
        2    1    3    3  502    0 -0.23196429298E+03 -0.38508521016E+03 -0.31796050144E+02  0.45067620429E+03  0.25500000920E-02 0. -1.
       -2    1    3    3    0  502  0.23196429298E+03  0.38508521016E+03 -0.72798361722E+02  0.45540932553E+03  0.25500000920E-02 0.  1.
</event>
<event>
 5   0  0.2351435E-04  0.8998280E+03  0.7818609E-02  0.9425796E-01
        1   -1    0    0  501    0  0.00000000000E+00  0.00000000000E+00  0.42334066696E+03  0.42334066699E+03  0.50400001928E-02 0. -1.
       -1   -1    0    0    0  501  0.00000000000E+00  0.00000000000E+00 -0.47815533173E+03  0.47815533176E+03  0.50400001928E-02 0.  1.
    10030    2    1    2    0    0  0.00000000000E+00  0.00000000000E+00 -0.54814664772E+02  0.90149599875E+03  0.89982797705E+03 0.  0.
        4    1    3    3  502    0 -0.36311442172E+03  0.18918499909E+02  0.23805741934E+03  0.43460665055E+03  0.12699999809E+01 0. -1.
       -4    1    3    3    0  502  0.36311442172E+03 -0.18918499909E+02 -0.29287208412E+03  0.46688934819E+03  0.12699999809E+01 0.  1.
</event>
<event>
 5   0  0.2308362E-04  0.8998891E+03  0.7818609E-02  0.9425720E-01
        1   -1    0    0  501    0  0.00000000000E+00  0.00000000000E+00  0.22259996386E+04  0.22259996386E+04  0.50400001928E-02 0. -1.
       -1   -1    0    0    0  501  0.00000000000E+00  0.00000000000E+00 -0.90947944168E+02  0.90947944307E+02  0.50400001928E-02 0.  1.
    10030    2    1    2    0    0  0.00000000000E+00  0.00000000000E+00  0.21350516945E+04  0.23169475829E+04  0.89988908432E+03 0.  0.
        1    1    3    3  502    0  0.22144835031E+03  0.12268271594E+03  0.20252313531E+04  0.20409930069E+04  0.50400001928E-02 0. -1.
       -1    1    3    3    0  502 -0.22144835031E+03 -0.12268271594E+03  0.10982034140E+03  0.27595457607E+03  0.50400001928E-02 0.  1.
</event>
<event>
 5   0  0.3959804E-04  0.9002931E+03  0.7818609E-02  0.9425215E-01
       -2   -1    0    0    0  501  0.00000000000E+00  0.00000000000E+00  0.11415241672E+03  0.11415241675E+03  0.25500000920E-02 0.  1.
        2   -1    0    0  501    0  0.00000000000E+00  0.00000000000E+00 -0.17750998542E+04  0.17750998542E+04  0.25500000920E-02 0. -1.
    10030    2    1    2    0    0  0.00000000000E+00  0.00000000000E+00 -0.16609474375E+04  0.18892522710E+04  0.90029314852E+03 0.  0.
        5    1    3    3  502    0 -0.39792663120E+03  0.49900980432E+02 -0.40157006154E+03  0.56755291911E+03  0.46999998093E+01 0.  1.
       -5    1    3    3    0  502  0.39792663120E+03 -0.49900980432E+02 -0.12593773760E+04  0.13216993519E+04  0.46999998093E+01 0. -1.
</event>
<event>
 5   0  0.2450427E-04  0.9003963E+03  0.7818609E-02  0.9425086E-01
       -1   -1    0    0    0  501  0.00000000000E+00  0.00000000000E+00  0.12533776877E+03  0.12533776887E+03  0.50400001928E-02 0.  1.
        1   -1    0    0  501    0  0.00000000000E+00  0.00000000000E+00 -0.16170575000E+04  0.16170575000E+04  0.50400001928E-02 0. -1.
    10030    2    1    2    0    0  0.00000000000E+00  0.00000000000E+00 -0.14917197312E+04  0.17423952689E+04  0.90039631078E+03 0.  0.
        3    1    3    3  502    0  0.89650899833E+02  0.13549685071E+03 -0.15583471580E+04  0.15667937182E+04  0.10100000352E+00 0. -1.
       -3    1    3    3    0  502 -0.89650899833E+02 -0.13549685071E+03  0.66627426780E+02  0.17560155066E+03  0.10100000352E+00 0.  1.
</event>
<event>
 5   0  0.2450427E-04  0.9003207E+03  0.7818609E-02  0.9425181E-01
        1   -1    0    0  501    0  0.00000000000E+00  0.00000000000E+00  0.12918574673E+04  0.12918574673E+04  0.50400001928E-02 0. -1.
       -1   -1    0    0    0  501  0.00000000000E+00  0.00000000000E+00 -0.15686275652E+03  0.15686275660E+03  0.50400001928E-02 0.  1.
    10030    2    1    2    0    0  0.00000000000E+00  0.00000000000E+00  0.11349947108E+04  0.14487202239E+04  0.90032066157E+03 0.  0.
        3    1    3    3  502    0 -0.62596338960E+02 -0.66878579776E+01  0.12847394745E+04  0.12862809012E+04  0.10100000352E+00 0. -1.
       -3    1    3    3    0  502  0.62596338960E+02  0.66878579776E+01 -0.14974476376E+03  0.16243932273E+03  0.10100000352E+00 0.  1.
</event>
<event>
 5   0  0.4236284E-04  0.8998947E+03  0.7818609E-02  0.9425713E-01
        2   -1    0    0  501    0  0.00000000000E+00  0.00000000000E+00  0.12774743630E+04  0.12774743630E+04  0.25500000920E-02 0.  1.
       -2   -1    0    0    0  501  0.00000000000E+00  0.00000000000E+00 -0.15847880448E+03  0.15847880450E+03  0.25500000920E-02 0. -1.
    10030    2    1    2    0    0  0.00000000000E+00  0.00000000000E+00  0.11189955585E+04  0.14359531675E+04  0.89989468232E+03 0.  0.
        2    1    3    3  502    0  0.44146479536E+03 -0.43140249824E+02  0.67997358822E+03  0.81185979539E+03  0.25500000920E-02 0. -1.
       -2    1    3    3    0  502 -0.44146479536E+03  0.43140249824E+02  0.43902197032E+03  0.62409337212E+03  0.25500000920E-02 0.  1.
</event>
<event>
 5   0  0.4033144E-04  0.8998397E+03  0.7818609E-02  0.9425782E-01
       -2   -1    0    0    0  501  0.00000000000E+00  0.00000000000E+00  0.13373576603E+03  0.13373576606E+03  0.25500000920E-02 0. -1.
        2   -1    0    0  501    0  0.00000000000E+00  0.00000000000E+00 -0.15136404230E+04  0.15136404230E+04  0.25500000920E-02 0.  1.
    10030    2    1    2    0    0  0.00000000000E+00  0.00000000000E+00 -0.13799046570E+04  0.16473761891E+04  0.89983967792E+03 0.  0.
        4    1    3    3  502    0 -0.31998201177E+03  0.89822156606E+02 -0.12451531841E+04  0.12887453482E+04  0.12699999809E+01 0.  1.
       -4    1    3    3    0  502  0.31998201177E+03 -0.89822156606E+02 -0.13475147283E+03  0.35863084085E+03  0.12699999809E+01 0. -1.
</event>
<event>
 5   0  0.2450427E-04  0.8997221E+03  0.7818609E-02  0.9425929E-01
       -1   -1    0    0    0  501  0.00000000000E+00  0.00000000000E+00  0.48337532018E+03  0.48337532021E+03  0.50400001928E-02 0.  1.
        1   -1    0    0  501    0  0.00000000000E+00  0.00000000000E+00 -0.41867044514E+03  0.41867044517E+03  0.50400001928E-02 0. -1.
    10030    2    1    2    0    0  0.00000000000E+00  0.00000000000E+00  0.64704875040E+02  0.90204576538E+03  0.89972209152E+03 0.  0.
        3    1    3    3  502    0 -0.14284114415E+03 -0.40053252052E+03 -0.11480899951E+03  0.44046680809E+03  0.10100000352E+00 0. -1.
       -3    1    3    3    0  502  0.14284114415E+03  0.40053252052E+03  0.17951387455E+03  0.46157895729E+03  0.10100000352E+00 0.  1.
</event>
<event>
 5   0  0.4236284E-04  0.8989728E+03  0.7818609E-02  0.9426866E-01
       -2   -1    0    0    0  501  0.00000000000E+00  0.00000000000E+00  0.27145539312E+03  0.27145539313E+03  0.25500000920E-02 0.  1.
        2   -1    0    0  501    0  0.00000000000E+00  0.00000000000E+00 -0.74427706297E+03  0.74427706298E+03  0.25500000920E-02 0. -1.
    10030    2    1    2    0    0  0.00000000000E+00  0.00000000000E+00 -0.47282166985E+03  0.10157324561E+04  0.89897279765E+03 0.  0.
        2    1    3    3  502    0 -0.94198020114E+02  0.11917281253E+03 -0.71439544702E+03  0.73036722336E+03  0.25500000920E-02 0. -1.
       -2    1    3    3    0  502  0.94198020114E+02 -0.11917281253E+03  0.24157377717E+03  0.28536523275E+03  0.25500000920E-02 0.  1.
</event>
<event>
 5   0  0.4033144E-04  0.8983632E+03  0.7818609E-02  0.9427630E-01
       -2   -1    0    0    0  501  0.00000000000E+00  0.00000000000E+00  0.11363663261E+03  0.11363663264E+03  0.25500000920E-02 0.  1.
        2   -1    0    0  501    0  0.00000000000E+00  0.00000000000E+00 -0.17755198700E+04  0.17755198700E+04  0.25500000920E-02 0. -1.
    10030    2    1    2    0    0  0.00000000000E+00  0.00000000000E+00 -0.16618832374E+04  0.18891565026E+04  0.89836317643E+03 0.  0.
        4    1    3    3  502    0 -0.24355473373E+03  0.33605650224E+03 -0.46970006994E+03  0.62679554053E+03  0.12699999809E+01 0.  1.
       -4    1    3    3    0  502  0.24355473373E+03 -0.33605650224E+03 -0.11921831674E+04  0.12623609621E+04  0.12699999809E+01 0. -1.
</event>
<event>
 5   0  0.4110039E-04  0.9001959E+03  0.7818609E-02  0.9425337E-01
        2   -1    0    0  501    0  0.00000000000E+00  0.00000000000E+00  0.66842062495E+03  0.66842062495E+03  0.25500000920E-02 0.  1.
       -2   -1    0    0    0  501  0.00000000000E+00  0.00000000000E+00 -0.30308483581E+03  0.30308483582E+03  0.25500000920E-02 0. -1.
    10030    2    1    2    0    0  0.00000000000E+00  0.00000000000E+00  0.36533578914E+03  0.97150546077E+03  0.90019587951E+03 0.  0.
        3    1    3    3  502    0  0.76861744760E+02 -0.27996499520E+03 -0.18852583587E+03  0.34616488461E+03  0.10100000352E+00 0. -1.
       -3    1    3    3    0  502 -0.76861744760E+02  0.27996499520E+03  0.55386162500E+03  0.62534057616E+03  0.10100000352E+00 0.  1.
</event>
<event>
 5   0  0.2450427E-04  0.8994184E+03  0.7818609E-02  0.9426309E-01
        1   -1    0    0  501    0  0.00000000000E+00  0.00000000000E+00  0.75277744834E+03  0.75277744836E+03  0.50400001928E-02 0.  1.
       -1   -1    0    0    0  501  0.00000000000E+00  0.00000000000E+00 -0.26865626741E+03  0.26865626746E+03  0.50400001928E-02 0. -1.
    10030    2    1    2    0    0  0.00000000000E+00  0.00000000000E+00  0.48412118093E+03  0.10214337158E+04  0.89941843320E+03 0.  0.
        3    1    3    3  502    0  0.70908780593E+01 -0.11981393828E+03  0.73425198481E+03  0.74399707510E+03  0.10100000352E+00 0.  1.
       -3    1    3    3    0  502 -0.70908780593E+01  0.11981393828E+03 -0.25013080388E+03  0.27743664071E+03  0.10100000352E+00 0. -1.
</event>
<event>
 5   0  0.4236284E-04  0.9001222E+03  0.7818609E-02  0.9425429E-01
        2   -1    0    0  501    0  0.00000000000E+00  0.00000000000E+00  0.21174055322E+03  0.21174055323E+03  0.25500000920E-02 0. -1.
       -2   -1    0    0    0  501  0.00000000000E+00  0.00000000000E+00 -0.95661890115E+03  0.95661890115E+03  0.25500000920E-02 0.  1.
    10030    2    1    2    0    0  0.00000000000E+00  0.00000000000E+00 -0.74487834793E+03  0.11683594544E+04  0.90012224805E+03 0.  0.
        2    1    3    3  502    0  0.11727571669E+03  0.18990309717E+03  0.13484214032E+03  0.26076652939E+03  0.25500000920E-02 0. -1.
       -2    1    3    3    0  502 -0.11727571669E+03 -0.18990309717E+03 -0.87972048826E+03  0.90759292500E+03  0.25500000920E-02 0.  1.
</event>
<event>
 5   0  0.2356918E-04  0.8999629E+03  0.7818609E-02  0.9425628E-01
       -1   -1    0    0    0  501  0.00000000000E+00  0.00000000000E+00  0.44499027392E+03  0.44499027395E+03  0.50400001928E-02 0. -1.
        1   -1    0    0  501    0  0.00000000000E+00  0.00000000000E+00 -0.45502861092E+03  0.45502861095E+03  0.50400001928E-02 0.  1.
    10030    2    1    2    0    0  0.00000000000E+00  0.00000000000E+00 -0.10038337000E+02  0.90001888490E+03  0.89996290200E+03 0.  0.
        5    1    3    3  502    0  0.52690174280E+02 -0.22196496425E+03  0.38284063937E+03  0.44568345827E+03  0.46999998093E+01 0. -1.
       -5    1    3    3    0  502 -0.52690174280E+02  0.22196496425E+03 -0.39287897637E+03  0.45433542663E+03  0.46999998093E+01 0.  1.
</event>
<event>
 5   0  0.2351435E-04  0.8998084E+03  0.7818609E-02  0.9425821E-01
       -1   -1    0    0    0  501  0.00000000000E+00  0.00000000000E+00  0.92405042082E+02  0.92405042220E+02  0.50400001928E-02 0.  1.
        1   -1    0    0  501    0  0.00000000000E+00  0.00000000000E+00 -0.21905060449E+04  0.21905060449E+04  0.50400001928E-02 0. -1.
    10030    2    1    2    0    0  0.00000000000E+00  0.00000000000E+00 -0.20981010028E+04  0.22829110871E+04  0.89980843167E+03 0.  0.
        4    1    3    3  502    0 -0.31003163197E+02  0.33747014004E+03 -0.29828559414E+03  0.45146782845E+03  0.12699999809E+01 0.  1.
       -4    1    3    3    0  502  0.31003163197E+02 -0.33747014004E+03 -0.17998154087E+04  0.18314432587E+04  0.12699999809E+01 0. -1.
</event>
<event>
 5   0  0.4236284E-04  0.8990331E+03  0.7818609E-02  0.9426791E-01
        2   -1    0    0  501    0  0.00000000000E+00  0.00000000000E+00  0.70985743135E+03  0.70985743136E+03  0.25500000920E-02 0.  1.
       -2   -1    0    0    0  501  0.00000000000E+00  0.00000000000E+00 -0.28465595117E+03  0.28465595118E+03  0.25500000920E-02 0. -1.
    10030    2    1    2    0    0  0.00000000000E+00  0.00000000000E+00  0.42520148019E+03  0.99451338254E+03  0.89903313025E+03 0.  0.
        2    1    3    3  502    0 -0.41633884805E+02  0.30654868966E+03 -0.14816344074E+03  0.34301295118E+03  0.25500000920E-02 0. -1.
       -2    1    3    3    0  502  0.41633884805E+02 -0.30654868966E+03  0.57336492093E+03  0.65150043136E+03  0.25500000920E-02 0.  1.
</event>
<event>
 5   0  0.2450427E-04  0.9007070E+03  0.7818609E-02  0.9424698E-01
        1   -1    0    0  501    0  0.00000000000E+00  0.00000000000E+00  0.56901931401E+03  0.56901931403E+03  0.50400001928E-02 0.  1.
       -1   -1    0    0    0  501  0.00000000000E+00  0.00000000000E+00 -0.35643477479E+03  0.35643477483E+03  0.50400001928E-02 0. -1.
    10030    2    1    2    0    0  0.00000000000E+00  0.00000000000E+00  0.21258453921E+03  0.92545408886E+03  0.90070699135E+03 0.  0.
        3    1    3    3  502    0  0.15459064885E+00  0.10652817958E+03 -0.34330296068E+03  0.35945126229E+03  0.10100000352E+00 0. -1.
       -3    1    3    3    0  502 -0.15459064885E+00 -0.10652817958E+03  0.55588749990E+03  0.56600282657E+03  0.10100000352E+00 0.  1.
</event>
<event>
 5   0  0.2450427E-04  0.9012123E+03  0.7818609E-02  0.9424067E-01
        1   -1    0    0  501    0  0.00000000000E+00  0.00000000000E+00  0.13661541106E+04  0.13661541106E+04  0.50400001928E-02 0.  1.
       -1   -1    0    0    0  501  0.00000000000E+00  0.00000000000E+00 -0.14862590949E+03  0.14862590957E+03  0.50400001928E-02 0. -1.
    10030    2    1    2    0    0  0.00000000000E+00  0.00000000000E+00  0.12175282011E+04  0.15147800201E+04  0.90121228853E+03 0.  0.
        3    1    3    3  502    0 -0.32223355958E+02  0.41091358988E+03  0.30269902799E+03  0.51138540726E+03  0.10100000352E+00 0. -1.
       -3    1    3    3    0  502  0.32223355958E+02 -0.41091358988E+03  0.91482917308E+03  0.10033946129E+04  0.10100000352E+00 0.  1.
</event>
<event>
 5   0  0.2450427E-04  0.8996068E+03  0.7818609E-02  0.9426073E-01
       -1   -1    0    0    0  501  0.00000000000E+00  0.00000000000E+00  0.17757719186E+03  0.17757719193E+03  0.50400001928E-02 0. -1.
        1   -1    0    0  501    0  0.00000000000E+00  0.00000000000E+00 -0.11393528801E+04  0.11393528801E+04  0.50400001928E-02 0.  1.
    10030    2    1    2    0    0  0.00000000000E+00  0.00000000000E+00 -0.96177568819E+03  0.13169300720E+04  0.89960676973E+03 0.  0.
        3    1    3    3  502    0  0.19656340703E+03  0.25235466024E+03 -0.94381917393E+03  0.99655139897E+03  0.10100000352E+00 0.  1.
       -3    1    3    3    0  502 -0.19656340703E+03 -0.25235466024E+03 -0.17956514267E+02  0.32037867303E+03  0.10100000352E+00 0. -1.
</event>
<event>
 5   0  0.2332791E-04  0.8997547E+03  0.7818609E-02  0.9425888E-01
       -1   -1    0    0    0  501  0.00000000000E+00  0.00000000000E+00  0.11611137252E+03  0.11611137263E+03  0.50400001928E-02 0.  1.
        1   -1    0    0  501    0  0.00000000000E+00  0.00000000000E+00 -0.17430646060E+04  0.17430646060E+04  0.50400001928E-02 0. -1.
    10030    2    1    2    0    0  0.00000000000E+00  0.00000000000E+00 -0.16269532334E+04  0.18591759786E+04  0.89975468636E+03 0.  0.
        2    1    3    3  502    0 -0.20834194425E+03 -0.38654310118E+03 -0.61136098216E+03  0.75271786568E+03  0.25500000920E-02 0.  1.
       -2    1    3    3    0  502  0.20834194425E+03  0.38654310118E+03 -0.10155922513E+04  0.11064581129E+04  0.25500000920E-02 0. -1.
</event>
<event>
 5   0  0.3959804E-04  0.9004749E+03  0.7818609E-02  0.9424988E-01
       -2   -1    0    0    0  501  0.00000000000E+00  0.00000000000E+00  0.82447526591E+02  0.82447526631E+02  0.25500000920E-02 0.  1.
        2   -1    0    0  501    0  0.00000000000E+00  0.00000000000E+00 -0.24587001087E+04  0.24587001087E+04  0.25500000920E-02 0. -1.
    10030    2    1    2    0    0  0.00000000000E+00  0.00000000000E+00 -0.23762525821E+04  0.25411476353E+04  0.90047485838E+03 0.  0.
        5    1    3    3  502    0 -0.41400233936E+02 -0.23551149916E+03 -0.22646106430E+04  0.22772051072E+04  0.46999998093E+01 0. -1.
       -5    1    3    3    0  502  0.41400233936E+02  0.23551149916E+03 -0.11164193905E+03  0.26394252814E+03  0.46999998093E+01 0.  1.
</event>
<event>
 5   0  0.2351435E-04  0.9001091E+03  0.7818609E-02  0.9425445E-01
        1   -1    0    0  501    0  0.00000000000E+00  0.00000000000E+00  0.10413545581E+04  0.10413545581E+04  0.50400001928E-02 0. -1.
       -1   -1    0    0    0  501  0.00000000000E+00  0.00000000000E+00 -0.19450541812E+03  0.19450541818E+03  0.50400001928E-02 0.  1.
    10030    2    1    2    0    0  0.00000000000E+00  0.00000000000E+00  0.84684913997E+03  0.12358599763E+04  0.90010911289E+03 0.  0.
        4    1    3    3  502    0  0.57216740740E+02 -0.18313109507E+03 -0.13553899722E+03  0.23491101734E+03  0.12699999809E+01 0.  1.
       -4    1    3    3    0  502 -0.57216740740E+02  0.18313109507E+03  0.98238813719E+03  0.10009489589E+04  0.12699999809E+01 0. -1.
</event>
<event>
 5   0  0.2450427E-04  0.9002712E+03  0.7818609E-02  0.9425243E-01
        1   -1    0    0  501    0  0.00000000000E+00  0.00000000000E+00  0.12137930550E+04  0.12137930550E+04  0.50400001928E-02 0. -1.
       -1   -1    0    0    0  501  0.00000000000E+00  0.00000000000E+00 -0.16693293664E+03  0.16693293672E+03  0.50400001928E-02 0.  1.
    10030    2    1    2    0    0  0.00000000000E+00  0.00000000000E+00  0.10468601184E+04  0.13807259918E+04  0.90027115740E+03 0.  0.
        3    1    3    3  502    0  0.15569007929E+03 -0.29669658321E+03  0.98443681803E+03  0.10398962074E+04  0.10100000352E+00 0. -1.
       -3    1    3    3    0  502 -0.15569007929E+03  0.29669658321E+03  0.62423300365E+02  0.34082978436E+03  0.10100000352E+00 0.  1.
</event>
<event>
 5   0  0.4236284E-04  0.8996235E+03  0.7818609E-02  0.9426052E-01
       -2   -1    0    0    0  501  0.00000000000E+00  0.00000000000E+00  0.83395137852E+02  0.83395137891E+02  0.25500000920E-02 0.  1.
        2   -1    0    0  501    0  0.00000000000E+00  0.00000000000E+00 -0.24261678516E+04  0.24261678516E+04  0.25500000920E-02 0. -1.
    10030    2    1    2    0    0  0.00000000000E+00  0.00000000000E+00 -0.23427727138E+04  0.25095629895E+04  0.89962348233E+03 0.  0.
        2    1    3    3  502    0  0.77155542714E+02  0.40616111108E+03 -0.16657842992E+04  0.17163208200E+04  0.25500000920E-02 0. -1.
       -2    1    3    3    0  502 -0.77155542714E+02 -0.40616111108E+03 -0.67698841459E+03  0.79324216946E+03  0.25500000920E-02 0.  1.
</event>
<event>
 5   0  0.1596250E-04  0.8966198E+03  0.7818609E-02  0.9429817E-01
       -4   -1    0    0    0  501  0.00000000000E+00  0.00000000000E+00  0.88280545161E+02  0.88289679770E+02  0.12699999809E+01 0. -1.
        4   -1    0    0  501    0  0.00000000000E+00  0.00000000000E+00 -0.22764987013E+04  0.22764990555E+04  0.12699999809E+01 0.  1.
    10030    2    1    2    0    0  0.00000000000E+00  0.00000000000E+00 -0.21882181561E+04  0.23647887353E+04  0.89661979893E+03 0.  0.
        5    1    3    3  502    0 -0.13371218821E+03 -0.10054836746E+03  0.27993180095E+01  0.16738831994E+03  0.46999998093E+01 0. -1.
       -5    1    3    3    0  502  0.13371218821E+03  0.10054836746E+03 -0.21910174741E+04  0.21974004153E+04  0.46999998093E+01 0.  1.
</event>
<event>
 5   0  0.3959804E-04  0.9002958E+03  0.7818609E-02  0.9425212E-01
        2   -1    0    0  501    0  0.00000000000E+00  0.00000000000E+00  0.61119302227E+03  0.61119302227E+03  0.25500000920E-02 0.  1.
       -2   -1    0    0    0  501  0.00000000000E+00  0.00000000000E+00 -0.33153703261E+03  0.33153703262E+03  0.25500000920E-02 0. -1.
    10030    2    1    2    0    0  0.00000000000E+00  0.00000000000E+00  0.27965598965E+03  0.94273005490E+03  0.90029577576E+03 0.  0.
        5    1    3    3  502    0 -0.18870547065E+03  0.89169722872E+02  0.55743620424E+03  0.59524634054E+03  0.46999998093E+01 0.  1.
       -5    1    3    3    0  502  0.18870547065E+03 -0.89169722872E+02 -0.27778021458E+03  0.34748371436E+03  0.46999998093E+01 0. -1.
</event>
<event>
 5   0  0.2308362E-04  0.9001136E+03  0.7818609E-02  0.9425439E-01
        1   -1    0    0  501    0  0.00000000000E+00  0.00000000000E+00  0.19652791177E+03  0.19652791184E+03  0.50400001928E-02 0.  1.
       -1   -1    0    0    0  501  0.00000000000E+00  0.00000000000E+00 -0.10306480294E+04  0.10306480294E+04  0.50400001928E-02 0. -1.
    10030    2    1    2    0    0  0.00000000000E+00  0.00000000000E+00 -0.83412011766E+03  0.12271759413E+04  0.90011355960E+03 0.  0.
        1    1    3    3  502    0  0.22930471747E+03  0.54153962391E+02  0.10572603431E+03  0.25824658653E+03  0.50400001928E-02 0.  1.
       -1    1    3    3    0  502 -0.22930471747E+03 -0.54153962391E+02 -0.93984615197E+03  0.96892935475E+03  0.50400001928E-02 0. -1.
</event>
<event>
 5   0  0.4110039E-04  0.8997831E+03  0.7818609E-02  0.9425853E-01
        2   -1    0    0  501    0  0.00000000000E+00  0.00000000000E+00  0.16015535946E+04  0.16015535946E+04  0.25500000920E-02 0. -1.
       -2   -1    0    0    0  501  0.00000000000E+00  0.00000000000E+00 -0.12637877868E+03  0.12637877871E+03  0.25500000920E-02 0.  1.
    10030    2    1    2    0    0  0.00000000000E+00  0.00000000000E+00  0.14751748160E+04  0.17279323733E+04  0.89978305677E+03 0.  0.
        3    1    3    3  502    0 -0.17575821605E+03  0.80242373623E+02 -0.42649357037E+02  0.19786047329E+03  0.10100000352E+00 0.  1.
       -3    1    3    3    0  502  0.17575821605E+03 -0.80242373623E+02  0.15178241730E+04  0.15300719001E+04  0.10100000352E+00 0. -1.
</event>
<event>
 5   0  0.3959804E-04  0.9005389E+03  0.7818609E-02  0.9424908E-01
       -2   -1    0    0    0  501  0.00000000000E+00  0.00000000000E+00  0.16918772899E+03  0.16918772901E+03  0.25500000920E-02 0. -1.
        2   -1    0    0  501    0  0.00000000000E+00  0.00000000000E+00 -0.11983290128E+04  0.11983290128E+04  0.25500000920E-02 0.  1.
    10030    2    1    2    0    0  0.00000000000E+00  0.00000000000E+00 -0.10291412838E+04  0.13675167419E+04  0.90053887041E+03 0.  0.
        5    1    3    3  502    0 -0.92295491979E+01 -0.10238306670E+03  0.15109136546E+03  0.18280636652E+03  0.46999998093E+01 0. -1.
       -5    1    3    3    0  502  0.92295491979E+01  0.10238306670E+03 -0.11802326493E+04  0.11847103753E+04  0.46999998093E+01 0.  1.
</event>
<event>
 5   0  0.2308362E-04  0.9000718E+03  0.7818609E-02  0.9425492E-01
       -1   -1    0    0    0  501  0.00000000000E+00  0.00000000000E+00  0.37642565393E+03  0.37642565396E+03  0.50400001928E-02 0.  1.
        1   -1    0    0  501    0  0.00000000000E+00  0.00000000000E+00 -0.53804067748E+03  0.53804067751E+03  0.50400001928E-02 0. -1.
    10030    2    1    2    0    0  0.00000000000E+00  0.00000000000E+00 -0.16161502355E+03  0.91446633147E+03  0.90007180578E+03 0.  0.
        1    1    3    3  502    0  0.12909610176E+03 -0.31775425875E+03  0.21522621228E+03  0.40491467610E+03  0.50400001928E-02 0.  1.
       -1    1    3    3    0  502 -0.12909610176E+03  0.31775425875E+03 -0.37684123583E+03  0.50955165537E+03  0.50400001928E-02 0. -1.
</event>
<event>
 5   0  0.4236284E-04  0.8998783E+03  0.7818609E-02  0.9425734E-01
       -2   -1    0    0    0  501  0.00000000000E+00  0.00000000000E+00  0.32128387505E+03  0.32128387506E+03  0.25500000920E-02 0.  1.
        2   -1    0    0  501    0  0.00000000000E+00  0.00000000000E+00 -0.63011329028E+03  0.63011329028E+03  0.25500000920E-02 0. -1.
    10030    2    1    2    0    0  0.00000000000E+00  0.00000000000E+00 -0.30882941523E+03  0.95139716535E+03  0.89987830206E+03 0.  0.
        2    1    3    3  502    0  0.44919622611E+03  0.71004393039E+01 -0.12814093022E+03  0.46716995172E+03  0.25500000920E-02 0.  1.
       -2    1    3    3    0  502 -0.44919622611E+03 -0.71004393039E+01 -0.18068848501E+03  0.48422721362E+03  0.25500000920E-02 0. -1.
</event>
<event>
 5   0  0.3959804E-04  0.9001114E+03  0.7818609E-02  0.9425442E-01
        2   -1    0    0  501    0  0.00000000000E+00  0.00000000000E+00  0.10430395635E+04  0.10430395635E+04  0.25500000920E-02 0.  1.
       -2   -1    0    0    0  501  0.00000000000E+00  0.00000000000E+00 -0.19419217215E+03  0.19419217217E+03  0.25500000920E-02 0. -1.
    10030    2    1    2    0    0  0.00000000000E+00  0.00000000000E+00  0.84884739132E+03  0.12372317356E+04  0.90011136751E+03 0.  0.
        5    1    3    3  502    0 -0.16043251231E+03  0.12825230134E+03  0.97482164509E+03  0.99623620369E+03  0.46999998093E+01 0.  1.
       -5    1    3    3    0  502  0.16043251231E+03 -0.12825230134E+03 -0.12597425377E+03  0.24099553194E+03  0.46999998093E+01 0. -1.
</event>
<event>
 5   0  0.2332791E-04  0.8992630E+03  0.7818609E-02  0.9426503E-01
        1   -1    0    0  501    0  0.00000000000E+00  0.00000000000E+00  0.73929596000E+03  0.73929596002E+03  0.50400001928E-02 0. -1.
       -1   -1    0    0    0  501  0.00000000000E+00  0.00000000000E+00 -0.27346083253E+03  0.27346083257E+03  0.50400001928E-02 0.  1.
    10030    2    1    2    0    0  0.00000000000E+00  0.00000000000E+00  0.46583512747E+03  0.10127567926E+04  0.89926300655E+03 0.  0.
        2    1    3    3  502    0 -0.79266157762E+02  0.58036374438E+02  0.72706112641E+03  0.73366833520E+03  0.25500000920E-02 0. -1.
       -2    1    3    3    0  502  0.79266157762E+02 -0.58036374438E+02 -0.26122599894E+03  0.27908845740E+03  0.25500000920E-02 0.  1.
</event>
<event>
 5   0  0.3959804E-04  0.8998986E+03  0.7818609E-02  0.9425708E-01
        2   -1    0    0  501    0  0.00000000000E+00  0.00000000000E+00  0.10974946818E+04  0.10974946818E+04  0.25500000920E-02 0.  1.
       -2   -1    0    0    0  501  0.00000000000E+00  0.00000000000E+00 -0.18446956258E+03  0.18446956260E+03  0.25500000920E-02 0. -1.
    10030    2    1    2    0    0  0.00000000000E+00  0.00000000000E+00  0.91302511918E+03  0.12819642444E+04  0.89989858071E+03 0.  0.
        5    1    3    3  502    0 -0.15746392360E+03  0.16848903074E+03 -0.93835979174E+02  0.24901952072E+03  0.46999998093E+01 0. -1.
       -5    1    3    3    0  502  0.15746392360E+03 -0.16848903074E+03  0.10068610984E+04  0.10329447236E+04  0.46999998093E+01 0.  1.
</event>
<event>
 5   0  0.2351435E-04  0.8994334E+03  0.7818609E-02  0.9426290E-01
       -1   -1    0    0    0  501  0.00000000000E+00  0.00000000000E+00  0.21014372918E+03  0.21014372924E+03  0.50400001928E-02 0.  1.
        1   -1    0    0  501    0  0.00000000000E+00  0.00000000000E+00 -0.96241315859E+03  0.96241315861E+03  0.50400001928E-02 0. -1.
    10030    2    1    2    0    0  0.00000000000E+00  0.00000000000E+00 -0.75226942942E+03  0.11725568878E+04  0.89943335540E+03 0.  0.
        4    1    3    3  502    0 -0.30803078354E+03 -0.15373332323E+03 -0.75335636111E+03  0.82828999632E+03  0.12699999809E+01 0. -1.
       -4    1    3    3    0  502  0.30803078354E+03  0.15373332323E+03  0.10869316972E+01  0.34426689152E+03  0.12699999809E+01 0.  1.
</event>
<event>
 5   0  0.2356918E-04  0.8996611E+03  0.7818609E-02  0.9426005E-01
       -1   -1    0    0    0  501  0.00000000000E+00  0.00000000000E+00  0.34942221332E+03  0.34942221336E+03  0.50400001928E-02 0.  1.
        1   -1    0    0  501    0  0.00000000000E+00  0.00000000000E+00 -0.57909173722E+03  0.57909173724E+03  0.50400001928E-02 0. -1.
    10030    2    1    2    0    0  0.00000000000E+00  0.00000000000E+00 -0.22966952390E+03  0.92851395060E+03  0.89966108410E+03 0.  0.
        5    1    3    3  502    0 -0.27197935814E+02  0.17973154118E+03 -0.53946922454E+03  0.56929104053E+03  0.46999998093E+01 0. -1.
       -5    1    3    3    0  502  0.27197935814E+02 -0.17973154118E+03  0.30979970064E+03  0.35922291007E+03  0.46999998093E+01 0.  1.
</event>
<event>
 5   0  0.2356918E-04  0.9000045E+03  0.7818609E-02  0.9425576E-01
        1   -1    0    0  501    0  0.00000000000E+00  0.00000000000E+00  0.59418383192E+03  0.59418383194E+03  0.50400001928E-02 0. -1.
       -1   -1    0    0    0  501  0.00000000000E+00  0.00000000000E+00 -0.34080706214E+03  0.34080706218E+03  0.50400001928E-02 0.  1.
    10030    2    1    2    0    0  0.00000000000E+00  0.00000000000E+00  0.25337676977E+03  0.93499089412E+03  0.90000454700E+03 0.  0.
        5    1    3    3  502    0  0.21148382563E+03 -0.64400225671E+02 -0.28047470881E+03  0.35715675809E+03  0.46999998093E+01 0.  1.
       -5    1    3    3    0  502 -0.21148382563E+03  0.64400225671E+02  0.53385147859E+03  0.57783413603E+03  0.46999998093E+01 0. -1.
</event>
<event>
 5   0  0.2356918E-04  0.8997806E+03  0.7818609E-02  0.9425856E-01
        1   -1    0    0  501    0  0.00000000000E+00  0.00000000000E+00  0.77020682360E+03  0.77020682362E+03  0.50400001928E-02 0.  1.
       -1   -1    0    0    0  501  0.00000000000E+00  0.00000000000E+00 -0.26278823847E+03  0.26278823852E+03  0.50400001928E-02 0. -1.
    10030    2    1    2    0    0  0.00000000000E+00  0.00000000000E+00  0.50741858513E+03  0.10329950621E+04  0.89978062764E+03 0.  0.
        5    1    3    3  502    0  0.18874108888E+03 -0.39140360857E+03  0.12002543247E+03  0.45083054230E+03  0.46999998093E+01 0. -1.
       -5    1    3    3    0  502 -0.18874108888E+03  0.39140360857E+03  0.38739315266E+03  0.58216451984E+03  0.46999998093E+01 0.  1.
</event>
<event>
 5   0  0.4110039E-04  0.8997437E+03  0.7818609E-02  0.9425902E-01
        2   -1    0    0  501    0  0.00000000000E+00  0.00000000000E+00  0.46505579704E+03  0.46505579704E+03  0.25500000920E-02 0.  1.
       -2   -1    0    0    0  501  0.00000000000E+00  0.00000000000E+00 -0.43518369304E+03  0.43518369304E+03  0.25500000920E-02 0. -1.
    10030    2    1    2    0    0  0.00000000000E+00  0.00000000000E+00  0.29872104000E+02  0.90023949009E+03  0.89974373958E+03 0.  0.
        3    1    3    3  502    0  0.81832569630E+02 -0.28158729725E+03  0.35629365917E+03  0.46144680863E+03  0.10100000352E+00 0.  1.
       -3    1    3    3    0  502 -0.81832569630E+02  0.28158729725E+03 -0.32642155517E+03  0.43879268146E+03  0.10100000352E+00 0. -1.
</event>
<event>
 5   0  0.2356918E-04  0.9000820E+03  0.7818609E-02  0.9425479E-01
        1   -1    0    0  501    0  0.00000000000E+00  0.00000000000E+00  0.34310521293E+03  0.34310521296E+03  0.50400001928E-02 0.  1.
       -1   -1    0    0    0  501  0.00000000000E+00  0.00000000000E+00 -0.59030551439E+03  0.59030551442E+03  0.50400001928E-02 0. -1.
    10030    2    1    2    0    0  0.00000000000E+00  0.00000000000E+00 -0.24720030147E+03  0.93341072738E+03  0.90008199456E+03 0.  0.
        5    1    3    3  502    0  0.18101441011E+03 -0.12164922271E+03  0.28461261968E+03  0.35859612844E+03  0.46999998093E+01 0.  1.
       -5    1    3    3    0  502 -0.18101441011E+03  0.12164922271E+03 -0.53181292115E+03  0.57481459894E+03  0.46999998093E+01 0. -1.
</event>
<event>
 5   0  0.2356918E-04  0.8993246E+03  0.7818609E-02  0.9426426E-01
       -1   -1    0    0    0  501  0.00000000000E+00  0.00000000000E+00  0.18433231193E+03  0.18433231200E+03  0.50400001928E-02 0.  1.
        1   -1    0    0  501    0  0.00000000000E+00  0.00000000000E+00 -0.10969113359E+04  0.10969113359E+04  0.50400001928E-02 0. -1.
    10030    2    1    2    0    0  0.00000000000E+00  0.00000000000E+00 -0.91257902401E+03  0.12812436479E+04  0.89932464124E+03 0.  0.
        5    1    3    3  502    0 -0.13934403543E+03  0.21790801096E+03  0.67698700334E+02  0.26740580673E+03  0.46999998093E+01 0.  1.
       -5    1    3    3    0  502  0.13934403543E+03 -0.21790801096E+03 -0.98027772434E+03  0.10138378412E+04  0.46999998093E+01 0. -1.
</event>
<event>
 5   0  0.4110039E-04  0.8998570E+03  0.7818609E-02  0.9425760E-01
       -2   -1    0    0    0  501  0.00000000000E+00  0.00000000000E+00  0.66806389500E+03  0.66806389500E+03  0.25500000920E-02 0. -1.
        2   -1    0    0  501    0  0.00000000000E+00  0.00000000000E+00 -0.30301842473E+03  0.30301842474E+03  0.25500000920E-02 0.  1.
    10030    2    1    2    0    0  0.00000000000E+00  0.00000000000E+00  0.36504547027E+03  0.97108231974E+03  0.89985703106E+03 0.  0.
        3    1    3    3  502    0  0.21845045176E+02 -0.42165034850E+03  0.14752159262E+02  0.42247350070E+03  0.10100000352E+00 0. -1.
       -3    1    3    3    0  502 -0.21845045176E+02  0.42165034850E+03  0.35029331101E+03  0.54860881904E+03  0.10100000352E+00 0.  1.
</event>
<event>
 5   0  0.4243516E-04  0.9000156E+03  0.7818609E-02  0.9425562E-01
       -2   -1    0    0    0  501  0.00000000000E+00  0.00000000000E+00  0.10904217701E+03  0.10904217704E+03  0.25500000920E-02 0.  1.
        2   -1    0    0  501    0  0.00000000000E+00  0.00000000000E+00 -0.18571439120E+04  0.18571439120E+04  0.25500000920E-02 0. -1.
    10030    2    1    2    0    0  0.00000000000E+00  0.00000000000E+00 -0.17481017350E+04  0.19661860890E+04  0.90001558921E+03 0.  0.
        1    1    3    3  502    0 -0.41307029996E+03  0.15715092074E+03 -0.10592093274E+04  0.11477141995E+04  0.50400001928E-02 0. -1.
       -1    1    3    3    0  502  0.41307029996E+03 -0.15715092074E+03 -0.68889240759E+03  0.81847188947E+03  0.50400001928E-02 0.  1.
</event>
<event>
 5   0  0.4033144E-04  0.9000054E+03  0.7818609E-02  0.9425575E-01
       -2   -1    0    0    0  501  0.00000000000E+00  0.00000000000E+00  0.10400223507E+03  0.10400223510E+03  0.25500000920E-02 0. -1.
        2   -1    0    0  501    0  0.00000000000E+00  0.00000000000E+00 -0.19470968528E+04  0.19470968528E+04  0.25500000920E-02 0.  1.
    10030    2    1    2    0    0  0.00000000000E+00  0.00000000000E+00 -0.18430946177E+04  0.20510990879E+04  0.90000538802E+03 0.  0.
        4    1    3    3  502    0 -0.17932774197E+03 -0.41059584267E+03 -0.10169773991E+04  0.11113019519E+04  0.12699999809E+01 0.  1.
       -4    1    3    3    0  502  0.17932774197E+03  0.41059584267E+03 -0.82611721860E+03  0.93979713599E+03  0.12699999809E+01 0. -1.
</event>
<event>
 5   0  0.2332791E-04  0.9002649E+03  0.7818609E-02  0.9425250E-01
        1   -1    0    0  501    0  0.00000000000E+00  0.00000000000E+00  0.17468324469E+04  0.17468324469E+04  0.50400001928E-02 0.  1.
       -1   -1    0    0    0  501  0.00000000000E+00  0.00000000000E+00 -0.11599237423E+03  0.11599237434E+03  0.50400001928E-02 0. -1.
    10030    2    1    2    0    0  0.00000000000E+00  0.00000000000E+00  0.16308400727E+04  0.18628248212E+04  0.90026494545E+03 0.  0.
        2    1    3    3  502    0  0.34570219515E+03  0.44364963787E+02  0.14048358921E+04  0.14474260401E+04  0.25500000920E-02 0.  1.
       -2    1    3    3    0  502 -0.34570219515E+03 -0.44364963787E+02  0.22600418054E+03  0.41539878114E+03  0.25500000920E-02 0. -1.
</event>
<event>
 5   0  0.3959804E-04  0.9002769E+03  0.7818609E-02  0.9425235E-01
        2   -1    0    0  501    0  0.00000000000E+00  0.00000000000E+00  0.17346255111E+03  0.17346255113E+03  0.25500000920E-02 0.  1.
       -2   -1    0    0    0  501  0.00000000000E+00  0.00000000000E+00 -0.11681173092E+04  0.11681173092E+04  0.25500000920E-02 0. -1.
    10030    2    1    2    0    0  0.00000000000E+00  0.00000000000E+00 -0.99465475810E+03  0.13415798603E+04  0.90027686512E+03 0.  0.
        5    1    3    3  502    0 -0.25637191164E+03 -0.36227941101E+03 -0.60913690694E+03  0.75368613502E+03  0.46999998093E+01 0. -1.
       -5    1    3    3    0  502  0.25637191164E+03  0.36227941101E+03 -0.38551785115E+03  0.58789372532E+03  0.46999998093E+01 0.  1.
</event>
<event>
 5   0  0.2351435E-04  0.9000814E+03  0.7818609E-02  0.9425480E-01
       -1   -1    0    0    0  501  0.00000000000E+00  0.00000000000E+00  0.56077587872E+03  0.56077587875E+03  0.50400001928E-02 0. -1.
        1   -1    0    0  501    0  0.00000000000E+00  0.00000000000E+00 -0.36117215440E+03  0.36117215443E+03  0.50400001928E-02 0.  1.
    10030    2    1    2    0    0  0.00000000000E+00  0.00000000000E+00  0.19960372433E+03  0.92194803318E+03  0.90008140138E+03 0.  0.
        4    1    3    3  502    0  0.11736936826E+02  0.41323284072E+03 -0.82383984389E+02  0.42153039050E+03  0.12699999809E+01 0.  1.
       -4    1    3    3    0  502 -0.11736936826E+02 -0.41323284072E+03  0.28198770872E+03  0.50041764268E+03  0.12699999809E+01 0. -1.
</event>
<event>
 5   0  0.4243516E-04  0.8998045E+03  0.7818609E-02  0.9425826E-01
        2   -1    0    0  501    0  0.00000000000E+00  0.00000000000E+00  0.33825326504E+03  0.33825326505E+03  0.25500000920E-02 0.  1.
       -2   -1    0    0    0  501  0.00000000000E+00  0.00000000000E+00 -0.59840383095E+03  0.59840383096E+03  0.25500000920E-02 0. -1.
    10030    2    1    2    0    0  0.00000000000E+00  0.00000000000E+00 -0.26015056591E+03  0.93665709601E+03  0.89980453353E+03 0.  0.
        1    1    3    3  502    0  0.70268742791E+02 -0.44097744614E+03 -0.18721652840E+03  0.48419916640E+03  0.50400001928E-02 0.  1.
       -1    1    3    3    0  502 -0.70268742791E+02  0.44097744614E+03 -0.72934037515E+02  0.45245792961E+03  0.50400001928E-02 0. -1.
</event>
<event>
 5   0  0.3959804E-04  0.9003871E+03  0.7818609E-02  0.9425098E-01
        2   -1    0    0  501    0  0.00000000000E+00  0.00000000000E+00  0.81787983782E+03  0.81787983783E+03  0.25500000920E-02 0. -1.
       -2   -1    0    0    0  501  0.00000000000E+00  0.00000000000E+00 -0.24780440747E+03  0.24780440748E+03  0.25500000920E-02 0.  1.
    10030    2    1    2    0    0  0.00000000000E+00  0.00000000000E+00  0.57007543035E+03  0.10656842453E+04  0.90038709143E+03 0.  0.
        5    1    3    3  502    0 -0.11624523473E+02  0.41954646416E+03  0.92372205006E+02  0.42977794196E+03  0.46999998093E+01 0.  1.
       -5    1    3    3    0  502  0.11624523473E+02 -0.41954646416E+03  0.47770322535E+03  0.63590630335E+03  0.46999998093E+01 0. -1.
</event>
<event>
 5   0  0.4236284E-04  0.9005276E+03  0.7818609E-02  0.9424922E-01
       -2   -1    0    0    0  501  0.00000000000E+00  0.00000000000E+00  0.41821173981E+03  0.41821173982E+03  0.25500000920E-02 0. -1.
        2   -1    0    0  501    0  0.00000000000E+00  0.00000000000E+00 -0.48477235870E+03  0.48477235871E+03  0.25500000920E-02 0.  1.
    10030    2    1    2    0    0  0.00000000000E+00  0.00000000000E+00 -0.66560618885E+02  0.90298409853E+03  0.90052760436E+03 0.  0.
        2    1    3    3  502    0  0.15582219966E+03  0.74058376515E+02  0.38375357248E+03  0.42075171472E+03  0.25500000920E-02 0. -1.
       -2    1    3    3    0  502 -0.15582219966E+03 -0.74058376515E+02 -0.45031419137E+03  0.48223238381E+03  0.25500000920E-02 0.  1.
</event>
<event>
 5   0  0.2308362E-04  0.8998761E+03  0.7818609E-02  0.9425736E-01
       -1   -1    0    0    0  501  0.00000000000E+00  0.00000000000E+00  0.15254965237E+03  0.15254965246E+03  0.50400001928E-02 0.  1.
        1   -1    0    0  501    0  0.00000000000E+00  0.00000000000E+00 -0.13270711856E+04  0.13270711856E+04  0.50400001928E-02 0. -1.
    10030    2    1    2    0    0  0.00000000000E+00  0.00000000000E+00 -0.11745215333E+04  0.14796208381E+04  0.89987609838E+03 0.  0.
        1    1    3    3  502    0 -0.24048682110E+03  0.37834514124E+03 -0.65020119179E+03  0.78977246524E+03  0.50400001928E-02 0.  1.
       -1    1    3    3    0  502  0.24048682110E+03 -0.37834514124E+03 -0.52432034147E+03  0.68984837285E+03  0.50400001928E-02 0. -1.
</event>
<event>
 5   0  0.2351435E-04  0.8982041E+03  0.7818609E-02  0.9427829E-01
       -1   -1    0    0    0  501  0.00000000000E+00  0.00000000000E+00  0.41977024637E+03  0.41977024640E+03  0.50400001928E-02 0.  1.
        1   -1    0    0  501    0  0.00000000000E+00  0.00000000000E+00 -0.48048344251E+03  0.48048344254E+03  0.50400001928E-02 0. -1.
    10030    2    1    2    0    0  0.00000000000E+00  0.00000000000E+00 -0.60713196148E+02  0.90025368894E+03  0.89820410390E+03 0.  0.
        4    1    3    3  502    0 -0.50802157971E+00 -0.43707828627E+03 -0.13380720638E+03  0.45710356353E+03  0.12699999809E+01 0. -1.
       -4    1    3    3    0  502  0.50802157971E+00  0.43707828627E+03  0.73094010229E+02  0.44315012541E+03  0.12699999809E+01 0.  1.
</event>
<event>
 5   0  0.4236284E-04  0.8999519E+03  0.7818609E-02  0.9425642E-01
       -2   -1    0    0    0  501  0.00000000000E+00  0.00000000000E+00  0.17621844920E+03  0.17621844922E+03  0.25500000920E-02 0.  1.
        2   -1    0    0  501    0  0.00000000000E+00  0.00000000000E+00 -0.11490189319E+04  0.11490189319E+04  0.25500000920E-02 0. -1.
    10030    2    1    2    0    0  0.00000000000E+00  0.00000000000E+00 -0.97280048274E+03  0.13252373812E+04  0.89995185273E+03 0.  0.
        2    1    3    3  502    0 -0.93134786240E+02 -0.15631229189E+03  0.11962897317E+03  0.21775838040E+03  0.25500000920E-02 0.  1.
       -2    1    3    3    0  502  0.93134786240E+02  0.15631229189E+03 -0.10924294559E+04  0.11074790008E+04  0.25500000920E-02 0. -1.
</event>
<event>
 5   0  0.3959804E-04  0.9064816E+03  0.7818609E-02  0.9417515E-01
        2   -1    0    0  501    0  0.00000000000E+00  0.00000000000E+00  0.41888363310E+03  0.41888363311E+03  0.25500000920E-02 0. -1.
       -2   -1    0    0    0  501  0.00000000000E+00  0.00000000000E+00 -0.49041599670E+03  0.49041599671E+03  0.25500000920E-02 0.  1.
    10030    2    1    2    0    0  0.00000000000E+00  0.00000000000E+00 -0.71532363604E+02  0.90929962982E+03  0.90648162571E+03 0.  0.
        5    1    3    3  502    0 -0.18358523210E+03  0.24323180958E+02 -0.45070655350E+03  0.48729215256E+03  0.46999998093E+01 0.  1.
       -5    1    3    3    0  502  0.18358523210E+03 -0.24323180958E+02  0.37917418990E+03  0.42200747726E+03  0.46999998093E+01 0. -1.
</event>
<event>
 5   0  0.2351435E-04  0.9002379E+03  0.7818609E-02  0.9425284E-01
        1   -1    0    0  501    0  0.00000000000E+00  0.00000000000E+00  0.24186670043E+03  0.24186670048E+03  0.50400001928E-02 0.  1.
       -1   -1    0    0    0  501  0.00000000000E+00  0.00000000000E+00 -0.83768080182E+03  0.83768080183E+03  0.50400001928E-02 0. -1.
    10030    2    1    2    0    0  0.00000000000E+00  0.00000000000E+00 -0.59581410138E+03  0.10795475023E+04  0.90023794985E+03 0.  0.
        4    1    3    3  502    0  0.12583009527E+03  0.91340015939E+02  0.20863731164E+03  0.26020636444E+03  0.12699999809E+01 0.  1.
       -4    1    3    3    0  502 -0.12583009527E+03 -0.91340015939E+02 -0.80445141303E+03  0.81934113787E+03  0.12699999809E+01 0. -1.
</event>
<event>
 5   0  0.2332791E-04  0.8998709E+03  0.7818609E-02  0.9425743E-01
       -1   -1    0    0    0  501  0.00000000000E+00  0.00000000000E+00  0.18342980903E+03  0.18342980910E+03  0.50400001928E-02 0. -1.
        1   -1    0    0  501    0  0.00000000000E+00  0.00000000000E+00 -0.11036478844E+04  0.11036478844E+04  0.50400001928E-02 0.  1.
    10030    2    1    2    0    0  0.00000000000E+00  0.00000000000E+00 -0.92021807534E+03  0.12870776935E+04  0.89987092567E+03 0.  0.
        2    1    3    3  502    0  0.43997721606E+03 -0.43747756066E+02 -0.57933139247E+03  0.72877889591E+03  0.25500000920E-02 0.  1.
       -2    1    3    3    0  502 -0.43997721606E+03  0.43747756066E+02 -0.34088668286E+03  0.55829879757E+03  0.25500000920E-02 0. -1.
</event>
<event>
 5   0  0.1596250E-04  0.8993597E+03  0.7818609E-02  0.9426382E-01
       -3   -1    0    0    0  501  0.00000000000E+00  0.00000000000E+00  0.16477909874E+03  0.16477912969E+03  0.10100000352E+00 0.  1.
        3   -1    0    0  501    0  0.00000000000E+00  0.00000000000E+00 -0.12271697275E+04  0.12271697316E+04  0.10100000352E+00 0. -1.
    10030    2    1    2    0    0  0.00000000000E+00  0.00000000000E+00 -0.10623906287E+04  0.13919488613E+04  0.89935965248E+03 0.  0.
        3    1    3    3  502    0 -0.44655373190E+03  0.47387254528E+02 -0.49469595119E+03  0.66811666773E+03  0.10100000352E+00 0.  1.
       -3    1    3    3    0  502  0.44655373190E+03 -0.47387254528E+02 -0.56769467755E+03  0.72383219360E+03  0.10100000352E+00 0. -1.
</event>
<event>
 5   0  0.4033144E-04  0.9010807E+03  0.7818609E-02  0.9424231E-01
       -2   -1    0    0    0  501  0.00000000000E+00  0.00000000000E+00  0.10671749189E+03  0.10671749192E+03  0.25500000920E-02 0.  1.
        2   -1    0    0  501    0  0.00000000000E+00  0.00000000000E+00 -0.19020932943E+04  0.19020932943E+04  0.25500000920E-02 0. -1.
    10030    2    1    2    0    0  0.00000000000E+00  0.00000000000E+00 -0.17953758024E+04  0.20088107862E+04  0.90108074165E+03 0.  0.
        4    1    3    3  502    0 -0.15002558003E+03 -0.28452491505E+03 -0.16009818145E+04  0.16329747350E+04  0.12699999809E+01 0. -1.
       -4    1    3    3    0  502  0.15002558003E+03  0.28452491505E+03 -0.19439398790E+03  0.37583605120E+03  0.12699999809E+01 0.  1.
</event>
<event>
 5   0  0.2356918E-04  0.8961179E+03  0.7818609E-02  0.9430447E-01
       -1   -1    0    0    0  501  0.00000000000E+00  0.00000000000E+00  0.44455366573E+03  0.44455366576E+03  0.50400001928E-02 0.  1.
        1   -1    0    0  501    0  0.00000000000E+00  0.00000000000E+00 -0.45159182632E+03  0.45159182635E+03  0.50400001928E-02 0. -1.
    10030    2    1    2    0    0  0.00000000000E+00  0.00000000000E+00 -0.70381605833E+01  0.89614549211E+03  0.89611785348E+03 0.  0.
        5    1    3    3  502    0 -0.29179351060E+03  0.22514682762E+02  0.33573222359E+03  0.44540832920E+03  0.46999998093E+01 0.  1.
       -5    1    3    3    0  502  0.29179351060E+03 -0.22514682762E+02 -0.34277038417E+03  0.45073716291E+03  0.46999998093E+01 0. -1.
</event>
<event>
 5   0  0.4033144E-04  0.9001276E+03  0.7818609E-02  0.9425422E-01
       -2   -1    0    0    0  501  0.00000000000E+00  0.00000000000E+00  0.63552215801E+03  0.63552215802E+03  0.25500000920E-02 0.  1.
        2   -1    0    0  501    0  0.00000000000E+00  0.00000000000E+00 -0.31872594844E+03  0.31872594845E+03  0.25500000920E-02 0. -1.
    10030    2    1    2    0    0  0.00000000000E+00  0.00000000000E+00  0.31679620957E+03  0.95424810647E+03  0.90012755224E+03 0.  0.
        4    1    3    3  502    0  0.22801253216E+03 -0.18656105202E+03  0.51909173913E+03  0.59686898687E+03  0.12699999809E+01 0.  1.
       -4    1    3    3    0  502 -0.22801253216E+03  0.18656105202E+03 -0.20229552956E+03  0.35737911960E+03  0.12699999809E+01 0. -1.
</event>
<event>
 5   0  0.4033144E-04  0.9001134E+03  0.7818609E-02  0.9425440E-01
        2   -1    0    0  501    0  0.00000000000E+00  0.00000000000E+00  0.47454115783E+03  0.47454115784E+03  0.25500000920E-02 0. -1.
       -2   -1    0    0    0  501  0.00000000000E+00  0.00000000000E+00 -0.42683550342E+03  0.42683550343E+03  0.25500000920E-02 0.  1.
    10030    2    1    2    0    0  0.00000000000E+00  0.00000000000E+00  0.47705654409E+02  0.90137666126E+03  0.90011335731E+03 0.  0.
        4    1    3    3  502    0 -0.14490999430E+03 -0.22525728230E+02  0.44994158405E+03  0.47323921735E+03  0.12699999809E+01 0. -1.
       -4    1    3    3    0  502  0.14490999430E+03  0.22525728230E+02 -0.40223592964E+03  0.42813744391E+03  0.12699999809E+01 0.  1.
</event>
<event>
 5   0  0.3959804E-04  0.9003298E+03  0.7818609E-02  0.9425169E-01
       -2   -1    0    0    0  501  0.00000000000E+00  0.00000000000E+00  0.26099062039E+03  0.26099062040E+03  0.25500000920E-02 0.  1.
        2   -1    0    0  501    0  0.00000000000E+00  0.00000000000E+00 -0.77645870868E+03  0.77645870869E+03  0.25500000920E-02 0. -1.
    10030    2    1    2    0    0  0.00000000000E+00  0.00000000000E+00 -0.51546808830E+03  0.10374493291E+04  0.90032980644E+03 0.  0.
        5    1    3    3  502    0  0.22636659315E+03  0.31627812947E+03 -0.51885801416E+03  0.64846697567E+03  0.46999998093E+01 0. -1.
       -5    1    3    3    0  502 -0.22636659315E+03 -0.31627812947E+03  0.33899258627E+01  0.38898235342E+03  0.46999998093E+01 0.  1.
</event>
<event>
 5   0  0.2332791E-04  0.8992676E+03  0.7818609E-02  0.9426497E-01
        1   -1    0    0  501    0  0.00000000000E+00  0.00000000000E+00  0.24549663099E+04  0.24549663099E+04  0.50400001928E-02 0.  1.
       -1   -1    0    0    0  501  0.00000000000E+00  0.00000000000E+00 -0.82351668673E+02  0.82351668827E+02  0.50400001928E-02 0. -1.
    10030    2    1    2    0    0  0.00000000000E+00  0.00000000000E+00  0.23726146412E+04  0.25373179787E+04  0.89926764059E+03 0.  0.
        2    1    3    3  502    0 -0.24076258670E+03 -0.22531513232E+03  0.32383440135E+03  0.46217123614E+03  0.25500000920E-02 0. -1.
       -2    1    3    3    0  502  0.24076258670E+03  0.22531513232E+03  0.20487802398E+04  0.20751467426E+04  0.25500000920E-02 0.  1.
</event>
<event>
 5   0  0.2351435E-04  0.9001606E+03  0.7818609E-02  0.9425381E-01
        1   -1    0    0  501    0  0.00000000000E+00  0.00000000000E+00  0.12714952599E+04  0.12714952599E+04  0.50400001928E-02 0.  1.
       -1   -1    0    0    0  501  0.00000000000E+00  0.00000000000E+00 -0.15931813912E+03  0.15931813920E+03  0.50400001928E-02 0. -1.
    10030    2    1    2    0    0  0.00000000000E+00  0.00000000000E+00  0.11121771208E+04  0.14308133992E+04  0.90016056074E+03 0.  0.
        4    1    3    3  502    0 -0.13130016861E+03  0.44248200765E+02 -0.12457221235E+03  0.18632629052E+03  0.12699999809E+01 0. -1.
       -4    1    3    3    0  502  0.13130016861E+03 -0.44248200765E+02  0.12367493332E+04  0.12444871086E+04  0.12699999809E+01 0.  1.
</event>
<event>
 5   0  0.2356918E-04  0.8940872E+03  0.7818609E-02  0.9433003E-01
        1   -1    0    0  501    0  0.00000000000E+00  0.00000000000E+00  0.83681245482E+03  0.83681245483E+03  0.50400001928E-02 0. -1.
       -1   -1    0    0    0  501  0.00000000000E+00  0.00000000000E+00 -0.23882053181E+03  0.23882053186E+03  0.50400001928E-02 0.  1.
    10030    2    1    2    0    0  0.00000000000E+00  0.00000000000E+00  0.59799192301E+03  0.10756329867E+04  0.89408723405E+03 0.  0.
        5    1    3    3  502    0 -0.32780125278E+03  0.93038101602E+02  0.64708380572E+03  0.73133391231E+03  0.46999998093E+01 0. -1.
       -5    1    3    3    0  502  0.32780125278E+03 -0.93038101602E+02 -0.49091882710E+02  0.34429907438E+03  0.46999998093E+01 0.  1.
</event>
<event>
 5   0  0.4243516E-04  0.9000143E+03  0.7818609E-02  0.9425564E-01
       -2   -1    0    0    0  501  0.00000000000E+00  0.00000000000E+00  0.28542047752E+03  0.28542047754E+03  0.25500000920E-02 0. -1.
        2   -1    0    0  501    0  0.00000000000E+00  0.00000000000E+00 -0.70950208280E+03  0.70950208280E+03  0.25500000920E-02 0.  1.
    10030    2    1    2    0    0  0.00000000000E+00  0.00000000000E+00 -0.42408160527E+03  0.99492256034E+03  0.90001427385E+03 0.  0.
        1    1    3    3  502    0  0.32425574263E+03  0.13730356313E+02  0.13256266670E+03  0.35057548394E+03  0.50400001928E-02 0. -1.
       -1    1    3    3    0  502 -0.32425574263E+03 -0.13730356313E+02 -0.55664427197E+03  0.64434707639E+03  0.50400001928E-02 0.  1.
</event>
<event>
 5   0  0.3959804E-04  0.9001382E+03  0.7818609E-02  0.9425409E-01
       -2   -1    0    0    0  501  0.00000000000E+00  0.00000000000E+00  0.18959012335E+03  0.18959012337E+03  0.25500000920E-02 0. -1.
        2   -1    0    0  501    0  0.00000000000E+00  0.00000000000E+00 -0.10684217546E+04  0.10684217546E+04  0.25500000920E-02 0.  1.
    10030    2    1    2    0    0  0.00000000000E+00  0.00000000000E+00 -0.87883163128E+03  0.12580118780E+04  0.90013823886E+03 0.  0.
        5    1    3    3  502    0  0.11767913106E+03 -0.47645090526E+02 -0.10428414426E+04  0.10505516632E+04  0.46999998093E+01 0.  1.
       -5    1    3    3    0  502 -0.11767913106E+03  0.47645090526E+02  0.16400981132E+03  0.20746021485E+03  0.46999998093E+01 0. -1.
</event>
<event>
 5   0  0.4033144E-04  0.8996467E+03  0.7818609E-02  0.9426023E-01
        2   -1    0    0  501    0  0.00000000000E+00  0.00000000000E+00  0.77804138599E+03  0.77804138599E+03  0.25500000920E-02 0. -1.
       -2   -1    0    0    0  501  0.00000000000E+00  0.00000000000E+00 -0.26006461702E+03  0.26006461703E+03  0.25500000920E-02 0.  1.
    10030    2    1    2    0    0  0.00000000000E+00  0.00000000000E+00  0.51797676897E+03  0.10381060030E+04  0.89964667527E+03 0.  0.
        4    1    3    3  502    0 -0.12519942535E+03 -0.20674890579E+03 -0.17876490391E+03  0.30063018798E+03  0.12699999809E+01 0.  1.
       -4    1    3    3    0  502  0.12519942535E+03  0.20674890579E+03  0.69674167288E+03  0.73747581505E+03  0.12699999809E+01 0. -1.
</event>
<event>
 5   0  0.2356918E-04  0.8980939E+03  0.7818609E-02  0.9427967E-01
       -1   -1    0    0    0  501  0.00000000000E+00  0.00000000000E+00  0.27534353405E+03  0.27534353409E+03  0.50400001928E-02 0.  1.
        1   -1    0    0  501    0  0.00000000000E+00  0.00000000000E+00 -0.73233302522E+03  0.73233302524E+03  0.50400001928E-02 0. -1.
    10030    2    1    2    0    0  0.00000000000E+00  0.00000000000E+00 -0.45698949117E+03  0.10076765593E+04  0.89809389998E+03 0.  0.
        5    1    3    3  502    0  0.61822602709E+02  0.37329478514E+03  0.42769044279E+02  0.38081795121E+03  0.46999998093E+01 0.  1.
       -5    1    3    3    0  502 -0.61822602709E+02 -0.37329478514E+03 -0.49975853545E+03  0.62685860812E+03  0.46999998093E+01 0. -1.
</event>
<event>
 5   0  0.2308362E-04  0.9017964E+03  0.7818609E-02  0.9423339E-01
        1   -1    0    0  501    0  0.00000000000E+00  0.00000000000E+00  0.14712019855E+04  0.14712019856E+04  0.50400001928E-02 0. -1.
       -1   -1    0    0    0  501  0.00000000000E+00  0.00000000000E+00 -0.13819256905E+03  0.13819256914E+03  0.50400001928E-02 0.  1.
    10030    2    1    2    0    0  0.00000000000E+00  0.00000000000E+00  0.13330094165E+04  0.16093945547E+04  0.90179638955E+03 0.  0.
        1    1    3    3  502    0 -0.18018025416E+03  0.84269364228E+02 -0.55658430543E+02  0.20655292458E+03  0.50400001928E-02 0.  1.
       -1    1    3    3    0  502  0.18018025416E+03 -0.84269364228E+02  0.13886678470E+04  0.14028416301E+04  0.50400001928E-02 0. -1.
</event>
<event>
 5   0  0.2332791E-04  0.9001224E+03  0.7818609E-02  0.9425428E-01
       -1   -1    0    0    0  501  0.00000000000E+00  0.00000000000E+00  0.56645456242E+03  0.56645456244E+03  0.50400001928E-02 0.  1.
        1   -1    0    0  501    0  0.00000000000E+00  0.00000000000E+00 -0.35758400067E+03  0.35758400070E+03  0.50400001928E-02 0. -1.
    10030    2    1    2    0    0  0.00000000000E+00  0.00000000000E+00  0.20887056175E+03  0.92403856315E+03  0.90012241091E+03 0.  0.
        2    1    3    3  502    0  0.10305233455E+03 -0.43181535780E+03  0.28505174156E+02  0.44485596753E+03  0.25500000920E-02 0. -1.
       -2    1    3    3    0  502 -0.10305233455E+03  0.43181535780E+03  0.18036538760E+03  0.47918259561E+03  0.25500000920E-02 0.  1.
</event>
<event>
 5   0  0.2332791E-04  0.8979450E+03  0.7818609E-02  0.9428154E-01
        1   -1    0    0  501    0  0.00000000000E+00  0.00000000000E+00  0.39150346241E+03  0.39150346244E+03  0.50400001928E-02 0.  1.
       -1   -1    0    0    0  501  0.00000000000E+00  0.00000000000E+00 -0.51487748303E+03  0.51487748305E+03  0.50400001928E-02 0. -1.
    10030    2    1    2    0    0  0.00000000000E+00  0.00000000000E+00 -0.12337402062E+03  0.90638094549E+03  0.89794502582E+03 0.  0.
        2    1    3    3  502    0 -0.30983633420E+03 -0.10788580526E+03 -0.37106017164E+03  0.49530147583E+03  0.25500000920E-02 0. -1.
       -2    1    3    3    0  502  0.30983633420E+03  0.10788580526E+03  0.24768615102E+03  0.41107946967E+03  0.25500000920E-02 0.  1.
</event>
<event>
 5   0  0.2450427E-04  0.8993474E+03  0.7818609E-02  0.9426398E-01
       -1   -1    0    0    0  501  0.00000000000E+00  0.00000000000E+00  0.23436442317E+03  0.23436442322E+03  0.50400001928E-02 0.  1.
        1   -1    0    0  501    0  0.00000000000E+00  0.00000000000E+00 -0.86278632133E+03  0.86278632134E+03  0.50400001928E-02 0. -1.
    10030    2    1    2    0    0  0.00000000000E+00  0.00000000000E+00 -0.62842189816E+03  0.10971507446E+04  0.89934736016E+03 0.  0.
        3    1    3    3  502    0 -0.38059794006E+03  0.19652276095E+03 -0.14725088407E+03  0.45294461098E+03  0.10100000352E+00 0.  1.
       -3    1    3    3    0  502  0.38059794006E+03 -0.19652276095E+03 -0.48117101409E+03  0.64420613359E+03  0.10100000352E+00 0. -1.
</event>
<event>
 5   0  0.4243516E-04  0.9003445E+03  0.7818609E-02  0.9425151E-01
        2   -1    0    0  501    0  0.00000000000E+00  0.00000000000E+00  0.39264074956E+03  0.39264074957E+03  0.25500000920E-02 0.  1.
       -2   -1    0    0    0  501  0.00000000000E+00  0.00000000000E+00 -0.51613356755E+03  0.51613356756E+03  0.25500000920E-02 0. -1.
    10030    2    1    2    0    0  0.00000000000E+00  0.00000000000E+00 -0.12349281799E+03  0.90877431713E+03  0.90034453593E+03 0.  0.
        1    1    3    3  502    0  0.14438654652E+03 -0.20106145452E+03  0.31778192093E+03  0.40281327263E+03  0.50400001928E-02 0.  1.
       -1    1    3    3    0  502 -0.14438654652E+03  0.20106145452E+03 -0.44127473893E+03  0.50596104450E+03  0.50400001928E-02 0. -1.
</event>
<event>
 5   0  0.2332791E-04  0.8997164E+03  0.7818609E-02  0.9425936E-01
        1   -1    0    0  501    0  0.00000000000E+00  0.00000000000E+00  0.11666610299E+04  0.11666610299E+04  0.50400001928E-02 0. -1.
       -1   -1    0    0    0  501  0.00000000000E+00  0.00000000000E+00 -0.17346291405E+03  0.17346291412E+03  0.50400001928E-02 0.  1.
    10030    2    1    2    0    0  0.00000000000E+00  0.00000000000E+00  0.99319811584E+03  0.13401239440E+04  0.89971644868E+03 0.  0.
        2    1    3    3  502    0  0.13126038313E+02 -0.33557586003E+03  0.50771837384E+02  0.33964868643E+03  0.25500000920E-02 0.  1.
       -2    1    3    3    0  502 -0.13126038313E+02  0.33557586003E+03  0.94242627845E+03  0.10004752576E+04  0.25500000920E-02 0. -1.
</event>
<event>
 5   0  0.2351435E-04  0.8997909E+03  0.7818609E-02  0.9425843E-01
       -1   -1    0    0    0  501  0.00000000000E+00  0.00000000000E+00  0.48400504225E+03  0.48400504228E+03  0.50400001928E-02 0.  1.
        1   -1    0    0  501    0  0.00000000000E+00  0.00000000000E+00 -0.41818972091E+03  0.41818972094E+03  0.50400001928E-02 0. -1.
    10030    2    1    2    0    0  0.00000000000E+00  0.00000000000E+00  0.65815321338E+02  0.90219476322E+03  0.89979093920E+03 0.  0.
        4    1    3    3  502    0 -0.35053902232E+03  0.27888135887E+03  0.74875210217E+02  0.45415892428E+03  0.12699999809E+01 0. -1.
       -4    1    3    3    0  502  0.35053902232E+03 -0.27888135887E+03 -0.90598888793E+01  0.44803583895E+03  0.12699999809E+01 0.  1.
</event>
<event>
 5   0  0.4033144E-04  0.8985994E+03  0.7818609E-02  0.9427334E-01
        2   -1    0    0  501    0  0.00000000000E+00  0.00000000000E+00  0.50572233015E+03  0.50572233016E+03  0.25500000920E-02 0. -1.
       -2   -1    0    0    0  501  0.00000000000E+00  0.00000000000E+00 -0.39917203500E+03  0.39917203501E+03  0.25500000920E-02 0.  1.
    10030    2    1    2    0    0  0.00000000000E+00  0.00000000000E+00  0.10655029515E+03  0.90489436517E+03  0.89859938054E+03 0.  0.
        4    1    3    3  502    0  0.17935630087E+03 -0.24380799034E+02  0.46738029230E+03  0.50120759827E+03  0.12699999809E+01 0. -1.
       -4    1    3    3    0  502 -0.17935630087E+03  0.24380799034E+02 -0.36082999716E+03  0.40368676690E+03  0.12699999809E+01 0.  1.
</event>
<event>
 5   0  0.2356918E-04  0.8996114E+03  0.7818609E-02  0.9426067E-01
       -1   -1    0    0    0  501  0.00000000000E+00  0.00000000000E+00  0.18706352989E+03  0.18706352995E+03  0.50400001928E-02 0.  1.
        1   -1    0    0  501    0  0.00000000000E+00  0.00000000000E+00 -0.10815852319E+04  0.10815852319E+04  0.50400001928E-02 0. -1.
    10030    2    1    2    0    0  0.00000000000E+00  0.00000000000E+00 -0.89452170204E+03  0.12686487619E+04  0.89961136366E+03 0.  0.
        5    1    3    3  502    0 -0.44962241228E+03  0.64199355440E+01 -0.43305103726E+03  0.62430506972E+03  0.46999998093E+01 0.  1.
       -5    1    3    3    0  502  0.44962241228E+03 -0.64199355440E+01 -0.46147066477E+03  0.64434369217E+03  0.46999998093E+01 0. -1.
</event>
<event>
 5   0  0.2356918E-04  0.9001955E+03  0.7818609E-02  0.9425337E-01
       -1   -1    0    0    0  501  0.00000000000E+00  0.00000000000E+00  0.50572566995E+03  0.50572566997E+03  0.50400001928E-02 0.  1.
        1   -1    0    0  501    0  0.00000000000E+00  0.00000000000E+00 -0.40058873419E+03  0.40058873422E+03  0.50400001928E-02 0. -1.
    10030    2    1    2    0    0  0.00000000000E+00  0.00000000000E+00  0.10513693576E+03  0.90631440419E+03  0.90019554764E+03 0.  0.
        5    1    3    3  502    0 -0.21767355011E+03  0.17825761114E+03 -0.30111464328E+03  0.41212821881E+03  0.46999998093E+01 0. -1.
       -5    1    3    3    0  502  0.21767355011E+03 -0.17825761114E+03  0.40625157904E+03  0.49418618538E+03  0.46999998093E+01 0.  1.
</event>
<event>
 5   0  0.1596250E-04  0.8998617E+03  0.7818609E-02  0.9425754E-01
        3   -1    0    0  501    0  0.00000000000E+00  0.00000000000E+00  0.26049163078E+03  0.26049165036E+03  0.10100000352E+00 0. -1.
       -3   -1    0    0    0  501  0.00000000000E+00  0.00000000000E+00 -0.77713731546E+03  0.77713732203E+03  0.10100000352E+00 0.  1.
    10030    2    1    2    0    0  0.00000000000E+00  0.00000000000E+00 -0.51664568468E+03  0.10376289724E+04  0.89986172318E+03 0.  0.
        5    1    3    3  502    0  0.67838139671E+02  0.40187814849E+03 -0.47804065446E+03  0.62821414879E+03  0.46999998093E+01 0.  1.
       -5    1    3    3    0  502 -0.67838139671E+02 -0.40187814849E+03 -0.38605030225E+02  0.40941482360E+03  0.46999998093E+01 0. -1.
</event>
<event>
 5   0  0.2332791E-04  0.8998271E+03  0.7818609E-02  0.9425798E-01
        1   -1    0    0  501    0  0.00000000000E+00  0.00000000000E+00  0.76721729645E+03  0.76721729647E+03  0.50400001928E-02 0.  1.
       -1   -1    0    0    0  501  0.00000000000E+00  0.00000000000E+00 -0.26383947278E+03  0.26383947283E+03  0.50400001928E-02 0. -1.
    10030    2    1    2    0    0  0.00000000000E+00  0.00000000000E+00  0.50337782367E+03  0.10310567693E+04  0.89982711015E+03 0.  0.
        2    1    3    3  502    0 -0.31467208300E+03  0.40247655545E+02  0.61725244275E+03  0.69400214098E+03  0.25500000920E-02 0.  1.
       -2    1    3    3    0  502  0.31467208300E+03 -0.40247655545E+02 -0.11387461908E+03  0.33705462832E+03  0.25500000920E-02 0. -1.
</event>
<event>
 5   0  0.4243516E-04  0.9001861E+03  0.7818609E-02  0.9425349E-01
        2   -1    0    0  501    0  0.00000000000E+00  0.00000000000E+00  0.99511765306E+03  0.99511765307E+03  0.25500000920E-02 0. -1.
       -2   -1    0    0    0  501  0.00000000000E+00  0.00000000000E+00 -0.20357770902E+03  0.20357770904E+03  0.25500000920E-02 0.  1.
    10030    2    1    2    0    0  0.00000000000E+00  0.00000000000E+00  0.79153994404E+03  0.11986953621E+04  0.90018614081E+03 0.  0.
        1    1    3    3  502    0 -0.24221136181E+03  0.33927887809E+03  0.16976002032E+03  0.45010550478E+03  0.50400001928E-02 0.  1.
       -1    1    3    3    0  502  0.24221136181E+03 -0.33927887809E+03  0.62177992372E+03  0.74858985732E+03  0.50400001928E-02 0. -1.
</event>
<event>
 5   0  0.2332791E-04  0.9002578E+03  0.7818609E-02  0.9425259E-01
       -1   -1    0    0    0  501  0.00000000000E+00  0.00000000000E+00  0.14010427589E+03  0.14010427598E+03  0.50400001928E-02 0.  1.
        1   -1    0    0  501    0  0.00000000000E+00  0.00000000000E+00 -0.14461801429E+04  0.14461801429E+04  0.50400001928E-02 0. -1.
    10030    2    1    2    0    0  0.00000000000E+00  0.00000000000E+00 -0.13060758670E+04  0.15862844189E+04  0.90025778930E+03 0.  0.
        2    1    3    3  502    0  0.17977122135E+03 -0.27144275892E+03 -0.12007361174E+04  0.12440924753E+04  0.25500000920E-02 0. -1.
       -2    1    3    3    0  502 -0.17977122135E+03  0.27144275892E+03 -0.10533974956E+03  0.34219194356E+03  0.25500000920E-02 0.  1.
</event>
<event>
 5   0  0.4243516E-04  0.9000319E+03  0.7818609E-02  0.9425542E-01
       -2   -1    0    0    0  501  0.00000000000E+00  0.00000000000E+00  0.39034830918E+03  0.39034830919E+03  0.25500000920E-02 0. -1.
        2   -1    0    0  501    0  0.00000000000E+00  0.00000000000E+00 -0.51880423679E+03  0.51880423680E+03  0.25500000920E-02 0.  1.
    10030    2    1    2    0    0  0.00000000000E+00  0.00000000000E+00 -0.12845592761E+03  0.90915254598E+03  0.90003190306E+03 0.  0.
        1    1    3    3  502    0 -0.28309488866E+03  0.75447913852E+02  0.28081698587E+03  0.40582420242E+03  0.50400001928E-02 0. -1.
       -1    1    3    3    0  502  0.28309488866E+03 -0.75447913852E+02 -0.40927291348E+03  0.50332834356E+03  0.50400001928E-02 0.  1.
</event>
<event>
 5   0  0.4110039E-04  0.8998375E+03  0.7818609E-02  0.9425785E-01
       -2   -1    0    0    0  501  0.00000000000E+00  0.00000000000E+00  0.39876811796E+03  0.39876811797E+03  0.25500000920E-02 0.  1.
        2   -1    0    0  501    0  0.00000000000E+00  0.00000000000E+00 -0.50763058991E+03  0.50763058991E+03  0.25500000920E-02 0. -1.
    10030    2    1    2    0    0  0.00000000000E+00  0.00000000000E+00 -0.10886247195E+03  0.90639870788E+03  0.89983752970E+03 0.  0.
        3    1    3    3  502    0 -0.38385815800E+02  0.25625205249E+03 -0.42492874662E+03  0.49769773474E+03  0.10100000352E+00 0. -1.
       -3    1    3    3    0  502  0.38385815800E+02 -0.25625205249E+03  0.31606627467E+03  0.40870097314E+03  0.10100000352E+00 0.  1.
</event>
<event>
 5   0  0.4110039E-04  0.8998401E+03  0.7818609E-02  0.9425781E-01
       -2   -1    0    0    0  501  0.00000000000E+00  0.00000000000E+00  0.17725828769E+03  0.17725828771E+03  0.25500000920E-02 0. -1.
        2   -1    0    0  501    0  0.00000000000E+00  0.00000000000E+00 -0.11419949497E+04  0.11419949497E+04  0.25500000920E-02 0.  1.
    10030    2    1    2    0    0  0.00000000000E+00  0.00000000000E+00 -0.96473666197E+03  0.13192532374E+04  0.89984013988E+03 0.  0.
        3    1    3    3  502    0 -0.26405889802E+02 -0.12909622892E+03 -0.11130713293E+04  0.11208438347E+04  0.10100000352E+00 0.  1.
       -3    1    3    3    0  502  0.26405889802E+02  0.12909622892E+03  0.14833466736E+03  0.19840940270E+03  0.10100000352E+00 0. -1.
</event>
<event>
 5   0  0.2308362E-04  0.8999472E+03  0.7818609E-02  0.9425647E-01
       -1   -1    0    0    0  501  0.00000000000E+00  0.00000000000E+00  0.10129194683E+04  0.10129194683E+04  0.50400001928E-02 0.  1.
        1   -1    0    0  501    0  0.00000000000E+00  0.00000000000E+00 -0.19989369997E+03  0.19989370003E+03  0.50400001928E-02 0. -1.
    10030    2    1    2    0    0  0.00000000000E+00  0.00000000000E+00  0.81302576830E+03  0.12128131683E+04  0.89994715474E+03 0.  0.
        1    1    3    3  502    0  0.87082857952E+02 -0.28809957648E+03 -0.44278189747E+02  0.30421266941E+03  0.50400001928E-02 0. -1.
       -1    1    3    3    0  502 -0.87082857952E+02  0.28809957648E+03  0.85730395805E+03  0.90860049892E+03  0.50400001928E-02 0.  1.
</event>
<event>
 5   0  0.2450427E-04  0.8997917E+03  0.7818609E-02  0.9425842E-01
        1   -1    0    0  501    0  0.00000000000E+00  0.00000000000E+00  0.99619193920E+03  0.99619193921E+03  0.50400001928E-02 0.  1.
       -1   -1    0    0    0  501  0.00000000000E+00  0.00000000000E+00 -0.20318001684E+03  0.20318001691E+03  0.50400001928E-02 0. -1.
    10030    2    1    2    0    0  0.00000000000E+00  0.00000000000E+00  0.79301192236E+03  0.11993719561E+04  0.89979174264E+03 0.  0.
        3    1    3    3  502    0 -0.35770667876E+03  0.45982931053E-01  0.76021215500E+03  0.84016462729E+03  0.10100000352E+00 0.  1.
       -3    1    3    3    0  502  0.35770667876E+03 -0.45982931053E-01  0.32799767354E+02  0.35920732882E+03  0.10100000352E+00 0. -1.
</event>
<event>
 5   0  0.4110039E-04  0.8984401E+03  0.7818609E-02  0.9427533E-01
        2   -1    0    0  501    0  0.00000000000E+00  0.00000000000E+00  0.32618220406E+03  0.32618220407E+03  0.25500000920E-02 0.  1.
       -2   -1    0    0    0  501  0.00000000000E+00  0.00000000000E+00 -0.61866856074E+03  0.61866856074E+03  0.25500000920E-02 0. -1.
    10030    2    1    2    0    0  0.00000000000E+00  0.00000000000E+00 -0.29248635668E+03  0.94485076481E+03  0.89844014765E+03 0.  0.
        3    1    3    3  502    0  0.42730547342E+03 -0.76955467534E+02 -0.25021517666E+02  0.43490021631E+03  0.10100000352E+00 0.  1.
       -3    1    3    3    0  502 -0.42730547342E+03  0.76955467534E+02 -0.26746483902E+03  0.50995054850E+03  0.10100000352E+00 0. -1.
</event>
<event>
 5   0  0.2356918E-04  0.9002356E+03  0.7818609E-02  0.9425287E-01
        1   -1    0    0  501    0  0.00000000000E+00  0.00000000000E+00  0.12295739120E+04  0.12295739120E+04  0.50400001928E-02 0.  1.
       -1   -1    0    0    0  501  0.00000000000E+00  0.00000000000E+00 -0.16477742617E+03  0.16477742624E+03  0.50400001928E-02 0. -1.
    10030    2    1    2    0    0  0.00000000000E+00  0.00000000000E+00  0.10647964859E+04  0.13943513383E+04  0.90023557931E+03 0.  0.
        5    1    3    3  502    0  0.20144442733E+03  0.36155032909E+03  0.25843824384E+03  0.48796609887E+03  0.46999998093E+01 0.  1.
       -5    1    3    3    0  502 -0.20144442733E+03 -0.36155032909E+03  0.80635824201E+03  0.90638523941E+03  0.46999998093E+01 0. -1.
</event>
<event>
 5   0  0.4236284E-04  0.8998668E+03  0.7818609E-02  0.9425748E-01
       -2   -1    0    0    0  501  0.00000000000E+00  0.00000000000E+00  0.18731848906E+03  0.18731848908E+03  0.25500000920E-02 0. -1.
        2   -1    0    0  501    0  0.00000000000E+00  0.00000000000E+00 -0.10807265813E+04  0.10807265813E+04  0.25500000920E-02 0.  1.
    10030    2    1    2    0    0  0.00000000000E+00  0.00000000000E+00 -0.89340809223E+03  0.12680450704E+04  0.89986681305E+03 0.  0.
        2    1    3    3  502    0 -0.36977081754E+03 -0.62249634886E+02 -0.96297494552E+02  0.38714168209E+03  0.25500000920E-02 0. -1.
       -2    1    3    3    0  502  0.36977081754E+03  0.62249634886E+02 -0.79711059768E+03  0.88090338828E+03  0.25500000920E-02 0.  1.
</event>
<event>
 5   0  0.2308362E-04  0.8999894E+03  0.7818609E-02  0.9425595E-01
        1   -1    0    0  501    0  0.00000000000E+00  0.00000000000E+00  0.34689678471E+03  0.34689678475E+03  0.50400001928E-02 0.  1.
       -1   -1    0    0    0  501  0.00000000000E+00  0.00000000000E+00 -0.58373337764E+03  0.58373337766E+03  0.50400001928E-02 0. -1.
    10030    2    1    2    0    0  0.00000000000E+00  0.00000000000E+00 -0.23683659293E+03  0.93063016241E+03  0.89998940407E+03 0.  0.
        1    1    3    3  502    0  0.44117408327E+03  0.36362665524E+02 -0.20203172336E+03  0.48659390919E+03  0.50400001928E-02 0. -1.
       -1    1    3    3    0  502 -0.44117408327E+03 -0.36362665524E+02 -0.34804869570E+02  0.44403625321E+03  0.50400001928E-02 0.  1.
</event>
<event>
 5   0  0.2308362E-04  0.9014533E+03  0.7818609E-02  0.9423767E-01
        1   -1    0    0  501    0  0.00000000000E+00  0.00000000000E+00  0.24609112357E+03  0.24609112362E+03  0.50400001928E-02 0.  1.
       -1   -1    0    0    0  501  0.00000000000E+00  0.00000000000E+00 -0.82552549984E+03  0.82552549985E+03  0.50400001928E-02 0. -1.
    10030    2    1    2    0    0  0.00000000000E+00  0.00000000000E+00 -0.57943437627E+03  0.10716166235E+04  0.90145326629E+03 0.  0.
        1    1    3    3  502    0 -0.33179474915E+03 -0.72607359090E+02 -0.64195088693E+03  0.72626477638E+03  0.50400001928E-02 0. -1.
       -1    1    3    3    0  502  0.33179474915E+03  0.72607359090E+02  0.62516510662E+02  0.34535184709E+03  0.50400001928E-02 0.  1.
</event>
<event>
 5   0  0.2332791E-04  0.8998892E+03  0.7818609E-02  0.9425720E-01
        1   -1    0    0  501    0  0.00000000000E+00  0.00000000000E+00  0.27437529365E+03  0.27437529369E+03  0.50400001928E-02 0.  1.
       -1   -1    0    0    0  501  0.00000000000E+00  0.00000000000E+00 -0.73785850641E+03  0.73785850643E+03  0.50400001928E-02 0. -1.
    10030    2    1    2    0    0  0.00000000000E+00  0.00000000000E+00 -0.46348321277E+03  0.10122338001E+04  0.89988920295E+03 0.  0.
        2    1    3    3  502    0 -0.26909403412E+03 -0.35795508583E+03 -0.18262445480E+03  0.48362706104E+03  0.25500000920E-02 0.  1.
       -2    1    3    3    0  502  0.26909403412E+03  0.35795508583E+03 -0.28085875796E+03  0.52860673908E+03  0.25500000920E-02 0. -1.
</event>
<event>
 5   0  0.4033144E-04  0.9000933E+03  0.7818609E-02  0.9425465E-01
        2   -1    0    0  501    0  0.00000000000E+00  0.00000000000E+00  0.50760565454E+03  0.50760565454E+03  0.25500000920E-02 0.  1.
       -2   -1    0    0    0  501  0.00000000000E+00  0.00000000000E+00 -0.39901442674E+03  0.39901442675E+03  0.25500000920E-02 0. -1.
    10030    2    1    2    0    0  0.00000000000E+00  0.00000000000E+00  0.10859122780E+03  0.90662008129E+03  0.90009328241E+03 0.  0.
        4    1    3    3  502    0  0.18575242042E+03 -0.30957208793E+03 -0.21635623938E+03  0.42089247384E+03  0.12699999809E+01 0. -1.
       -4    1    3    3    0  502 -0.18575242042E+03  0.30957208793E+03  0.32494746718E+03  0.48572760745E+03  0.12699999809E+01 0.  1.
</event>
<event>
 5   0  0.2450427E-04  0.8991516E+03  0.7818609E-02  0.9426643E-01
       -1   -1    0    0    0  501  0.00000000000E+00  0.00000000000E+00  0.62804288108E+03  0.62804288110E+03  0.50400001928E-02 0. -1.
        1   -1    0    0  501    0  0.00000000000E+00  0.00000000000E+00 -0.32182260362E+03  0.32182260366E+03  0.50400001928E-02 0.  1.
    10030    2    1    2    0    0  0.00000000000E+00  0.00000000000E+00  0.30622027746E+03  0.94986548475E+03  0.89915158944E+03 0.  0.
        3    1    3    3  502    0 -0.19615685823E+03  0.32541423675E+03 -0.10074842753E+03  0.39309311156E+03  0.10100000352E+00 0.  1.
       -3    1    3    3    0  502  0.19615685823E+03 -0.32541423675E+03  0.40696870499E+03  0.55677237319E+03  0.10100000352E+00 0. -1.
</event>
<event>
 5   0  0.2356918E-04  0.9003099E+03  0.7818609E-02  0.9425194E-01
       -1   -1    0    0    0  501  0.00000000000E+00  0.00000000000E+00  0.30901818359E+03  0.30901818363E+03  0.50400001928E-02 0.  1.
        1   -1    0    0  501    0  0.00000000000E+00  0.00000000000E+00 -0.65575256030E+03  0.65575256032E+03  0.50400001928E-02 0. -1.
    10030    2    1    2    0    0  0.00000000000E+00  0.00000000000E+00 -0.34673437671E+03  0.96477074395E+03  0.90030986910E+03 0.  0.
        5    1    3    3  502    0  0.28590764705E+03  0.12169958872E+03 -0.52235872264E+03  0.60781139974E+03  0.46999998093E+01 0. -1.
       -5    1    3    3    0  502 -0.28590764705E+03 -0.12169958872E+03  0.17562434594E+03  0.35695934421E+03  0.46999998093E+01 0.  1.
</event>
<event>
 5   0  0.2332791E-04  0.8996321E+03  0.7818609E-02  0.9426041E-01
        1   -1    0    0  501    0  0.00000000000E+00  0.00000000000E+00  0.53862456515E+03  0.53862456517E+03  0.50400001928E-02 0.  1.
       -1   -1    0    0    0  501  0.00000000000E+00  0.00000000000E+00 -0.37565025800E+03  0.37565025803E+03  0.50400001928E-02 0. -1.
    10030    2    1    2    0    0  0.00000000000E+00  0.00000000000E+00  0.16297430715E+03  0.91427482320E+03  0.89963205120E+03 0.  0.
        2    1    3    3  502    0 -0.60287198024E+02 -0.16046803694E+03  0.50412854098E+03  0.53247546701E+03  0.25500000920E-02 0.  1.
       -2    1    3    3    0  502  0.60287198024E+02  0.16046803694E+03 -0.34115423383E+03  0.38179935620E+03  0.25500000920E-02 0. -1.
</event>
<event>
 5   0  0.4236284E-04  0.8998056E+03  0.7818609E-02  0.9425825E-01
        2   -1    0    0  501    0  0.00000000000E+00  0.00000000000E+00  0.48193425255E+03  0.48193425256E+03  0.25500000920E-02 0.  1.
       -2   -1    0    0    0  501  0.00000000000E+00  0.00000000000E+00 -0.42000026263E+03  0.42000026264E+03  0.25500000920E-02 0. -1.
    10030    2    1    2    0    0  0.00000000000E+00  0.00000000000E+00  0.61933989920E+02  0.90193451520E+03  0.89980556266E+03 0.  0.
        2    1    3    3  502    0 -0.13392764181E+03  0.42421591504E+03  0.98332828504E+02  0.45559313097E+03  0.25500000920E-02 0.  1.
       -2    1    3    3    0  502  0.13392764181E+03 -0.42421591504E+03 -0.36398838585E+02  0.44634138423E+03  0.25500000920E-02 0. -1.
</event>
<event>
 5   0  0.1596250E-04  0.8997866E+03  0.7818609E-02  0.9425848E-01
        3   -1    0    0  501    0  0.00000000000E+00  0.00000000000E+00  0.39251838470E+03  0.39251839770E+03  0.10100000352E+00 0. -1.
       -3   -1    0    0    0  501  0.00000000000E+00  0.00000000000E+00 -0.51565478935E+03  0.51565479924E+03  0.10100000352E+00 0.  1.
    10030    2    1    2    0    0  0.00000000000E+00  0.00000000000E+00 -0.12313640464E+03  0.90817319694E+03  0.89978663109E+03 0.  0.
        4    1    3    3  502    0  0.16923739054E+03  0.27949033569E+03 -0.37371802744E+03  0.49641003116E+03  0.12699999809E+01 0.  1.
       -4    1    3    3    0  502 -0.16923739054E+03 -0.27949033569E+03  0.25058162280E+03  0.41176316577E+03  0.12699999809E+01 0. -1.
</event>
<event>
 5   0  0.4033144E-04  0.8998931E+03  0.7818609E-02  0.9425715E-01
        2   -1    0    0  501    0  0.00000000000E+00  0.00000000000E+00  0.50782849971E+03  0.50782849971E+03  0.25500000920E-02 0. -1.
       -2   -1    0    0    0  501  0.00000000000E+00  0.00000000000E+00 -0.39866198578E+03  0.39866198579E+03  0.25500000920E-02 0.  1.
    10030    2    1    2    0    0  0.00000000000E+00  0.00000000000E+00  0.10916651393E+03  0.90649048550E+03  0.89989314507E+03 0.  0.
        4    1    3    3  502    0 -0.29346493062E+03 -0.17369218301E+02 -0.28854125536E+03  0.41192356596E+03  0.12699999809E+01 0.  1.
       -4    1    3    3    0  502  0.29346493062E+03  0.17369218301E+02  0.39770776929E+03  0.49456691954E+03  0.12699999809E+01 0. -1.
</event>
<event>
 5   0  0.4033144E-04  0.9003866E+03  0.7818609E-02  0.9425098E-01
        2   -1    0    0  501    0  0.00000000000E+00  0.00000000000E+00  0.67526477083E+03  0.67526477083E+03  0.25500000920E-02 0.  1.
       -2   -1    0    0    0  501  0.00000000000E+00  0.00000000000E+00 -0.30014005047E+03  0.30014005048E+03  0.25500000920E-02 0. -1.
    10030    2    1    2    0    0  0.00000000000E+00  0.00000000000E+00  0.37512472036E+03  0.97540482131E+03  0.90038658898E+03 0.  0.
        4    1    3    3  502    0 -0.29746329001E+03  0.21956562535E+03 -0.90702566974E+02  0.38068627673E+03  0.12699999809E+01 0. -1.
       -4    1    3    3    0  502  0.29746329001E+03 -0.21956562535E+03  0.46582728733E+03  0.59471854458E+03  0.12699999809E+01 0.  1.
</event>
<event>
 5   0  0.2351435E-04  0.8995612E+03  0.7818609E-02  0.9426130E-01
        1   -1    0    0  501    0  0.00000000000E+00  0.00000000000E+00  0.30757546842E+03  0.30757546846E+03  0.50400001928E-02 0.  1.
       -1   -1    0    0    0  501  0.00000000000E+00  0.00000000000E+00 -0.65773316466E+03  0.65773316468E+03  0.50400001928E-02 0. -1.
    10030    2    1    2    0    0  0.00000000000E+00  0.00000000000E+00 -0.35015769624E+03  0.96530863314E+03  0.89956119579E+03 0.  0.
        4    1    3    3  502    0  0.39552644403E+03 -0.20906600330E+03 -0.22484992651E+03  0.50070836224E+03  0.12699999809E+01 0. -1.
       -4    1    3    3    0  502 -0.39552644403E+03  0.20906600330E+03 -0.12530776973E+03  0.46460027090E+03  0.12699999809E+01 0.  1.
</event>
<event>
 5   0  0.4236284E-04  0.9001051E+03  0.7818609E-02  0.9425450E-01
        2   -1    0    0  501    0  0.00000000000E+00  0.00000000000E+00  0.34175546216E+03  0.34175546217E+03  0.25500000920E-02 0.  1.
       -2   -1    0    0    0  501  0.00000000000E+00  0.00000000000E+00 -0.59266732495E+03  0.59266732496E+03  0.25500000920E-02 0. -1.
    10030    2    1    2    0    0  0.00000000000E+00  0.00000000000E+00 -0.25091186279E+03  0.93442278713E+03  0.90010509509E+03 0.  0.
        2    1    3    3  502    0  0.28163051256E+03  0.26615121575E+03  0.11217088842E+03  0.40340367309E+03  0.25500000920E-02 0.  1.
       -2    1    3    3    0  502 -0.28163051256E+03 -0.26615121575E+03 -0.36308275121E+03  0.53101911404E+03  0.25500000920E-02 0. -1.
</event>
<event>
 5   0  0.1596250E-04  0.9000462E+03  0.7818609E-02  0.9425524E-01
       -3   -1    0    0    0  501  0.00000000000E+00  0.00000000000E+00  0.19389352358E+03  0.19389354989E+03  0.10100000352E+00 0. -1.
        3   -1    0    0  501    0  0.00000000000E+00  0.00000000000E+00 -0.10444947788E+04  0.10444947836E+04  0.10100000352E+00 0.  1.
    10030    2    1    2    0    0  0.00000000000E+00  0.00000000000E+00 -0.85060125518E+03  0.12383883335E+04  0.90004620398E+03 0.  0.
        3    1    3    3  502    0  0.70697939672E+02  0.76033880351E+02  0.17718963360E+03  0.20536680864E+03  0.10100000352E+00 0. -1.
       -3    1    3    3    0  502 -0.70697939672E+02 -0.76033880351E+02 -0.10277908888E+04  0.10330215249E+04  0.10100000352E+00 0.  1.
</event>
<event>
 5   0  0.4033144E-04  0.9003606E+03  0.7818609E-02  0.9425131E-01
       -2   -1    0    0    0  501  0.00000000000E+00  0.00000000000E+00  0.19149232629E+03  0.19149232630E+03  0.25500000920E-02 0.  1.
        2   -1    0    0  501    0  0.00000000000E+00  0.00000000000E+00 -0.10583312270E+04  0.10583312270E+04  0.25500000920E-02 0. -1.
    10030    2    1    2    0    0  0.00000000000E+00  0.00000000000E+00 -0.86683890070E+03  0.12498235533E+04  0.90036061364E+03 0.  0.
        4    1    3    3  502    0 -0.14045147924E+03 -0.42383725765E+03 -0.51311417179E+03  0.68018556673E+03  0.12699999809E+01 0. -1.
       -4    1    3    3    0  502  0.14045147924E+03  0.42383725765E+03 -0.35372472891E+03  0.56963798657E+03  0.12699999809E+01 0.  1.
</event>
<event>
 5   0  0.3959804E-04  0.9000423E+03  0.7818609E-02  0.9425529E-01
       -2   -1    0    0    0  501  0.00000000000E+00  0.00000000000E+00  0.25765705172E+03  0.25765705173E+03  0.25500000920E-02 0.  1.
        2   -1    0    0  501    0  0.00000000000E+00  0.00000000000E+00 -0.78600227598E+03  0.78600227598E+03  0.25500000920E-02 0. -1.
    10030    2    1    2    0    0  0.00000000000E+00  0.00000000000E+00 -0.52834522426E+03  0.10436593277E+04  0.90004228585E+03 0.  0.
        5    1    3    3  502    0  0.44143704484E+03  0.73326088240E+02 -0.20912603220E+03  0.49396271834E+03  0.46999998093E+01 0. -1.
       -5    1    3    3    0  502 -0.44143704484E+03 -0.73326088240E+02 -0.31921919206E+03  0.54969660937E+03  0.46999998093E+01 0.  1.
</event>
<event>
 5   0  0.1596250E-04  0.9004501E+03  0.7818609E-02  0.9425019E-01
       -4   -1    0    0    0  501  0.00000000000E+00  0.00000000000E+00  0.16033396999E+03  0.16033899972E+03  0.12699999809E+01 0.  1.
        4   -1    0    0  501    0  0.00000000000E+00  0.00000000000E+00 -0.12642272864E+04  0.12642279243E+04  0.12699999809E+01 0. -1.
    10030    2    1    2    0    0  0.00000000000E+00  0.00000000000E+00 -0.11038933164E+04  0.14245669240E+04  0.90045014687E+03 0.  0.
        1    1    3    3  502    0 -0.20529457133E+03 -0.13643844082E+02  0.81610149682E+02  0.22134188952E+03  0.50400001928E-02 0.  1.
       -1    1    3    3    0  502  0.20529457133E+03  0.13643844082E+02 -0.11855034661E+04  0.12032250345E+04  0.50400001928E-02 0. -1.
</event>
<event>
 5   0  0.3959804E-04  0.9001821E+03  0.7818609E-02  0.9425354E-01
        2   -1    0    0  501    0  0.00000000000E+00  0.00000000000E+00  0.11279283084E+04  0.11279283084E+04  0.25500000920E-02 0. -1.
       -2   -1    0    0    0  501  0.00000000000E+00  0.00000000000E+00 -0.17960535924E+03  0.17960535925E+03  0.25500000920E-02 0.  1.
    10030    2    1    2    0    0  0.00000000000E+00  0.00000000000E+00  0.94832294918E+03  0.13075336677E+04  0.90018213499E+03 0.  0.
        5    1    3    3  502    0  0.26036761716E+03  0.35765052244E+03  0.59442011728E+03  0.74098755596E+03  0.46999998093E+01 0. -1.
       -5    1    3    3    0  502 -0.26036761716E+03 -0.35765052244E+03  0.35390283190E+03  0.56654611171E+03  0.46999998093E+01 0.  1.
</event>
<event>
 5   0  0.2356918E-04  0.8997912E+03  0.7818609E-02  0.9425842E-01
        1   -1    0    0  501    0  0.00000000000E+00  0.00000000000E+00  0.22250285161E+03  0.22250285167E+03  0.50400001928E-02 0.  1.
       -1   -1    0    0    0  501  0.00000000000E+00  0.00000000000E+00 -0.90967843347E+03  0.90967843348E+03  0.50400001928E-02 0. -1.
    10030    2    1    2    0    0  0.00000000000E+00  0.00000000000E+00 -0.68717558186E+03  0.11321812851E+04  0.89979118808E+03 0.  0.
        5    1    3    3  502    0 -0.33862529778E+03  0.29604367417E+03 -0.33269039133E+03  0.55947648369E+03  0.46999998093E+01 0.  1.
       -5    1    3    3    0  502  0.33862529778E+03 -0.29604367417E+03 -0.35448519053E+03  0.57270480146E+03  0.46999998093E+01 0. -1.
</event>
<event>
 5   0  0.2332791E-04  0.8999817E+03  0.7818609E-02  0.9425604E-01
       -1   -1    0    0    0  501  0.00000000000E+00  0.00000000000E+00  0.47407057520E+03  0.47407057523E+03  0.50400001928E-02 0.  1.
        1   -1    0    0  501    0  0.00000000000E+00  0.00000000000E+00 -0.42713425041E+03  0.42713425044E+03  0.50400001928E-02 0. -1.
    10030    2    1    2    0    0  0.00000000000E+00  0.00000000000E+00  0.46936324797E+02  0.90120482566E+03  0.89998173271E+03 0.  0.
        2    1    3    3  502    0 -0.47978628463E+02 -0.20132253829E+03 -0.37664847199E+03  0.42976363815E+03  0.25500000920E-02 0. -1.
       -2    1    3    3    0  502  0.47978628463E+02  0.20132253829E+03  0.42358479679E+03  0.47144118752E+03  0.25500000920E-02 0.  1.
</event>
<event>
 5   0  0.4243516E-04  0.8995487E+03  0.7818609E-02  0.9426146E-01
        2   -1    0    0  501    0  0.00000000000E+00  0.00000000000E+00  0.67929496296E+03  0.67929496296E+03  0.25500000920E-02 0. -1.
       -2   -1    0    0    0  501  0.00000000000E+00  0.00000000000E+00 -0.29780430108E+03  0.29780430109E+03  0.25500000920E-02 0.  1.
    10030    2    1    2    0    0  0.00000000000E+00  0.00000000000E+00  0.38149066188E+03  0.97709926405E+03  0.89954869057E+03 0.  0.
        1    1    3    3  502    0 -0.27117829625E+03  0.35137449530E+03  0.11170339911E+03  0.45768914528E+03  0.50400001928E-02 0.  1.
       -1    1    3    3    0  502  0.27117829625E+03 -0.35137449530E+03  0.26978726277E+03  0.51941011877E+03  0.50400001928E-02 0. -1.
</event>
<event>
 5   0  0.2351435E-04  0.8998578E+03  0.7818609E-02  0.9425759E-01
        1   -1    0    0  501    0  0.00000000000E+00  0.00000000000E+00  0.90117985590E+03  0.90117985591E+03  0.50400001928E-02 0. -1.
       -1   -1    0    0    0  501  0.00000000000E+00  0.00000000000E+00 -0.22463442871E+03  0.22463442877E+03  0.50400001928E-02 0.  1.
    10030    2    1    2    0    0  0.00000000000E+00  0.00000000000E+00  0.67654542719E+03  0.11258142847E+04  0.89985781574E+03 0.  0.
        4    1    3    3  502    0 -0.13568543420E+03 -0.36057378503E+03  0.47514742384E+02  0.38817941103E+03  0.12699999809E+01 0.  1.
       -4    1    3    3    0  502  0.13568543420E+03  0.36057378503E+03  0.62903068480E+03  0.73763487365E+03  0.12699999809E+01 0. -1.
</event>
<event>
 5   0  0.4110039E-04  0.9003871E+03  0.7818609E-02  0.9425098E-01
        2   -1    0    0  501    0  0.00000000000E+00  0.00000000000E+00  0.76834385789E+03  0.76834385790E+03  0.25500000920E-02 0. -1.
       -2   -1    0    0    0  501  0.00000000000E+00  0.00000000000E+00 -0.26378063307E+03  0.26378063308E+03  0.25500000920E-02 0.  1.
    10030    2    1    2    0    0  0.00000000000E+00  0.00000000000E+00  0.50456322482E+03  0.10321244910E+04  0.90038709289E+03 0.  0.
        3    1    3    3  502    0  0.29215286518E+03 -0.31948252273E+03  0.39384923681E+03  0.58526883609E+03  0.10100000352E+00 0. -1.
       -3    1    3    3    0  502 -0.29215286518E+03  0.31948252273E+03  0.11071398802E+03  0.44685565489E+03  0.10100000352E+00 0.  1.
</event>
<event>
 5   0  0.2450427E-04  0.8999191E+03  0.7818609E-02  0.9425683E-01
        1   -1    0    0  501    0  0.00000000000E+00  0.00000000000E+00  0.25289871459E+03  0.25289871464E+03  0.50400001928E-02 0.  1.
       -1   -1    0    0    0  501  0.00000000000E+00  0.00000000000E+00 -0.80057178427E+03  0.80057178429E+03  0.50400001928E-02 0. -1.
    10030    2    1    2    0    0  0.00000000000E+00  0.00000000000E+00 -0.54767306969E+03  0.10534704989E+04  0.89991905239E+03 0.  0.
        3    1    3    3  502    0 -0.43333832557E+03  0.11959919457E+03 -0.25109218453E+03  0.51491102832E+03  0.10100000352E+00 0.  1.
       -3    1    3    3    0  502  0.43333832557E+03 -0.11959919457E+03 -0.29658088515E+03  0.53855947061E+03  0.10100000352E+00 0. -1.
</event>
<event>
 5   0  0.2450427E-04  0.9001465E+03  0.7818609E-02  0.9425398E-01
        1   -1    0    0  501    0  0.00000000000E+00  0.00000000000E+00  0.12156260752E+04  0.12156260753E+04  0.50400001928E-02 0.  1.
       -1   -1    0    0    0  501  0.00000000000E+00  0.00000000000E+00 -0.16663507792E+03  0.16663507799E+03  0.50400001928E-02 0. -1.
    10030    2    1    2    0    0  0.00000000000E+00  0.00000000000E+00  0.10489909973E+04  0.13822611532E+04  0.90014653435E+03 0.  0.
        3    1    3    3  502    0 -0.22627845278E+03 -0.21868386550E+03  0.30373907906E+02  0.31614420080E+03  0.10100000352E+00 0. -1.
       -3    1    3    3    0  502  0.22627845278E+03  0.21868386550E+03  0.10186170894E+04  0.10661169524E+04  0.10100000352E+00 0.  1.
</event>
<event>
 5   0  0.2356918E-04  0.8998590E+03  0.7818609E-02  0.9425758E-01
        1   -1    0    0  501    0  0.00000000000E+00  0.00000000000E+00  0.24772729656E+04  0.24772729656E+04  0.50400001928E-02 0. -1.
       -1   -1    0    0    0  501  0.00000000000E+00  0.00000000000E+00 -0.81717498030E+02  0.81717498185E+02  0.50400001928E-02 0.  1.
    10030    2    1    2    0    0  0.00000000000E+00  0.00000000000E+00  0.23955554676E+04  0.25589904638E+04  0.89985898649E+03 0.  0.
        5    1    3    3  502    0  0.31765184955E+03 -0.25807518374E+03  0.17291056937E+04  0.17768888789E+04  0.46999998093E+01 0. -1.
       -5    1    3    3    0  502 -0.31765184955E+03  0.25807518374E+03  0.66644977383E+03  0.78210158485E+03  0.46999998093E+01 0.  1.
</event>
<event>
 5   0  0.4236284E-04  0.9000206E+03  0.7818609E-02  0.9425556E-01
        2   -1    0    0  501    0  0.00000000000E+00  0.00000000000E+00  0.49331440364E+03  0.49331440364E+03  0.25500000920E-02 0. -1.
       -2   -1    0    0    0  501  0.00000000000E+00  0.00000000000E+00 -0.41050751011E+03  0.41050751012E+03  0.25500000920E-02 0.  1.
    10030    2    1    2    0    0  0.00000000000E+00  0.00000000000E+00  0.82806893524E+02  0.90382191377E+03  0.90002059431E+03 0.  0.
        2    1    3    3  502    0 -0.27831027235E+03 -0.13491200649E+03  0.36966539992E+03  0.48198585570E+03  0.25500000920E-02 0. -1.
       -2    1    3    3    0  502  0.27831027235E+03  0.13491200649E+03 -0.28685850639E+03  0.42183605807E+03  0.25500000920E-02 0.  1.
</event>
<event>
 5   0  0.3959804E-04  0.8994823E+03  0.7818609E-02  0.9426229E-01
        2   -1    0    0  501    0  0.00000000000E+00  0.00000000000E+00  0.21697793278E+03  0.21697793279E+03  0.25500000920E-02 0.  1.
       -2   -1    0    0    0  501  0.00000000000E+00  0.00000000000E+00 -0.93220118015E+03  0.93220118015E+03  0.25500000920E-02 0. -1.
    10030    2    1    2    0    0  0.00000000000E+00  0.00000000000E+00 -0.71522324737E+03  0.11491791129E+04  0.89948226221E+03 0.  0.
        5    1    3    3  502    0 -0.29416910608E+03 -0.34013105225E+03 -0.36338198660E+03  0.57818090064E+03  0.46999998093E+01 0. -1.
       -5    1    3    3    0  502  0.29416910608E+03  0.34013105225E+03 -0.35184126077E+03  0.57099821231E+03  0.46999998093E+01 0.  1.
</event>
<event>
 5   0  0.2351435E-04  0.8999918E+03  0.7818609E-02  0.9425592E-01
        1   -1    0    0  501    0  0.00000000000E+00  0.00000000000E+00  0.36756688026E+03  0.36756688029E+03  0.50400001928E-02 0.  1.
       -1   -1    0    0    0  501  0.00000000000E+00  0.00000000000E+00 -0.55091011011E+03  0.55091011013E+03  0.50400001928E-02 0. -1.
    10030    2    1    2    0    0  0.00000000000E+00  0.00000000000E+00 -0.18334322985E+03  0.91847699043E+03  0.89999180108E+03 0.  0.
        4    1    3    3  502    0 -0.30952728289E+03  0.30473979483E+03 -0.21164995748E+03  0.48318816087E+03  0.12699999809E+01 0. -1.
       -4    1    3    3    0  502  0.30952728289E+03 -0.30473979483E+03  0.28306727633E+02  0.43528882955E+03  0.12699999809E+01 0.  1.
</event>
<event>
 5   0  0.4033144E-04  0.8998107E+03  0.7818609E-02  0.9425818E-01
       -2   -1    0    0    0  501  0.00000000000E+00  0.00000000000E+00  0.13646569651E+04  0.13646569651E+04  0.25500000920E-02 0. -1.
        2   -1    0    0  501    0  0.00000000000E+00  0.00000000000E+00 -0.14832651821E+03  0.14832651823E+03  0.25500000920E-02 0.  1.
    10030    2    1    2    0    0  0.00000000000E+00  0.00000000000E+00  0.12163304469E+04  0.15129834833E+04  0.89981068276E+03 0.  0.
        4    1    3    3  502    0 -0.33954093573E+02  0.10071807785E+03 -0.12690999803E+03  0.16554386783E+03  0.12699999809E+01 0.  1.
       -4    1    3    3    0  502  0.33954093573E+02 -0.10071807785E+03  0.13432404449E+04  0.13474396155E+04  0.12699999809E+01 0. -1.
</event>
<event>
 5   0  0.2356918E-04  0.8995459E+03  0.7818609E-02  0.9426149E-01
       -1   -1    0    0    0  501  0.00000000000E+00  0.00000000000E+00  0.23218763041E+03  0.23218763046E+03  0.50400001928E-02 0. -1.
        1   -1    0    0  501    0  0.00000000000E+00  0.00000000000E+00 -0.87125960909E+03  0.87125960910E+03  0.50400001928E-02 0.  1.
    10030    2    1    2    0    0  0.00000000000E+00  0.00000000000E+00 -0.63907197868E+03  0.11034472396E+04  0.89954589464E+03 0.  0.
        5    1    3    3  502    0  0.12532102064E+03 -0.34609356497E+03 -0.63654809074E+03  0.73532419772E+03  0.46999998093E+01 0.  1.
       -5    1    3    3    0  502 -0.12532102064E+03  0.34609356497E+03 -0.25238879394E+01  0.36812304184E+03  0.46999998093E+01 0. -1.
</event>
<event>
 5   0  0.4236284E-04  0.9004812E+03  0.7818609E-02  0.9424980E-01
        2   -1    0    0  501    0  0.00000000000E+00  0.00000000000E+00  0.98461691883E+03  0.98461691883E+03  0.25500000920E-02 0. -1.
       -2   -1    0    0    0  501  0.00000000000E+00  0.00000000000E+00 -0.20588374082E+03  0.20588374084E+03  0.25500000920E-02 0.  1.
    10030    2    1    2    0    0  0.00000000000E+00  0.00000000000E+00  0.77873317800E+03  0.11905006597E+04  0.90048123698E+03 0.  0.
        2    1    3    3  502    0 -0.28120628641E+02  0.73047443716E+02  0.97555278980E+03  0.97868786878E+03  0.25500000920E-02 0. -1.
       -2    1    3    3    0  502  0.28120628641E+02 -0.73047443716E+02 -0.19681961180E+03  0.21181279089E+03  0.25500000920E-02 0.  1.
</event>
<event>
 5   0  0.4110039E-04  0.8999101E+03  0.7818609E-02  0.9425694E-01
       -2   -1    0    0    0  501  0.00000000000E+00  0.00000000000E+00  0.45413101701E+03  0.45413101702E+03  0.25500000920E-02 0.  1.
        2   -1    0    0  501    0  0.00000000000E+00  0.00000000000E+00 -0.44581748860E+03  0.44581748860E+03  0.25500000920E-02 0. -1.
    10030    2    1    2    0    0  0.00000000000E+00  0.00000000000E+00  0.83135284169E+01  0.89994850562E+03  0.89991010552E+03 0.  0.
        3    1    3    3  502    0  0.99069093680E+02  0.34254133173E+03  0.27859567783E+03  0.45250945976E+03  0.10100000352E+00 0.  1.
       -3    1    3    3    0  502 -0.99069093680E+02 -0.34254133173E+03 -0.27028214942E+03  0.44743904586E+03  0.10100000352E+00 0. -1.
</event>
<event>
 5   0  0.2332791E-04  0.8994874E+03  0.7818609E-02  0.9426222E-01
       -1   -1    0    0    0  501  0.00000000000E+00  0.00000000000E+00  0.87165660141E+02  0.87165660287E+02  0.50400001928E-02 0. -1.
        1   -1    0    0  501    0  0.00000000000E+00  0.00000000000E+00 -0.23205168854E+04  0.23205168854E+04  0.50400001928E-02 0.  1.
    10030    2    1    2    0    0  0.00000000000E+00  0.00000000000E+00 -0.22333512253E+04  0.24076825457E+04  0.89948737927E+03 0.  0.
        2    1    3    3  502    0 -0.40698755656E+02 -0.22675742959E+03 -0.82772304487E+02  0.24479905020E+03  0.25500000920E-02 0. -1.
       -2    1    3    3    0  502  0.40698755656E+02  0.22675742959E+03 -0.21505789208E+04  0.21628834955E+04  0.25500000920E-02 0.  1.
</event>
<event>
 5   0  0.2356918E-04  0.8992811E+03  0.7818609E-02  0.9426481E-01
        1   -1    0    0  501    0  0.00000000000E+00  0.00000000000E+00  0.15149132581E+04  0.15149132581E+04  0.50400001928E-02 0.  1.
       -1   -1    0    0    0  501  0.00000000000E+00  0.00000000000E+00 -0.13345754823E+03  0.13345754832E+03  0.50400001928E-02 0. -1.
    10030    2    1    2    0    0  0.00000000000E+00  0.00000000000E+00  0.13814557099E+04  0.16483708064E+04  0.89928106682E+03 0.  0.
        5    1    3    3  502    0 -0.20509801698E+03 -0.24725195493E+03  0.12673350763E+04  0.13074245720E+04  0.46999998093E+01 0.  1.
       -5    1    3    3    0  502  0.20509801698E+03  0.24725195493E+03  0.11412063358E+03  0.34094623446E+03  0.46999998093E+01 0. -1.
</event>
<event>
 5   0  0.4110039E-04  0.8982838E+03  0.7818609E-02  0.9427729E-01
       -2   -1    0    0    0  501  0.00000000000E+00  0.00000000000E+00  0.10037374701E+03  0.10037374705E+03  0.25500000920E-02 0. -1.
        2   -1    0    0  501    0  0.00000000000E+00  0.00000000000E+00 -0.20097729677E+04  0.20097729677E+04  0.25500000920E-02 0.  1.
    10030    2    1    2    0    0  0.00000000000E+00  0.00000000000E+00 -0.19093992207E+04  0.21101467148E+04  0.89828379358E+03 0.  0.
        3    1    3    3  502    0  0.35805533133E+03  0.10691841645E+03 -0.36934190898E+03  0.52540329653E+03  0.10100000352E+00 0. -1.
       -3    1    3    3    0  502 -0.35805533133E+03 -0.10691841645E+03 -0.15400573117E+04  0.15847434182E+04  0.10100000352E+00 0.  1.
</event>
<event>
 5   0  0.4110039E-04  0.8997304E+03  0.7818609E-02  0.9425918E-01
       -2   -1    0    0    0  501  0.00000000000E+00  0.00000000000E+00  0.10906047501E+03  0.10906047504E+03  0.25500000920E-02 0. -1.
        2   -1    0    0  501    0  0.00000000000E+00  0.00000000000E+00 -0.18556559276E+04  0.18556559276E+04  0.25500000920E-02 0.  1.
    10030    2    1    2    0    0  0.00000000000E+00  0.00000000000E+00 -0.17465954526E+04  0.19647164026E+04  0.89973044174E+03 0.  0.
        3    1    3    3  502    0 -0.42099899654E+03  0.45256081990E+02 -0.54147697040E+03  0.68737587077E+03  0.10100000352E+00 0. -1.
       -3    1    3    3    0  502  0.42099899654E+03 -0.45256081990E+02 -0.12051184822E+04  0.12773405319E+04  0.10100000352E+00 0.  1.
</event>
<event>
 5   0  0.4236284E-04  0.8989169E+03  0.7818609E-02  0.9426936E-01
        2   -1    0    0  501    0  0.00000000000E+00  0.00000000000E+00  0.60101138020E+03  0.60101138021E+03  0.25500000920E-02 0.  1.
       -2   -1    0    0    0  501  0.00000000000E+00  0.00000000000E+00 -0.33612160338E+03  0.33612160339E+03  0.25500000920E-02 0. -1.
    10030    2    1    2    0    0  0.00000000000E+00  0.00000000000E+00  0.26488977683E+03  0.93713298360E+03  0.89891692334E+03 0.  0.
        2    1    3    3  502    0 -0.15407698178E+03 -0.41855068723E+03  0.74507822004E+02  0.45219001497E+03  0.25500000920E-02 0. -1.
       -2    1    3    3    0  502  0.15407698178E+03  0.41855068723E+03  0.19038195482E+03  0.48494296863E+03  0.25500000920E-02 0.  1.
</event>
<event>
 5   0  0.2308362E-04  0.8998012E+03  0.7818609E-02  0.9425830E-01
       -1   -1    0    0    0  501  0.00000000000E+00  0.00000000000E+00  0.47743906372E+03  0.47743906375E+03  0.50400001928E-02 0. -1.
        1   -1    0    0  501    0  0.00000000000E+00  0.00000000000E+00 -0.42395056779E+03  0.42395056782E+03  0.50400001928E-02 0.  1.
    10030    2    1    2    0    0  0.00000000000E+00  0.00000000000E+00  0.53488495935E+02  0.90138963157E+03  0.89980122733E+03 0.  0.
        1    1    3    3  502    0 -0.30567992807E+03 -0.17469520819E+03 -0.25384290823E+03  0.43404476298E+03  0.50400001928E-02 0.  1.
       -1    1    3    3    0  502  0.30567992807E+03  0.17469520819E+03  0.30733140416E+03  0.46734486859E+03  0.50400001928E-02 0. -1.
</event>
<event>
 5   0  0.4033144E-04  0.9001409E+03  0.7818609E-02  0.9425405E-01
        2   -1    0    0  501    0  0.00000000000E+00  0.00000000000E+00  0.27985513233E+04  0.27985513233E+04  0.25500000920E-02 0. -1.
       -2   -1    0    0    0  501  0.00000000000E+00  0.00000000000E+00 -0.72381524982E+02  0.72381525027E+02  0.25500000920E-02 0.  1.
    10030    2    1    2    0    0  0.00000000000E+00  0.00000000000E+00  0.27261697984E+04  0.28709328484E+04  0.90014090584E+03 0.  0.
        4    1    3    3  502    0  0.23656139273E+03  0.31056518570E+03  0.64884020932E+03  0.75723659264E+03  0.12699999809E+01 0. -1.
       -4    1    3    3    0  502 -0.23656139273E+03 -0.31056518570E+03  0.20773295890E+04  0.21136962557E+04  0.12699999809E+01 0.  1.
</event>
<event>
 5   0  0.4110039E-04  0.9002853E+03  0.7818609E-02  0.9425225E-01
       -2   -1    0    0    0  501  0.00000000000E+00  0.00000000000E+00  0.65318319956E+03  0.65318319957E+03  0.25500000920E-02 0.  1.
        2   -1    0    0  501    0  0.00000000000E+00  0.00000000000E+00 -0.31021680077E+03  0.31021680078E+03  0.25500000920E-02 0. -1.
    10030    2    1    2    0    0  0.00000000000E+00  0.00000000000E+00  0.34296639879E+03  0.96340000035E+03  0.90028529366E+03 0.  0.
        3    1    3    3  502    0 -0.72139059260E+02  0.22291726598E+03 -0.23982193325E+03  0.33527708125E+03  0.10100000352E+00 0. -1.
       -3    1    3    3    0  502  0.72139059260E+02 -0.22291726598E+03  0.58278833204E+03  0.62812291910E+03  0.10100000352E+00 0.  1.
</event>
<event>
 5   0  0.2332791E-04  0.8999060E+03  0.7818609E-02  0.9425699E-01
        1   -1    0    0  501    0  0.00000000000E+00  0.00000000000E+00  0.16712860300E+04  0.16712860300E+04  0.50400001928E-02 0. -1.
       -1   -1    0    0    0  501  0.00000000000E+00  0.00000000000E+00 -0.12113886015E+03  0.12113886025E+03  0.50400001928E-02 0.  1.
    10030    2    1    2    0    0  0.00000000000E+00  0.00000000000E+00  0.15501471699E+04  0.17924248903E+04  0.89990596121E+03 0.  0.
        2    1    3    3  502    0 -0.44914143476E+02  0.31424831989E+03  0.13991885014E+03  0.34691003368E+03  0.25500000920E-02 0.  1.
       -2    1    3    3    0  502  0.44914143476E+02 -0.31424831989E+03  0.14102283197E+04  0.14455148566E+04  0.25500000920E-02 0. -1.
</event>
<event>
 5   0  0.2308362E-04  0.8994568E+03  0.7818609E-02  0.9426261E-01
       -1   -1    0    0    0  501  0.00000000000E+00  0.00000000000E+00  0.37785947281E+03  0.37785947284E+03  0.50400001928E-02 0. -1.
        1   -1    0    0  501    0  0.00000000000E+00  0.00000000000E+00 -0.53526681597E+03  0.53526681599E+03  0.50400001928E-02 0.  1.
    10030    2    1    2    0    0  0.00000000000E+00  0.00000000000E+00 -0.15740734316E+03  0.91312628883E+03  0.89945680701E+03 0.  0.
        1    1    3    3  502    0  0.13516303964E+03  0.38357556095E+03 -0.27360143888E+03  0.49016018364E+03  0.50400001928E-02 0.  1.
       -1    1    3    3    0  502 -0.13516303964E+03 -0.38357556095E+03  0.11619409572E+03  0.42296610520E+03  0.50400001928E-02 0. -1.
</event>
<event>
 5   0  0.4243516E-04  0.8998045E+03  0.7818609E-02  0.9425826E-01
        2   -1    0    0  501    0  0.00000000000E+00  0.00000000000E+00  0.86419285661E+03  0.86419285662E+03  0.25500000920E-02 0.  1.
       -2   -1    0    0    0  501  0.00000000000E+00  0.00000000000E+00 -0.23422090161E+03  0.23422090163E+03  0.25500000920E-02 0. -1.
    10030    2    1    2    0    0  0.00000000000E+00  0.00000000000E+00  0.62997195500E+03  0.10984137582E+04  0.89980448999E+03 0.  0.
        1    1    3    3  502    0  0.47410589535E+02 -0.43620178128E+03  0.43639915733E+03  0.61884083781E+03  0.50400001928E-02 0.  1.
       -1    1    3    3    0  502 -0.47410589535E+02  0.43620178128E+03  0.19357279767E+03  0.47957292044E+03  0.50400001928E-02 0. -1.
</event>
<event>
 5   0  0.2356918E-04  0.8998996E+03  0.7818609E-02  0.9425707E-01
        1   -1    0    0  501    0  0.00000000000E+00  0.00000000000E+00  0.11350173314E+04  0.11350173315E+04  0.50400001928E-02 0. -1.
       -1   -1    0    0    0  501  0.00000000000E+00  0.00000000000E+00 -0.17837158290E+03  0.17837158297E+03  0.50400001928E-02 0.  1.
    10030    2    1    2    0    0  0.00000000000E+00  0.00000000000E+00  0.95664574854E+03  0.13133889144E+04  0.89989963458E+03 0.  0.
        5    1    3    3  502    0 -0.13583601126E+03 -0.21766087013E+02  0.11035333633E+04  0.11120850499E+04  0.46999998093E+01 0. -1.
       -5    1    3    3    0  502  0.13583601126E+03  0.21766087013E+02 -0.14688761471E+03  0.20130386448E+03  0.46999998093E+01 0.  1.
</event>
<event>
 5   0  0.2351435E-04  0.8999829E+03  0.7818609E-02  0.9425603E-01
       -1   -1    0    0    0  501  0.00000000000E+00  0.00000000000E+00  0.20628296399E+03  0.20628296406E+03  0.50400001928E-02 0.  1.
        1   -1    0    0  501    0  0.00000000000E+00  0.00000000000E+00 -0.98162390999E+03  0.98162391001E+03  0.50400001928E-02 0. -1.
    10030    2    1    2    0    0  0.00000000000E+00  0.00000000000E+00 -0.77534094600E+03  0.11879068741E+04  0.89998286589E+03 0.  0.
        4    1    3    3  502    0 -0.24112244297E+03 -0.11094011104E+03  0.91958865332E+02  0.28090173826E+03  0.12699999809E+01 0.  1.
       -4    1    3    3    0  502  0.24112244297E+03  0.11094011104E+03 -0.86729981133E+03  0.90700513581E+03  0.12699999809E+01 0. -1.
</event>
<event>
 5   0  0.4110039E-04  0.9017129E+03  0.7818609E-02  0.9423443E-01
        2   -1    0    0  501    0  0.00000000000E+00  0.00000000000E+00  0.58066843052E+03  0.58066843052E+03  0.25500000920E-02 0.  1.
       -2   -1    0    0    0  501  0.00000000000E+00  0.00000000000E+00 -0.35006470021E+03  0.35006470022E+03  0.25500000920E-02 0. -1.
    10030    2    1    2    0    0  0.00000000000E+00  0.00000000000E+00  0.23060373031E+03  0.93073313074E+03  0.90171285908E+03 0.  0.
        3    1    3    3  502    0 -0.32366631204E+03 -0.29991854552E+03  0.19801213886E+02  0.44170478123E+03  0.10100000352E+00 0. -1.
       -3    1    3    3    0  502  0.32366631204E+03  0.29991854552E+03  0.21080251642E+03  0.48902834951E+03  0.10100000352E+00 0.  1.
</event>
<event>
 5   0  0.2351435E-04  0.8996074E+03  0.7818609E-02  0.9426072E-01
       -1   -1    0    0    0  501  0.00000000000E+00  0.00000000000E+00  0.18813316283E+03  0.18813316290E+03  0.50400001928E-02 0. -1.
        1   -1    0    0  501    0  0.00000000000E+00  0.00000000000E+00 -0.10754263073E+04  0.10754263073E+04  0.50400001928E-02 0.  1.
    10030    2    1    2    0    0  0.00000000000E+00  0.00000000000E+00 -0.88729314448E+03  0.12635594702E+04  0.89960736465E+03 0.  0.
        4    1    3    3  502    0 -0.27335743793E+02  0.12794019946E+03  0.16081678525E+03  0.20731519202E+03  0.12699999809E+01 0. -1.
       -4    1    3    3    0  502  0.27335743793E+02 -0.12794019946E+03 -0.10481099297E+04  0.10562442782E+04  0.12699999809E+01 0.  1.
</event>
<event>
 5   0  0.2308362E-04  0.9008251E+03  0.7818609E-02  0.9424551E-01
       -1   -1    0    0    0  501  0.00000000000E+00  0.00000000000E+00  0.11909074554E+03  0.11909074564E+03  0.50400001928E-02 0.  1.
        1   -1    0    0  501    0  0.00000000000E+00  0.00000000000E+00 -0.17035031013E+04  0.17035031013E+04  0.50400001928E-02 0. -1.
    10030    2    1    2    0    0  0.00000000000E+00  0.00000000000E+00 -0.15844123558E+04  0.18225938470E+04  0.90082507617E+03 0.  0.
        1    1    3    3  502    0 -0.96020903944E+02 -0.16812245134E+03 -0.16150154451E+04  0.16265792512E+04  0.50400001928E-02 0. -1.
       -1    1    3    3    0  502  0.96020903944E+02  0.16812245134E+03  0.30603089310E+02  0.19601459573E+03  0.50400001928E-02 0.  1.
</event>
<event>
 5   0  0.2332791E-04  0.9004222E+03  0.7818609E-02  0.9425054E-01
       -1   -1    0    0    0  501  0.00000000000E+00  0.00000000000E+00  0.28934419841E+03  0.28934419845E+03  0.50400001928E-02 0. -1.
        1   -1    0    0  501    0  0.00000000000E+00  0.00000000000E+00 -0.70051527897E+03  0.70051527899E+03  0.50400001928E-02 0.  1.
    10030    2    1    2    0    0  0.00000000000E+00  0.00000000000E+00 -0.41117108056E+03  0.98985947744E+03  0.90042219408E+03 0.  0.
        2    1    3    3  502    0  0.10655028119E+03 -0.88230988105E+02 -0.67657083043E+03  0.69056915532E+03  0.25500000920E-02 0.  1.
       -2    1    3    3    0  502 -0.10655028119E+03  0.88230988105E+02  0.26539974987E+03  0.29929032213E+03  0.25500000920E-02 0. -1.
</event>
<event>
 5   0  0.4243516E-04  0.9029500E+03  0.7818609E-02  0.9421901E-01
       -2   -1    0    0    0  501  0.00000000000E+00  0.00000000000E+00  0.40716038176E+03  0.40716038177E+03  0.25500000920E-02 0. -1.
        2   -1    0    0  501    0  0.00000000000E+00  0.00000000000E+00 -0.50061279709E+03  0.50061279710E+03  0.25500000920E-02 0.  1.
    10030    2    1    2    0    0  0.00000000000E+00  0.00000000000E+00 -0.93452415335E+02  0.90777317886E+03  0.90295004864E+03 0.  0.
        1    1    3    3  502    0  0.10732666978E+03  0.40883130320E+03 -0.20621675399E+03  0.47030564336E+03  0.50400001928E-02 0.  1.
       -1    1    3    3    0  502 -0.10732666978E+03 -0.40883130320E+03  0.11276433866E+03  0.43746753551E+03  0.50400001928E-02 0. -1.
</event>
<event>
 5   0  0.2356918E-04  0.8992365E+03  0.7818609E-02  0.9426536E-01
        1   -1    0    0  501    0  0.00000000000E+00  0.00000000000E+00  0.18016070550E+04  0.18016070550E+04  0.50400001928E-02 0.  1.
       -1   -1    0    0    0  501  0.00000000000E+00  0.00000000000E+00 -0.11220903453E+03  0.11220903464E+03  0.50400001928E-02 0. -1.
    10030    2    1    2    0    0  0.00000000000E+00  0.00000000000E+00  0.16893980205E+04  0.19138160897E+04  0.89923653919E+03 0.  0.
        5    1    3    3  502    0  0.28233033812E+03  0.30518394825E+03  0.12089179162E+04  0.12784178817E+04  0.46999998093E+01 0. -1.
       -5    1    3    3    0  502 -0.28233033812E+03 -0.30518394825E+03  0.48048010429E+03  0.63539820798E+03  0.46999998093E+01 0.  1.
</event>
<event>
 5   0  0.4110039E-04  0.9001885E+03  0.7818609E-02  0.9425346E-01
        2   -1    0    0  501    0  0.00000000000E+00  0.00000000000E+00  0.17662264086E+04  0.17662264086E+04  0.25500000920E-02 0. -1.
       -2   -1    0    0    0  501  0.00000000000E+00  0.00000000000E+00 -0.11469924250E+03  0.11469924253E+03  0.25500000920E-02 0.  1.
    10030    2    1    2    0    0  0.00000000000E+00  0.00000000000E+00  0.16515271661E+04  0.18809256511E+04  0.90018849399E+03 0.  0.
        3    1    3    3  502    0  0.28415906096E+03  0.27808419648E+03  0.38494956189E+03  0.55341066818E+03  0.10100000352E+00 0.  1.
       -3    1    3    3    0  502 -0.28415906096E+03 -0.27808419648E+03  0.12665776042E+04  0.13275149830E+04  0.10100000352E+00 0. -1.
</event>
<event>
 5   0  0.4236284E-04  0.8999502E+03  0.7818609E-02  0.9425644E-01
        2   -1    0    0  501    0  0.00000000000E+00  0.00000000000E+00  0.13485682753E+04  0.13485682753E+04  0.25500000920E-02 0.  1.
       -2   -1    0    0    0  501  0.00000000000E+00  0.00000000000E+00 -0.15014264128E+03  0.15014264130E+03  0.25500000920E-02 0. -1.
    10030    2    1    2    0    0  0.00000000000E+00  0.00000000000E+00  0.11984256340E+04  0.14987109166E+04  0.89995022712E+03 0.  0.
        2    1    3    3  502    0  0.19173746253E+02 -0.10875386532E+03 -0.12722572932E+03  0.16846786630E+03  0.25500000920E-02 0. -1.
       -2    1    3    3    0  502 -0.19173746253E+02  0.10875386532E+03  0.13256513634E+04  0.13302430503E+04  0.25500000920E-02 0.  1.
</event>
<event>
 5   0  0.4243516E-04  0.8997751E+03  0.7818609E-02  0.9425863E-01
       -2   -1    0    0    0  501  0.00000000000E+00  0.00000000000E+00  0.96903365537E+02  0.96903365571E+02  0.25500000920E-02 0. -1.
        2   -1    0    0  501    0  0.00000000000E+00  0.00000000000E+00 -0.20886663894E+04  0.20886663894E+04  0.25500000920E-02 0.  1.
    10030    2    1    2    0    0  0.00000000000E+00  0.00000000000E+00 -0.19917630238E+04  0.21855697549E+04  0.89977508890E+03 0.  0.
        1    1    3    3  502    0 -0.18430745328E+03 -0.22895450750E+03 -0.18232086969E+04  0.18467483197E+04  0.50400001928E-02 0.  1.
       -1    1    3    3    0  502  0.18430745328E+03  0.22895450750E+03 -0.16855432698E+03  0.33882143529E+03  0.50400001928E-02 0. -1.
</event>
<event>
 5   0  0.4110039E-04  0.9014147E+03  0.7818609E-02  0.9423815E-01
        2   -1    0    0  501    0  0.00000000000E+00  0.00000000000E+00  0.18586821390E+04  0.18586821390E+04  0.25500000920E-02 0.  1.
       -2   -1    0    0    0  501  0.00000000000E+00  0.00000000000E+00 -0.10929093387E+03  0.10929093390E+03  0.25500000920E-02 0. -1.
    10030    2    1    2    0    0  0.00000000000E+00  0.00000000000E+00  0.17493912051E+04  0.19679730729E+04  0.90141468096E+03 0.  0.
        3    1    3    3  502    0 -0.27705615280E+03  0.11035363927E+03  0.13691745492E+03  0.32815306972E+03  0.10100000352E+00 0. -1.
       -3    1    3    3    0  502  0.27705615280E+03 -0.11035363927E+03  0.16124737502E+04  0.16398200031E+04  0.10100000352E+00 0.  1.
</event>
<event>
 5   0  0.2308362E-04  0.8998121E+03  0.7818609E-02  0.9425816E-01
       -1   -1    0    0    0  501  0.00000000000E+00  0.00000000000E+00  0.30432831642E+03  0.30432831646E+03  0.50400001928E-02 0. -1.
        1   -1    0    0  501    0  0.00000000000E+00  0.00000000000E+00 -0.66512197623E+03  0.66512197625E+03  0.50400001928E-02 0.  1.
    10030    2    1    2    0    0  0.00000000000E+00  0.00000000000E+00 -0.36079365981E+03  0.96945029270E+03  0.89981209431E+03 0.  0.
        1    1    3    3  502    0  0.10908387570E+03 -0.25553943048E+03 -0.56164100301E+03  0.62661017288E+03  0.50400001928E-02 0.  1.
       -1    1    3    3    0  502 -0.10908387570E+03  0.25553943048E+03  0.20084734320E+03  0.34284011983E+03  0.50400001928E-02 0. -1.
</event>
<event>
 5   0  0.2356918E-04  0.8999721E+03  0.7818609E-02  0.9425616E-01
        1   -1    0    0  501    0  0.00000000000E+00  0.00000000000E+00  0.54485401031E+03  0.54485401033E+03  0.50400001928E-02 0.  1.
       -1   -1    0    0    0  501  0.00000000000E+00  0.00000000000E+00 -0.37163616755E+03  0.37163616758E+03  0.50400001928E-02 0. -1.
    10030    2    1    2    0    0  0.00000000000E+00  0.00000000000E+00  0.17321784276E+03  0.91649017791E+03  0.89997212465E+03 0.  0.
        5    1    3    3  502    0  0.21356609021E+03 -0.36329431627E+03  0.24721251424E+03  0.48859937814E+03  0.46999998093E+01 0.  1.
       -5    1    3    3    0  502 -0.21356609021E+03  0.36329431627E+03 -0.73994671479E+02  0.42789079977E+03  0.46999998093E+01 0. -1.
</event>
<event>
 5   0  0.1596250E-04  0.9006454E+03  0.7818609E-02  0.9424775E-01
       -3   -1    0    0    0  501  0.00000000000E+00  0.00000000000E+00  0.20994520219E+03  0.20994522648E+03  0.10100000352E+00 0. -1.
        3   -1    0    0  501    0  0.00000000000E+00  0.00000000000E+00 -0.96592126217E+03  0.96592126745E+03  0.10100000352E+00 0.  1.
    10030    2    1    2    0    0  0.00000000000E+00  0.00000000000E+00 -0.75597605998E+03  0.11758664939E+04  0.90064543983E+03 0.  0.
        2    1    3    3  502    0  0.18712112264E+03  0.35953785419E+03 -0.12178516702E+03  0.42321792265E+03  0.25500000920E-02 0. -1.
       -2    1    3    3    0  502 -0.18712112264E+03 -0.35953785419E+03 -0.63419089296E+03  0.75264857128E+03  0.25500000920E-02 0.  1.
</event>
<event>
 5   0  0.4033144E-04  0.8972329E+03  0.7818609E-02  0.9429047E-01
        2   -1    0    0  501    0  0.00000000000E+00  0.00000000000E+00  0.16334687305E+04  0.16334687305E+04  0.25500000920E-02 0. -1.
       -2   -1    0    0    0  501  0.00000000000E+00  0.00000000000E+00 -0.12320818035E+03  0.12320818038E+03  0.25500000920E-02 0.  1.
    10030    2    1    2    0    0  0.00000000000E+00  0.00000000000E+00  0.15102605502E+04  0.17566769109E+04  0.89723287940E+03 0.  0.
        4    1    3    3  502    0 -0.27245041762E+03 -0.82884249226E+02  0.14338017057E+04  0.14618098279E+04  0.12699999809E+01 0. -1.
       -4    1    3    3    0  502  0.27245041762E+03  0.82884249226E+02  0.76458844479E+02  0.29486708299E+03  0.12699999809E+01 0.  1.
</event>
<event>
 5   0  0.4236284E-04  0.9002885E+03  0.7818609E-02  0.9425221E-01
       -2   -1    0    0    0  501  0.00000000000E+00  0.00000000000E+00  0.14604690719E+03  0.14604690721E+03  0.25500000920E-02 0.  1.
        2   -1    0    0  501    0  0.00000000000E+00  0.00000000000E+00 -0.13874299685E+04  0.13874299685E+04  0.25500000920E-02 0. -1.
    10030    2    1    2    0    0  0.00000000000E+00  0.00000000000E+00 -0.12413830613E+04  0.15334768757E+04  0.90028852232E+03 0.  0.
        2    1    3    3  502    0  0.12012419112E+03  0.27441250048E+03 -0.11930106897E+04  0.12300433112E+04  0.25500000920E-02 0. -1.
       -2    1    3    3    0  502 -0.12012419112E+03 -0.27441250048E+03 -0.48372371586E+02  0.30343356448E+03  0.25500000920E-02 0.  1.
</event>
<event>
 5   0  0.2332791E-04  0.9000176E+03  0.7818609E-02  0.9425559E-01
        1   -1    0    0  501    0  0.00000000000E+00  0.00000000000E+00  0.34920713990E+03  0.34920713994E+03  0.50400001928E-02 0.  1.
       -1   -1    0    0    0  501  0.00000000000E+00  0.00000000000E+00 -0.57990766994E+03  0.57990766996E+03  0.50400001928E-02 0. -1.
    10030    2    1    2    0    0  0.00000000000E+00  0.00000000000E+00 -0.23070053004E+03  0.92911480990E+03  0.90001755284E+03 0.  0.
        2    1    3    3  502    0 -0.37768169986E+03  0.19832905699E+03 -0.26326555320E+03  0.50128498159E+03  0.25500000920E-02 0. -1.
       -2    1    3    3    0  502  0.37768169986E+03 -0.19832905699E+03  0.32565023160E+02  0.42782982831E+03  0.25500000920E-02 0.  1.
</event>
<event>
 5   0  0.1596250E-04  0.8998822E+03  0.7818609E-02  0.9425729E-01
       -4   -1    0    0    0  501  0.00000000000E+00  0.00000000000E+00  0.12202617794E+04  0.12202624403E+04  0.12699999809E+01 0. -1.
        4   -1    0    0  501    0  0.00000000000E+00  0.00000000000E+00 -0.16590141897E+03  0.16590627991E+03  0.12699999809E+01 0.  1.
    10030    2    1    2    0    0  0.00000000000E+00  0.00000000000E+00  0.10543603604E+04  0.13861687202E+04  0.89988218740E+03 0.  0.
        1    1    3    3  502    0  0.21960754349E+03  0.30757245817E+03  0.15106429054E+03  0.40699964384E+03  0.50400001928E-02 0.  1.
       -1    1    3    3    0  502 -0.21960754349E+03 -0.30757245817E+03  0.90329606989E+03  0.97916907636E+03  0.50400001928E-02 0. -1.
</event>
<event>
 5   0  0.4243516E-04  0.9002836E+03  0.7818609E-02  0.9425227E-01
       -2   -1    0    0    0  501  0.00000000000E+00  0.00000000000E+00  0.40495240939E+03  0.40495240940E+03  0.25500000920E-02 0. -1.
        2   -1    0    0  501    0  0.00000000000E+00  0.00000000000E+00 -0.50037401069E+03  0.50037401070E+03  0.25500000920E-02 0.  1.
    10030    2    1    2    0    0  0.00000000000E+00  0.00000000000E+00 -0.95421601302E+02  0.90532642010E+03  0.90028364693E+03 0.  0.
        1    1    3    3  502    0 -0.35953046643E+03 -0.20805370232E+03  0.12669410573E+03  0.43428089504E+03  0.50400001928E-02 0. -1.
       -1    1    3    3    0  502  0.35953046643E+03  0.20805370232E+03 -0.22211570703E+03  0.47104552506E+03  0.50400001928E-02 0.  1.
</event>
<event>
 5   0  0.2351435E-04  0.9004254E+03  0.7818609E-02  0.9425050E-01
        1   -1    0    0  501    0  0.00000000000E+00  0.00000000000E+00  0.84916912407E+03  0.84916912409E+03  0.50400001928E-02 0.  1.
       -1   -1    0    0    0  501  0.00000000000E+00  0.00000000000E+00 -0.23869385615E+03  0.23869385620E+03  0.50400001928E-02 0. -1.
    10030    2    1    2    0    0  0.00000000000E+00  0.00000000000E+00  0.61047526792E+03  0.10878629803E+04  0.90042535012E+03 0.  0.
        4    1    3    3  502    0 -0.84648806521E+02  0.18469223351E+03 -0.18015815704E+03  0.27154229139E+03  0.12699999809E+01 0. -1.
       -4    1    3    3    0  502  0.84648806521E+02 -0.18469223351E+03  0.79063342496E+03  0.81632068890E+03  0.12699999809E+01 0.  1.
</event>
<event>
 5   0  0.2356918E-04  0.9005288E+03  0.7818609E-02  0.9424921E-01
        1   -1    0    0  501    0  0.00000000000E+00  0.00000000000E+00  0.10205846516E+04  0.10205846516E+04  0.50400001928E-02 0.  1.
       -1   -1    0    0    0  501  0.00000000000E+00  0.00000000000E+00 -0.19864889311E+03  0.19864889318E+03  0.50400001928E-02 0. -1.
    10030    2    1    2    0    0  0.00000000000E+00  0.00000000000E+00  0.82193575848E+03  0.12192335448E+04  0.90052875893E+03 0.  0.
        5    1    3    3  502    0 -0.43058460631E+03 -0.88342559311E+02  0.54298895776E+03  0.69861764165E+03  0.46999998093E+01 0.  1.
       -5    1    3    3    0  502  0.43058460631E+03  0.88342559311E+02  0.27894680072E+03  0.52061590314E+03  0.46999998093E+01 0. -1.
</event>
<event>
 5   0  0.2308362E-04  0.9001642E+03  0.7818609E-02  0.9425376E-01
       -1   -1    0    0    0  501  0.00000000000E+00  0.00000000000E+00  0.19437961117E+03  0.19437961124E+03  0.50400001928E-02 0. -1.
        1   -1    0    0  501    0  0.00000000000E+00  0.00000000000E+00 -0.10421560264E+04  0.10421560264E+04  0.50400001928E-02 0.  1.
    10030    2    1    2    0    0  0.00000000000E+00  0.00000000000E+00 -0.84777641523E+03  0.12365356377E+04  0.90016417001E+03 0.  0.
        1    1    3    3  502    0  0.44327148486E+03  0.77951673329E+02 -0.42004914053E+03  0.61563573090E+03  0.50400001928E-02 0.  1.
       -1    1    3    3    0  502 -0.44327148486E+03 -0.77951673329E+02 -0.42772727469E+03  0.62089990675E+03  0.50400001928E-02 0. -1.
</event>
<event>
 5   0  0.2450427E-04  0.9000997E+03  0.7818609E-02  0.9425457E-01
        1   -1    0    0  501    0  0.00000000000E+00  0.00000000000E+00  0.57450783268E+03  0.57450783270E+03  0.50400001928E-02 0. -1.
       -1   -1    0    0    0  501  0.00000000000E+00  0.00000000000E+00 -0.35255367185E+03  0.35255367189E+03  0.50400001928E-02 0.  1.
    10030    2    1    2    0    0  0.00000000000E+00  0.00000000000E+00  0.22195416083E+03  0.92706150459E+03  0.90009965215E+03 0.  0.
        3    1    3    3  502    0  0.20607468794E+03  0.34989264541E+03 -0.88879693645E+02  0.41568166963E+03  0.10100000352E+00 0.  1.
       -3    1    3    3    0  502 -0.20607468794E+03 -0.34989264541E+03  0.31083385447E+03  0.51137983496E+03  0.10100000352E+00 0. -1.
</event>
<event>
 5   0  0.4110039E-04  0.9004132E+03  0.7818609E-02  0.9425065E-01
       -2   -1    0    0    0  501  0.00000000000E+00  0.00000000000E+00  0.31314740620E+03  0.31314740621E+03  0.25500000920E-02 0. -1.
        2   -1    0    0  501    0  0.00000000000E+00  0.00000000000E+00 -0.64725426403E+03  0.64725426404E+03  0.25500000920E-02 0.  1.
    10030    2    1    2    0    0  0.00000000000E+00  0.00000000000E+00 -0.33410685783E+03  0.96040167025E+03  0.90041322501E+03 0.  0.
        3    1    3    3  502    0  0.16432131599E+03 -0.28314816696E+03 -0.49669282643E+03  0.59487658667E+03  0.10100000352E+00 0.  1.
       -3    1    3    3    0  502 -0.16432131599E+03  0.28314816696E+03  0.16258596860E+03  0.36552508358E+03  0.10100000352E+00 0. -1.
</event>
<event>
 5   0  0.4243516E-04  0.8996412E+03  0.7818609E-02  0.9426030E-01
        2   -1    0    0  501    0  0.00000000000E+00  0.00000000000E+00  0.53757081870E+03  0.53757081870E+03  0.25500000920E-02 0. -1.
       -2   -1    0    0    0  501  0.00000000000E+00  0.00000000000E+00 -0.37639422520E+03  0.37639422521E+03  0.25500000920E-02 0.  1.
    10030    2    1    2    0    0  0.00000000000E+00  0.00000000000E+00  0.16117659349E+03  0.91396504392E+03  0.89964115469E+03 0.  0.
        1    1    3    3  502    0  0.39668435285E+03  0.20743463701E+03  0.35715509538E+02  0.44906926200E+03  0.50400001928E-02 0.  1.
       -1    1    3    3    0  502 -0.39668435285E+03 -0.20743463701E+03  0.12546108396E+03  0.46489578191E+03  0.50400001928E-02 0. -1.
</event>
<event>
 5   0  0.2356918E-04  0.9000845E+03  0.7818609E-02  0.9425476E-01
       -1   -1    0    0    0  501  0.00000000000E+00  0.00000000000E+00  0.24864355755E+03  0.24864355760E+03  0.50400001928E-02 0.  1.
        1   -1    0    0  501    0  0.00000000000E+00  0.00000000000E+00 -0.81457179263E+03  0.81457179264E+03  0.50400001928E-02 0. -1.
    10030    2    1    2    0    0  0.00000000000E+00  0.00000000000E+00 -0.56592823508E+03  0.10632153502E+04  0.90008450366E+03 0.  0.
        5    1    3    3  502    0 -0.15532516562E+03  0.31398312794E+03 -0.61666087661E+03  0.70922777614E+03  0.46999998093E+01 0.  1.
       -5    1    3    3    0  502  0.15532516562E+03 -0.31398312794E+03  0.50732641532E+02  0.35398757410E+03  0.46999998093E+01 0. -1.
</event>
<event>
 5   0  0.4033144E-04  0.8999865E+03  0.7818609E-02  0.9425598E-01
       -2   -1    0    0    0  501  0.00000000000E+00  0.00000000000E+00  0.24710992206E+03  0.24710992207E+03  0.25500000920E-02 0. -1.
        2   -1    0    0  501    0  0.00000000000E+00  0.00000000000E+00 -0.81944875304E+03  0.81944875305E+03  0.25500000920E-02 0.  1.
    10030    2    1    2    0    0  0.00000000000E+00  0.00000000000E+00 -0.57233883098E+03  0.10665586751E+04  0.89998648324E+03 0.  0.
        4    1    3    3  502    0  0.37550566489E+03 -0.16740957269E+03 -0.69387203368E+02  0.41694923706E+03  0.12699999809E+01 0. -1.
       -4    1    3    3    0  502 -0.37550566489E+03  0.16740957269E+03 -0.50295162761E+03  0.64960943806E+03  0.12699999809E+01 0.  1.
</event>
<event>
 5   0  0.2332791E-04  0.9000373E+03  0.7818609E-02  0.9425535E-01
        1   -1    0    0  501    0  0.00000000000E+00  0.00000000000E+00  0.29353449600E+03  0.29353449604E+03  0.50400001928E-02 0.  1.
       -1   -1    0    0    0  501  0.00000000000E+00  0.00000000000E+00 -0.68992505192E+03  0.68992505194E+03  0.50400001928E-02 0. -1.
    10030    2    1    2    0    0  0.00000000000E+00  0.00000000000E+00 -0.39639055592E+03  0.98345954798E+03  0.90003733794E+03 0.  0.
        2    1    3    3  502    0 -0.32456219123E+03  0.30461533934E+03 -0.12583261874E+03  0.46256347551E+03  0.25500000920E-02 0.  1.
       -2    1    3    3    0  502  0.32456219123E+03 -0.30461533934E+03 -0.27055793718E+03  0.52089607247E+03  0.25500000920E-02 0. -1.
</event>
<event>
 5   0  0.3959804E-04  0.9000609E+03  0.7818609E-02  0.9425505E-01
        2   -1    0    0  501    0  0.00000000000E+00  0.00000000000E+00  0.25585273462E+03  0.25585273463E+03  0.25500000920E-02 0.  1.
       -2   -1    0    0    0  501  0.00000000000E+00  0.00000000000E+00 -0.79157812359E+03  0.79157812360E+03  0.25500000920E-02 0. -1.
    10030    2    1    2    0    0  0.00000000000E+00  0.00000000000E+00 -0.53572538897E+03  0.10474308582E+04  0.90006094815E+03 0.  0.
        5    1    3    3  502    0 -0.18740773567E+02 -0.17597743458E+03 -0.74935311181E+03  0.76998146098E+03  0.46999998093E+01 0. -1.
       -5    1    3    3    0  502  0.18740773567E+02  0.17597743458E+03  0.21362772284E+03  0.27744939725E+03  0.46999998093E+01 0.  1.
</event>
<event>
 5   0  0.3959804E-04  0.8995987E+03  0.7818609E-02  0.9426083E-01
       -2   -1    0    0    0  501  0.00000000000E+00  0.00000000000E+00  0.21240659664E+03  0.21240659666E+03  0.25500000920E-02 0. -1.
        2   -1    0    0  501    0  0.00000000000E+00  0.00000000000E+00 -0.95251031524E+03  0.95251031524E+03  0.25500000920E-02 0.  1.
    10030    2    1    2    0    0  0.00000000000E+00  0.00000000000E+00 -0.74010371860E+03  0.11649169119E+04  0.89959874241E+03 0.  0.
        5    1    3    3  502    0 -0.32224298389E+03 -0.16402398320E+03 -0.23666152396E+02  0.36239009989E+03  0.46999998093E+01 0. -1.
       -5    1    3    3    0  502  0.32224298389E+03  0.16402398320E+03 -0.71643756620E+03  0.80252681201E+03  0.46999998093E+01 0.  1.
</event>
<event>
 5   0  0.4110039E-04  0.8976756E+03  0.7818609E-02  0.9428492E-01
       -2   -1    0    0    0  501  0.00000000000E+00  0.00000000000E+00  0.51743610000E+03  0.51743610001E+03  0.25500000920E-02 0.  1.
        2   -1    0    0  501    0  0.00000000000E+00  0.00000000000E+00 -0.38933380989E+03  0.38933380990E+03  0.25500000920E-02 0. -1.
    10030    2    1    2    0    0  0.00000000000E+00  0.00000000000E+00  0.12810229011E+03  0.90676990991E+03  0.89767559440E+03 0.  0.
        3    1    3    3  502    0  0.38616319734E+03 -0.19632102629E+03  0.18267767389E+03  0.47014370472E+03  0.10100000352E+00 0.  1.
       -3    1    3    3    0  502 -0.38616319734E+03  0.19632102629E+03 -0.54575383783E+02  0.43662620519E+03  0.10100000352E+00 0. -1.
</event>
<event>
 5   0  0.3959804E-04  0.8998572E+03  0.7818609E-02  0.9425760E-01
        2   -1    0    0  501    0  0.00000000000E+00  0.00000000000E+00  0.17333241362E+04  0.17333241362E+04  0.25500000920E-02 0. -1.
       -2   -1    0    0    0  501  0.00000000000E+00  0.00000000000E+00 -0.11679047117E+03  0.11679047120E+03  0.25500000920E-02 0.  1.
    10030    2    1    2    0    0  0.00000000000E+00  0.00000000000E+00  0.16165336650E+04  0.18501146074E+04  0.89985719441E+03 0.  0.
        5    1    3    3  502    0 -0.32318857808E+03 -0.28809313208E+03  0.10597827482E+04  0.11448187949E+04  0.46999998093E+01 0. -1.
       -5    1    3    3    0  502  0.32318857808E+03  0.28809313208E+03  0.55675091682E+03  0.70529581250E+03  0.46999998093E+01 0.  1.
</event>
<event>
 5   0  0.4236284E-04  0.9000699E+03  0.7818609E-02  0.9425494E-01
       -2   -1    0    0    0  501  0.00000000000E+00  0.00000000000E+00  0.11955045438E+03  0.11955045441E+03  0.25500000920E-02 0.  1.
        2   -1    0    0  501    0  0.00000000000E+00  0.00000000000E+00 -0.16941087658E+04  0.16941087658E+04  0.25500000920E-02 0. -1.
    10030    2    1    2    0    0  0.00000000000E+00  0.00000000000E+00 -0.15745583114E+04  0.18136592202E+04  0.90006993673E+03 0.  0.
        2    1    3    3  502    0  0.27897421159E+03  0.58851787561E+02 -0.85654606217E+02  0.29770262882E+03  0.25500000920E-02 0.  1.
       -2    1    3    3    0  502 -0.27897421159E+03 -0.58851787561E+02 -0.14889037052E+04  0.15159565914E+04  0.25500000920E-02 0. -1.
</event>
<event>
 5   0  0.3959804E-04  0.9001734E+03  0.7818609E-02  0.9425365E-01
        2   -1    0    0  501    0  0.00000000000E+00  0.00000000000E+00  0.11528656301E+04  0.11528656301E+04  0.25500000920E-02 0.  1.
       -2   -1    0    0    0  501  0.00000000000E+00  0.00000000000E+00 -0.17571696027E+03  0.17571696028E+03  0.25500000920E-02 0. -1.
    10030    2    1    2    0    0  0.00000000000E+00  0.00000000000E+00  0.97714866983E+03  0.13285825904E+04  0.90017341469E+03 0.  0.
        5    1    3    3  502    0  0.21097783387E+03  0.26930929357E+03  0.92018098364E+03  0.98173024535E+03  0.46999998093E+01 0.  1.
       -5    1    3    3    0  502 -0.21097783387E+03 -0.26930929357E+03  0.56967686190E+02  0.34685234503E+03  0.46999998093E+01 0. -1.
</event>
<event>
 5   0  0.4236284E-04  0.8995636E+03  0.7818609E-02  0.9426127E-01
        2   -1    0    0  501    0  0.00000000000E+00  0.00000000000E+00  0.29733787565E+03  0.29733787566E+03  0.25500000920E-02 0. -1.
       -2   -1    0    0    0  501  0.00000000000E+00  0.00000000000E+00 -0.68038315170E+03  0.68038315171E+03  0.25500000920E-02 0.  1.
    10030    2    1    2    0    0  0.00000000000E+00  0.00000000000E+00 -0.38304527605E+03  0.97772102737E+03  0.89956362969E+03 0.  0.
        2    1    3    3  502    0 -0.11401926968E+03 -0.43508344186E+03 -0.19411428506E+03  0.48987585255E+03  0.25500000920E-02 0.  1.
       -2    1    3    3    0  502  0.11401926968E+03  0.43508344186E+03 -0.18893099099E+03  0.48784517482E+03  0.25500000920E-02 0. -1.
</event>
<event>
 5   0  0.4033144E-04  0.8984489E+03  0.7818609E-02  0.9427522E-01
        2   -1    0    0  501    0  0.00000000000E+00  0.00000000000E+00  0.44421303975E+03  0.44421303976E+03  0.25500000920E-02 0. -1.
       -2   -1    0    0    0  501  0.00000000000E+00  0.00000000000E+00 -0.45429238294E+03  0.45429238295E+03  0.25500000920E-02 0.  1.
    10030    2    1    2    0    0  0.00000000000E+00  0.00000000000E+00 -0.10079343192E+02  0.89850542271E+03  0.89844888640E+03 0.  0.
        4    1    3    3  502    0 -0.75904117284E+02  0.42160692519E+03 -0.14027818182E+03  0.45076980332E+03  0.12699999809E+01 0.  1.
       -4    1    3    3    0  502  0.75904117284E+02 -0.42160692519E+03  0.13019883862E+03  0.44773561939E+03  0.12699999809E+01 0. -1.
</event>
<event>
 5   0  0.4243516E-04  0.9005798E+03  0.7818609E-02  0.9424857E-01
        2   -1    0    0  501    0  0.00000000000E+00  0.00000000000E+00  0.22664828013E+04  0.22664828013E+04  0.25500000920E-02 0.  1.
       -2   -1    0    0    0  501  0.00000000000E+00  0.00000000000E+00 -0.89460642983E+02  0.89460643020E+02  0.25500000920E-02 0. -1.
    10030    2    1    2    0    0  0.00000000000E+00  0.00000000000E+00  0.21770221583E+04  0.23559434443E+04  0.90057983268E+03 0.  0.
        1    1    3    3  502    0 -0.13906222733E+03 -0.19490282168E+01 -0.31867234747E+02  0.14268014037E+03  0.50400001928E-02 0. -1.
       -1    1    3    3    0  502  0.13906222733E+03  0.19490282168E+01  0.22088893930E+04  0.22132633039E+04  0.50400001928E-02 0.  1.
</event>
<event>
 5   0  0.2308362E-04  0.8999772E+03  0.7818609E-02  0.9425610E-01
       -1   -1    0    0    0  501  0.00000000000E+00  0.00000000000E+00  0.20318399298E+03  0.20318399305E+03  0.50400001928E-02 0. -1.
        1   -1    0    0  501    0  0.00000000000E+00  0.00000000000E+00 -0.99658302188E+03  0.99658302189E+03  0.50400001928E-02 0.  1.
    10030    2    1    2    0    0  0.00000000000E+00  0.00000000000E+00 -0.79339902889E+03  0.11997670149E+04  0.89997715031E+03 0.  0.
        1    1    3    3  502    0  0.41287365541E+02  0.60944238957E+02  0.19510279077E+03  0.20852804561E+03  0.50400001928E-02 0. -1.
       -1    1    3    3    0  502 -0.41287365541E+02 -0.60944238957E+02 -0.98850181966E+03  0.99123896932E+03  0.50400001928E-02 0.  1.
</event>
<event>
 5   0  0.2356918E-04  0.8999730E+03  0.7818609E-02  0.9425615E-01
       -1   -1    0    0    0  501  0.00000000000E+00  0.00000000000E+00  0.18617705730E+03  0.18617705737E+03  0.50400001928E-02 0.  1.
        1   -1    0    0  501    0  0.00000000000E+00  0.00000000000E+00 -0.10876090645E+04  0.10876090645E+04  0.50400001928E-02 0. -1.
    10030    2    1    2    0    0  0.00000000000E+00  0.00000000000E+00 -0.90143200716E+03  0.12737861218E+04  0.89997301107E+03 0.  0.
        5    1    3    3  502    0  0.77860779063E+02 -0.11577708680E+02  0.17632125536E+03  0.19315180389E+03  0.46999998093E+01 0.  1.
       -5    1    3    3    0  502 -0.77860779063E+02  0.11577708680E+02 -0.10777532625E+04  0.10806343179E+04  0.46999998093E+01 0. -1.
</event>
<event>
 5   0  0.2332791E-04  0.9003992E+03  0.7818609E-02  0.9425082E-01
       -1   -1    0    0    0  501  0.00000000000E+00  0.00000000000E+00  0.42656122542E+03  0.42656122545E+03  0.50400001928E-02 0. -1.
        1   -1    0    0  501    0  0.00000000000E+00  0.00000000000E+00 -0.47514796881E+03  0.47514796883E+03  0.50400001928E-02 0.  1.
    10030    2    1    2    0    0  0.00000000000E+00  0.00000000000E+00 -0.48586743385E+02  0.90170919429E+03  0.90039924446E+03 0.  0.
        2    1    3    3  502    0  0.19443261009E+02 -0.42354999901E+03  0.12727759896E+03  0.44268750746E+03  0.25500000920E-02 0. -1.
       -2    1    3    3    0  502 -0.19443261009E+02  0.42354999901E+03 -0.17586434234E+03  0.45902168682E+03  0.25500000920E-02 0.  1.
</event>
<event>
 5   0  0.2356918E-04  0.9002577E+03  0.7818609E-02  0.9425259E-01
       -1   -1    0    0    0  501  0.00000000000E+00  0.00000000000E+00  0.60723917619E+03  0.60723917621E+03  0.50400001928E-02 0.  1.
        1   -1    0    0  501    0  0.00000000000E+00  0.00000000000E+00 -0.33366747600E+03  0.33366747603E+03  0.50400001928E-02 0. -1.
    10030    2    1    2    0    0  0.00000000000E+00  0.00000000000E+00  0.27357170020E+03  0.94090665225E+03  0.90025765928E+03 0.  0.
        5    1    3    3  502    0  0.10485340323E+03 -0.11356995640E+03  0.57860426740E+03  0.59891348241E+03  0.46999998093E+01 0.  1.
       -5    1    3    3    0  502 -0.10485340323E+03  0.11356995640E+03 -0.30503256720E+03  0.34199316984E+03  0.46999998093E+01 0. -1.
</event>
<event>
 5   0  0.4110039E-04  0.8969422E+03  0.7818609E-02  0.9429412E-01
        2   -1    0    0  501    0  0.00000000000E+00  0.00000000000E+00  0.21618166938E+04  0.21618166938E+04  0.25500000920E-02 0. -1.
       -2   -1    0    0    0  501  0.00000000000E+00  0.00000000000E+00 -0.93035795047E+02  0.93035795082E+02  0.25500000920E-02 0.  1.
    10030    2    1    2    0    0  0.00000000000E+00  0.00000000000E+00  0.20687808988E+04  0.22548524889E+04  0.89694221642E+03 0.  0.
        3    1    3    3  502    0  0.26725422536E+00  0.44370358482E+03  0.11983440163E+04  0.12778502785E+04  0.10100000352E+00 0. -1.
       -3    1    3    3    0  502 -0.26725422536E+00 -0.44370358482E+03  0.87043688244E+03  0.97700221040E+03  0.10100000352E+00 0.  1.
</event>
<event>
 5   0  0.4033144E-04  0.9000297E+03  0.7818609E-02  0.9425544E-01
       -2   -1    0    0    0  501  0.00000000000E+00  0.00000000000E+00  0.19833282528E+03  0.19833282530E+03  0.25500000920E-02 0.  1.
        2   -1    0    0  501    0  0.00000000000E+00  0.00000000000E+00 -0.10210783797E+04  0.10210783797E+04  0.25500000920E-02 0. -1.
    10030    2    1    2    0    0  0.00000000000E+00  0.00000000000E+00 -0.82274555443E+03  0.12194112050E+04  0.90002968816E+03 0.  0.
        4    1    3    3  502    0 -0.44841027114E+03 -0.23157764318E+02 -0.37064375653E+03  0.58222543784E+03  0.12699999809E+01 0.  1.
       -4    1    3    3    0  502  0.44841027114E+03  0.23157764318E+02 -0.45210179790E+03  0.63718576717E+03  0.12699999809E+01 0. -1.
</event>
<event>
 5   0  0.2351435E-04  0.8997008E+03  0.7818609E-02  0.9425956E-01
       -1   -1    0    0    0  501  0.00000000000E+00  0.00000000000E+00  0.42970420556E+03  0.42970420559E+03  0.50400001928E-02 0.  1.
        1   -1    0    0  501    0  0.00000000000E+00  0.00000000000E+00 -0.47094112789E+03  0.47094112792E+03  0.50400001928E-02 0. -1.
    10030    2    1    2    0    0  0.00000000000E+00  0.00000000000E+00 -0.41236922325E+02  0.90064533351E+03  0.89970080194E+03 0.  0.
        4    1    3    3  502    0 -0.20791117653E+03  0.47173195069E+02 -0.41715475933E+03  0.46847846673E+03  0.12699999809E+01 0. -1.
       -4    1    3    3    0  502  0.20791117653E+03 -0.47173195069E+02  0.37591783701E+03  0.43216686678E+03  0.12699999809E+01 0.  1.
</event>
<event>
 5   0  0.2332791E-04  0.8988267E+03  0.7818609E-02  0.9427049E-01
       -1   -1    0    0    0  501  0.00000000000E+00  0.00000000000E+00  0.24816161932E+03  0.24816161937E+03  0.50400001928E-02 0.  1.
        1   -1    0    0  501    0  0.00000000000E+00  0.00000000000E+00 -0.81387422981E+03  0.81387422983E+03  0.50400001928E-02 0. -1.
    10030    2    1    2    0    0  0.00000000000E+00  0.00000000000E+00 -0.56571261049E+03  0.10620358492E+04  0.89882667256E+03 0.  0.
        2    1    3    3  502    0  0.13699034822E+03  0.11511223708E+03 -0.76997007659E+03  0.79048788825E+03  0.25500000920E-02 0. -1.
       -2    1    3    3    0  502 -0.13699034822E+03 -0.11511223708E+03  0.20425746609E+03  0.27154796094E+03  0.25500000920E-02 0.  1.
</event>
<event>
 5   0  0.2332791E-04  0.8999451E+03  0.7818609E-02  0.9425650E-01
        1   -1    0    0  501    0  0.00000000000E+00  0.00000000000E+00  0.70764364554E+03  0.70764364556E+03  0.50400001928E-02 0. -1.
       -1   -1    0    0    0  501  0.00000000000E+00  0.00000000000E+00 -0.28612604703E+03  0.28612604707E+03  0.50400001928E-02 0.  1.
    10030    2    1    2    0    0  0.00000000000E+00  0.00000000000E+00  0.42151759852E+03  0.99376969263E+03  0.89994506284E+03 0.  0.
        2    1    3    3  502    0  0.22346996971E+03  0.99622381114E+01  0.64189574256E+03  0.67975599877E+03  0.25500000920E-02 0. -1.
       -2    1    3    3    0  502 -0.22346996971E+03 -0.99622381114E+01 -0.22037814404E+03  0.31401369386E+03  0.25500000920E-02 0.  1.
</event>
<event>
 5   0  0.4236284E-04  0.8999725E+03  0.7818609E-02  0.9425616E-01
       -2   -1    0    0    0  501  0.00000000000E+00  0.00000000000E+00  0.81395564607E+03  0.81395564608E+03  0.25500000920E-02 0.  1.
        2   -1    0    0  501    0  0.00000000000E+00  0.00000000000E+00 -0.24876983499E+03  0.24876983500E+03  0.25500000920E-02 0. -1.
    10030    2    1    2    0    0  0.00000000000E+00  0.00000000000E+00  0.56518581109E+03  0.10627254811E+04  0.89997247018E+03 0.  0.
        2    1    3    3  502    0  0.69453953508E+01 -0.25116590711E+03  0.72340473539E+03  0.76579825190E+03  0.25500000920E-02 0.  1.
       -2    1    3    3    0  502 -0.69453953508E+01  0.25116590711E+03 -0.15821892431E+03  0.29692722918E+03  0.25500000920E-02 0. -1.
</event>
<event>
 5   0  0.2308362E-04  0.8996906E+03  0.7818609E-02  0.9425968E-01
        1   -1    0    0  501    0  0.00000000000E+00  0.00000000000E+00  0.12187685701E+04  0.12187685702E+04  0.50400001928E-02 0. -1.
       -1   -1    0    0    0  501  0.00000000000E+00  0.00000000000E+00 -0.16603710787E+03  0.16603710794E+03  0.50400001928E-02 0.  1.
    10030    2    1    2    0    0  0.00000000000E+00  0.00000000000E+00  0.10527314623E+04  0.13848056781E+04  0.89969063262E+03 0.  0.
        1    1    3    3  502    0 -0.35120177170E+03 -0.99611811347E+02  0.93096106351E+03  0.99997684934E+03  0.50400001928E-02 0. -1.
       -1    1    3    3    0  502  0.35120177170E+03  0.99611811347E+02  0.12177039876E+03  0.38482882876E+03  0.50400001928E-02 0.  1.
</event>
<event>
 5   0  0.2332791E-04  0.8998483E+03  0.7818609E-02  0.9425771E-01
       -1   -1    0    0    0  501  0.00000000000E+00  0.00000000000E+00  0.26483702483E+03  0.26483702488E+03  0.50400001928E-02 0.  1.
        1   -1    0    0  501    0  0.00000000000E+00  0.00000000000E+00 -0.76436344344E+03  0.76436344346E+03  0.50400001928E-02 0. -1.
    10030    2    1    2    0    0  0.00000000000E+00  0.00000000000E+00 -0.49952641861E+03  0.10292004683E+04  0.89984829896E+03 0.  0.
        2    1    3    3  502    0  0.13903813333E+03 -0.35048876852E+03 -0.53052446109E+03  0.65086879108E+03  0.25500000920E-02 0. -1.
       -2    1    3    3    0  502 -0.13903813333E+03  0.35048876852E+03  0.30998042481E+02  0.37833167726E+03  0.25500000920E-02 0.  1.
</event>
<event>
 5   0  0.2450427E-04  0.8991126E+03  0.7818609E-02  0.9426691E-01
        1   -1    0    0  501    0  0.00000000000E+00  0.00000000000E+00  0.68364146738E+03  0.68364146740E+03  0.50400001928E-02 0.  1.
       -1   -1    0    0    0  501  0.00000000000E+00  0.00000000000E+00 -0.29562405049E+03  0.29562405053E+03  0.50400001928E-02 0. -1.
    10030    2    1    2    0    0  0.00000000000E+00  0.00000000000E+00  0.38801741690E+03  0.97926551793E+03  0.89911258404E+03 0.  0.
        3    1    3    3  502    0 -0.17880938543E+02  0.36897436073E+03  0.47304937799E+03  0.60019790991E+03  0.10100000352E+00 0.  1.
       -3    1    3    3    0  502  0.17880938543E+02 -0.36897436073E+03 -0.85031961095E+02  0.37906760802E+03  0.10100000352E+00 0. -1.
</event>
<event>
 5   0  0.2351435E-04  0.9000066E+03  0.7818609E-02  0.9425573E-01
       -1   -1    0    0    0  501  0.00000000000E+00  0.00000000000E+00  0.20305803648E+03  0.20305803654E+03  0.50400001928E-02 0. -1.
        1   -1    0    0  501    0  0.00000000000E+00  0.00000000000E+00 -0.99726645603E+03  0.99726645604E+03  0.50400001928E-02 0.  1.
    10030    2    1    2    0    0  0.00000000000E+00  0.00000000000E+00 -0.79420841955E+03  0.12003244926E+04  0.90000659654E+03 0.  0.
        4    1    3    3  502    0 -0.27904560649E+03  0.25557107654E+03 -0.72192770322E+03  0.81508542328E+03  0.12699999809E+01 0. -1.
       -4    1    3    3    0  502  0.27904560649E+03 -0.25557107654E+03 -0.72280716331E+02  0.38523906930E+03  0.12699999809E+01 0.  1.
</event>
<event>
 5   0  0.4033144E-04  0.8999406E+03  0.7818609E-02  0.9425656E-01
        2   -1    0    0  501    0  0.00000000000E+00  0.00000000000E+00  0.90609810525E+03  0.90609810526E+03  0.25500000920E-02 0.  1.
       -2   -1    0    0    0  501  0.00000000000E+00  0.00000000000E+00 -0.22345624028E+03  0.22345624030E+03  0.25500000920E-02 0. -1.
    10030    2    1    2    0    0  0.00000000000E+00  0.00000000000E+00  0.68264186497E+03  0.11295543456E+04  0.89994061123E+03 0.  0.
        4    1    3    3  502    0  0.11132705226E+03 -0.16759380757E+03  0.84649115120E+03  0.87007486968E+03  0.12699999809E+01 0.  1.
       -4    1    3    3    0  502 -0.11132705226E+03  0.16759380757E+03 -0.16384928622E+03  0.25947947587E+03  0.12699999809E+01 0. -1.
</event>
<event>
 5   0  0.4236284E-04  0.9039070E+03  0.7818609E-02  0.9420711E-01
       -2   -1    0    0    0  501  0.00000000000E+00  0.00000000000E+00  0.43922256189E+03  0.43922256189E+03  0.25500000920E-02 0. -1.
        2   -1    0    0  501    0  0.00000000000E+00  0.00000000000E+00 -0.46505344910E+03  0.46505344911E+03  0.25500000920E-02 0.  1.
    10030    2    1    2    0    0  0.00000000000E+00  0.00000000000E+00 -0.25830887218E+02  0.90427601100E+03  0.90390700260E+03 0.  0.
        2    1    3    3  502    0 -0.22089210891E+03  0.39180552261E+03 -0.57172355290E+02  0.45340221608E+03  0.25500000920E-02 0.  1.
       -2    1    3    3    0  502  0.22089210891E+03 -0.39180552261E+03  0.31341468072E+02  0.45087379493E+03  0.25500000920E-02 0. -1.
</event>
<event>
 5   0  0.3959804E-04  0.8993734E+03  0.7818609E-02  0.9426365E-01
       -2   -1    0    0    0  501  0.00000000000E+00  0.00000000000E+00  0.23741771838E+03  0.23741771839E+03  0.25500000920E-02 0.  1.
        2   -1    0    0  501    0  0.00000000000E+00  0.00000000000E+00 -0.85173988244E+03  0.85173988244E+03  0.25500000920E-02 0. -1.
    10030    2    1    2    0    0  0.00000000000E+00  0.00000000000E+00 -0.61432216406E+03  0.10891576008E+04  0.89937342534E+03 0.  0.
        5    1    3    3  502    0 -0.24687129222E+03 -0.24892399985E+03 -0.64815993642E+03  0.73691382522E+03  0.46999998093E+01 0. -1.
       -5    1    3    3    0  502  0.24687129222E+03  0.24892399985E+03  0.33837772357E+02  0.35224377562E+03  0.46999998093E+01 0.  1.
</event>
<event>
 5   0  0.4110039E-04  0.8984866E+03  0.7818609E-02  0.9427475E-01
        2   -1    0    0  501    0  0.00000000000E+00  0.00000000000E+00  0.14299849708E+04  0.14299849708E+04  0.25500000920E-02 0. -1.
       -2   -1    0    0    0  501  0.00000000000E+00  0.00000000000E+00 -0.14113403321E+03  0.14113403323E+03  0.25500000920E-02 0.  1.
    10030    2    1    2    0    0  0.00000000000E+00  0.00000000000E+00  0.12888509376E+04  0.15711190040E+04  0.89848660841E+03 0.  0.
        3    1    3    3  502    0  0.90501906934E+02 -0.36379242129E+03  0.21154192206E+03  0.43044804092E+03  0.10100000352E+00 0.  1.
       -3    1    3    3    0  502 -0.90501906934E+02  0.36379242129E+03  0.10773090155E+04  0.11406709631E+04  0.10100000352E+00 0. -1.
</event>
<event>
 5   0  0.4243516E-04  0.8989211E+03  0.7818609E-02  0.9426931E-01
       -2   -1    0    0    0  501  0.00000000000E+00  0.00000000000E+00  0.17237247318E+03  0.17237247319E+03  0.25500000920E-02 0.  1.
        2   -1    0    0  501    0  0.00000000000E+00  0.00000000000E+00 -0.11719666359E+04  0.11719666359E+04  0.25500000920E-02 0. -1.
    10030    2    1    2    0    0  0.00000000000E+00  0.00000000000E+00 -0.99959416276E+03  0.13443391091E+04  0.89892110339E+03 0.  0.
        1    1    3    3  502    0 -0.36701786573E+03  0.24071044238E+02 -0.11346709131E+03  0.38491078157E+03  0.50400001928E-02 0.  1.
       -1    1    3    3    0  502  0.36701786573E+03 -0.24071044238E+02 -0.88612707146E+03  0.95942832756E+03  0.50400001928E-02 0. -1.
</event>
<event>
 5   0  0.2450427E-04  0.9003178E+03  0.7818609E-02  0.9425184E-01
       -1   -1    0    0    0  501  0.00000000000E+00  0.00000000000E+00  0.54181912598E+03  0.54181912600E+03  0.50400001928E-02 0. -1.
        1   -1    0    0  501    0  0.00000000000E+00  0.00000000000E+00 -0.37400493487E+03  0.37400493491E+03  0.50400001928E-02 0.  1.
    10030    2    1    2    0    0  0.00000000000E+00  0.00000000000E+00  0.16781419111E+03  0.91582406091E+03  0.90031778157E+03 0.  0.
        3    1    3    3  502    0  0.24143187603E+03  0.91683399821E+02  0.45896847434E+03  0.52663770014E+03  0.10100000352E+00 0. -1.
       -3    1    3    3    0  502 -0.24143187603E+03 -0.91683399821E+02 -0.29115428323E+03  0.38918636077E+03  0.10100000352E+00 0.  1.
</event>
<event>
 5   0  0.2450427E-04  0.8996928E+03  0.7818609E-02  0.9425965E-01
       -1   -1    0    0    0  501  0.00000000000E+00  0.00000000000E+00  0.77187829613E+03  0.77187829614E+03  0.50400001928E-02 0.  1.
        1   -1    0    0  501    0  0.00000000000E+00  0.00000000000E+00 -0.26216802120E+03  0.26216802125E+03  0.50400001928E-02 0. -1.
    10030    2    1    2    0    0  0.00000000000E+00  0.00000000000E+00  0.50971027493E+03  0.10340463174E+04  0.89969284878E+03 0.  0.
        3    1    3    3  502    0 -0.79678598806E+02  0.45369522249E+02 -0.25131428172E+03  0.26751813220E+03  0.10100000352E+00 0. -1.
       -3    1    3    3    0  502  0.79678598806E+02 -0.45369522249E+02  0.76102455665E+03  0.76652818519E+03  0.10100000352E+00 0.  1.
</event>
<event>
 5   0  0.3959804E-04  0.8994895E+03  0.7818609E-02  0.9426220E-01
        2   -1    0    0  501    0  0.00000000000E+00  0.00000000000E+00  0.11570874199E+04  0.11570874199E+04  0.25500000920E-02 0. -1.
       -2   -1    0    0    0  501  0.00000000000E+00  0.00000000000E+00 -0.17480989493E+03  0.17480989495E+03  0.25500000920E-02 0.  1.
    10030    2    1    2    0    0  0.00000000000E+00  0.00000000000E+00  0.98227752497E+03  0.13318973148E+04  0.89948947811E+03 0.  0.
        5    1    3    3  502    0  0.58431715104E+02 -0.24867873866E+03  0.10391931035E+04  0.10701400734E+04  0.46999998093E+01 0. -1.
       -5    1    3    3    0  502 -0.58431715104E+02  0.24867873866E+03 -0.56915578478E+02  0.26175724147E+03  0.46999998093E+01 0.  1.
</event>
<event>
 5   0  0.2351435E-04  0.9004683E+03  0.7818609E-02  0.9424996E-01
       -1   -1    0    0    0  501  0.00000000000E+00  0.00000000000E+00  0.29459545970E+03  0.29459545974E+03  0.50400001928E-02 0. -1.
        1   -1    0    0  501    0  0.00000000000E+00  0.00000000000E+00 -0.68809876264E+03  0.68809876266E+03  0.50400001928E-02 0.  1.
    10030    2    1    2    0    0  0.00000000000E+00  0.00000000000E+00 -0.39350330294E+03  0.98269422240E+03  0.90046825891E+03 0.  0.
        4    1    3    3  502    0 -0.19488234193E+03  0.22458317076E+03 -0.56569418726E+03  0.63908391795E+03  0.12699999809E+01 0.  1.
       -4    1    3    3    0  502  0.19488234193E+03 -0.22458317076E+03  0.17219088432E+03  0.34361030445E+03  0.12699999809E+01 0. -1.
</event>
<event>
 5   0  0.4243516E-04  0.9000849E+03  0.7818609E-02  0.9425475E-01
        2   -1    0    0  501    0  0.00000000000E+00  0.00000000000E+00  0.23486237029E+04  0.23486237029E+04  0.25500000920E-02 0.  1.
       -2   -1    0    0    0  501  0.00000000000E+00  0.00000000000E+00 -0.86236968678E+02  0.86236968716E+02  0.25500000920E-02 0. -1.
    10030    2    1    2    0    0  0.00000000000E+00  0.00000000000E+00  0.22623867342E+04  0.24348606716E+04  0.90008485989E+03 0.  0.
        1    1    3    3  502    0  0.45809019443E+02  0.22712057328E+03  0.21748888010E+04  0.21871953543E+04  0.50400001928E-02 0.  1.
       -1    1    3    3    0  502 -0.45809019443E+02 -0.22712057328E+03  0.87497933237E+02  0.24766531735E+03  0.50400001928E-02 0. -1.
</event>
<event>
 5   0  0.4110039E-04  0.9001957E+03  0.7818609E-02  0.9425337E-01
       -2   -1    0    0    0  501  0.00000000000E+00  0.00000000000E+00  0.21928477312E+03  0.21928477313E+03  0.25500000920E-02 0.  1.
        2   -1    0    0  501    0  0.00000000000E+00  0.00000000000E+00 -0.92385829690E+03  0.92385829690E+03  0.25500000920E-02 0. -1.
    10030    2    1    2    0    0  0.00000000000E+00  0.00000000000E+00 -0.70457352378E+03  0.11431430700E+04  0.90019566104E+03 0.  0.
        3    1    3    3  502    0  0.33998192127E+03 -0.20034267186E+03 -0.62718973017E+03  0.74100732843E+03  0.10100000352E+00 0. -1.
       -3    1    3    3    0  502 -0.33998192127E+03  0.20034267186E+03 -0.77383793607E+02  0.40213574160E+03  0.10100000352E+00 0.  1.
</event>
<event>
 5   0  0.1596250E-04  0.9004885E+03  0.7818609E-02  0.9424971E-01
       -3   -1    0    0    0  501  0.00000000000E+00  0.00000000000E+00  0.23285194308E+03  0.23285196499E+03  0.10100000352E+00 0.  1.
        3   -1    0    0  501    0  0.00000000000E+00  0.00000000000E+00 -0.87059563495E+03  0.87059564080E+03  0.10100000352E+00 0. -1.
    10030    2    1    2    0    0  0.00000000000E+00  0.00000000000E+00 -0.63774369187E+03  0.11034476058E+04  0.90048853530E+03 0.  0.
        3    1    3    3  502    0  0.73680731476E+01 -0.44161185810E+03 -0.21173224584E+03  0.48980187407E+03  0.10100000352E+00 0.  1.
       -3    1    3    3    0  502 -0.73680731476E+01  0.44161185810E+03 -0.42601144602E+03  0.61364573172E+03  0.10100000352E+00 0. -1.
</event>
<event>
 5   0  0.2308362E-04  0.9000721E+03  0.7818609E-02  0.9425491E-01
        1   -1    0    0  501    0  0.00000000000E+00  0.00000000000E+00  0.55511972959E+03  0.55511972961E+03  0.50400001928E-02 0. -1.
       -1   -1    0    0    0  501  0.00000000000E+00  0.00000000000E+00 -0.36484461922E+03  0.36484461926E+03  0.50400001928E-02 0.  1.
    10030    2    1    2    0    0  0.00000000000E+00  0.00000000000E+00  0.19027511037E+03  0.91996434887E+03  0.90007210020E+03 0.  0.
        1    1    3    3  502    0  0.13332352881E+03  0.12740924288E+03  0.51472723065E+03  0.54676539805E+03  0.50400001928E-02 0. -1.
       -1    1    3    3    0  502 -0.13332352881E+03 -0.12740924288E+03 -0.32445212029E+03  0.37319895081E+03  0.50400001928E-02 0.  1.
</event>
<event>
 5   0  0.4110039E-04  0.8999623E+03  0.7818609E-02  0.9425629E-01
       -2   -1    0    0    0  501  0.00000000000E+00  0.00000000000E+00  0.11336364907E+03  0.11336364910E+03  0.25500000920E-02 0.  1.
        2   -1    0    0  501    0  0.00000000000E+00  0.00000000000E+00 -0.17861372517E+04  0.17861372517E+04  0.25500000920E-02 0. -1.
    10030    2    1    2    0    0  0.00000000000E+00  0.00000000000E+00 -0.16727736026E+04  0.18995009008E+04  0.89996230282E+03 0.  0.
        3    1    3    3  502    0 -0.21417545849E+03 -0.32949266808E+03 -0.37374381959E+03  0.54232923415E+03  0.10100000352E+00 0.  1.
       -3    1    3    3    0  502  0.21417545849E+03  0.32949266808E+03 -0.12990297830E+04  0.13571716666E+04  0.10100000352E+00 0. -1.
</event>
<event>
 5   0  0.4243516E-04  0.9006416E+03  0.7818609E-02  0.9424780E-01
       -2   -1    0    0    0  501  0.00000000000E+00  0.00000000000E+00  0.95788776943E+02  0.95788776977E+02  0.25500000920E-02 0. -1.
        2   -1    0    0  501    0  0.00000000000E+00  0.00000000000E+00 -0.21170414344E+04  0.21170414344E+04  0.25500000920E-02 0.  1.
    10030    2    1    2    0    0  0.00000000000E+00  0.00000000000E+00 -0.20212526574E+04  0.22128302113E+04  0.90064157082E+03 0.  0.
        1    1    3    3  502    0  0.36954162894E+02 -0.18626009726E+03 -0.73894973163E+01  0.19003430922E+03  0.50400001928E-02 0. -1.
       -1    1    3    3    0  502 -0.36954162894E+02  0.18626009726E+03 -0.20138631601E+04  0.20227959021E+04  0.50400001928E-02 0.  1.
</event>
<event>
 5   0  0.2332791E-04  0.9002172E+03  0.7818609E-02  0.9425310E-01
        1   -1    0    0  501    0  0.00000000000E+00  0.00000000000E+00  0.45965207065E+03  0.45965207068E+03  0.50400001928E-02 0.  1.
       -1   -1    0    0    0  501  0.00000000000E+00  0.00000000000E+00 -0.44076327825E+03  0.44076327828E+03  0.50400001928E-02 0. -1.
    10030    2    1    2    0    0  0.00000000000E+00  0.00000000000E+00  0.18888792397E+02  0.90041534896E+03  0.90021720388E+03 0.  0.
        2    1    3    3  502    0  0.36532486123E+03  0.12063301225E+03 -0.22423745311E+03  0.44530552799E+03  0.25500000920E-02 0. -1.
       -2    1    3    3    0  502 -0.36532486123E+03 -0.12063301225E+03  0.24312624551E+03  0.45510982096E+03  0.25500000920E-02 0.  1.
</event>
<event>
 5   0  0.4033144E-04  0.8998646E+03  0.7818609E-02  0.9425751E-01
       -2   -1    0    0    0  501  0.00000000000E+00  0.00000000000E+00  0.10865320999E+04  0.10865320999E+04  0.25500000920E-02 0.  1.
        2   -1    0    0  501    0  0.00000000000E+00  0.00000000000E+00 -0.18631670433E+03  0.18631670435E+03  0.25500000920E-02 0. -1.
    10030    2    1    2    0    0  0.00000000000E+00  0.00000000000E+00  0.90021539554E+03  0.12728488042E+04  0.89986461206E+03 0.  0.
        4    1    3    3  502    0  0.17363593757E+03 -0.23142579231E+03 -0.37286235544E+02  0.29171769303E+03  0.12699999809E+01 0. -1.
       -4    1    3    3    0  502 -0.17363593757E+03  0.23142579231E+03  0.93750163108E+03  0.98113111119E+03  0.12699999809E+01 0.  1.
</event>
<event>
 5   0  0.4236284E-04  0.9000072E+03  0.7818609E-02  0.9425572E-01
       -2   -1    0    0    0  501  0.00000000000E+00  0.00000000000E+00  0.14754263966E+03  0.14754263968E+03  0.25500000920E-02 0.  1.
        2   -1    0    0  501    0  0.00000000000E+00  0.00000000000E+00 -0.13725064640E+04  0.13725064640E+04  0.25500000920E-02 0. -1.
    10030    2    1    2    0    0  0.00000000000E+00  0.00000000000E+00 -0.12249638244E+04  0.15200491037E+04  0.90000717035E+03 0.  0.
        2    1    3    3  502    0  0.25168219473E+03  0.27589088250E+03 -0.18841745216E+03  0.41828320846E+03  0.25500000920E-02 0.  1.
       -2    1    3    3    0  502 -0.25168219473E+03 -0.27589088250E+03 -0.10365463722E+04  0.11017658953E+04  0.25500000920E-02 0. -1.
</event>
<event>
 5   0  0.2450427E-04  0.8998694E+03  0.7818609E-02  0.9425745E-01
       -1   -1    0    0    0  501  0.00000000000E+00  0.00000000000E+00  0.79772626897E+02  0.79772627056E+02  0.50400001928E-02 0.  1.
        1   -1    0    0  501    0  0.00000000000E+00  0.00000000000E+00 -0.25377278443E+04  0.25377278443E+04  0.50400001928E-02 0. -1.
    10030    2    1    2    0    0  0.00000000000E+00  0.00000000000E+00 -0.24579552174E+04  0.26175004713E+04  0.89986936097E+03 0.  0.
        3    1    3    3  502    0  0.24904426745E+03  0.37110536979E+03 -0.10778632132E+04  0.11668467591E+04  0.10100000352E+00 0.  1.
       -3    1    3    3    0  502 -0.24904426745E+03 -0.37110536979E+03 -0.13800920042E+04  0.14506537122E+04  0.10100000352E+00 0. -1.
</event>
<event>
 5   0  0.2351435E-04  0.8999232E+03  0.7818609E-02  0.9425677E-01
        1   -1    0    0  501    0  0.00000000000E+00  0.00000000000E+00  0.48157391494E+03  0.48157391497E+03  0.50400001928E-02 0.  1.
       -1   -1    0    0    0  501  0.00000000000E+00  0.00000000000E+00 -0.42042443380E+03  0.42042443383E+03  0.50400001928E-02 0. -1.
    10030    2    1    2    0    0  0.00000000000E+00  0.00000000000E+00  0.61149481137E+02  0.90199834880E+03  0.89992319794E+03 0.  0.
        4    1    3    3  502    0 -0.13491097841E+03 -0.50666443568E+02 -0.39666604045E+03  0.42203509468E+03  0.12699999809E+01 0. -1.
       -4    1    3    3    0  502  0.13491097841E+03  0.50666443568E+02  0.45781552158E+03  0.47996325412E+03  0.12699999809E+01 0.  1.
</event>
<event>
 5   0  0.2356918E-04  0.8995125E+03  0.7818609E-02  0.9426191E-01
        1   -1    0    0  501    0  0.00000000000E+00  0.00000000000E+00  0.42575781870E+03  0.42575781873E+03  0.50400001928E-02 0.  1.
       -1   -1    0    0    0  501  0.00000000000E+00  0.00000000000E+00 -0.47510742733E+03  0.47510742736E+03  0.50400001928E-02 0. -1.
    10030    2    1    2    0    0  0.00000000000E+00  0.00000000000E+00 -0.49349608637E+02  0.90086524609E+03  0.89951253896E+03 0.  0.
        5    1    3    3  502    0 -0.20318535816E+03 -0.28281861554E+02 -0.42549467482E+03  0.47238962919E+03  0.46999998093E+01 0. -1.
       -5    1    3    3    0  502  0.20318535816E+03  0.28281861554E+02  0.37614506619E+03  0.42847561690E+03  0.46999998093E+01 0.  1.
</event>
<event>
 5   0  0.2351435E-04  0.8993840E+03  0.7818609E-02  0.9426352E-01
       -1   -1    0    0    0  501  0.00000000000E+00  0.00000000000E+00  0.15211280441E+03  0.15211280449E+03  0.50400001928E-02 0.  1.
        1   -1    0    0  501    0  0.00000000000E+00  0.00000000000E+00 -0.13294272472E+04  0.13294272472E+04  0.50400001928E-02 0. -1.
    10030    2    1    2    0    0  0.00000000000E+00  0.00000000000E+00 -0.11773144428E+04  0.14815400517E+04  0.89938402676E+03 0.  0.
        4    1    3    3  502    0  0.24399470770E+03  0.30532560184E+03 -0.95502183291E+03  0.10319038011E+04  0.12699999809E+01 0. -1.
       -4    1    3    3    0  502 -0.24399470770E+03 -0.30532560184E+03 -0.22229260986E+03  0.44963625057E+03  0.12699999809E+01 0.  1.
</event>
<event>
 5   0  0.2308362E-04  0.8998377E+03  0.7818609E-02  0.9425784E-01
       -1   -1    0    0    0  501  0.00000000000E+00  0.00000000000E+00  0.21913450481E+03  0.21913450487E+03  0.50400001928E-02 0. -1.
        1   -1    0    0  501    0  0.00000000000E+00  0.00000000000E+00 -0.92375674218E+03  0.92375674219E+03  0.50400001928E-02 0.  1.
    10030    2    1    2    0    0  0.00000000000E+00  0.00000000000E+00 -0.70462223737E+03  0.11428912471E+04  0.89983771049E+03 0.  0.
        1    1    3    3  502    0 -0.16558723248E+02 -0.42394238642E+03 -0.16210997663E+03  0.45418166285E+03  0.50400001928E-02 0. -1.
       -1    1    3    3    0  502  0.16558723248E+02  0.42394238642E+03 -0.54251226074E+03  0.68870958422E+03  0.50400001928E-02 0.  1.
</event>
<event>
 5   0  0.3959804E-04  0.9006064E+03  0.7818609E-02  0.9424824E-01
       -2   -1    0    0    0  501  0.00000000000E+00  0.00000000000E+00  0.57640243520E+03  0.57640243520E+03  0.25500000920E-02 0. -1.
        2   -1    0    0  501    0  0.00000000000E+00  0.00000000000E+00 -0.35179060989E+03  0.35179060990E+03  0.25500000920E-02 0.  1.
    10030    2    1    2    0    0  0.00000000000E+00  0.00000000000E+00  0.22461182531E+03  0.92819304510E+03  0.90060638289E+03 0.  0.
        5    1    3    3  502    0 -0.19345119135E+03 -0.23955758125E+03  0.45091128509E+03  0.54603504942E+03  0.46999998093E+01 0. -1.
       -5    1    3    3    0  502  0.19345119135E+03  0.23955758125E+03 -0.22629945978E+03  0.38215799569E+03  0.46999998093E+01 0.  1.
</event>
<event>
 5   0  0.2351435E-04  0.9001505E+03  0.7818609E-02  0.9425393E-01
       -1   -1    0    0    0  501  0.00000000000E+00  0.00000000000E+00  0.32026799712E+03  0.32026799716E+03  0.50400001928E-02 0.  1.
        1   -1    0    0  501    0  0.00000000000E+00  0.00000000000E+00 -0.63249441763E+03  0.63249441765E+03  0.50400001928E-02 0. -1.
    10030    2    1    2    0    0  0.00000000000E+00  0.00000000000E+00 -0.31222642050E+03  0.95276241481E+03  0.90015047709E+03 0.  0.
        4    1    3    3  502    0 -0.27847869298E+03 -0.17768091988E+03 -0.47966815098E+03  0.58241225923E+03  0.12699999809E+01 0. -1.
       -4    1    3    3    0  502  0.27847869298E+03  0.17768091988E+03  0.16744173048E+03  0.37035015558E+03  0.12699999809E+01 0.  1.
</event>
<event>
 5   0  0.1596250E-04  0.8998752E+03  0.7818609E-02  0.9425737E-01
       -4   -1    0    0    0  501  0.00000000000E+00  0.00000000000E+00  0.74142992797E+03  0.74143101567E+03  0.12699999809E+01 0.  1.
        4   -1    0    0  501    0  0.00000000000E+00  0.00000000000E+00 -0.27304239657E+03  0.27304535012E+03  0.12699999809E+01 0. -1.
    10030    2    1    2    0    0  0.00000000000E+00  0.00000000000E+00  0.46838753141E+03  0.10144763658E+04  0.89987522311E+03 0.  0.
        4    1    3    3  502    0 -0.19020615101E+03  0.10963877943E+03 -0.20856039617E+03  0.30281693082E+03  0.12699999809E+01 0. -1.
       -4    1    3    3    0  502  0.19020615101E+03 -0.10963877943E+03  0.67694792757E+03  0.71165943497E+03  0.12699999809E+01 0.  1.
</event>
<event>
 5   0  0.4110039E-04  0.9000929E+03  0.7818609E-02  0.9425465E-01
        2   -1    0    0  501    0  0.00000000000E+00  0.00000000000E+00  0.89405112121E+03  0.89405112121E+03  0.25500000920E-02 0.  1.
       -2   -1    0    0    0  501  0.00000000000E+00  0.00000000000E+00 -0.22654389865E+03  0.22654389867E+03  0.25500000920E-02 0. -1.
    10030    2    1    2    0    0  0.00000000000E+00  0.00000000000E+00  0.66750722255E+03  0.11205950199E+04  0.90009294321E+03 0.  0.
        3    1    3    3  502    0  0.62234349427E+02  0.18349266895E+03  0.83946434886E+03  0.86153530225E+03  0.10100000352E+00 0.  1.
       -3    1    3    3    0  502 -0.62234349427E+02 -0.18349266895E+03 -0.17195712631E+03  0.25905971763E+03  0.10100000352E+00 0. -1.
</event>
<event>
 5   0  0.4110039E-04  0.8997280E+03  0.7818609E-02  0.9425922E-01
        2   -1    0    0  501    0  0.00000000000E+00  0.00000000000E+00  0.16183303239E+04  0.16183303239E+04  0.25500000920E-02 0. -1.
       -2   -1    0    0    0  501  0.00000000000E+00  0.00000000000E+00 -0.12505333272E+03  0.12505333274E+03  0.25500000920E-02 0.  1.
    10030    2    1    2    0    0  0.00000000000E+00  0.00000000000E+00  0.14932769912E+04  0.17433836566E+04  0.89972795991E+03 0.  0.
        3    1    3    3  502    0  0.10188290141E+03  0.41500254981E+03  0.47418717708E+03  0.63832650818E+03  0.10100000352E+00 0.  1.
       -3    1    3    3    0  502 -0.10188290141E+03 -0.41500254981E+03  0.10190898141E+04  0.11050571484E+04  0.10100000352E+00 0. -1.
</event>
<event>
 5   0  0.2356918E-04  0.8999932E+03  0.7818609E-02  0.9425590E-01
       -1   -1    0    0    0  501  0.00000000000E+00  0.00000000000E+00  0.27010208978E+03  0.27010208983E+03  0.50400001928E-02 0.  1.
        1   -1    0    0  501    0  0.00000000000E+00  0.00000000000E+00 -0.74970517153E+03  0.74970517154E+03  0.50400001928E-02 0. -1.
    10030    2    1    2    0    0  0.00000000000E+00  0.00000000000E+00 -0.47960308174E+03  0.10198072614E+04  0.89999318571E+03 0.  0.
        5    1    3    3  502    0 -0.24635821623E+03 -0.23959521831E+03 -0.56894854029E+03  0.66469750326E+03  0.46999998093E+01 0. -1.
       -5    1    3    3    0  502  0.24635821623E+03  0.23959521831E+03  0.89345458552E+02  0.35510975811E+03  0.46999998093E+01 0.  1.
</event>
<event>
 5   0  0.3959804E-04  0.8999353E+03  0.7818609E-02  0.9425662E-01
       -2   -1    0    0    0  501  0.00000000000E+00  0.00000000000E+00  0.14242490464E+03  0.14242490466E+03  0.25500000920E-02 0.  1.
        2   -1    0    0  501    0  0.00000000000E+00  0.00000000000E+00 -0.14215973648E+04  0.14215973648E+04  0.25500000920E-02 0. -1.
    10030    2    1    2    0    0  0.00000000000E+00  0.00000000000E+00 -0.12791724602E+04  0.15640222695E+04  0.89993526243E+03 0.  0.
        5    1    3    3  502    0  0.11174460186E+03  0.41275417134E+03 -0.88287074140E+03  0.98098710390E+03  0.46999998093E+01 0.  1.
       -5    1    3    3    0  502 -0.11174460186E+03 -0.41275417134E+03 -0.39630171878E+03  0.58303516558E+03  0.46999998093E+01 0. -1.
</event>
<event>
 5   0  0.4110039E-04  0.9004155E+03  0.7818609E-02  0.9425062E-01
       -2   -1    0    0    0  501  0.00000000000E+00  0.00000000000E+00  0.20511657798E+03  0.20511657799E+03  0.25500000920E-02 0.  1.
        2   -1    0    0  501    0  0.00000000000E+00  0.00000000000E+00 -0.98815516645E+03  0.98815516645E+03  0.25500000920E-02 0. -1.
    10030    2    1    2    0    0  0.00000000000E+00  0.00000000000E+00 -0.78303858847E+03  0.11932717444E+04  0.90041547357E+03 0.  0.
        3    1    3    3  502    0  0.16141660184E+03 -0.28431662540E+03 -0.80169458093E+03  0.86579759420E+03  0.10100000352E+00 0.  1.
       -3    1    3    3    0  502 -0.16141660184E+03  0.28431662540E+03  0.18655992456E+02  0.32747415025E+03  0.10100000352E+00 0. -1.
</event>
<event>
 5   0  0.2308362E-04  0.9004920E+03  0.7818609E-02  0.9424967E-01
        1   -1    0    0  501    0  0.00000000000E+00  0.00000000000E+00  0.10954632961E+04  0.10954632962E+04  0.50400001928E-02 0.  1.
       -1   -1    0    0    0  501  0.00000000000E+00  0.00000000000E+00 -0.18505547474E+03  0.18505547481E+03  0.50400001928E-02 0. -1.
    10030    2    1    2    0    0  0.00000000000E+00  0.00000000000E+00  0.91040782140E+03  0.12805187710E+04  0.90049204413E+03 0.  0.
        1    1    3    3  502    0  0.89065613099E+02  0.41723528409E+03  0.25059332066E+03  0.49478781120E+03  0.50400001928E-02 0. -1.
       -1    1    3    3    0  502 -0.89065613099E+02 -0.41723528409E+03  0.65981450075E+03  0.78573095977E+03  0.50400001928E-02 0.  1.
</event>
<event>
 5   0  0.2450427E-04  0.8990024E+03  0.7818609E-02  0.9426829E-01
        1   -1    0    0  501    0  0.00000000000E+00  0.00000000000E+00  0.75010916382E+03  0.75010916384E+03  0.50400001928E-02 0.  1.
       -1   -1    0    0    0  501  0.00000000000E+00  0.00000000000E+00 -0.26936255926E+03  0.26936255931E+03  0.50400001928E-02 0. -1.
    10030    2    1    2    0    0  0.00000000000E+00  0.00000000000E+00  0.48074660456E+03  0.10194717231E+04  0.89900238960E+03 0.  0.
        3    1    3    3  502    0 -0.97362452653E+02  0.41197179602E+03  0.68950752374E+02  0.42889908411E+03  0.10100000352E+00 0. -1.
       -3    1    3    3    0  502  0.97362452653E+02 -0.41197179602E+03  0.41179585218E+03  0.59057263904E+03  0.10100000352E+00 0.  1.
</event>
<event>
 5   0  0.2351435E-04  0.9000830E+03  0.7818609E-02  0.9425478E-01
       -1   -1    0    0    0  501  0.00000000000E+00  0.00000000000E+00  0.79045978276E+03  0.79045978277E+03  0.50400001928E-02 0.  1.
        1   -1    0    0  501    0  0.00000000000E+00  0.00000000000E+00 -0.25622726168E+03  0.25622726173E+03  0.50400001928E-02 0. -1.
    10030    2    1    2    0    0  0.00000000000E+00  0.00000000000E+00  0.53423252108E+03  0.10466870445E+04  0.90008298648E+03 0.  0.
        4    1    3    3  502    0  0.20983654896E+02 -0.32944041552E+03  0.62282102944E+03  0.70489640996E+03  0.12699999809E+01 0.  1.
       -4    1    3    3    0  502 -0.20983654896E+02  0.32944041552E+03 -0.88588508364E+02  0.34179063455E+03  0.12699999809E+01 0. -1.
</event>
<event>
 5   0  0.1596250E-04  0.9001930E+03  0.7818609E-02  0.9425340E-01
       -3   -1    0    0    0  501  0.00000000000E+00  0.00000000000E+00  0.29501916046E+03  0.29501917775E+03  0.10100000352E+00 0.  1.
        3   -1    0    0  501    0  0.00000000000E+00  0.00000000000E+00 -0.68669051707E+03  0.68669052450E+03  0.10100000352E+00 0. -1.
    10030    2    1    2    0    0  0.00000000000E+00  0.00000000000E+00 -0.39167135661E+03  0.98170970225E+03  0.90019302814E+03 0.  0.
        3    1    3    3  502    0  0.43218262444E+03 -0.52764084528E+02 -0.32027839369E+03  0.54050358847E+03  0.10100000352E+00 0.  1.
       -3    1    3    3    0  502 -0.43218262444E+03  0.52764084528E+02 -0.71392962918E+02  0.44120611378E+03  0.10100000352E+00 0. -1.
</event>
<event>
 5   0  0.4243516E-04  0.8997937E+03  0.7818609E-02  0.9425839E-01
       -2   -1    0    0    0  501  0.00000000000E+00  0.00000000000E+00  0.15614651121E+03  0.15614651123E+03  0.25500000920E-02 0. -1.
        2   -1    0    0  501    0  0.00000000000E+00  0.00000000000E+00 -0.12962643799E+04  0.12962643799E+04  0.25500000920E-02 0.  1.
    10030    2    1    2    0    0  0.00000000000E+00  0.00000000000E+00 -0.11401178686E+04  0.14524108911E+04  0.89979366642E+03 0.  0.
        1    1    3    3  502    0 -0.31905448036E+03 -0.13285869117E+03 -0.10349817410E+04  0.10911619484E+04  0.50400001928E-02 0.  1.
       -1    1    3    3    0  502  0.31905448036E+03  0.13285869117E+03 -0.10513612761E+03  0.36124894271E+03  0.50400001928E-02 0. -1.
</event>
<event>
 5   0  0.1596250E-04  0.9013620E+03  0.7818609E-02  0.9423880E-01
        4   -1    0    0  501    0  0.00000000000E+00  0.00000000000E+00  0.82780686984E+03  0.82780784404E+03  0.12699999809E+01 0. -1.
       -4   -1    0    0    0  501  0.00000000000E+00  0.00000000000E+00 -0.24536046098E+03  0.24536374776E+03  0.12699999809E+01 0.  1.
    10030    2    1    2    0    0  0.00000000000E+00  0.00000000000E+00  0.58244640885E+03  0.10731715918E+04  0.90136199512E+03 0.  0.
        2    1    3    3  502    0 -0.31333368083E+03 -0.30661515764E+03  0.16679146476E+03  0.46905249510E+03  0.25500000920E-02 0.  1.
       -2    1    3    3    0  502  0.31333368083E+03  0.30661515764E+03  0.41565494410E+03  0.60411909670E+03  0.25500000920E-02 0. -1.
</event>
<event>
 5   0  0.4236284E-04  0.8995103E+03  0.7818609E-02  0.9426194E-01
       -2   -1    0    0    0  501  0.00000000000E+00  0.00000000000E+00  0.34468597344E+03  0.34468597345E+03  0.25500000920E-02 0.  1.
        2   -1    0    0  501    0  0.00000000000E+00  0.00000000000E+00 -0.58685215723E+03  0.58685215723E+03  0.25500000920E-02 0. -1.
    10030    2    1    2    0    0  0.00000000000E+00  0.00000000000E+00 -0.24216618379E+03  0.93153813068E+03  0.89951032698E+03 0.  0.
        2    1    3    3  502    0 -0.23385596798E+03  0.89333104940E+02  0.26586598875E+03  0.36517631546E+03  0.25500000920E-02 0.  1.
       -2    1    3    3    0  502  0.23385596798E+03 -0.89333104940E+02 -0.50803217254E+03  0.56636181522E+03  0.25500000920E-02 0. -1.
</event>
<event>
 5   0  0.4110039E-04  0.9002247E+03  0.7818609E-02  0.9425301E-01
        2   -1    0    0  501    0  0.00000000000E+00  0.00000000000E+00  0.42586145097E+03  0.42586145098E+03  0.25500000920E-02 0. -1.
       -2   -1    0    0    0  501  0.00000000000E+00  0.00000000000E+00 -0.47574427679E+03  0.47574427679E+03  0.25500000920E-02 0.  1.
    10030    2    1    2    0    0  0.00000000000E+00  0.00000000000E+00 -0.49882825815E+02  0.90160572777E+03  0.90022474529E+03 0.  0.
        3    1    3    3  502    0 -0.15058823789E+03  0.34101021560E+03 -0.27759086312E+03  0.46478111195E+03  0.10100000352E+00 0.  1.
       -3    1    3    3    0  502  0.15058823789E+03 -0.34101021560E+03  0.22770803731E+03  0.43682461582E+03  0.10100000352E+00 0. -1.
</event>
<event>
 5   0  0.2332791E-04  0.9000307E+03  0.7818609E-02  0.9425543E-01
        1   -1    0    0  501    0  0.00000000000E+00  0.00000000000E+00  0.10468361035E+04  0.10468361035E+04  0.50400001928E-02 0.  1.
       -1   -1    0    0    0  501  0.00000000000E+00  0.00000000000E+00 -0.19345320819E+03  0.19345320825E+03  0.50400001928E-02 0. -1.
    10030    2    1    2    0    0  0.00000000000E+00  0.00000000000E+00  0.85338289535E+03  0.12402893118E+04  0.90003067219E+03 0.  0.
        2    1    3    3  502    0 -0.18655473643E+03 -0.37977171139E+03  0.63787354191E+03  0.76544880818E+03  0.25500000920E-02 0.  1.
       -2    1    3    3    0  502  0.18655473643E+03  0.37977171139E+03  0.21550935344E+03  0.47484050362E+03  0.25500000920E-02 0. -1.
</event>
<event>
 5   0  0.2308362E-04  0.9009065E+03  0.7818609E-02  0.9424449E-01
       -1   -1    0    0    0  501  0.00000000000E+00  0.00000000000E+00  0.79930235255E+03  0.79930235257E+03  0.50400001928E-02 0. -1.
        1   -1    0    0  501    0  0.00000000000E+00  0.00000000000E+00 -0.25385655424E+03  0.25385655429E+03  0.50400001928E-02 0.  1.
    10030    2    1    2    0    0  0.00000000000E+00  0.00000000000E+00  0.54544579831E+03  0.10531589069E+04  0.90090652356E+03 0.  0.
        1    1    3    3  502    0 -0.14168601735E+03 -0.10600296129E+03 -0.21152583544E+03  0.27578022845E+03  0.50400001928E-02 0.  1.
       -1    1    3    3    0  502  0.14168601735E+03  0.10600296129E+03  0.75697163375E+03  0.77737867841E+03  0.50400001928E-02 0. -1.
</event>
<event>
 5   0  0.4110039E-04  0.9002912E+03  0.7818609E-02  0.9425218E-01
       -2   -1    0    0    0  501  0.00000000000E+00  0.00000000000E+00  0.74320143969E+03  0.74320143970E+03  0.25500000920E-02 0. -1.
        2   -1    0    0  501    0  0.00000000000E+00  0.00000000000E+00 -0.27264620556E+03  0.27264620557E+03  0.25500000920E-02 0.  1.
    10030    2    1    2    0    0  0.00000000000E+00  0.00000000000E+00  0.47055523413E+03  0.10158476453E+04  0.90029118069E+03 0.  0.
        3    1    3    3  502    0  0.20216985102E+03  0.51244859763E+02 -0.21483877750E+03  0.29942343735E+03  0.10100000352E+00 0.  1.
       -3    1    3    3    0  502 -0.20216985102E+03 -0.51244859763E+02  0.68539401163E+03  0.71642420792E+03  0.10100000352E+00 0. -1.
</event>
<event>
 5   0  0.3959804E-04  0.9000450E+03  0.7818609E-02  0.9425525E-01
       -2   -1    0    0    0  501  0.00000000000E+00  0.00000000000E+00  0.12087469673E+03  0.12087469676E+03  0.25500000920E-02 0.  1.
        2   -1    0    0  501    0  0.00000000000E+00  0.00000000000E+00 -0.16754562125E+04  0.16754562125E+04  0.25500000920E-02 0. -1.
    10030    2    1    2    0    0  0.00000000000E+00  0.00000000000E+00 -0.15545815158E+04  0.17963309093E+04  0.90004502464E+03 0.  0.
        5    1    3    3  502    0 -0.20059578180E+03 -0.16041117747E+03 -0.15147407693E+04  0.15363697802E+04  0.46999998093E+01 0. -1.
       -5    1    3    3    0  502  0.20059578180E+03  0.16041117747E+03 -0.39840746529E+02  0.25996112905E+03  0.46999998093E+01 0.  1.
</event>
<event>
 5   0  0.2450427E-04  0.8997252E+03  0.7818609E-02  0.9425925E-01
       -1   -1    0    0    0  501  0.00000000000E+00  0.00000000000E+00  0.25987389295E+03  0.25987389300E+03  0.50400001928E-02 0.  1.
        1   -1    0    0  501    0  0.00000000000E+00  0.00000000000E+00 -0.77874841078E+03  0.77874841079E+03  0.50400001928E-02 0. -1.
    10030    2    1    2    0    0  0.00000000000E+00  0.00000000000E+00 -0.51887451783E+03  0.10386223038E+04  0.89972524955E+03 0.  0.
        3    1    3    3  502    0 -0.28043455601E+02  0.14192681383E+03  0.23228774347E+03  0.27365537059E+03  0.10100000352E+00 0.  1.
       -3    1    3    3    0  502  0.28043455601E+02 -0.14192681383E+03 -0.75116226130E+03  0.76496693320E+03  0.10100000352E+00 0. -1.
</event>
<event>
 5   0  0.2332791E-04  0.8992836E+03  0.7818609E-02  0.9426477E-01
       -1   -1    0    0    0  501  0.00000000000E+00  0.00000000000E+00  0.10211721224E+03  0.10211721237E+03  0.50400001928E-02 0.  1.
        1   -1    0    0  501    0  0.00000000000E+00  0.00000000000E+00 -0.19798598655E+04  0.19798598656E+04  0.50400001928E-02 0. -1.
    10030    2    1    2    0    0  0.00000000000E+00  0.00000000000E+00 -0.18777426533E+04  0.20819770779E+04  0.89928364878E+03 0.  0.
        2    1    3    3  502    0  0.28093110629E+03 -0.23654508131E+03 -0.33826080510E+03  0.49929573825E+03  0.25500000920E-02 0.  1.
       -2    1    3    3    0  502 -0.28093110629E+03  0.23654508131E+03 -0.15394818482E+04  0.15826813397E+04  0.25500000920E-02 0. -1.
</event>
<event>
 5   0  0.2332791E-04  0.8999691E+03  0.7818609E-02  0.9425620E-01
       -1   -1    0    0    0  501  0.00000000000E+00  0.00000000000E+00  0.31163630094E+03  0.31163630098E+03  0.50400001928E-02 0.  1.
        1   -1    0    0  501    0  0.00000000000E+00  0.00000000000E+00 -0.64975137179E+03  0.64975137181E+03  0.50400001928E-02 0. -1.
    10030    2    1    2    0    0  0.00000000000E+00  0.00000000000E+00 -0.33811507084E+03  0.96138767279E+03  0.89996914184E+03 0.  0.
        2    1    3    3  502    0  0.32395007287E+03 -0.14071409842E+03  0.12879328747E+03  0.37594124290E+03  0.25500000920E-02 0.  1.
       -2    1    3    3    0  502 -0.32395007287E+03  0.14071409842E+03 -0.46690835831E+03  0.58544642989E+03  0.25500000920E-02 0. -1.
</event>
<event>
 5   0  0.4033144E-04  0.9008645E+03  0.7818609E-02  0.9424501E-01
       -2   -1    0    0    0  501  0.00000000000E+00  0.00000000000E+00  0.50939896914E+03  0.50939896915E+03  0.25500000920E-02 0.  1.
        2   -1    0    0  501    0  0.00000000000E+00  0.00000000000E+00 -0.39829138839E+03  0.39829138840E+03  0.25500000920E-02 0. -1.
    10030    2    1    2    0    0  0.00000000000E+00  0.00000000000E+00  0.11110758075E+03  0.90769035754E+03  0.90086452404E+03 0.  0.
        4    1    3    3  502    0  0.84744443234E+02  0.11107149216E+03  0.48701457503E+03  0.50665896441E+03  0.12699999809E+01 0.  1.
       -4    1    3    3    0  502 -0.84744443234E+02 -0.11107149216E+03 -0.37590699428E+03  0.40103139313E+03  0.12699999809E+01 0. -1.
</event>
<event>
 5   0  0.2356918E-04  0.9000580E+03  0.7818609E-02  0.9425509E-01
       -1   -1    0    0    0  501  0.00000000000E+00  0.00000000000E+00  0.26080552634E+03  0.26080552639E+03  0.50400001928E-02 0.  1.
        1   -1    0    0  501    0  0.00000000000E+00  0.00000000000E+00 -0.77654071316E+03  0.77654071317E+03  0.50400001928E-02 0. -1.
    10030    2    1    2    0    0  0.00000000000E+00  0.00000000000E+00 -0.51573518681E+03  0.10373462396E+04  0.90005801914E+03 0.  0.
        5    1    3    3  502    0  0.64362897797E+02  0.29910269566E+03  0.12246645451E+03  0.32958326360E+03  0.46999998093E+01 0.  1.
       -5    1    3    3    0  502 -0.64362897797E+02 -0.29910269566E+03 -0.63820164132E+03  0.70776297597E+03  0.46999998093E+01 0. -1.
</event>
<event>
 5   0  0.3959804E-04  0.9014375E+03  0.7818609E-02  0.9423786E-01
       -2   -1    0    0    0  501  0.00000000000E+00  0.00000000000E+00  0.50403329005E+03  0.50403329005E+03  0.25500000920E-02 0. -1.
        2   -1    0    0  501    0  0.00000000000E+00  0.00000000000E+00 -0.40304361238E+03  0.40304361239E+03  0.25500000920E-02 0.  1.
    10030    2    1    2    0    0  0.00000000000E+00  0.00000000000E+00  0.10098967767E+03  0.90707690244E+03  0.90143751417E+03 0.  0.
        5    1    3    3  502    0 -0.25486419032E+03  0.34285994223E+03 -0.93988288944E+02  0.43745237907E+03  0.46999998093E+01 0.  1.
       -5    1    3    3    0  502  0.25486419032E+03 -0.34285994223E+03  0.19497796661E+03  0.46962452338E+03  0.46999998093E+01 0. -1.
</event>
<event>
 5   0  0.2332791E-04  0.9002045E+03  0.7818609E-02  0.9425326E-01
        1   -1    0    0  501    0  0.00000000000E+00  0.00000000000E+00  0.94544579736E+03  0.94544579737E+03  0.50400001928E-02 0.  1.
       -1   -1    0    0    0  501  0.00000000000E+00  0.00000000000E+00 -0.21428200071E+03  0.21428200077E+03  0.50400001928E-02 0. -1.
    10030    2    1    2    0    0  0.00000000000E+00  0.00000000000E+00  0.73116379665E+03  0.11597277981E+04  0.90020445914E+03 0.  0.
        2    1    3    3  502    0  0.18620958519E+03  0.35857779235E+03  0.11005775376E+03  0.41876574830E+03  0.25500000920E-02 0. -1.
       -2    1    3    3    0  502 -0.18620958519E+03 -0.35857779235E+03  0.62110604289E+03  0.74096204984E+03  0.25500000920E-02 0.  1.
</event>
<event>
 5   0  0.1596250E-04  0.8998808E+03  0.7818609E-02  0.9425731E-01
       -3   -1    0    0    0  501  0.00000000000E+00  0.00000000000E+00  0.73162507481E+03  0.73162508178E+03  0.10100000352E+00 0. -1.
        3   -1    0    0  501    0  0.00000000000E+00  0.00000000000E+00 -0.27670775146E+03  0.27670776989E+03  0.10100000352E+00 0.  1.
    10030    2    1    2    0    0  0.00000000000E+00  0.00000000000E+00  0.45491732335E+03  0.10083328517E+04  0.89988075247E+03 0.  0.
        5    1    3    3  502    0  0.61793035616E+02  0.11427762349E+03  0.71012313610E+03  0.72192431245E+03  0.46999998093E+01 0. -1.
       -5    1    3    3    0  502 -0.61793035616E+02 -0.11427762349E+03 -0.25520581275E+03  0.28640853922E+03  0.46999998093E+01 0.  1.
</event>
<event>
 5   0  0.4243516E-04  0.9003079E+03  0.7818609E-02  0.9425197E-01
        2   -1    0    0  501    0  0.00000000000E+00  0.00000000000E+00  0.12754226022E+04  0.12754226022E+04  0.25500000920E-02 0. -1.
       -2   -1    0    0    0  501  0.00000000000E+00  0.00000000000E+00 -0.15887956884E+03  0.15887956886E+03  0.25500000920E-02 0.  1.
    10030    2    1    2    0    0  0.00000000000E+00  0.00000000000E+00  0.11165430334E+04  0.14343021711E+04  0.90030793208E+03 0.  0.
        1    1    3    3  502    0 -0.38290458118E+03 -0.17378110481E+03  0.81427817787E+03  0.91644134655E+03  0.50400001928E-02 0. -1.
       -1    1    3    3    0  502  0.38290458118E+03  0.17378110481E+03  0.30226485550E+03  0.51786082453E+03  0.50400001928E-02 0.  1.
</event>
<event>
 5   0  0.2356918E-04  0.8999355E+03  0.7818609E-02  0.9425662E-01
       -1   -1    0    0    0  501  0.00000000000E+00  0.00000000000E+00  0.11486794081E+03  0.11486794092E+03  0.50400001928E-02 0.  1.
        1   -1    0    0  501    0  0.00000000000E+00  0.00000000000E+00 -0.17626413945E+04  0.17626413945E+04  0.50400001928E-02 0. -1.
    10030    2    1    2    0    0  0.00000000000E+00  0.00000000000E+00 -0.16477734537E+04  0.18775093354E+04  0.89993552542E+03 0.  0.
        5    1    3    3  502    0  0.44139203577E+03  0.60626743461E+02 -0.69282695684E+03  0.82373163918E+03  0.46999998093E+01 0.  1.
       -5    1    3    3    0  502 -0.44139203577E+03 -0.60626743461E+02 -0.95494649681E+03  0.10537776962E+04  0.46999998093E+01 0. -1.
</event>
<event>
 5   0  0.1596250E-04  0.8997594E+03  0.7818609E-02  0.9425882E-01
       -4   -1    0    0    0  501  0.00000000000E+00  0.00000000000E+00  0.76761261058E+03  0.76761366118E+03  0.12699999809E+01 0.  1.
        4   -1    0    0  501    0  0.00000000000E+00  0.00000000000E+00 -0.26366115088E+03  0.26366420952E+03  0.12699999809E+01 0. -1.
    10030    2    1    2    0    0  0.00000000000E+00  0.00000000000E+00  0.50395145971E+03  0.10312778707E+04  0.89975939720E+03 0.  0.
        3    1    3    3  502    0  0.27745473361E+03  0.25863058563E+03  0.52924677774E+03  0.65113214556E+03  0.10100000352E+00 0.  1.
       -3    1    3    3    0  502 -0.27745473361E+03 -0.25863058563E+03 -0.25295318035E+02  0.38014572514E+03  0.10100000352E+00 0. -1.
</event>
<event>
 5   0  0.4236284E-04  0.9007463E+03  0.7818609E-02  0.9424649E-01
       -2   -1    0    0    0  501  0.00000000000E+00  0.00000000000E+00  0.14787276049E+03  0.14787276051E+03  0.25500000920E-02 0. -1.
        2   -1    0    0  501    0  0.00000000000E+00  0.00000000000E+00 -0.13716926670E+04  0.13716926670E+04  0.25500000920E-02 0.  1.
    10030    2    1    2    0    0  0.00000000000E+00  0.00000000000E+00 -0.12238199065E+04  0.15195654275E+04  0.90074631552E+03 0.  0.
        2    1    3    3  502    0 -0.16148697883E+03  0.35935104616E+03 -0.98006717273E+03  0.10562873102E+04  0.25500000920E-02 0.  1.
       -2    1    3    3    0  502  0.16148697883E+03 -0.35935104616E+03 -0.24375273379E+03  0.46327811728E+03  0.25500000920E-02 0. -1.
</event>
<event>
 5   0  0.4236284E-04  0.9010317E+03  0.7818609E-02  0.9424293E-01
       -2   -1    0    0    0  501  0.00000000000E+00  0.00000000000E+00  0.13431463120E+03  0.13431463122E+03  0.25500000920E-02 0.  1.
        2   -1    0    0  501    0  0.00000000000E+00  0.00000000000E+00 -0.15111125328E+04  0.15111125328E+04  0.25500000920E-02 0. -1.
    10030    2    1    2    0    0  0.00000000000E+00  0.00000000000E+00 -0.13767979016E+04  0.16454271641E+04  0.90103168106E+03 0.  0.
        2    1    3    3  502    0 -0.12956897728E+03  0.38795928793E+03 -0.34353040334E+03  0.53414760787E+03  0.25500000920E-02 0. -1.
       -2    1    3    3    0  502  0.12956897728E+03 -0.38795928793E+03 -0.10332674983E+04  0.11112795562E+04  0.25500000920E-02 0.  1.
</event>
<event>
 5   0  0.4033144E-04  0.8999717E+03  0.7818609E-02  0.9425617E-01
       -2   -1    0    0    0  501  0.00000000000E+00  0.00000000000E+00  0.30290525840E+03  0.30290525841E+03  0.25500000920E-02 0.  1.
        2   -1    0    0  501    0  0.00000000000E+00  0.00000000000E+00 -0.66848380248E+03  0.66848380248E+03  0.25500000920E-02 0. -1.
    10030    2    1    2    0    0  0.00000000000E+00  0.00000000000E+00 -0.36557854408E+03  0.97138906089E+03  0.89997168607E+03 0.  0.
        4    1    3    3  502    0  0.24819085156E+03 -0.15001269852E+02 -0.58760056167E+03  0.63804370530E+03  0.12699999809E+01 0. -1.
       -4    1    3    3    0  502 -0.24819085156E+03  0.15001269852E+02  0.22202201759E+03  0.33334535559E+03  0.12699999809E+01 0.  1.
</event>
<event>
 5   0  0.4236284E-04  0.8996744E+03  0.7818609E-02  0.9425989E-01
        2   -1    0    0  501    0  0.00000000000E+00  0.00000000000E+00  0.86169281597E+03  0.86169281598E+03  0.25500000920E-02 0.  1.
       -2   -1    0    0    0  501  0.00000000000E+00  0.00000000000E+00 -0.23483254504E+03  0.23483254505E+03  0.25500000920E-02 0. -1.
    10030    2    1    2    0    0  0.00000000000E+00  0.00000000000E+00  0.62686027094E+03  0.10965253610E+04  0.89967442339E+03 0.  0.
        2    1    3    3  502    0  0.43498416688E+01  0.30547908771E+03 -0.88990891081E+02  0.31820712257E+03  0.25500000920E-02 0. -1.
       -2    1    3    3    0  502 -0.43498416688E+01 -0.30547908771E+03  0.71585116202E+03  0.77831823846E+03  0.25500000920E-02 0.  1.
</event>
<event>
 5   0  0.4236284E-04  0.9010497E+03  0.7818609E-02  0.9424270E-01
       -2   -1    0    0    0  501  0.00000000000E+00  0.00000000000E+00  0.13559905450E+03  0.13559905453E+03  0.25500000920E-02 0.  1.
        2   -1    0    0  501    0  0.00000000000E+00  0.00000000000E+00 -0.14968587860E+04  0.14968587860E+04  0.25500000920E-02 0. -1.
    10030    2    1    2    0    0  0.00000000000E+00  0.00000000000E+00 -0.13612597315E+04  0.16324578406E+04  0.90104969037E+03 0.  0.
        2    1    3    3  502    0 -0.18271371800E+03  0.13423805093E+03 -0.13859685099E+04  0.14043905680E+04  0.25500000920E-02 0. -1.
       -2    1    3    3    0  502  0.18271371800E+03 -0.13423805093E+03  0.24708778400E+02  0.22806727253E+03  0.25500000920E-02 0.  1.
</event>
<event>
 5   0  0.4110039E-04  0.9003601E+03  0.7818609E-02  0.9425131E-01
       -2   -1    0    0    0  501  0.00000000000E+00  0.00000000000E+00  0.27175388621E+03  0.27175388622E+03  0.25500000920E-02 0.  1.
        2   -1    0    0  501    0  0.00000000000E+00  0.00000000000E+00 -0.74575596402E+03  0.74575596402E+03  0.25500000920E-02 0. -1.
    10030    2    1    2    0    0  0.00000000000E+00  0.00000000000E+00 -0.47400207781E+03  0.10175098502E+04  0.90036010883E+03 0.  0.
        3    1    3    3  502    0 -0.20173958903E+03 -0.26016853928E+03 -0.58399498104E+03  0.67040038686E+03  0.10100000352E+00 0. -1.
       -3    1    3    3    0  502  0.20173958903E+03  0.26016853928E+03  0.10999290323E+03  0.34710946339E+03  0.10100000352E+00 0.  1.
</event>
<event>
 5   0  0.2351435E-04  0.8999198E+03  0.7818609E-02  0.9425682E-01
       -1   -1    0    0    0  501  0.00000000000E+00  0.00000000000E+00  0.19941409483E+03  0.19941409489E+03  0.50400001928E-02 0.  1.
        1   -1    0    0  501    0  0.00000000000E+00  0.00000000000E+00 -0.10152939667E+04  0.10152939667E+04  0.50400001928E-02 0. -1.
    10030    2    1    2    0    0  0.00000000000E+00  0.00000000000E+00 -0.81587987189E+03  0.12147080616E+04  0.89991983511E+03 0.  0.
        4    1    3    3  502    0  0.30646382235E+02  0.22330594306E+03  0.11771426001E+03  0.25428921499E+03  0.12699999809E+01 0.  1.
       -4    1    3    3    0  502 -0.30646382235E+02 -0.22330594306E+03 -0.93359413191E+03  0.96041884664E+03  0.12699999809E+01 0. -1.
</event>
<event>
 5   0  0.2308362E-04  0.9023801E+03  0.7818609E-02  0.9422611E-01
       -1   -1    0    0    0  501  0.00000000000E+00  0.00000000000E+00  0.22380383332E+03  0.22380383338E+03  0.50400001928E-02 0.  1.
        1   -1    0    0  501    0  0.00000000000E+00  0.00000000000E+00 -0.90960215693E+03  0.90960215694E+03  0.50400001928E-02 0. -1.
    10030    2    1    2    0    0  0.00000000000E+00  0.00000000000E+00 -0.68579832361E+03  0.11334059903E+04  0.90238007415E+03 0.  0.
        1    1    3    3  502    0 -0.34137212019E+03 -0.16639277511E+03 -0.64889105135E+03  0.75185176504E+03  0.50400001928E-02 0. -1.
       -1    1    3    3    0  502  0.34137212019E+03  0.16639277511E+03 -0.36907272261E+02  0.38155422528E+03  0.50400001928E-02 0.  1.
</event>
<event>
 5   0  0.2450427E-04  0.8998482E+03  0.7818609E-02  0.9425771E-01
       -1   -1    0    0    0  501  0.00000000000E+00  0.00000000000E+00  0.11001681452E+04  0.11001681453E+04  0.50400001928E-02 0.  1.
        1   -1    0    0  501    0  0.00000000000E+00  0.00000000000E+00 -0.18400069165E+03  0.18400069172E+03  0.50400001928E-02 0. -1.
    10030    2    1    2    0    0  0.00000000000E+00  0.00000000000E+00  0.91616745360E+03  0.12841688370E+04  0.89984820877E+03 0.  0.
        3    1    3    3  502    0 -0.30348496843E+03 -0.25923480981E+03  0.75444526433E+03  0.85351829491E+03  0.10100000352E+00 0. -1.
       -3    1    3    3    0  502  0.30348496843E+03  0.25923480981E+03  0.16172218927E+03  0.43065054207E+03  0.10100000352E+00 0.  1.
</event>
<event>
 5   0  0.1596250E-04  0.8941652E+03  0.7818609E-02  0.9432905E-01
        3   -1    0    0  501    0  0.00000000000E+00  0.00000000000E+00  0.64628521644E+03  0.64628522433E+03  0.10100000352E+00 0.  1.
       -3   -1    0    0    0  501  0.00000000000E+00  0.00000000000E+00 -0.30927958357E+03  0.30927960006E+03  0.10100000352E+00 0. -1.
    10030    2    1    2    0    0  0.00000000000E+00  0.00000000000E+00  0.33700563287E+03  0.95556482440E+03  0.89416516206E+03 0.  0.
        3    1    3    3  502    0 -0.24680414452E+03 -0.36152369517E+03  0.71311935405E+02  0.44350543430E+03  0.10100000352E+00 0.  1.
       -3    1    3    3    0  502  0.24680414452E+03  0.36152369517E+03  0.26569369746E+03  0.51205939010E+03  0.10100000352E+00 0. -1.
</event>
<event>
 5   0  0.2332791E-04  0.8997375E+03  0.7818609E-02  0.9425910E-01
        1   -1    0    0  501    0  0.00000000000E+00  0.00000000000E+00  0.35102590629E+03  0.35102590633E+03  0.50400001928E-02 0.  1.
       -1   -1    0    0    0  501  0.00000000000E+00  0.00000000000E+00 -0.57654408352E+03  0.57654408354E+03  0.50400001928E-02 0. -1.
    10030    2    1    2    0    0  0.00000000000E+00  0.00000000000E+00 -0.22551817723E+03  0.92756998987E+03  0.89973753831E+03 0.  0.
        2    1    3    3  502    0 -0.29345710813E+03  0.12599120762E+03 -0.43940584419E+03  0.54320194645E+03  0.25500000920E-02 0. -1.
       -2    1    3    3    0  502  0.29345710813E+03 -0.12599120762E+03  0.21388766697E+03  0.38436804342E+03  0.25500000920E-02 0.  1.
</event>
<event>
 5   0  0.2308362E-04  0.9040838E+03  0.7818609E-02  0.9420491E-01
        1   -1    0    0  501    0  0.00000000000E+00  0.00000000000E+00  0.19018826568E+04  0.19018826568E+04  0.50400001928E-02 0. -1.
       -1   -1    0    0    0  501  0.00000000000E+00  0.00000000000E+00 -0.10744189043E+03  0.10744189055E+03  0.50400001928E-02 0.  1.
    10030    2    1    2    0    0  0.00000000000E+00  0.00000000000E+00  0.17944407664E+04  0.20093245473E+04  0.90408377521E+03 0.  0.
        1    1    3    3  502    0 -0.82858444406E+02 -0.35761036771E+03  0.14835184840E+04  0.15282597257E+04  0.50400001928E-02 0. -1.
       -1    1    3    3    0  502  0.82858444406E+02  0.35761036771E+03  0.31092228235E+03  0.48106482161E+03  0.50400001928E-02 0.  1.
</event>
<event>
 5   0  0.4033144E-04  0.8992899E+03  0.7818609E-02  0.9426470E-01
        2   -1    0    0  501    0  0.00000000000E+00  0.00000000000E+00  0.32131423579E+04  0.32131423579E+04  0.25500000920E-02 0. -1.
       -2   -1    0    0    0  501  0.00000000000E+00  0.00000000000E+00 -0.62923000936E+02  0.62923000988E+02  0.25500000920E-02 0.  1.
    10030    2    1    2    0    0  0.00000000000E+00  0.00000000000E+00  0.31502193569E+04  0.32760653589E+04  0.89928985244E+03 0.  0.
        4    1    3    3  502    0 -0.35228118394E+02 -0.29543623839E+03  0.34696984638E+03  0.45707032115E+03  0.12699999809E+01 0.  1.
       -4    1    3    3    0  502  0.35228118394E+02  0.29543623839E+03  0.28032495106E+04  0.28189950377E+04  0.12699999809E+01 0. -1.
</event>
<event>
 5   0  0.4033144E-04  0.9005152E+03  0.7818609E-02  0.9424938E-01
        2   -1    0    0  501    0  0.00000000000E+00  0.00000000000E+00  0.61249854559E+03  0.61249854560E+03  0.25500000920E-02 0. -1.
       -2   -1    0    0    0  501  0.00000000000E+00  0.00000000000E+00 -0.33099163690E+03  0.33099163691E+03  0.25500000920E-02 0.  1.
    10030    2    1    2    0    0  0.00000000000E+00  0.00000000000E+00  0.28150690869E+03  0.94349018251E+03  0.90051517747E+03 0.  0.
        4    1    3    3  502    0 -0.11632145925E+03  0.23050424590E+02  0.59584188290E+03  0.60752873700E+03  0.12699999809E+01 0. -1.
       -4    1    3    3    0  502  0.11632145925E+03 -0.23050424590E+02 -0.31433497422E+03  0.33596144551E+03  0.12699999809E+01 0.  1.
</event>
<event>
 5   0  0.4236284E-04  0.9000001E+03  0.7818609E-02  0.9425581E-01
       -2   -1    0    0    0  501  0.00000000000E+00  0.00000000000E+00  0.17370456405E+03  0.17370456407E+03  0.25500000920E-02 0. -1.
        2   -1    0    0  501    0  0.00000000000E+00  0.00000000000E+00 -0.11657726122E+04  0.11657726122E+04  0.25500000920E-02 0.  1.
    10030    2    1    2    0    0  0.00000000000E+00  0.00000000000E+00 -0.99206804818E+03  0.13394771763E+04  0.90000005202E+03 0.  0.
        2    1    3    3  502    0  0.65695839407E+02  0.39503365973E+03 -0.80152707454E+03  0.89599843017E+03  0.25500000920E-02 0.  1.
       -2    1    3    3    0  502 -0.65695839407E+02 -0.39503365973E+03 -0.19054097364E+03  0.44347874614E+03  0.25500000920E-02 0. -1.
</event>
<event>
 5   0  0.2356918E-04  0.8987472E+03  0.7818609E-02  0.9427149E-01
       -1   -1    0    0    0  501  0.00000000000E+00  0.00000000000E+00  0.51338041397E+03  0.51338041400E+03  0.50400001928E-02 0.  1.
        1   -1    0    0  501    0  0.00000000000E+00  0.00000000000E+00 -0.39334698996E+03  0.39334698999E+03  0.50400001928E-02 0. -1.
    10030    2    1    2    0    0  0.00000000000E+00  0.00000000000E+00  0.12003342402E+03  0.90672740398E+03  0.89874721822E+03 0.  0.
        5    1    3    3  502    0 -0.80774591172E+02 -0.88312934260E+02  0.49698004793E+03  0.51120931816E+03  0.46999998093E+01 0.  1.
       -5    1    3    3    0  502  0.80774591172E+02  0.88312934260E+02 -0.37694662391E+03  0.39551808582E+03  0.46999998093E+01 0. -1.
</event>
<event>
 5   0  0.2351435E-04  0.8999038E+03  0.7818609E-02  0.9425702E-01
        1   -1    0    0  501    0  0.00000000000E+00  0.00000000000E+00  0.60925869050E+03  0.60925869052E+03  0.50400001928E-02 0.  1.
       -1   -1    0    0    0  501  0.00000000000E+00  0.00000000000E+00 -0.33230009113E+03  0.33230009116E+03  0.50400001928E-02 0. -1.
    10030    2    1    2    0    0  0.00000000000E+00  0.00000000000E+00  0.27695859937E+03  0.94155878169E+03  0.89990381353E+03 0.  0.
        4    1    3    3  502    0 -0.22171174010E+03  0.31466856438E+03 -0.10529172575E+03  0.39907438093E+03  0.12699999809E+01 0. -1.
       -4    1    3    3    0  502  0.22171174010E+03 -0.31466856438E+03  0.38225032512E+03  0.54248440075E+03  0.12699999809E+01 0.  1.
</event>
<event>
 5   0  0.2450427E-04  0.8997421E+03  0.7818609E-02  0.9425904E-01
       -1   -1    0    0    0  501  0.00000000000E+00  0.00000000000E+00  0.14399174791E+03  0.14399174800E+03  0.50400001928E-02 0. -1.
        1   -1    0    0  501    0  0.00000000000E+00  0.00000000000E+00 -0.14055246172E+04  0.14055246172E+04  0.50400001928E-02 0.  1.
    10030    2    1    2    0    0  0.00000000000E+00  0.00000000000E+00 -0.12615328693E+04  0.15495163652E+04  0.89974206624E+03 0.  0.
        3    1    3    3  502    0 -0.18925220774E+02 -0.44918522667E+03 -0.65845038721E+03  0.79729696755E+03  0.10100000352E+00 0.  1.
       -3    1    3    3    0  502  0.18925220774E+02  0.44918522667E+03 -0.60308248209E+03  0.75221939768E+03  0.10100000352E+00 0. -1.
</event>
<event>
 5   0  0.1596250E-04  0.9000363E+03  0.7818609E-02  0.9425536E-01
       -3   -1    0    0    0  501  0.00000000000E+00  0.00000000000E+00  0.43903978456E+03  0.43903979618E+03  0.10100000352E+00 0. -1.
        3   -1    0    0  501    0  0.00000000000E+00  0.00000000000E+00 -0.46127104405E+03  0.46127105511E+03  0.10100000352E+00 0.  1.
    10030    2    1    2    0    0  0.00000000000E+00  0.00000000000E+00 -0.22231259492E+02  0.90031085128E+03  0.90003633262E+03 0.  0.
        1    1    3    3  502    0 -0.27285055433E+03 -0.28673364498E+03 -0.22531347528E+03  0.45544458536E+03  0.50400001928E-02 0.  1.
       -1    1    3    3    0  502  0.27285055433E+03  0.28673364498E+03  0.20308221579E+03  0.44486626593E+03  0.50400001928E-02 0. -1.
</event>
<event>
 5   0  0.2351435E-04  0.9002276E+03  0.7818609E-02  0.9425297E-01
        1   -1    0    0  501    0  0.00000000000E+00  0.00000000000E+00  0.63649558942E+03  0.63649558944E+03  0.50400001928E-02 0. -1.
       -1   -1    0    0    0  501  0.00000000000E+00  0.00000000000E+00 -0.31830922110E+03  0.31830922114E+03  0.50400001928E-02 0.  1.
    10030    2    1    2    0    0  0.00000000000E+00  0.00000000000E+00  0.31818636832E+03  0.95480481058E+03  0.90022756086E+03 0.  0.
        4    1    3    3  502    0  0.18061237019E+03  0.17648514347E+03 -0.23609922865E+03  0.34570550010E+03  0.12699999809E+01 0.  1.
       -4    1    3    3    0  502 -0.18061237019E+03 -0.17648514347E+03  0.55428559697E+03  0.60909931049E+03  0.12699999809E+01 0. -1.
</event>
<event>
 5   0  0.2332791E-04  0.9001323E+03  0.7818609E-02  0.9425416E-01
        1   -1    0    0  501    0  0.00000000000E+00  0.00000000000E+00  0.21198523274E+03  0.21198523280E+03  0.50400001928E-02 0. -1.
       -1   -1    0    0    0  501  0.00000000000E+00  0.00000000000E+00 -0.95553616770E+03  0.95553616771E+03  0.50400001928E-02 0.  1.
    10030    2    1    2    0    0  0.00000000000E+00  0.00000000000E+00 -0.74355093495E+03  0.11675214005E+04  0.90013233904E+03 0.  0.
        2    1    3    3  502    0 -0.14079440763E+03 -0.29177076937E+03  0.33450653196E+02  0.32568726300E+03  0.25500000920E-02 0. -1.
       -2    1    3    3    0  502  0.14079440763E+03  0.29177076937E+03 -0.77700158815E+03  0.84183413751E+03  0.25500000920E-02 0.  1.
</event>
<event>
 5   0  0.4110039E-04  0.8997266E+03  0.7818609E-02  0.9425923E-01
        2   -1    0    0  501    0  0.00000000000E+00  0.00000000000E+00  0.65159851306E+03  0.65159851306E+03  0.25500000920E-02 0. -1.
       -2   -1    0    0    0  501  0.00000000000E+00  0.00000000000E+00 -0.31058541112E+03  0.31058541113E+03  0.25500000920E-02 0.  1.
    10030    2    1    2    0    0  0.00000000000E+00  0.00000000000E+00  0.34101310194E+03  0.96218392419E+03  0.89972660752E+03 0.  0.
        3    1    3    3  502    0 -0.43359193671E+02 -0.12471778470E+03  0.63040910339E+03  0.64408865332E+03  0.10100000352E+00 0. -1.
       -3    1    3    3    0  502  0.43359193671E+02  0.12471778470E+03 -0.28939600145E+03  0.31809527087E+03  0.10100000352E+00 0.  1.
</event>
<event>
 5   0  0.4236284E-04  0.8990526E+03  0.7818609E-02  0.9426766E-01
        2   -1    0    0  501    0  0.00000000000E+00  0.00000000000E+00  0.88329178579E+03  0.88329178580E+03  0.25500000920E-02 0. -1.
       -2   -1    0    0    0  501  0.00000000000E+00  0.00000000000E+00 -0.22877365979E+03  0.22877365980E+03  0.25500000920E-02 0.  1.
    10030    2    1    2    0    0  0.00000000000E+00  0.00000000000E+00  0.65451812600E+03  0.11120654456E+04  0.89905260025E+03 0.  0.
        2    1    3    3  502    0  0.11760697636E+03 -0.32384047358E+03  0.68440830469E+03  0.76623676546E+03  0.25500000920E-02 0. -1.
       -2    1    3    3    0  502 -0.11760697636E+03  0.32384047358E+03 -0.29890178681E+02  0.34582868014E+03  0.25500000920E-02 0.  1.
</event>
<event>
 5   0  0.4110039E-04  0.8996662E+03  0.7818609E-02  0.9425999E-01
       -2   -1    0    0    0  501  0.00000000000E+00  0.00000000000E+00  0.19241184779E+03  0.19241184781E+03  0.25500000920E-02 0.  1.
        2   -1    0    0  501    0  0.00000000000E+00  0.00000000000E+00 -0.10516494694E+04  0.10516494694E+04  0.25500000920E-02 0. -1.
    10030    2    1    2    0    0  0.00000000000E+00  0.00000000000E+00 -0.85923762165E+03  0.12440613172E+04  0.89966619955E+03 0.  0.
        3    1    3    3  502    0 -0.21665478007E+03  0.33842459932E+03 -0.70920269243E+03  0.81513126078E+03  0.10100000352E+00 0. -1.
       -3    1    3    3    0  502  0.21665478007E+03 -0.33842459932E+03 -0.15003492921E+03  0.42893005646E+03  0.10100000352E+00 0.  1.
</event>
<event>
 5   0  0.3959804E-04  0.9011745E+03  0.7818609E-02  0.9424114E-01
        2   -1    0    0  501    0  0.00000000000E+00  0.00000000000E+00  0.43343193518E+03  0.43343193519E+03  0.25500000920E-02 0.  1.
       -2   -1    0    0    0  501  0.00000000000E+00  0.00000000000E+00 -0.46842158372E+03  0.46842158373E+03  0.25500000920E-02 0. -1.
    10030    2    1    2    0    0  0.00000000000E+00  0.00000000000E+00 -0.34989648543E+02  0.90185351892E+03  0.90117450812E+03 0.  0.
        5    1    3    3  502    0  0.25647626457E+03  0.31724272369E+03 -0.20890776542E+03  0.45835310021E+03  0.46999998093E+01 0. -1.
       -5    1    3    3    0  502 -0.25647626457E+03 -0.31724272369E+03  0.17391811688E+03  0.44350041871E+03  0.46999998093E+01 0.  1.
</event>
<event>
 5   0  0.1596250E-04  0.9006467E+03  0.7818609E-02  0.9424773E-01
        3   -1    0    0  501    0  0.00000000000E+00  0.00000000000E+00  0.26645497912E+03  0.26645499826E+03  0.10100000352E+00 0. -1.
       -3   -1    0    0    0  501  0.00000000000E+00  0.00000000000E+00 -0.76107078583E+03  0.76107079253E+03  0.10100000352E+00 0.  1.
    10030    2    1    2    0    0  0.00000000000E+00  0.00000000000E+00 -0.49461580671E+03  0.10275257908E+04  0.90064668682E+03 0.  0.
        5    1    3    3  502    0  0.38334140628E+03  0.11270548111E+03 -0.10412396130E+02  0.39972949257E+03  0.46999998093E+01 0. -1.
       -5    1    3    3    0  502 -0.38334140628E+03 -0.11270548111E+03 -0.48420341058E+03  0.62779629822E+03  0.46999998093E+01 0.  1.
</event>
<event>
 5   0  0.2356918E-04  0.8999809E+03  0.7818609E-02  0.9425605E-01
        1   -1    0    0  501    0  0.00000000000E+00  0.00000000000E+00  0.50433973169E+03  0.50433973171E+03  0.50400001928E-02 0. -1.
       -1   -1    0    0    0  501  0.00000000000E+00  0.00000000000E+00 -0.40149805101E+03  0.40149805104E+03  0.50400001928E-02 0.  1.
    10030    2    1    2    0    0  0.00000000000E+00  0.00000000000E+00  0.10284168067E+03  0.90583778275E+03  0.89998093168E+03 0.  0.
        5    1    3    3  502    0 -0.22299630865E+03 -0.36612152909E+03  0.18904767012E+03  0.46854395665E+03  0.46999998093E+01 0. -1.
       -5    1    3    3    0  502  0.22299630865E+03  0.36612152909E+03 -0.86205989445E+02  0.43729382611E+03  0.46999998093E+01 0.  1.
</event>
<event>
 5   0  0.2332791E-04  0.8999323E+03  0.7818609E-02  0.9425666E-01
       -1   -1    0    0    0  501  0.00000000000E+00  0.00000000000E+00  0.43618311561E+03  0.43618311564E+03  0.50400001928E-02 0. -1.
        1   -1    0    0  501    0  0.00000000000E+00  0.00000000000E+00 -0.46418476369E+03  0.46418476372E+03  0.50400001928E-02 0.  1.
    10030    2    1    2    0    0  0.00000000000E+00  0.00000000000E+00 -0.28001648083E+02  0.90036787936E+03  0.89993234517E+03 0.  0.
        2    1    3    3  502    0  0.24114095191E+03  0.37398310947E+03 -0.80795636179E+02  0.45226127370E+03  0.25500000920E-02 0.  1.
       -2    1    3    3    0  502 -0.24114095191E+03 -0.37398310947E+03  0.52793988095E+02  0.44810660566E+03  0.25500000920E-02 0. -1.
</event>
<event>
 5   0  0.2450427E-04  0.9006040E+03  0.7818609E-02  0.9424827E-01
        1   -1    0    0  501    0  0.00000000000E+00  0.00000000000E+00  0.94818526509E+03  0.94818526510E+03  0.50400001928E-02 0.  1.
       -1   -1    0    0    0  501  0.00000000000E+00  0.00000000000E+00 -0.21385258893E+03  0.21385258899E+03  0.50400001928E-02 0. -1.
    10030    2    1    2    0    0  0.00000000000E+00  0.00000000000E+00  0.73433267616E+03  0.11620378541E+04  0.90060396127E+03 0.  0.
        3    1    3    3  502    0  0.32558630617E+03 -0.12146218576E+03 -0.23435570139E+01  0.34751260092E+03  0.10100000352E+00 0.  1.
       -3    1    3    3    0  502 -0.32558630617E+03  0.12146218576E+03  0.73667623317E+03  0.81452525317E+03  0.10100000352E+00 0. -1.
</event>
<event>
 5   0  0.4236284E-04  0.8997009E+03  0.7818609E-02  0.9425955E-01
       -2   -1    0    0    0  501  0.00000000000E+00  0.00000000000E+00  0.14012146450E+03  0.14012146453E+03  0.25500000920E-02 0. -1.
        2   -1    0    0  501    0  0.00000000000E+00  0.00000000000E+00 -0.14442143078E+04  0.14442143078E+04  0.25500000920E-02 0.  1.
    10030    2    1    2    0    0  0.00000000000E+00  0.00000000000E+00 -0.13040928433E+04  0.15843357723E+04  0.89970089226E+03 0.  0.
        2    1    3    3  502    0  0.24044880675E+03 -0.35723952305E+03 -0.42292064827E+03  0.60357069200E+03  0.25500000920E-02 0. -1.
       -2    1    3    3    0  502 -0.24044880675E+03  0.35723952305E+03 -0.88117219501E+03  0.98076508031E+03  0.25500000920E-02 0.  1.
</event>
<event>
 5   0  0.4243516E-04  0.9004689E+03  0.7818609E-02  0.9424996E-01
        2   -1    0    0  501    0  0.00000000000E+00  0.00000000000E+00  0.21260979432E+04  0.21260979432E+04  0.25500000920E-02 0.  1.
       -2   -1    0    0    0  501  0.00000000000E+00  0.00000000000E+00 -0.95344170397E+02  0.95344170431E+02  0.25500000920E-02 0. -1.
    10030    2    1    2    0    0  0.00000000000E+00  0.00000000000E+00  0.20307537728E+04  0.22214421137E+04  0.90046886591E+03 0.  0.
        1    1    3    3  502    0 -0.19849612232E+03 -0.32947771448E+03  0.43810916034E+03  0.58300592734E+03  0.50400001928E-02 0. -1.
       -1    1    3    3    0  502  0.19849612232E+03  0.32947771448E+03  0.15926446125E+04  0.16384361863E+04  0.50400001928E-02 0.  1.
</event>
<event>
 5   0  0.4243516E-04  0.8992850E+03  0.7818609E-02  0.9426476E-01
        2   -1    0    0  501    0  0.00000000000E+00  0.00000000000E+00  0.35978429177E+03  0.35978429178E+03  0.25500000920E-02 0.  1.
       -2   -1    0    0    0  501  0.00000000000E+00  0.00000000000E+00 -0.56194327919E+03  0.56194327919E+03  0.25500000920E-02 0. -1.
    10030    2    1    2    0    0  0.00000000000E+00  0.00000000000E+00 -0.20215898742E+03  0.92172757097E+03  0.89928497090E+03 0.  0.
        1    1    3    3  502    0  0.39620886354E+02  0.14951999817E+03 -0.53381530678E+03  0.55577407844E+03  0.50400001928E-02 0. -1.
       -1    1    3    3    0  502 -0.39620886354E+02 -0.14951999817E+03  0.33165631937E+03  0.36595349252E+03  0.50400001928E-02 0.  1.
</event>
<event>
 5   0  0.4110039E-04  0.8998714E+03  0.7818609E-02  0.9425742E-01
       -2   -1    0    0    0  501  0.00000000000E+00  0.00000000000E+00  0.84619714618E+02  0.84619714657E+02  0.25500000920E-02 0.  1.
        2   -1    0    0  501    0  0.00000000000E+00  0.00000000000E+00 -0.23923756108E+04  0.23923756108E+04  0.25500000920E-02 0. -1.
    10030    2    1    2    0    0  0.00000000000E+00  0.00000000000E+00 -0.23077558962E+04  0.24769953255E+04  0.89987141636E+03 0.  0.
        3    1    3    3  502    0  0.21340961690E+02  0.25423646246E+03 -0.21740181844E+04  0.21889373430E+04  0.10100000352E+00 0. -1.
       -3    1    3    3    0  502 -0.21340961690E+02 -0.25423646246E+03 -0.13373771183E+03  0.28805798246E+03  0.10100000352E+00 0.  1.
</event>
<event>
 5   0  0.2351435E-04  0.9000632E+03  0.7818609E-02  0.9425502E-01
        1   -1    0    0  501    0  0.00000000000E+00  0.00000000000E+00  0.14254915957E+03  0.14254915966E+03  0.50400001928E-02 0.  1.
       -1   -1    0    0    0  501  0.00000000000E+00  0.00000000000E+00 -0.14207621709E+04  0.14207621710E+04  0.50400001928E-02 0. -1.
    10030    2    1    2    0    0  0.00000000000E+00  0.00000000000E+00 -0.12782130114E+04  0.15633113306E+04  0.90006322776E+03 0.  0.
        4    1    3    3  502    0  0.42038615242E+03 -0.16004817773E+03 -0.61536096586E+03  0.76224055753E+03  0.12699999809E+01 0. -1.
       -4    1    3    3    0  502 -0.42038615242E+03  0.16004817773E+03 -0.66285204552E+03  0.80107077308E+03  0.12699999809E+01 0.  1.
</event>
<event>
 5   0  0.4110039E-04  0.9002949E+03  0.7818609E-02  0.9425213E-01
        2   -1    0    0  501    0  0.00000000000E+00  0.00000000000E+00  0.55213688278E+03  0.55213688279E+03  0.25500000920E-02 0.  1.
       -2   -1    0    0    0  501  0.00000000000E+00  0.00000000000E+00 -0.36699724776E+03  0.36699724777E+03  0.25500000920E-02 0. -1.
    10030    2    1    2    0    0  0.00000000000E+00  0.00000000000E+00  0.18513963502E+03  0.91913413056E+03  0.90029487697E+03 0.  0.
        3    1    3    3  502    0 -0.41446333311E+03 -0.13424454343E+03 -0.23075664193E+02  0.43627279128E+03  0.10100000352E+00 0.  1.
       -3    1    3    3    0  502  0.41446333311E+03  0.13424454343E+03  0.20821529921E+03  0.48286133927E+03  0.10100000352E+00 0. -1.
</event>
<event>
 5   0  0.2332791E-04  0.9003111E+03  0.7818609E-02  0.9425193E-01
        1   -1    0    0  501    0  0.00000000000E+00  0.00000000000E+00  0.42698547342E+03  0.42698547345E+03  0.50400001928E-02 0. -1.
       -1   -1    0    0    0  501  0.00000000000E+00  0.00000000000E+00 -0.47458291204E+03  0.47458291206E+03  0.50400001928E-02 0.  1.
    10030    2    1    2    0    0  0.00000000000E+00  0.00000000000E+00 -0.47597438618E+02  0.90156838551E+03  0.90031107824E+03 0.  0.
        2    1    3    3  502    0 -0.10494976836E+03 -0.38444547641E+03  0.18584318571E+03  0.43971634936E+03  0.25500000920E-02 0. -1.
       -2    1    3    3    0  502  0.10494976836E+03  0.38444547641E+03 -0.23344062433E+03  0.46185203616E+03  0.25500000920E-02 0.  1.
</event>
<event>
 5   0  0.1596250E-04  0.9000563E+03  0.7818609E-02  0.9425511E-01
       -4   -1    0    0    0  501  0.00000000000E+00  0.00000000000E+00  0.90333562878E+03  0.90333652153E+03  0.12699999809E+01 0.  1.
        4   -1    0    0  501    0  0.00000000000E+00  0.00000000000E+00 -0.22419441001E+03  0.22419800708E+03  0.12699999809E+01 0. -1.
    10030    2    1    2    0    0  0.00000000000E+00  0.00000000000E+00  0.67914121877E+03  0.11275345286E+04  0.90005628611E+03 0.  0.
        2    1    3    3  502    0 -0.49508366007E+02  0.41367808770E+02 -0.21837320367E+03  0.22770425994E+03  0.25500000920E-02 0. -1.
       -2    1    3    3    0  502  0.49508366007E+02 -0.41367808770E+02  0.89751442245E+03  0.89983026867E+03  0.25500000920E-02 0.  1.
</event>
<event>
 5   0  0.4110039E-04  0.8996634E+03  0.7818609E-02  0.9426002E-01
       -2   -1    0    0    0  501  0.00000000000E+00  0.00000000000E+00  0.16582113793E+03  0.16582113795E+03  0.25500000920E-02 0.  1.
        2   -1    0    0  501    0  0.00000000000E+00  0.00000000000E+00 -0.12202821749E+04  0.12202821749E+04  0.25500000920E-02 0. -1.
    10030    2    1    2    0    0  0.00000000000E+00  0.00000000000E+00 -0.10544610369E+04  0.13861033128E+04  0.89966344561E+03 0.  0.
        3    1    3    3  502    0  0.23241127121E+00 -0.34506275766E+03 -0.97184788999E+03  0.10312888500E+04  0.10100000352E+00 0. -1.
       -3    1    3    3    0  502 -0.23241127121E+00  0.34506275766E+03 -0.82613146946E+02  0.35481446277E+03  0.10100000352E+00 0.  1.
</event>
<event>
 5   0  0.2332791E-04  0.9001602E+03  0.7818609E-02  0.9425381E-01
       -1   -1    0    0    0  501  0.00000000000E+00  0.00000000000E+00  0.35201114840E+03  0.35201114844E+03  0.50400001928E-02 0. -1.
        1   -1    0    0  501    0  0.00000000000E+00  0.00000000000E+00 -0.57547072444E+03  0.57547072446E+03  0.50400001928E-02 0.  1.
    10030    2    1    2    0    0  0.00000000000E+00  0.00000000000E+00 -0.22345957604E+03  0.92748187290E+03  0.90016023154E+03 0.  0.
        2    1    3    3  502    0 -0.75241481344E+02  0.22630863504E+03 -0.50501559842E+03  0.55849586700E+03  0.25500000920E-02 0.  1.
       -2    1    3    3    0  502  0.75241481344E+02 -0.22630863504E+03  0.28155602238E+03  0.36898600590E+03  0.25500000920E-02 0. -1.
</event>
<event>
 5   0  0.2332791E-04  0.9000114E+03  0.7818609E-02  0.9425567E-01
       -1   -1    0    0    0  501  0.00000000000E+00  0.00000000000E+00  0.88343703013E+03  0.88343703014E+03  0.50400001928E-02 0. -1.
        1   -1    0    0  501    0  0.00000000000E+00  0.00000000000E+00 -0.22922416930E+03  0.22922416936E+03  0.50400001928E-02 0.  1.
    10030    2    1    2    0    0  0.00000000000E+00  0.00000000000E+00  0.65421286083E+03  0.11126611995E+04  0.90001137638E+03 0.  0.
        2    1    3    3  502    0  0.25755349517E+03 -0.29649509905E+02 -0.12762121810E+03  0.28896378947E+03  0.25500000920E-02 0.  1.
       -2    1    3    3    0  502 -0.25755349517E+03  0.29649509905E+02  0.78183407893E+03  0.82369741003E+03  0.25500000920E-02 0. -1.
</event>
<event>
 5   0  0.1596250E-04  0.8966267E+03  0.7818609E-02  0.9429808E-01
       -3   -1    0    0    0  501  0.00000000000E+00  0.00000000000E+00  0.93757852297E+03  0.93757852841E+03  0.10100000352E+00 0. -1.
        3   -1    0    0  501    0  0.00000000000E+00  0.00000000000E+00 -0.21436586322E+03  0.21436588701E+03  0.10100000352E+00 0.  1.
    10030    2    1    2    0    0  0.00000000000E+00  0.00000000000E+00  0.72321265975E+03  0.11519444154E+04  0.89662666980E+03 0.  0.
        3    1    3    3  502    0 -0.22639423188E+03 -0.28962112139E+02 -0.13413495928E+03  0.26473637768E+03  0.10100000352E+00 0.  1.
       -3    1    3    3    0  502  0.22639423188E+03  0.28962112139E+02  0.85734761903E+03  0.88720803773E+03  0.10100000352E+00 0. -1.
</event>
<event>
 5   0  0.2356918E-04  0.9002284E+03  0.7818609E-02  0.9425296E-01
       -1   -1    0    0    0  501  0.00000000000E+00  0.00000000000E+00  0.21883068365E+03  0.21883068371E+03  0.50400001928E-02 0.  1.
        1   -1    0    0  501    0  0.00000000000E+00  0.00000000000E+00 -0.92584261101E+03  0.92584261103E+03  0.50400001928E-02 0. -1.
    10030    2    1    2    0    0  0.00000000000E+00  0.00000000000E+00 -0.70701192737E+03  0.11446732947E+04  0.90022835227E+03 0.  0.
        5    1    3    3  502    0  0.43974935618E+03 -0.63032726816E+02 -0.26156709136E+03  0.51555024410E+03  0.46999998093E+01 0. -1.
       -5    1    3    3    0  502 -0.43974935618E+03  0.63032726816E+02 -0.44544483601E+03  0.62912305063E+03  0.46999998093E+01 0.  1.
</event>
<event>
 5   0  0.4236284E-04  0.9002603E+03  0.7818609E-02  0.9425256E-01
       -2   -1    0    0    0  501  0.00000000000E+00  0.00000000000E+00  0.23892931805E+03  0.23892931806E+03  0.25500000920E-02 0. -1.
        2   -1    0    0  501    0  0.00000000000E+00  0.00000000000E+00 -0.84802134752E+03  0.84802134752E+03  0.25500000920E-02 0.  1.
    10030    2    1    2    0    0  0.00000000000E+00  0.00000000000E+00 -0.60909202947E+03  0.10869506656E+04  0.90026032293E+03 0.  0.
        2    1    3    3  502    0 -0.35468085158E+03  0.10846669629E+03 -0.61249409123E+03  0.71603948388E+03  0.25500000920E-02 0.  1.
       -2    1    3    3    0  502  0.35468085158E+03 -0.10846669629E+03  0.34020617578E+01  0.37091118170E+03  0.25500000920E-02 0. -1.
</event>
<event>
 5   0  0.4236284E-04  0.9013334E+03  0.7818609E-02  0.9423916E-01
       -2   -1    0    0    0  501  0.00000000000E+00  0.00000000000E+00  0.15440658860E+03  0.15440658863E+03  0.25500000920E-02 0.  1.
        2   -1    0    0  501    0  0.00000000000E+00  0.00000000000E+00 -0.13153614201E+04  0.13153614201E+04  0.25500000920E-02 0. -1.
    10030    2    1    2    0    0  0.00000000000E+00  0.00000000000E+00 -0.11609548315E+04  0.14697680088E+04  0.90133338934E+03 0.  0.
        2    1    3    3  502    0 -0.43303404672E+03  0.52114361296E+02 -0.76544107582E+03  0.88098492202E+03  0.25500000920E-02 0. -1.
       -2    1    3    3    0  502  0.43303404672E+03 -0.52114361296E+02 -0.39551375571E+03  0.58878308674E+03  0.25500000920E-02 0.  1.
</event>
<event>
 5   0  0.2450427E-04  0.9002719E+03  0.7818609E-02  0.9425242E-01
       -1   -1    0    0    0  501  0.00000000000E+00  0.00000000000E+00  0.63515909583E+03  0.63515909585E+03  0.50400001928E-02 0.  1.
        1   -1    0    0  501    0  0.00000000000E+00  0.00000000000E+00 -0.31901044089E+03  0.31901044093E+03  0.50400001928E-02 0. -1.
    10030    2    1    2    0    0  0.00000000000E+00  0.00000000000E+00  0.31614865494E+03  0.95416953678E+03  0.90027192164E+03 0.  0.
        3    1    3    3  502    0 -0.39707346966E+02 -0.25416238133E+03  0.54957645777E+03  0.60680267189E+03  0.10100000352E+00 0.  1.
       -3    1    3    3    0  502  0.39707346966E+02  0.25416238133E+03 -0.23342780283E+03  0.34736686488E+03  0.10100000352E+00 0. -1.
</event>
<event>
 5   0  0.4033144E-04  0.8998440E+03  0.7818609E-02  0.9425777E-01
        2   -1    0    0  501    0  0.00000000000E+00  0.00000000000E+00  0.17964830625E+04  0.17964830625E+04  0.25500000920E-02 0.  1.
       -2   -1    0    0    0  501  0.00000000000E+00  0.00000000000E+00 -0.11268115396E+03  0.11268115399E+03  0.25500000920E-02 0. -1.
    10030    2    1    2    0    0  0.00000000000E+00  0.00000000000E+00  0.16838019086E+04  0.19091642165E+04  0.89984395220E+03 0.  0.
        4    1    3    3  502    0  0.16710355908E+03  0.36859815859E+03  0.42484485950E+03  0.58675631186E+03  0.12699999809E+01 0. -1.
       -4    1    3    3    0  502 -0.16710355908E+03 -0.36859815859E+03  0.12589570491E+04  0.13224079046E+04  0.12699999809E+01 0.  1.
</event>
<event>
 5   0  0.2308362E-04  0.9007152E+03  0.7818609E-02  0.9424688E-01
       -1   -1    0    0    0  501  0.00000000000E+00  0.00000000000E+00  0.60074665884E+03  0.60074665886E+03  0.50400001928E-02 0. -1.
        1   -1    0    0  501    0  0.00000000000E+00  0.00000000000E+00 -0.33761647264E+03  0.33761647268E+03  0.50400001928E-02 0.  1.
    10030    2    1    2    0    0  0.00000000000E+00  0.00000000000E+00  0.26313018620E+03  0.93836313154E+03  0.90071520013E+03 0.  0.
        1    1    3    3  502    0 -0.15476679981E+03 -0.42250452261E+03  0.11182215971E+03  0.46364537028E+03  0.50400001928E-02 0. -1.
       -1    1    3    3    0  502  0.15476679981E+03  0.42250452261E+03  0.15130802648E+03  0.47471776126E+03  0.50400001928E-02 0.  1.
</event>
<event>
 5   0  0.4236284E-04  0.9000706E+03  0.7818609E-02  0.9425493E-01
       -2   -1    0    0    0  501  0.00000000000E+00  0.00000000000E+00  0.18917833608E+03  0.18917833610E+03  0.25500000920E-02 0. -1.
        2   -1    0    0  501    0  0.00000000000E+00  0.00000000000E+00 -0.10705865631E+04  0.10705865631E+04  0.25500000920E-02 0.  1.
    10030    2    1    2    0    0  0.00000000000E+00  0.00000000000E+00 -0.88140822706E+03  0.12597648992E+04  0.90007062980E+03 0.  0.
        2    1    3    3  502    0  0.26910122556E+03  0.44030693660E+02  0.60389656056E+02  0.27928673822E+03  0.25500000920E-02 0. -1.
       -2    1    3    3    0  502 -0.26910122556E+03 -0.44030693660E+02 -0.94179788311E+03  0.98047816101E+03  0.25500000920E-02 0.  1.
</event>
<event>
 5   0  0.2450427E-04  0.9006727E+03  0.7818609E-02  0.9424741E-01
       -1   -1    0    0    0  501  0.00000000000E+00  0.00000000000E+00  0.26256697181E+03  0.26256697186E+03  0.50400001928E-02 0. -1.
        1   -1    0    0  501    0  0.00000000000E+00  0.00000000000E+00 -0.77238517913E+03  0.77238517915E+03  0.50400001928E-02 0.  1.
    10030    2    1    2    0    0  0.00000000000E+00  0.00000000000E+00 -0.50981820732E+03  0.10349521510E+04  0.90067272100E+03 0.  0.
        3    1    3    3  502    0  0.29150808602E+03 -0.34073624956E+03 -0.20718844336E+03  0.49396884238E+03  0.10100000352E+00 0. -1.
       -3    1    3    3    0  502 -0.29150808602E+03  0.34073624956E+03 -0.30262976396E+03  0.54098330863E+03  0.10100000352E+00 0.  1.
</event>
<event>
 5   0  0.1596250E-04  0.8980213E+03  0.7818609E-02  0.9428058E-01
       -3   -1    0    0    0  501  0.00000000000E+00  0.00000000000E+00  0.21786601126E+03  0.21786603467E+03  0.10100000352E+00 0.  1.
        3   -1    0    0  501    0  0.00000000000E+00  0.00000000000E+00 -0.92538775032E+03  0.92538775583E+03  0.10100000352E+00 0. -1.
    10030    2    1    2    0    0  0.00000000000E+00  0.00000000000E+00 -0.70752173906E+03  0.11432537905E+04  0.89802127939E+03 0.  0.
        5    1    3    3  502    0  0.24531945099E+03 -0.31402467781E+03 -0.61712354683E+03  0.73461329511E+03  0.46999998093E+01 0. -1.
       -5    1    3    3    0  502 -0.24531945099E+03  0.31402467781E+03 -0.90398192238E+02  0.40864049539E+03  0.46999998093E+01 0.  1.
</event>
<event>
 5   0  0.4243516E-04  0.8998426E+03  0.7818609E-02  0.9425778E-01
        2   -1    0    0  501    0  0.00000000000E+00  0.00000000000E+00  0.53328214507E+03  0.53328214508E+03  0.25500000920E-02 0.  1.
       -2   -1    0    0    0  501  0.00000000000E+00  0.00000000000E+00 -0.37959116528E+03  0.37959116529E+03  0.25500000920E-02 0. -1.
    10030    2    1    2    0    0  0.00000000000E+00  0.00000000000E+00  0.15369097979E+03  0.91287331037E+03  0.89984263264E+03 0.  0.
        1    1    3    3  502    0 -0.32663883325E+02 -0.36171283460E+03  0.34625867009E+03  0.50179494878E+03  0.50400001928E-02 0.  1.
       -1    1    3    3    0  502  0.32663883325E+02  0.36171283460E+03 -0.19256769030E+03  0.41107836158E+03  0.50400001928E-02 0. -1.
</event>
<event>
 5   0  0.1596250E-04  0.8998251E+03  0.7818609E-02  0.9425800E-01
        4   -1    0    0  501    0  0.00000000000E+00  0.00000000000E+00  0.22966385132E+03  0.22966736272E+03  0.12699999809E+01 0.  1.
       -4   -1    0    0    0  501  0.00000000000E+00  0.00000000000E+00 -0.88137003629E+03  0.88137095128E+03  0.12699999809E+01 0. -1.
    10030    2    1    2    0    0  0.00000000000E+00  0.00000000000E+00 -0.65170618497E+03  0.11110383140E+04  0.89982508504E+03 0.  0.
        2    1    3    3  502    0 -0.23520301803E+03  0.15893040924E+03 -0.75684526243E+03  0.80832795692E+03  0.25500000920E-02 0. -1.
       -2    1    3    3    0  502  0.23520301803E+03 -0.15893040924E+03  0.10513907746E+03  0.30271035709E+03  0.25500000920E-02 0.  1.
</event>
<event>
 5   0  0.2308362E-04  0.9001346E+03  0.7818609E-02  0.9425413E-01
       -1   -1    0    0    0  501  0.00000000000E+00  0.00000000000E+00  0.45556285798E+03  0.45556285801E+03  0.50400001928E-02 0. -1.
        1   -1    0    0  501    0  0.00000000000E+00  0.00000000000E+00 -0.44463807531E+03  0.44463807534E+03  0.50400001928E-02 0.  1.
    10030    2    1    2    0    0  0.00000000000E+00  0.00000000000E+00  0.10924782671E+02  0.90020093334E+03  0.90013463966E+03 0.  0.
        1    1    3    3  502    0  0.27270754131E+03  0.31888539331E+03 -0.15734792531E+03  0.44812461077E+03  0.50400001928E-02 0.  1.
       -1    1    3    3    0  502 -0.27270754131E+03 -0.31888539331E+03  0.16827270798E+03  0.45207632257E+03  0.50400001928E-02 0. -1.
</event>
<event>
 5   0  0.2332791E-04  0.9000609E+03  0.7818609E-02  0.9425505E-01
       -1   -1    0    0    0  501  0.00000000000E+00  0.00000000000E+00  0.15818210384E+03  0.15818210392E+03  0.50400001928E-02 0.  1.
        1   -1    0    0  501    0  0.00000000000E+00  0.00000000000E+00 -0.12803432245E+04  0.12803432245E+04  0.50400001928E-02 0. -1.
    10030    2    1    2    0    0  0.00000000000E+00  0.00000000000E+00 -0.11221611207E+04  0.14385253284E+04  0.90006085339E+03 0.  0.
        2    1    3    3  502    0 -0.19955716954E+03  0.88577775014E+02  0.67864747976E+02  0.22863663347E+03  0.25500000920E-02 0.  1.
       -2    1    3    3    0  502  0.19955716954E+03 -0.88577775014E+02 -0.11900258686E+04  0.12098886950E+04  0.25500000920E-02 0. -1.
</event>
<event>
 5   0  0.2351435E-04  0.8996203E+03  0.7818609E-02  0.9426056E-01
       -1   -1    0    0    0  501  0.00000000000E+00  0.00000000000E+00  0.28451584448E+03  0.28451584452E+03  0.50400001928E-02 0. -1.
        1   -1    0    0  501    0  0.00000000000E+00  0.00000000000E+00 -0.71113492461E+03  0.71113492463E+03  0.50400001928E-02 0.  1.
    10030    2    1    2    0    0  0.00000000000E+00  0.00000000000E+00 -0.42661908013E+03  0.99565076916E+03  0.89962026132E+03 0.  0.
        4    1    3    3  502    0  0.74309797752E+02  0.71810496250E+02 -0.69781749424E+03  0.70542863677E+03  0.12699999809E+01 0.  1.
       -4    1    3    3    0  502 -0.74309797752E+02 -0.71810496250E+02  0.27119841410E+03  0.29022213238E+03  0.12699999809E+01 0. -1.
</event>
<event>
 5   0  0.4236284E-04  0.9000453E+03  0.7818609E-02  0.9425525E-01
       -2   -1    0    0    0  501  0.00000000000E+00  0.00000000000E+00  0.15300960949E+03  0.15300960951E+03  0.25500000920E-02 0.  1.
        2   -1    0    0  501    0  0.00000000000E+00  0.00000000000E+00 -0.13235795947E+04  0.13235795947E+04  0.25500000920E-02 0. -1.
    10030    2    1    2    0    0  0.00000000000E+00  0.00000000000E+00 -0.11705699852E+04  0.14765892042E+04  0.90004532537E+03 0.  0.
        2    1    3    3  502    0  0.35421608112E+03  0.12695730707E+03 -0.99025450231E+03  0.10593352488E+04  0.25500000920E-02 0. -1.
       -2    1    3    3    0  502 -0.35421608112E+03 -0.12695730707E+03 -0.18031548286E+03  0.41725395541E+03  0.25500000920E-02 0.  1.
</event>
<event>
 5   0  0.4236284E-04  0.8996970E+03  0.7818609E-02  0.9425960E-01
       -2   -1    0    0    0  501  0.00000000000E+00  0.00000000000E+00  0.13469800345E+03  0.13469800347E+03  0.25500000920E-02 0.  1.
        2   -1    0    0  501    0  0.00000000000E+00  0.00000000000E+00 -0.15023510708E+04  0.15023510708E+04  0.25500000920E-02 0. -1.
    10030    2    1    2    0    0  0.00000000000E+00  0.00000000000E+00 -0.13676530674E+04  0.16370490743E+04  0.89969703730E+03 0.  0.
        2    1    3    3  502    0  0.19366698369E+03  0.36355112250E+03 -0.35485721077E+03  0.54369105132E+03  0.25500000920E-02 0.  1.
       -2    1    3    3    0  502 -0.19366698369E+03 -0.36355112250E+03 -0.10127958566E+04  0.10933580229E+04  0.25500000920E-02 0. -1.
</event>
<event>
 5   0  0.4033144E-04  0.8998376E+03  0.7818609E-02  0.9425785E-01
        2   -1    0    0  501    0  0.00000000000E+00  0.00000000000E+00  0.15119755454E+04  0.15119755454E+04  0.25500000920E-02 0.  1.
       -2   -1    0    0    0  501  0.00000000000E+00  0.00000000000E+00 -0.13388239514E+03  0.13388239517E+03  0.25500000920E-02 0. -1.
    10030    2    1    2    0    0  0.00000000000E+00  0.00000000000E+00  0.13780931502E+04  0.16458579405E+04  0.89983755741E+03 0.  0.
        4    1    3    3  502    0  0.31940114324E+03 -0.29517284792E+03  0.89983501666E+03  0.99942421952E+03  0.12699999809E+01 0. -1.
       -4    1    3    3    0  502 -0.31940114324E+03  0.29517284792E+03  0.47825813355E+03  0.64643372101E+03  0.12699999809E+01 0.  1.
</event>
<event>
 5   0  0.3959804E-04  0.9001268E+03  0.7818609E-02  0.9425423E-01
        2   -1    0    0  501    0  0.00000000000E+00  0.00000000000E+00  0.10160285312E+04  0.10160285312E+04  0.25500000920E-02 0. -1.
       -2   -1    0    0    0  501  0.00000000000E+00  0.00000000000E+00 -0.19936159932E+03  0.19936159933E+03  0.25500000920E-02 0.  1.
    10030    2    1    2    0    0  0.00000000000E+00  0.00000000000E+00  0.81666693193E+03  0.12153901306E+04  0.90012681985E+03 0.  0.
        5    1    3    3  502    0 -0.29471623628E+03 -0.18371602122E+03  0.21857752783E+02  0.34800730989E+03  0.46999998093E+01 0.  1.
       -5    1    3    3    0  502  0.29471623628E+03  0.18371602122E+03  0.79480917915E+03  0.86738282069E+03  0.46999998093E+01 0. -1.
</event>
<event>
 5   0  0.4236284E-04  0.8999201E+03  0.7818609E-02  0.9425681E-01
        2   -1    0    0  501    0  0.00000000000E+00  0.00000000000E+00  0.98824488913E+03  0.98824488913E+03  0.25500000920E-02 0. -1.
       -2   -1    0    0    0  501  0.00000000000E+00  0.00000000000E+00 -0.20487232624E+03  0.20487232625E+03  0.25500000920E-02 0.  1.
    10030    2    1    2    0    0  0.00000000000E+00  0.00000000000E+00  0.78337256289E+03  0.11931172154E+04  0.89992006165E+03 0.  0.
        2    1    3    3  502    0 -0.21530015049E+03 -0.38895844791E+03  0.48374327080E+03  0.65700105103E+03  0.25500000920E-02 0.  1.
       -2    1    3    3    0  502  0.21530015049E+03  0.38895844791E+03  0.29962929209E+03  0.53611616436E+03  0.25500000920E-02 0. -1.
</event>
<event>
 5   0  0.4243516E-04  0.9012148E+03  0.7818609E-02  0.9424064E-01
       -2   -1    0    0    0  501  0.00000000000E+00  0.00000000000E+00  0.15309441980E+03  0.15309441982E+03  0.25500000920E-02 0. -1.
        2   -1    0    0  501    0  0.00000000000E+00  0.00000000000E+00 -0.13262863736E+04  0.13262863736E+04  0.25500000920E-02 0.  1.
    10030    2    1    2    0    0  0.00000000000E+00  0.00000000000E+00 -0.11731919538E+04  0.14793807934E+04  0.90121483092E+03 0.  0.
        1    1    3    3  502    0  0.20491756749E+03  0.12144611296E+03  0.41294239714E+02  0.24175521107E+03  0.50400001928E-02 0. -1.
       -1    1    3    3    0  502 -0.20491756749E+03 -0.12144611296E+03 -0.12144861935E+04  0.12376255823E+04  0.50400001928E-02 0.  1.
</event>
<event>
 5   0  0.4033144E-04  0.8999615E+03  0.7818609E-02  0.9425630E-01
        2   -1    0    0  501    0  0.00000000000E+00  0.00000000000E+00  0.17139067417E+03  0.17139067419E+03  0.25500000920E-02 0.  1.
       -2   -1    0    0    0  501  0.00000000000E+00  0.00000000000E+00 -0.11814100968E+04  0.11814100969E+04  0.25500000920E-02 0. -1.
    10030    2    1    2    0    0  0.00000000000E+00  0.00000000000E+00 -0.10100194227E+04  0.13528007710E+04  0.89996149469E+03 0.  0.
        4    1    3    3  502    0 -0.18063680409E+03 -0.37969067355E+03 -0.26409600260E+03  0.49653093968E+03  0.12699999809E+01 0.  1.
       -4    1    3    3    0  502  0.18063680409E+03  0.37969067355E+03 -0.74592342008E+03  0.85626983136E+03  0.12699999809E+01 0. -1.
</event>
<event>
 5   0  0.4033144E-04  0.9002573E+03  0.7818609E-02  0.9425260E-01
        2   -1    0    0  501    0  0.00000000000E+00  0.00000000000E+00  0.47706774078E+03  0.47706774079E+03  0.25500000920E-02 0.  1.
       -2   -1    0    0    0  501  0.00000000000E+00  0.00000000000E+00 -0.42471077104E+03  0.42471077105E+03  0.25500000920E-02 0. -1.
    10030    2    1    2    0    0  0.00000000000E+00  0.00000000000E+00  0.52356969741E+02  0.90177851184E+03  0.90025731440E+03 0.  0.
        4    1    3    3  502    0  0.17878965841E+03  0.18201246649E+03 -0.34528490854E+03  0.42932221103E+03  0.12699999809E+01 0. -1.
       -4    1    3    3    0  502 -0.17878965841E+03 -0.18201246649E+03  0.39764187828E+03  0.47245630081E+03  0.12699999809E+01 0.  1.
</event>
<event>
 5   0  0.3959804E-04  0.8999889E+03  0.7818609E-02  0.9425595E-01
       -2   -1    0    0    0  501  0.00000000000E+00  0.00000000000E+00  0.18278117114E+03  0.18278117116E+03  0.25500000920E-02 0.  1.
        2   -1    0    0  501    0  0.00000000000E+00  0.00000000000E+00 -0.11078548468E+04  0.11078548468E+04  0.25500000920E-02 0. -1.
    10030    2    1    2    0    0  0.00000000000E+00  0.00000000000E+00 -0.92507367562E+03  0.12906360179E+04  0.89998890295E+03 0.  0.
        5    1    3    3  502    0 -0.25213695529E+03  0.23534471915E+03 -0.87695900789E+03  0.94235840982E+03  0.46999998093E+01 0. -1.
       -5    1    3    3    0  502  0.25213695529E+03 -0.23534471915E+03 -0.48114667734E+02  0.34827760810E+03  0.46999998093E+01 0.  1.
</event>
<event>
 5   0  0.2332791E-04  0.8999124E+03  0.7818609E-02  0.9425691E-01
       -1   -1    0    0    0  501  0.00000000000E+00  0.00000000000E+00  0.15532863850E+03  0.15532863858E+03  0.50400001928E-02 0.  1.
        1   -1    0    0  501    0  0.00000000000E+00  0.00000000000E+00 -0.13034336306E+04  0.13034336306E+04  0.50400001928E-02 0. -1.
    10030    2    1    2    0    0  0.00000000000E+00  0.00000000000E+00 -0.11481049921E+04  0.14587622692E+04  0.89991237638E+03 0.  0.
        2    1    3    3  502    0  0.18402310577E+03 -0.38382502834E+03 -0.33761676192E+03  0.54329663516E+03  0.25500000920E-02 0.  1.
       -2    1    3    3    0  502 -0.18402310577E+03  0.38382502834E+03 -0.81048823020E+03  0.91546563406E+03  0.25500000920E-02 0. -1.
</event>
<event>
 5   0  0.3959804E-04  0.9001927E+03  0.7818609E-02  0.9425341E-01
       -2   -1    0    0    0  501  0.00000000000E+00  0.00000000000E+00  0.22746202335E+03  0.22746202336E+03  0.25500000920E-02 0. -1.
        2   -1    0    0  501    0  0.00000000000E+00  0.00000000000E+00 -0.89063968115E+03  0.89063968115E+03  0.25500000920E-02 0.  1.
    10030    2    1    2    0    0  0.00000000000E+00  0.00000000000E+00 -0.66317765780E+03  0.11181017045E+04  0.90019265485E+03 0.  0.
        5    1    3    3  502    0  0.31966899389E+03  0.20027756191E+03 -0.63650419654E+03  0.73990475716E+03  0.46999998093E+01 0. -1.
       -5    1    3    3    0  502 -0.31966899389E+03 -0.20027756191E+03 -0.26673461258E+02  0.37819694736E+03  0.46999998093E+01 0.  1.
</event>
<event>
 5   0  0.4110039E-04  0.9002835E+03  0.7818609E-02  0.9425227E-01
       -2   -1    0    0    0  501  0.00000000000E+00  0.00000000000E+00  0.12222107173E+03  0.12222107176E+03  0.25500000920E-02 0. -1.
        2   -1    0    0  501    0  0.00000000000E+00  0.00000000000E+00 -0.16578778868E+04  0.16578778868E+04  0.25500000920E-02 0.  1.
    10030    2    1    2    0    0  0.00000000000E+00  0.00000000000E+00 -0.15356568151E+04  0.17800989586E+04  0.90028353789E+03 0.  0.
        3    1    3    3  502    0 -0.18806238013E+03  0.32405555921E+02 -0.15739367989E+04  0.15854635398E+04  0.10100000352E+00 0.  1.
       -3    1    3    3    0  502  0.18806238013E+03 -0.32405555921E+02  0.38279983830E+02  0.19463541877E+03  0.10100000352E+00 0. -1.
</event>
<event>
 5   0  0.1596250E-04  0.8993361E+03  0.7818609E-02  0.9426412E-01
       -4   -1    0    0    0  501  0.00000000000E+00  0.00000000000E+00  0.33948429552E+03  0.33948667102E+03  0.12699999809E+01 0. -1.
        4   -1    0    0  501    0  0.00000000000E+00  0.00000000000E+00 -0.59560817135E+03  0.59560952534E+03  0.12699999809E+01 0.  1.
    10030    2    1    2    0    0  0.00000000000E+00  0.00000000000E+00 -0.25612387583E+03  0.93509619637E+03  0.89933611997E+03 0.  0.
        4    1    3    3  502    0 -0.15089120602E+03  0.72677608394E+02  0.30584385221E+03  0.34870082542E+03  0.12699999809E+01 0. -1.
       -4    1    3    3    0  502  0.15089120602E+03 -0.72677608394E+02 -0.56196772804E+03  0.58639537095E+03  0.12699999809E+01 0.  1.
</event>
<event>
 5   0  0.2308362E-04  0.9001557E+03  0.7818609E-02  0.9425387E-01
       -1   -1    0    0    0  501  0.00000000000E+00  0.00000000000E+00  0.68726845692E+03  0.68726845693E+03  0.50400001928E-02 0. -1.
        1   -1    0    0  501    0  0.00000000000E+00  0.00000000000E+00 -0.29474661451E+03  0.29474661456E+03  0.50400001928E-02 0.  1.
    10030    2    1    2    0    0  0.00000000000E+00  0.00000000000E+00  0.39252184240E+03  0.98201507149E+03  0.90015565536E+03 0.  0.
        1    1    3    3  502    0  0.16715815618E+03 -0.26986720613E+03 -0.15181517473E+03  0.35187782742E+03  0.50400001928E-02 0.  1.
       -1    1    3    3    0  502 -0.16715815618E+03  0.26986720613E+03  0.54433701713E+03  0.63013724407E+03  0.50400001928E-02 0. -1.
</event>
<event>
 5   0  0.2356918E-04  0.9001026E+03  0.7818609E-02  0.9425453E-01
       -1   -1    0    0    0  501  0.00000000000E+00  0.00000000000E+00  0.16816665303E+03  0.16816665311E+03  0.50400001928E-02 0. -1.
        1   -1    0    0  501    0  0.00000000000E+00  0.00000000000E+00 -0.12044370759E+04  0.12044370759E+04  0.50400001928E-02 0.  1.
    10030    2    1    2    0    0  0.00000000000E+00  0.00000000000E+00 -0.10362704228E+04  0.13726037290E+04  0.90010255392E+03 0.  0.
        5    1    3    3  502    0  0.15642532368E+03 -0.37392389395E+03 -0.21994733401E+03  0.46117987824E+03  0.46999998093E+01 0. -1.
       -5    1    3    3    0  502 -0.15642532368E+03  0.37392389395E+03 -0.81632308882E+03  0.91142385074E+03  0.46999998093E+01 0.  1.
</event>
<event>
 5   0  0.2356918E-04  0.8989934E+03  0.7818609E-02  0.9426841E-01
        1   -1    0    0  501    0  0.00000000000E+00  0.00000000000E+00  0.11773222299E+04  0.11773222299E+04  0.50400001928E-02 0.  1.
       -1   -1    0    0    0  501  0.00000000000E+00  0.00000000000E+00 -0.17161597685E+03  0.17161597693E+03  0.50400001928E-02 0. -1.
    10030    2    1    2    0    0  0.00000000000E+00  0.00000000000E+00  0.10057062531E+04  0.13489382069E+04  0.89899344740E+03 0.  0.
        5    1    3    3  502    0 -0.29827741598E+03  0.24605506833E+03  0.15900417202E+03  0.41811114581E+03  0.46999998093E+01 0. -1.
       -5    1    3    3    0  502  0.29827741598E+03 -0.24605506833E+03  0.84670208104E+03  0.93082706104E+03  0.46999998093E+01 0.  1.
</event>
<event>
 5   0  0.1596250E-04  0.8998477E+03  0.7818609E-02  0.9425772E-01
        3   -1    0    0  501    0  0.00000000000E+00  0.00000000000E+00  0.10156700369E+04  0.10156700419E+04  0.10100000352E+00 0.  1.
       -3   -1    0    0    0  501  0.00000000000E+00  0.00000000000E+00 -0.19930827706E+03  0.19930830266E+03  0.10100000352E+00 0. -1.
    10030    2    1    2    0    0  0.00000000000E+00  0.00000000000E+00  0.81636175985E+03  0.12149783446E+04  0.89984768427E+03 0.  0.
        1    1    3    3  502    0 -0.29308594517E+03 -0.33338434048E+03  0.50728049607E+03  0.67407565707E+03  0.50400001928E-02 0. -1.
       -1    1    3    3    0  502  0.29308594517E+03  0.33338434048E+03  0.30908126378E+03  0.54090268752E+03  0.50400001928E-02 0.  1.
</event>
<event>
 5   0  0.4243516E-04  0.8999815E+03  0.7818609E-02  0.9425605E-01
        2   -1    0    0  501    0  0.00000000000E+00  0.00000000000E+00  0.18547509222E+04  0.18547509222E+04  0.25500000920E-02 0.  1.
       -2   -1    0    0    0  501  0.00000000000E+00  0.00000000000E+00 -0.10917458256E+03  0.10917458259E+03  0.25500000920E-02 0. -1.
    10030    2    1    2    0    0  0.00000000000E+00  0.00000000000E+00  0.17455763397E+04  0.19639255048E+04  0.89998146141E+03 0.  0.
        1    1    3    3  502    0  0.17786395064E+03 -0.35640916374E+03  0.41594182923E+03  0.57590857110E+03  0.50400001928E-02 0. -1.
       -1    1    3    3    0  502 -0.17786395064E+03  0.35640916374E+03  0.13296345104E+04  0.13880169337E+04  0.50400001928E-02 0.  1.
</event>
<event>
 5   0  0.4243516E-04  0.9000361E+03  0.7818609E-02  0.9425536E-01
        2   -1    0    0  501    0  0.00000000000E+00  0.00000000000E+00  0.13984823241E+04  0.13984823241E+04  0.25500000920E-02 0.  1.
       -2   -1    0    0    0  501  0.00000000000E+00  0.00000000000E+00 -0.14481145586E+03  0.14481145588E+03  0.25500000920E-02 0. -1.
    10030    2    1    2    0    0  0.00000000000E+00  0.00000000000E+00  0.12536708682E+04  0.15432937800E+04  0.90003613564E+03 0.  0.
        1    1    3    3  502    0 -0.27078516394E+03 -0.23518246711E+03  0.10929091813E+04  0.11502547007E+04  0.50400001928E-02 0.  1.
       -1    1    3    3    0  502  0.27078516394E+03  0.23518246711E+03  0.16076168693E+03  0.39303907930E+03  0.50400001928E-02 0. -1.
</event>
<event>
 5   0  0.2351435E-04  0.8999065E+03  0.7818609E-02  0.9425698E-01
       -1   -1    0    0    0  501  0.00000000000E+00  0.00000000000E+00  0.31585563116E+03  0.31585563120E+03  0.50400001928E-02 0. -1.
        1   -1    0    0  501    0  0.00000000000E+00  0.00000000000E+00 -0.64098250241E+03  0.64098250243E+03  0.50400001928E-02 0.  1.
    10030    2    1    2    0    0  0.00000000000E+00  0.00000000000E+00 -0.32512687126E+03  0.95683813363E+03  0.89990651267E+03 0.  0.
        4    1    3    3  502    0 -0.16737741916E+03 -0.87243036943E+02  0.27172459365E+03  0.33085104750E+03  0.12699999809E+01 0. -1.
       -4    1    3    3    0  502  0.16737741916E+03  0.87243036943E+02 -0.59685146490E+03  0.62598708613E+03  0.12699999809E+01 0.  1.
</event>
<event>
 5   0  0.4236284E-04  0.9006130E+03  0.7818609E-02  0.9424815E-01
        2   -1    0    0  501    0  0.00000000000E+00  0.00000000000E+00  0.73516313202E+03  0.73516313202E+03  0.25500000920E-02 0. -1.
       -2   -1    0    0    0  501  0.00000000000E+00  0.00000000000E+00 -0.27582443516E+03  0.27582443518E+03  0.25500000920E-02 0.  1.
    10030    2    1    2    0    0  0.00000000000E+00  0.00000000000E+00  0.45933869685E+03  0.10109875672E+04  0.90061302600E+03 0.  0.
        2    1    3    3  502    0 -0.12669352794E+03  0.30984383822E+03  0.56778299961E+03  0.65911454904E+03  0.25500000920E-02 0. -1.
       -2    1    3    3    0  502  0.12669352794E+03 -0.30984383822E+03 -0.10844430275E+03  0.35187301816E+03  0.25500000920E-02 0.  1.
</event>
<event>
 5   0  0.2356918E-04  0.9017990E+03  0.7818609E-02  0.9423335E-01
       -1   -1    0    0    0  501  0.00000000000E+00  0.00000000000E+00  0.34168450836E+03  0.34168450840E+03  0.50400001928E-02 0.  1.
        1   -1    0    0  501    0  0.00000000000E+00  0.00000000000E+00 -0.59502364060E+03  0.59502364063E+03  0.50400001928E-02 0. -1.
    10030    2    1    2    0    0  0.00000000000E+00  0.00000000000E+00 -0.25333913224E+03  0.93670814903E+03  0.90179900229E+03 0.  0.
        5    1    3    3  502    0  0.38470085009E+03  0.14474141975E+03  0.65824121427E+02  0.41629283877E+03  0.46999998093E+01 0. -1.
       -5    1    3    3    0  502 -0.38470085009E+03 -0.14474141975E+03 -0.31916325367E+03  0.52041531025E+03  0.46999998093E+01 0.  1.
</event>
<event>
 5   0  0.3959804E-04  0.9000901E+03  0.7818609E-02  0.9425469E-01
        2   -1    0    0  501    0  0.00000000000E+00  0.00000000000E+00  0.78686173216E+03  0.78686173216E+03  0.25500000920E-02 0. -1.
       -2   -1    0    0    0  501  0.00000000000E+00  0.00000000000E+00 -0.25740298374E+03  0.25740298375E+03  0.25500000920E-02 0.  1.
    10030    2    1    2    0    0  0.00000000000E+00  0.00000000000E+00  0.52945874842E+03  0.10442647159E+04  0.90009012362E+03 0.  0.
        5    1    3    3  502    0 -0.43350717474E+03 -0.11189256972E+03  0.21194382797E+03  0.49536925008E+03  0.46999998093E+01 0. -1.
       -5    1    3    3    0  502  0.43350717474E+03  0.11189256972E+03  0.31751492045E+03  0.54889546584E+03  0.46999998093E+01 0.  1.
</event>
<event>
 5   0  0.3959804E-04  0.8999502E+03  0.7818609E-02  0.9425644E-01
       -2   -1    0    0    0  501  0.00000000000E+00  0.00000000000E+00  0.30993537910E+03  0.30993537911E+03  0.25500000920E-02 0.  1.
        2   -1    0    0  501    0  0.00000000000E+00  0.00000000000E+00 -0.65328967150E+03  0.65328967150E+03  0.25500000920E-02 0. -1.
    10030    2    1    2    0    0  0.00000000000E+00  0.00000000000E+00 -0.34335429240E+03  0.96322505061E+03  0.89995018085E+03 0.  0.
        5    1    3    3  502    0  0.11001411764E+02  0.31798962241E+03 -0.51219207859E+03  0.60299357077E+03  0.46999998093E+01 0. -1.
       -5    1    3    3    0  502 -0.11001411764E+02 -0.31798962241E+03  0.16883778619E+03  0.36023147984E+03  0.46999998093E+01 0.  1.
</event>
<event>
 5   0  0.2308362E-04  0.9001178E+03  0.7818609E-02  0.9425434E-01
        1   -1    0    0  501    0  0.00000000000E+00  0.00000000000E+00  0.13840829777E+04  0.13840829777E+04  0.50400001928E-02 0. -1.
       -1   -1    0    0    0  501  0.00000000000E+00  0.00000000000E+00 -0.14634454948E+03  0.14634454956E+03  0.50400001928E-02 0.  1.
    10030    2    1    2    0    0  0.00000000000E+00  0.00000000000E+00  0.12377384282E+04  0.15304275272E+04  0.90011776980E+03 0.  0.
        1    1    3    3  502    0  0.18498851137E+03 -0.31978438936E+03  0.10559042221E+04  0.11186673015E+04  0.50400001928E-02 0. -1.
       -1    1    3    3    0  502 -0.18498851137E+03  0.31978438936E+03  0.18183420606E+03  0.41176022578E+03  0.50400001928E-02 0.  1.
</event>
<event>
 5   0  0.2351435E-04  0.9003408E+03  0.7818609E-02  0.9425156E-01
        1   -1    0    0  501    0  0.00000000000E+00  0.00000000000E+00  0.28171763174E+03  0.28171763178E+03  0.50400001928E-02 0.  1.
       -1   -1    0    0    0  501  0.00000000000E+00  0.00000000000E+00 -0.71934933159E+03  0.71934933161E+03  0.50400001928E-02 0. -1.
    10030    2    1    2    0    0  0.00000000000E+00  0.00000000000E+00 -0.43763169986E+03  0.10010669634E+04  0.90034080241E+03 0.  0.
        4    1    3    3  502    0  0.38446224984E+03 -0.17073865949E+03 -0.40607248375E+02  0.42262687197E+03  0.12699999809E+01 0.  1.
       -4    1    3    3    0  502 -0.38446224984E+03  0.17073865949E+03 -0.39702445148E+03  0.57844009142E+03  0.12699999809E+01 0. -1.
</event>
<event>
 5   0  0.4110039E-04  0.9003618E+03  0.7818609E-02  0.9425129E-01
       -2   -1    0    0    0  501  0.00000000000E+00  0.00000000000E+00  0.21877876059E+03  0.21877876061E+03  0.25500000920E-02 0.  1.
        2   -1    0    0  501    0  0.00000000000E+00  0.00000000000E+00 -0.92633698661E+03  0.92633698661E+03  0.25500000920E-02 0. -1.
    10030    2    1    2    0    0  0.00000000000E+00  0.00000000000E+00 -0.70755822601E+03  0.11451157472E+04  0.90036183356E+03 0.  0.
        3    1    3    3  502    0  0.32778362935E+02 -0.72962531048E+01 -0.92474183730E+03  0.92535135611E+03  0.10100000352E+00 0. -1.
       -3    1    3    3    0  502 -0.32778362935E+02  0.72962531048E+01  0.21718361129E+03  0.21976439111E+03  0.10100000352E+00 0.  1.
</event>
<event>
 5   0  0.4243516E-04  0.9001182E+03  0.7818609E-02  0.9425434E-01
       -2   -1    0    0    0  501  0.00000000000E+00  0.00000000000E+00  0.31580244264E+03  0.31580244265E+03  0.25500000920E-02 0.  1.
        2   -1    0    0  501    0  0.00000000000E+00  0.00000000000E+00 -0.64139211600E+03  0.64139211601E+03  0.25500000920E-02 0. -1.
    10030    2    1    2    0    0  0.00000000000E+00  0.00000000000E+00 -0.32558967336E+03  0.95719455866E+03  0.90011820764E+03 0.  0.
        1    1    3    3  502    0 -0.43366167458E+03 -0.44035019388E+01 -0.34869868001E+02  0.43508360868E+03  0.50400001928E-02 0.  1.
       -1    1    3    3    0  502  0.43366167458E+03  0.44035019388E+01 -0.29071980536E+03  0.52211094997E+03  0.50400001928E-02 0. -1.
</event>
<event>
 5   0  0.3959804E-04  0.8998417E+03  0.7818609E-02  0.9425779E-01
        2   -1    0    0  501    0  0.00000000000E+00  0.00000000000E+00  0.13090174644E+04  0.13090174644E+04  0.25500000920E-02 0. -1.
       -2   -1    0    0    0  501  0.00000000000E+00  0.00000000000E+00 -0.15464177747E+03  0.15464177749E+03  0.25500000920E-02 0.  1.
    10030    2    1    2    0    0  0.00000000000E+00  0.00000000000E+00  0.11543756869E+04  0.14636592419E+04  0.89984173597E+03 0.  0.
        5    1    3    3  502    0  0.36844211536E+03  0.18685999424E+03  0.28739986156E+03  0.50327628619E+03  0.46999998093E+01 0.  1.
       -5    1    3    3    0  502 -0.36844211536E+03 -0.18685999424E+03  0.86697582538E+03  0.96038295571E+03  0.46999998093E+01 0. -1.
</event>
<event>
 5   0  0.1596250E-04  0.9006532E+03  0.7818609E-02  0.9424765E-01
        4   -1    0    0  501    0  0.00000000000E+00  0.00000000000E+00  0.46022367949E+03  0.46022543179E+03  0.12699999809E+01 0. -1.
       -4   -1    0    0    0  501  0.00000000000E+00  0.00000000000E+00 -0.44063887912E+03  0.44064070930E+03  0.12699999809E+01 0.  1.
    10030    2    1    2    0    0  0.00000000000E+00  0.00000000000E+00  0.19584800370E+02  0.90086614109E+03  0.90065322947E+03 0.  0.
        1    1    3    3  502    0  0.90827837334E+02 -0.36340619132E+03 -0.24022729460E+03  0.44499765058E+03  0.50400001928E-02 0.  1.
       -1    1    3    3    0  502 -0.90827837334E+02  0.36340619132E+03  0.25981209497E+03  0.45586849051E+03  0.50400001928E-02 0. -1.
</event>
<event>
 5   0  0.4110039E-04  0.9015867E+03  0.7818609E-02  0.9423600E-01
        2   -1    0    0  501    0  0.00000000000E+00  0.00000000000E+00  0.30241563637E+03  0.30241563639E+03  0.25500000920E-02 0.  1.
       -2   -1    0    0    0  501  0.00000000000E+00  0.00000000000E+00 -0.67197132656E+03  0.67197132657E+03  0.25500000920E-02 0. -1.
    10030    2    1    2    0    0  0.00000000000E+00  0.00000000000E+00 -0.36955569019E+03  0.97438696295E+03  0.90158668214E+03 0.  0.
        3    1    3    3  502    0  0.14902855165E+03 -0.32173068165E+03  0.11607863917E+03  0.37308765913E+03  0.10100000352E+00 0.  1.
       -3    1    3    3    0  502 -0.14902855165E+03  0.32173068165E+03 -0.48563432936E+03  0.60129930382E+03  0.10100000352E+00 0. -1.
</event>
<event>
 5   0  0.4033144E-04  0.8995535E+03  0.7818609E-02  0.9426140E-01
       -2   -1    0    0    0  501  0.00000000000E+00  0.00000000000E+00  0.23687397989E+03  0.23687397991E+03  0.25500000920E-02 0. -1.
        2   -1    0    0  501    0  0.00000000000E+00  0.00000000000E+00 -0.85403686654E+03  0.85403686655E+03  0.25500000920E-02 0.  1.
    10030    2    1    2    0    0  0.00000000000E+00  0.00000000000E+00 -0.61716288665E+03  0.10909108465E+04  0.89955347048E+03 0.  0.
        4    1    3    3  502    0 -0.11917521019E+03 -0.20186395269E+03 -0.77409360119E+03  0.80881042428E+03  0.12699999809E+01 0.  1.
       -4    1    3    3    0  502  0.11917521019E+03  0.20186395269E+03  0.15693071455E+03  0.28210042217E+03  0.12699999809E+01 0. -1.
</event>
<event>
 5   0  0.2356918E-04  0.8977523E+03  0.7818609E-02  0.9428396E-01
        1   -1    0    0  501    0  0.00000000000E+00  0.00000000000E+00  0.69169478452E+03  0.69169478454E+03  0.50400001928E-02 0.  1.
       -1   -1    0    0    0  501  0.00000000000E+00  0.00000000000E+00 -0.29129870356E+03  0.29129870361E+03  0.50400001928E-02 0. -1.
    10030    2    1    2    0    0  0.00000000000E+00  0.00000000000E+00  0.40039608096E+03  0.98299348815E+03  0.89775229106E+03 0.  0.
        5    1    3    3  502    0  0.53219417343E+02 -0.82154569369E+02 -0.27944239786E+03  0.29612805232E+03  0.46999998093E+01 0. -1.
       -5    1    3    3    0  502 -0.53219417343E+02  0.82154569369E+02  0.67983847882E+03  0.68686543583E+03  0.46999998093E+01 0.  1.
</event>
<event>
 5   0  0.4110039E-04  0.9001802E+03  0.7818609E-02  0.9425356E-01
       -2   -1    0    0    0  501  0.00000000000E+00  0.00000000000E+00  0.14459312292E+03  0.14459312294E+03  0.25500000920E-02 0. -1.
        2   -1    0    0  501    0  0.00000000000E+00  0.00000000000E+00 -0.14010422813E+04  0.14010422813E+04  0.25500000920E-02 0.  1.
    10030    2    1    2    0    0  0.00000000000E+00  0.00000000000E+00 -0.12564491584E+04  0.15456354042E+04  0.90018015710E+03 0.  0.
        3    1    3    3  502    0  0.26227548359E+03  0.36409766688E+03 -0.56811560847E+03  0.72395503666E+03  0.10100000352E+00 0. -1.
       -3    1    3    3    0  502 -0.26227548359E+03 -0.36409766688E+03 -0.68833354989E+03  0.82168036756E+03  0.10100000352E+00 0.  1.
</event>
<event>
 5   0  0.4033144E-04  0.9001534E+03  0.7818609E-02  0.9425390E-01
       -2   -1    0    0    0  501  0.00000000000E+00  0.00000000000E+00  0.50247121540E+03  0.50247121540E+03  0.25500000920E-02 0.  1.
        2   -1    0    0  501    0  0.00000000000E+00  0.00000000000E+00 -0.40314551222E+03  0.40314551223E+03  0.25500000920E-02 0. -1.
    10030    2    1    2    0    0  0.00000000000E+00  0.00000000000E+00  0.99325703180E+02  0.90561672763E+03  0.90015335474E+03 0.  0.
        4    1    3    3  502    0  0.13413817532E+03 -0.34224026993E+02  0.48051794379E+03  0.50006343729E+03  0.12699999809E+01 0.  1.
       -4    1    3    3    0  502 -0.13413817532E+03  0.34224026993E+02 -0.38119224061E+03  0.40555329034E+03  0.12699999809E+01 0. -1.
</event>
<event>
 5   0  0.4243516E-04  0.9001752E+03  0.7818609E-02  0.9425362E-01
        2   -1    0    0  501    0  0.00000000000E+00  0.00000000000E+00  0.93098466590E+03  0.93098466590E+03  0.25500000920E-02 0. -1.
       -2   -1    0    0    0  501  0.00000000000E+00  0.00000000000E+00 -0.21759632370E+03  0.21759632372E+03  0.25500000920E-02 0.  1.
    10030    2    1    2    0    0  0.00000000000E+00  0.00000000000E+00  0.71338834219E+03  0.11485809896E+04  0.90017518458E+03 0.  0.
        1    1    3    3  502    0  0.79238658314E+02  0.41814555116E+03  0.54358694452E+03  0.69037035945E+03  0.50400001928E-02 0. -1.
       -1    1    3    3    0  502 -0.79238658314E+02 -0.41814555116E+03  0.16980139767E+03  0.45821063017E+03  0.50400001928E-02 0.  1.
</event>
<event>
 5   0  0.2351435E-04  0.8997535E+03  0.7818609E-02  0.9425890E-01
       -1   -1    0    0    0  501  0.00000000000E+00  0.00000000000E+00  0.33642442213E+03  0.33642442217E+03  0.50400001928E-02 0.  1.
        1   -1    0    0  501    0  0.00000000000E+00  0.00000000000E+00 -0.60158853069E+03  0.60158853071E+03  0.50400001928E-02 0. -1.
    10030    2    1    2    0    0  0.00000000000E+00  0.00000000000E+00 -0.26516410855E+03  0.93801295288E+03  0.89975346363E+03 0.  0.
        4    1    3    3  502    0 -0.43423622172E+03 -0.24508104771E+02 -0.12688750190E+02  0.43511419275E+03  0.12699999809E+01 0.  1.
       -4    1    3    3    0  502  0.43423622172E+03  0.24508104771E+02 -0.25247535836E+03  0.50289876013E+03  0.12699999809E+01 0. -1.
</event>
<event>
 5   0  0.4110039E-04  0.8998404E+03  0.7818609E-02  0.9425781E-01
        2   -1    0    0  501    0  0.00000000000E+00  0.00000000000E+00  0.10060343227E+04  0.10060343227E+04  0.25500000920E-02 0. -1.
       -2   -1    0    0    0  501  0.00000000000E+00  0.00000000000E+00 -0.20121400088E+03  0.20121400090E+03  0.25500000920E-02 0.  1.
    10030    2    1    2    0    0  0.00000000000E+00  0.00000000000E+00  0.80482032181E+03  0.12072483236E+04  0.89984041053E+03 0.  0.
        3    1    3    3  502    0 -0.66930904064E+02 -0.56823462492E+02 -0.18960915058E+03  0.20895045344E+03  0.10100000352E+00 0.  1.
       -3    1    3    3    0  502  0.66930904064E+02  0.56823462492E+02  0.99442947239E+03  0.99829787016E+03  0.10100000352E+00 0. -1.
</event>
<event>
 5   0  0.3959804E-04  0.8999341E+03  0.7818609E-02  0.9425664E-01
       -2   -1    0    0    0  501  0.00000000000E+00  0.00000000000E+00  0.25657146114E+03  0.25657146115E+03  0.25500000920E-02 0.  1.
        2   -1    0    0  501    0  0.00000000000E+00  0.00000000000E+00 -0.78913824094E+03  0.78913824094E+03  0.25500000920E-02 0. -1.
    10030    2    1    2    0    0  0.00000000000E+00  0.00000000000E+00 -0.53256677979E+03  0.10457097021E+04  0.89993411209E+03 0.  0.
        5    1    3    3  502    0 -0.31459652324E+03 -0.32100919528E+03 -0.29038962059E+03  0.53513185070E+03  0.46999998093E+01 0.  1.
       -5    1    3    3    0  502  0.31459652324E+03  0.32100919528E+03 -0.24217715920E+03  0.51057785139E+03  0.46999998093E+01 0. -1.
</event>
<event>
 5   0  0.2450427E-04  0.9000544E+03  0.7818609E-02  0.9425513E-01
        1   -1    0    0  501    0  0.00000000000E+00  0.00000000000E+00  0.98255168591E+03  0.98255168593E+03  0.50400001928E-02 0.  1.
       -1   -1    0    0    0  501  0.00000000000E+00  0.00000000000E+00 -0.20612094523E+03  0.20612094529E+03  0.50400001928E-02 0. -1.
    10030    2    1    2    0    0  0.00000000000E+00  0.00000000000E+00  0.77643074069E+03  0.11886726312E+04  0.90005440342E+03 0.  0.
        3    1    3    3  502    0  0.12019933158E+03  0.70820221913E+02 -0.17684067163E+03  0.22524656820E+03  0.10100000352E+00 0. -1.
       -3    1    3    3    0  502 -0.12019933158E+03 -0.70820221913E+02  0.95327141232E+03  0.96342606301E+03  0.10100000352E+00 0.  1.
</event>
<event>
 5   0  0.1596250E-04  0.9003780E+03  0.7818609E-02  0.9425109E-01
       -3   -1    0    0    0  501  0.00000000000E+00  0.00000000000E+00  0.47291702755E+03  0.47291703834E+03  0.10100000352E+00 0. -1.
        3   -1    0    0  501    0  0.00000000000E+00  0.00000000000E+00 -0.42855319718E+03  0.42855320908E+03  0.10100000352E+00 0.  1.
    10030    2    1    2    0    0  0.00000000000E+00  0.00000000000E+00  0.44363830377E+02  0.90147024742E+03  0.90037795260E+03 0.  0.
        4    1    3    3  502    0  0.28077570983E+03  0.31547722061E+03  0.17828008611E+03  0.45841714405E+03  0.12699999809E+01 0. -1.
       -4    1    3    3    0  502 -0.28077570983E+03 -0.31547722061E+03 -0.13391625573E+03  0.44305310337E+03  0.12699999809E+01 0.  1.
</event>
<event>
 5   0  0.2351435E-04  0.8993558E+03  0.7818609E-02  0.9426387E-01
        1   -1    0    0  501    0  0.00000000000E+00  0.00000000000E+00  0.35965498760E+03  0.35965498763E+03  0.50400001928E-02 0.  1.
       -1   -1    0    0    0  501  0.00000000000E+00  0.00000000000E+00 -0.56223385054E+03  0.56223385056E+03  0.50400001928E-02 0. -1.
    10030    2    1    2    0    0  0.00000000000E+00  0.00000000000E+00 -0.20257886294E+03  0.92188883819E+03  0.89935578848E+03 0.  0.
        4    1    3    3  502    0 -0.24179864107E+03 -0.24962412302E+03  0.19121923195E+03  0.39666761046E+03  0.12699999809E+01 0.  1.
       -4    1    3    3    0  502  0.24179864107E+03  0.24962412302E+03 -0.39379809489E+03  0.52522122773E+03  0.12699999809E+01 0. -1.
</event>
<event>
 5   0  0.4033144E-04  0.9001352E+03  0.7818609E-02  0.9425412E-01
       -2   -1    0    0    0  501  0.00000000000E+00  0.00000000000E+00  0.31678092540E+03  0.31678092541E+03  0.25500000920E-02 0.  1.
        2   -1    0    0  501    0  0.00000000000E+00  0.00000000000E+00 -0.63943503587E+03  0.63943503587E+03  0.25500000920E-02 0. -1.
    10030    2    1    2    0    0  0.00000000000E+00  0.00000000000E+00 -0.32265411046E+03  0.95621596129E+03  0.90013515075E+03 0.  0.
        4    1    3    3  502    0 -0.37542758236E+03  0.17342507133E+03 -0.34997802344E+03  0.54176411357E+03  0.12699999809E+01 0. -1.
       -4    1    3    3    0  502  0.37542758236E+03 -0.17342507133E+03  0.27323912972E+02  0.41445184772E+03  0.12699999809E+01 0.  1.
</event>
<event>
 5   0  0.2450427E-04  0.8995285E+03  0.7818609E-02  0.9426171E-01
        1   -1    0    0  501    0  0.00000000000E+00  0.00000000000E+00  0.68928616335E+03  0.68928616337E+03  0.50400001928E-02 0. -1.
       -1   -1    0    0    0  501  0.00000000000E+00  0.00000000000E+00 -0.29347446406E+03  0.29347446410E+03  0.50400001928E-02 0.  1.
    10030    2    1    2    0    0  0.00000000000E+00  0.00000000000E+00  0.39581169929E+03  0.98276062747E+03  0.89952851517E+03 0.  0.
        3    1    3    3  502    0 -0.10269225776E+02 -0.24013848428E+03 -0.21742163582E+03  0.32410511651E+03  0.10100000352E+00 0.  1.
       -3    1    3    3    0  502  0.10269225776E+02  0.24013848428E+03  0.61323333511E+03  0.65865551096E+03  0.10100000352E+00 0. -1.
</event>
<event>
 5   0  0.3959804E-04  0.8989236E+03  0.7818609E-02  0.9426928E-01
        2   -1    0    0  501    0  0.00000000000E+00  0.00000000000E+00  0.89770351681E+03  0.89770351682E+03  0.25500000920E-02 0.  1.
       -2   -1    0    0    0  501  0.00000000000E+00  0.00000000000E+00 -0.22503633065E+03  0.22503633066E+03  0.25500000920E-02 0. -1.
    10030    2    1    2    0    0  0.00000000000E+00  0.00000000000E+00  0.67266718616E+03  0.11227398475E+04  0.89892359062E+03 0.  0.
        5    1    3    3  502    0  0.13503646827E+03  0.35922884680E+03  0.44184853208E+02  0.38633483326E+03  0.46999998093E+01 0. -1.
       -5    1    3    3    0  502 -0.13503646827E+03 -0.35922884680E+03  0.62848233296E+03  0.73640501422E+03  0.46999998093E+01 0.  1.
</event>
<event>
 5   0  0.4236284E-04  0.9028433E+03  0.7818609E-02  0.9422034E-01
        2   -1    0    0  501    0  0.00000000000E+00  0.00000000000E+00  0.23834142638E+03  0.23834142639E+03  0.25500000920E-02 0.  1.
       -2   -1    0    0    0  501  0.00000000000E+00  0.00000000000E+00 -0.85499826248E+03  0.85499826249E+03  0.25500000920E-02 0. -1.
    10030    2    1    2    0    0  0.00000000000E+00  0.00000000000E+00 -0.61665683611E+03  0.10933396889E+04  0.90284329856E+03 0.  0.
        2    1    3    3  502    0 -0.27865465230E+02  0.15501496762E+03 -0.82064614417E+03  0.83562325140E+03  0.25500000920E-02 0. -1.
       -2    1    3    3    0  502  0.27865465230E+02 -0.15501496762E+03  0.20398930806E+03  0.25771643748E+03  0.25500000920E-02 0.  1.
</event>
<event>
 5   0  0.3959804E-04  0.8983212E+03  0.7818609E-02  0.9427682E-01
        2   -1    0    0  501    0  0.00000000000E+00  0.00000000000E+00  0.50770456102E+03  0.50770456103E+03  0.25500000920E-02 0. -1.
       -2   -1    0    0    0  501  0.00000000000E+00  0.00000000000E+00 -0.39736739035E+03  0.39736739036E+03  0.25500000920E-02 0.  1.
    10030    2    1    2    0    0  0.00000000000E+00  0.00000000000E+00  0.11033717068E+03  0.90507195139E+03  0.89832118196E+03 0.  0.
        5    1    3    3  502    0 -0.23151620867E+03 -0.10094963632E+03  0.42935228806E+03  0.49815264850E+03  0.46999998093E+01 0. -1.
       -5    1    3    3    0  502  0.23151620867E+03  0.10094963632E+03 -0.31901511738E+03  0.40691930289E+03  0.46999998093E+01 0.  1.
</event>
<event>
 5   0  0.2450427E-04  0.9001415E+03  0.7818609E-02  0.9425405E-01
       -1   -1    0    0    0  501  0.00000000000E+00  0.00000000000E+00  0.14051052662E+03  0.14051052671E+03  0.50400001928E-02 0.  1.
        1   -1    0    0  501    0  0.00000000000E+00  0.00000000000E+00 -0.14416263272E+04  0.14416263272E+04  0.50400001928E-02 0. -1.
    10030    2    1    2    0    0  0.00000000000E+00  0.00000000000E+00 -0.13011158006E+04  0.15821368539E+04  0.90014148777E+03 0.  0.
        3    1    3    3  502    0 -0.20430512601E+03  0.10204298696E+03 -0.13322245852E+04  0.13516566544E+04  0.10100000352E+00 0. -1.
       -3    1    3    3    0  502  0.20430512601E+03 -0.10204298696E+03  0.31108784615E+02  0.23048019955E+03  0.10100000352E+00 0.  1.
</event>
<event>
 5   0  0.2332791E-04  0.9000676E+03  0.7818609E-02  0.9425497E-01
        1   -1    0    0  501    0  0.00000000000E+00  0.00000000000E+00  0.12044552941E+04  0.12044552941E+04  0.50400001928E-02 0.  1.
       -1   -1    0    0    0  501  0.00000000000E+00  0.00000000000E+00 -0.16815104797E+03  0.16815104804E+03  0.50400001928E-02 0. -1.
    10030    2    1    2    0    0  0.00000000000E+00  0.00000000000E+00  0.10363042461E+04  0.13726063421E+04  0.90006759744E+03 0.  0.
        2    1    3    3  502    0 -0.38473577181E+03 -0.16648767930E+03  0.26854178514E+03  0.49784982861E+03  0.25500000920E-02 0. -1.
       -2    1    3    3    0  502  0.38473577181E+03  0.16648767930E+03  0.76776246098E+03  0.87475651353E+03  0.25500000920E-02 0.  1.
</event>
<event>
 5   0  0.4110039E-04  0.8999812E+03  0.7818609E-02  0.9425605E-01
        2   -1    0    0  501    0  0.00000000000E+00  0.00000000000E+00  0.11086429564E+04  0.11086429564E+04  0.25500000920E-02 0.  1.
       -2   -1    0    0    0  501  0.00000000000E+00  0.00000000000E+00 -0.18264811768E+03  0.18264811770E+03  0.25500000920E-02 0. -1.
    10030    2    1    2    0    0  0.00000000000E+00  0.00000000000E+00  0.92599483869E+03  0.12912910741E+04  0.89998122019E+03 0.  0.
        3    1    3    3  502    0  0.20557953932E+03  0.29889517692E+03  0.84501557399E+03  0.91959371695E+03  0.10100000352E+00 0.  1.
       -3    1    3    3    0  502 -0.20557953932E+03 -0.29889517692E+03  0.80979264700E+02  0.37169735712E+03  0.10100000352E+00 0. -1.
</event>
<event>
 5   0  0.2332791E-04  0.8999062E+03  0.7818609E-02  0.9425699E-01
       -1   -1    0    0    0  501  0.00000000000E+00  0.00000000000E+00  0.26867588078E+03  0.26867588082E+03  0.50400001928E-02 0.  1.
        1   -1    0    0  501    0  0.00000000000E+00  0.00000000000E+00 -0.75353921021E+03  0.75353921022E+03  0.50400001928E-02 0. -1.
    10030    2    1    2    0    0  0.00000000000E+00  0.00000000000E+00 -0.48486332943E+03  0.10222150910E+04  0.89990624186E+03 0.  0.
        2    1    3    3  502    0  0.21949166795E+02  0.40851884948E+03 -0.45520968998E+03  0.61203372306E+03  0.25500000920E-02 0. -1.
       -2    1    3    3    0  502 -0.21949166795E+02 -0.40851884948E+03 -0.29653639452E+02  0.41018136799E+03  0.25500000920E-02 0.  1.
</event>
<event>
 5   0  0.4033144E-04  0.9004535E+03  0.7818609E-02  0.9425015E-01
       -2   -1    0    0    0  501  0.00000000000E+00  0.00000000000E+00  0.16585891458E+03  0.16585891460E+03  0.25500000920E-02 0. -1.
        2   -1    0    0  501    0  0.00000000000E+00  0.00000000000E+00 -0.12221479887E+04  0.12221479887E+04  0.25500000920E-02 0.  1.
    10030    2    1    2    0    0  0.00000000000E+00  0.00000000000E+00 -0.10562890741E+04  0.13880069033E+04  0.90045352767E+03 0.  0.
        4    1    3    3  502    0 -0.50705401960E+02 -0.36893801939E+03 -0.91815418987E+03  0.99080524283E+03  0.12699999809E+01 0.  1.
       -4    1    3    3    0  502  0.50705401960E+02  0.36893801939E+03 -0.13813488426E+03  0.39720166048E+03  0.12699999809E+01 0. -1.
</event>
<event>
 5   0  0.2351435E-04  0.8975912E+03  0.7818609E-02  0.9428598E-01
       -1   -1    0    0    0  501  0.00000000000E+00  0.00000000000E+00  0.13998887323E+03  0.13998887332E+03  0.50400001928E-02 0. -1.
        1   -1    0    0  501    0  0.00000000000E+00  0.00000000000E+00 -0.14388107956E+04  0.14388107956E+04  0.50400001928E-02 0.  1.
    10030    2    1    2    0    0  0.00000000000E+00  0.00000000000E+00 -0.12988219224E+04  0.15787996689E+04  0.89759122578E+03 0.  0.
        4    1    3    3  502    0 -0.31349574527E+03 -0.10285702184E+03 -0.11428939638E+03  0.34917449545E+03  0.12699999809E+01 0. -1.
       -4    1    3    3    0  502  0.31349574527E+03  0.10285702184E+03 -0.11845325260E+04  0.12296251735E+04  0.12699999809E+01 0.  1.
</event>
<event>
 5   0  0.2308362E-04  0.9003402E+03  0.7818609E-02  0.9425156E-01
       -1   -1    0    0    0  501  0.00000000000E+00  0.00000000000E+00  0.19720349432E+03  0.19720349439E+03  0.50400001928E-02 0.  1.
        1   -1    0    0  501    0  0.00000000000E+00  0.00000000000E+00 -0.10276344263E+04  0.10276344263E+04  0.50400001928E-02 0. -1.
    10030    2    1    2    0    0  0.00000000000E+00  0.00000000000E+00 -0.83043093200E+03  0.12248379207E+04  0.90034015750E+03 0.  0.
        1    1    3    3  502    0 -0.69341569224E+02  0.18605999082E+03 -0.96484159607E+03  0.98506135796E+03  0.50400001928E-02 0. -1.
       -1    1    3    3    0  502  0.69341569224E+02 -0.18605999082E+03  0.13441066407E+03  0.23977656276E+03  0.50400001928E-02 0.  1.
</event>
<event>
 5   0  0.2356918E-04  0.9020016E+03  0.7818609E-02  0.9423083E-01
       -1   -1    0    0    0  501  0.00000000000E+00  0.00000000000E+00  0.23136165844E+03  0.23136165850E+03  0.50400001928E-02 0. -1.
        1   -1    0    0  501    0  0.00000000000E+00  0.00000000000E+00 -0.87915061341E+03  0.87915061343E+03  0.50400001928E-02 0.  1.
    10030    2    1    2    0    0  0.00000000000E+00  0.00000000000E+00 -0.64778895497E+03  0.11105122719E+04  0.90200164962E+03 0.  0.
        5    1    3    3  502    0  0.35336908593E+03 -0.22175879280E+03 -0.53475444249E+03  0.67825590808E+03  0.46999998093E+01 0.  1.
       -5    1    3    3    0  502 -0.35336908593E+03  0.22175879280E+03 -0.11303451248E+03  0.43225636385E+03  0.46999998093E+01 0. -1.
</event>
<event>
 5   0  0.2450427E-04  0.8992698E+03  0.7818609E-02  0.9426495E-01
       -1   -1    0    0    0  501  0.00000000000E+00  0.00000000000E+00  0.28492107595E+03  0.28492107600E+03  0.50400001928E-02 0. -1.
        1   -1    0    0  501    0  0.00000000000E+00  0.00000000000E+00 -0.70957033963E+03  0.70957033965E+03  0.50400001928E-02 0.  1.
    10030    2    1    2    0    0  0.00000000000E+00  0.00000000000E+00 -0.42464926368E+03  0.99449141565E+03  0.89926980304E+03 0.  0.
        3    1    3    3  502    0 -0.16259306290E+03 -0.24733162786E+02 -0.67511359793E+03  0.69485726142E+03  0.10100000352E+00 0.  1.
       -3    1    3    3    0  502  0.16259306290E+03  0.24733162786E+02  0.25046433425E+03  0.29963415423E+03  0.10100000352E+00 0. -1.
</event>
<event>
 5   0  0.4236284E-04  0.8998765E+03  0.7818609E-02  0.9425736E-01
       -2   -1    0    0    0  501  0.00000000000E+00  0.00000000000E+00  0.15409458511E+03  0.15409458513E+03  0.25500000920E-02 0.  1.
        2   -1    0    0  501    0  0.00000000000E+00  0.00000000000E+00 -0.13137672271E+04  0.13137672271E+04  0.25500000920E-02 0. -1.
    10030    2    1    2    0    0  0.00000000000E+00  0.00000000000E+00 -0.11596726420E+04  0.14678618123E+04  0.89987647110E+03 0.  0.
        2    1    3    3  502    0  0.35242184833E+02  0.69227085276E+01 -0.13114252598E+04  0.13119169743E+04  0.25500000920E-02 0. -1.
       -2    1    3    3    0  502 -0.35242184833E+02 -0.69227085276E+01  0.15175261775E+03  0.15594483796E+03  0.25500000920E-02 0.  1.
</event>
<event>
 5   0  0.2351435E-04  0.8996376E+03  0.7818609E-02  0.9426035E-01
        1   -1    0    0  501    0  0.00000000000E+00  0.00000000000E+00  0.30003473951E+03  0.30003473955E+03  0.50400001928E-02 0. -1.
       -1   -1    0    0    0  501  0.00000000000E+00  0.00000000000E+00 -0.67437848226E+03  0.67437848227E+03  0.50400001928E-02 0.  1.
    10030    2    1    2    0    0  0.00000000000E+00  0.00000000000E+00 -0.37434374274E+03  0.97441322183E+03  0.89963764324E+03 0.  0.
        4    1    3    3  502    0  0.44040124252E+03 -0.84413492640E+02 -0.22556479034E+03  0.50195615316E+03  0.12699999809E+01 0. -1.
       -4    1    3    3    0  502 -0.44040124252E+03  0.84413492640E+02 -0.14877895241E+03  0.47245706867E+03  0.12699999809E+01 0.  1.
</event>
<event>
 5   0  0.3959804E-04  0.9056581E+03  0.7818609E-02  0.9418536E-01
        2   -1    0    0  501    0  0.00000000000E+00  0.00000000000E+00  0.11142725397E+04  0.11142725397E+04  0.25500000920E-02 0.  1.
       -2   -1    0    0    0  501  0.00000000000E+00  0.00000000000E+00 -0.18402511514E+03  0.18402511516E+03  0.25500000920E-02 0. -1.
    10030    2    1    2    0    0  0.00000000000E+00  0.00000000000E+00  0.93024742452E+03  0.12982976548E+04  0.90565806443E+03 0.  0.
        5    1    3    3  502    0 -0.50273771126E+02 -0.19262019426E+03 -0.11789226881E+03  0.23141017338E+03  0.46999998093E+01 0. -1.
       -5    1    3    3    0  502  0.50273771126E+02  0.19262019426E+03  0.10481396933E+04  0.10668874814E+04  0.46999998093E+01 0.  1.
</event>
<event>
 5   0  0.1596250E-04  0.8999862E+03  0.7818609E-02  0.9425599E-01
       -3   -1    0    0    0  501  0.00000000000E+00  0.00000000000E+00  0.28789820130E+03  0.28789821901E+03  0.10100000352E+00 0.  1.
        3   -1    0    0  501    0  0.00000000000E+00  0.00000000000E+00 -0.70335207524E+03  0.70335208249E+03  0.10100000352E+00 0. -1.
    10030    2    1    2    0    0  0.00000000000E+00  0.00000000000E+00 -0.41545387394E+03  0.99125030151E+03  0.89998624371E+03 0.  0.
        4    1    3    3  502    0  0.41403869659E+03  0.14221788349E+03 -0.32239080966E+03  0.54368319425E+03  0.12699999809E+01 0. -1.
       -4    1    3    3    0  502 -0.41403869659E+03 -0.14221788349E+03 -0.93063064285E+02  0.44756710725E+03  0.12699999809E+01 0.  1.
</event>
<event>
 5   0  0.4033144E-04  0.9002140E+03  0.7818609E-02  0.9425314E-01
        2   -1    0    0  501    0  0.00000000000E+00  0.00000000000E+00  0.93836327652E+03  0.93836327652E+03  0.25500000920E-02 0. -1.
       -2   -1    0    0    0  501  0.00000000000E+00  0.00000000000E+00 -0.21590393706E+03  0.21590393708E+03  0.25500000920E-02 0.  1.
    10030    2    1    2    0    0  0.00000000000E+00  0.00000000000E+00  0.72245933946E+03  0.11542672136E+04  0.90021403190E+03 0.  0.
        4    1    3    3  502    0  0.32102557954E+01 -0.45004630665E+03  0.35284816225E+03  0.57188759592E+03  0.12699999809E+01 0. -1.
       -4    1    3    3    0  502 -0.32102557954E+01  0.45004630665E+03  0.36961117721E+03  0.58237961768E+03  0.12699999809E+01 0.  1.
</event>
<event>
 5   0  0.2308362E-04  0.9003985E+03  0.7818609E-02  0.9425083E-01
        1   -1    0    0  501    0  0.00000000000E+00  0.00000000000E+00  0.90440284377E+03  0.90440284378E+03  0.50400001928E-02 0. -1.
       -1   -1    0    0    0  501  0.00000000000E+00  0.00000000000E+00 -0.22410296016E+03  0.22410296021E+03  0.50400001928E-02 0.  1.
    10030    2    1    2    0    0  0.00000000000E+00  0.00000000000E+00  0.68029988361E+03  0.11285058040E+04  0.90039847735E+03 0.  0.
        1    1    3    3  502    0 -0.37124464983E+03  0.21133336047E+03  0.16203895607E+03  0.45688182563E+03  0.50400001928E-02 0. -1.
       -1    1    3    3    0  502  0.37124464983E+03 -0.21133336047E+03  0.51826092754E+03  0.67162397837E+03  0.50400001928E-02 0.  1.
</event>
<event>
 5   0  0.3959804E-04  0.8998984E+03  0.7818609E-02  0.9425708E-01
       -2   -1    0    0    0  501  0.00000000000E+00  0.00000000000E+00  0.20784300352E+03  0.20784300354E+03  0.25500000920E-02 0.  1.
        2   -1    0    0  501    0  0.00000000000E+00  0.00000000000E+00 -0.97407317200E+03  0.97407317201E+03  0.25500000920E-02 0. -1.
    10030    2    1    2    0    0  0.00000000000E+00  0.00000000000E+00 -0.76623016848E+03  0.11819161755E+04  0.89989842478E+03 0.  0.
        5    1    3    3  502    0  0.48933489267E+02 -0.40275819762E+03 -0.63854651616E+03  0.75655296934E+03  0.46999998093E+01 0. -1.
       -5    1    3    3    0  502 -0.48933489267E+02  0.40275819762E+03 -0.12768365232E+03  0.42536320620E+03  0.46999998093E+01 0.  1.
</event>
<event>
 5   0  0.1596250E-04  0.9023381E+03  0.7818609E-02  0.9422663E-01
        3   -1    0    0  501    0  0.00000000000E+00  0.00000000000E+00  0.59167523326E+03  0.59167524188E+03  0.10100000352E+00 0. -1.
       -3   -1    0    0    0  501  0.00000000000E+00  0.00000000000E+00 -0.34402911283E+03  0.34402912766E+03  0.10100000352E+00 0.  1.
    10030    2    1    2    0    0  0.00000000000E+00  0.00000000000E+00  0.24764612042E+03  0.93570436953E+03  0.90233811080E+03 0.  0.
        4    1    3    3  502    0  0.44247241039E+03 -0.87894029116E+02  0.11688930560E+03  0.46601707799E+03  0.12699999809E+01 0.  1.
       -4    1    3    3    0  502 -0.44247241039E+03  0.87894029116E+02  0.13075681482E+03  0.46968729154E+03  0.12699999809E+01 0. -1.
</event>
<event>
 5   0  0.4243516E-04  0.8966444E+03  0.7818609E-02  0.9429786E-01
        2   -1    0    0  501    0  0.00000000000E+00  0.00000000000E+00  0.10686250361E+04  0.10686250361E+04  0.25500000920E-02 0. -1.
       -2   -1    0    0    0  501  0.00000000000E+00  0.00000000000E+00 -0.18808543231E+03  0.18808543232E+03  0.25500000920E-02 0.  1.
    10030    2    1    2    0    0  0.00000000000E+00  0.00000000000E+00  0.88053960383E+03  0.12567104685E+04  0.89664441538E+03 0.  0.
        1    1    3    3  502    0  0.22722930694E+03  0.33832132494E+03  0.70209851829E+03  0.81181081925E+03  0.50400001928E-02 0. -1.
       -1    1    3    3    0  502 -0.22722930694E+03 -0.33832132494E+03  0.17844108554E+03  0.44489964922E+03  0.50400001928E-02 0.  1.
</event>
<event>
 5   0  0.4110039E-04  0.8998842E+03  0.7818609E-02  0.9425726E-01
       -2   -1    0    0    0  501  0.00000000000E+00  0.00000000000E+00  0.20205197561E+03  0.20205197563E+03  0.25500000920E-02 0. -1.
        2   -1    0    0  501    0  0.00000000000E+00  0.00000000000E+00 -0.10019595501E+04  0.10019595501E+04  0.25500000920E-02 0.  1.
    10030    2    1    2    0    0  0.00000000000E+00  0.00000000000E+00 -0.79990757445E+03  0.12040115257E+04  0.89988422942E+03 0.  0.
        3    1    3    3  502    0 -0.81135710571E+02  0.41932724490E+03 -0.21059753521E+03  0.47620339549E+03  0.10100000352E+00 0. -1.
       -3    1    3    3    0  502  0.81135710571E+02 -0.41932724490E+03 -0.58931003924E+03  0.72780813020E+03  0.10100000352E+00 0.  1.
</event>
<event>
 5   0  0.2308362E-04  0.9000470E+03  0.7818609E-02  0.9425523E-01
       -1   -1    0    0    0  501  0.00000000000E+00  0.00000000000E+00  0.18306956843E+03  0.18306956850E+03  0.50400001928E-02 0. -1.
        1   -1    0    0  501    0  0.00000000000E+00  0.00000000000E+00 -0.11062523014E+04  0.11062523014E+04  0.50400001928E-02 0.  1.
    10030    2    1    2    0    0  0.00000000000E+00  0.00000000000E+00 -0.92318273299E+03  0.12893218699E+04  0.90004695754E+03 0.  0.
        1    1    3    3  502    0  0.16530993587E+03  0.16602572619E+02  0.13752829283E+03  0.21567812052E+03  0.50400001928E-02 0. -1.
       -1    1    3    3    0  502 -0.16530993587E+03 -0.16602572619E+02 -0.10607110258E+04  0.10736437494E+04  0.50400001928E-02 0.  1.
</event>
<event>
 5   0  0.2332791E-04  0.9005522E+03  0.7818609E-02  0.9424891E-01
        1   -1    0    0  501    0  0.00000000000E+00  0.00000000000E+00  0.25499438833E+03  0.25499438838E+03  0.50400001928E-02 0. -1.
       -1   -1    0    0    0  501  0.00000000000E+00  0.00000000000E+00 -0.79510990772E+03  0.79510990773E+03  0.50400001928E-02 0.  1.
    10030    2    1    2    0    0  0.00000000000E+00  0.00000000000E+00 -0.54011551939E+03  0.10501042961E+04  0.90055219640E+03 0.  0.
        2    1    3    3  502    0 -0.71716439929E+02 -0.25259473468E+03  0.15647616325E+03  0.30566670970E+03  0.25500000920E-02 0. -1.
       -2    1    3    3    0  502  0.71716439929E+02  0.25259473468E+03 -0.69659168264E+03  0.74443758642E+03  0.25500000920E-02 0.  1.
</event>
<event>
 5   0  0.4243516E-04  0.8980537E+03  0.7818609E-02  0.9428018E-01
       -2   -1    0    0    0  501  0.00000000000E+00  0.00000000000E+00  0.12697798945E+03  0.12697798948E+03  0.25500000920E-02 0. -1.
        2   -1    0    0  501    0  0.00000000000E+00  0.00000000000E+00 -0.15878743716E+04  0.15878743716E+04  0.25500000920E-02 0.  1.
    10030    2    1    2    0    0  0.00000000000E+00  0.00000000000E+00 -0.14608963822E+04  0.17148523611E+04  0.89805366262E+03 0.  0.
        1    1    3    3  502    0 -0.28354553048E+03  0.26299575958E+03 -0.29475817863E+03  0.48625838945E+03  0.50400001928E-02 0. -1.
       -1    1    3    3    0  502  0.28354553048E+03 -0.26299575958E+03 -0.11661382036E+04  0.12285939717E+04  0.50400001928E-02 0.  1.
</event>
<event>
 5   0  0.4110039E-04  0.8991134E+03  0.7818609E-02  0.9426690E-01
        2   -1    0    0  501    0  0.00000000000E+00  0.00000000000E+00  0.12659030709E+04  0.12659030709E+04  0.25500000920E-02 0. -1.
       -2   -1    0    0    0  501  0.00000000000E+00  0.00000000000E+00 -0.15964984564E+03  0.15964984566E+03  0.25500000920E-02 0.  1.
    10030    2    1    2    0    0  0.00000000000E+00  0.00000000000E+00  0.11062532253E+04  0.14255529166E+04  0.89911340750E+03 0.  0.
        3    1    3    3  502    0  0.29677648881E+03 -0.12593553113E+03  0.10498877319E+04  0.10982715066E+04  0.10100000352E+00 0. -1.
       -3    1    3    3    0  502 -0.29677648881E+03  0.12593553113E+03  0.56365493389E+02  0.32728141004E+03  0.10100000352E+00 0.  1.
</event>
<event>
 5   0  0.2356918E-04  0.8998460E+03  0.7818609E-02  0.9425774E-01
        1   -1    0    0  501    0  0.00000000000E+00  0.00000000000E+00  0.17049848340E+04  0.17049848340E+04  0.50400001928E-02 0.  1.
       -1   -1    0    0    0  501  0.00000000000E+00  0.00000000000E+00 -0.11872873195E+03  0.11872873206E+03  0.50400001928E-02 0. -1.
    10030    2    1    2    0    0  0.00000000000E+00  0.00000000000E+00  0.15862561020E+04  0.18237135660E+04  0.89984595889E+03 0.  0.
        5    1    3    3  502    0 -0.25924310003E+03  0.30130569477E+03  0.12202585468E+04  0.12833725561E+04  0.46999998093E+01 0. -1.
       -5    1    3    3    0  502  0.25924310003E+03 -0.30130569477E+03  0.36599755517E+03  0.54034100992E+03  0.46999998093E+01 0.  1.
</event>
<event>
 5   0  0.4110039E-04  0.9003399E+03  0.7818609E-02  0.9425157E-01
       -2   -1    0    0    0  501  0.00000000000E+00  0.00000000000E+00  0.64735776931E+03  0.64735776932E+03  0.25500000920E-02 0. -1.
        2   -1    0    0  501    0  0.00000000000E+00  0.00000000000E+00 -0.31304633115E+03  0.31304633116E+03  0.25500000920E-02 0.  1.
    10030    2    1    2    0    0  0.00000000000E+00  0.00000000000E+00  0.33431143816E+03  0.96040410048E+03  0.90033987945E+03 0.  0.
        3    1    3    3  502    0 -0.28381799055E+03 -0.34003659409E+03  0.25299414322E+03  0.51008193831E+03  0.10100000352E+00 0. -1.
       -3    1    3    3    0  502  0.28381799055E+03  0.34003659409E+03  0.81317294938E+02  0.45032216217E+03  0.10100000352E+00 0.  1.
</event>
<event>
 5   0  0.2332791E-04  0.9006859E+03  0.7818609E-02  0.9424724E-01
       -1   -1    0    0    0  501  0.00000000000E+00  0.00000000000E+00  0.14335841324E+03  0.14335841333E+03  0.50400001928E-02 0.  1.
        1   -1    0    0  501    0  0.00000000000E+00  0.00000000000E+00 -0.14146972683E+04  0.14146972683E+04  0.50400001928E-02 0. -1.
    10030    2    1    2    0    0  0.00000000000E+00  0.00000000000E+00 -0.12713388551E+04  0.15580556816E+04  0.90068586237E+03 0.  0.
        2    1    3    3  502    0  0.39523522641E+03 -0.13164430999E+03 -0.33972952020E+03  0.53754744484E+03  0.25500000920E-02 0.  1.
       -2    1    3    3    0  502 -0.39523522641E+03  0.13164430999E+03 -0.93160933486E+03  0.10205082368E+04  0.25500000920E-02 0. -1.
</event>
<event>
 5   0  0.2351435E-04  0.9002551E+03  0.7818609E-02  0.9425263E-01
        1   -1    0    0  501    0  0.00000000000E+00  0.00000000000E+00  0.42834807551E+03  0.42834807554E+03  0.50400001928E-02 0. -1.
       -1   -1    0    0    0  501  0.00000000000E+00  0.00000000000E+00 -0.47301445886E+03  0.47301445888E+03  0.50400001928E-02 0.  1.
    10030    2    1    2    0    0  0.00000000000E+00  0.00000000000E+00 -0.44666383345E+02  0.90136253442E+03  0.90025514865E+03 0.  0.
        4    1    3    3  502    0 -0.26073167108E+03  0.36414320153E+03  0.22799354554E+02  0.44844475578E+03  0.12699999809E+01 0.  1.
       -4    1    3    3    0  502  0.26073167108E+03 -0.36414320153E+03 -0.67465737899E+02  0.45291777864E+03  0.12699999809E+01 0. -1.
</event>
<event>
 5   0  0.4110039E-04  0.8998325E+03  0.7818609E-02  0.9425791E-01
        2   -1    0    0  501    0  0.00000000000E+00  0.00000000000E+00  0.21353578657E+03  0.21353578658E+03  0.25500000920E-02 0. -1.
       -2   -1    0    0    0  501  0.00000000000E+00  0.00000000000E+00 -0.94796583671E+03  0.94796583672E+03  0.25500000920E-02 0.  1.
    10030    2    1    2    0    0  0.00000000000E+00  0.00000000000E+00 -0.73443005015E+03  0.11615016233E+04  0.89983249684E+03 0.  0.
        3    1    3    3  502    0 -0.14616531679E+03 -0.24643493116E+03  0.80545051567E+02  0.29762726800E+03  0.10100000352E+00 0. -1.
       -3    1    3    3    0  502  0.14616531679E+03  0.24643493116E+03 -0.81497510171E+03  0.86387435530E+03  0.10100000352E+00 0.  1.
</event>
<event>
 5   0  0.2450427E-04  0.9001424E+03  0.7818609E-02  0.9425403E-01
        1   -1    0    0  501    0  0.00000000000E+00  0.00000000000E+00  0.13400313438E+04  0.13400313438E+04  0.50400001928E-02 0. -1.
       -1   -1    0    0    0  501  0.00000000000E+00  0.00000000000E+00 -0.15116368300E+03  0.15116368309E+03  0.50400001928E-02 0.  1.
    10030    2    1    2    0    0  0.00000000000E+00  0.00000000000E+00  0.11888676608E+04  0.14911950269E+04  0.90014237395E+03 0.  0.
        3    1    3    3  502    0  0.22872123260E+03  0.13513012515E+03 -0.74249405729E+01  0.26576059322E+03  0.10100000352E+00 0.  1.
       -3    1    3    3    0  502 -0.22872123260E+03 -0.13513012515E+03  0.11962926014E+04  0.12254344337E+04  0.10100000352E+00 0. -1.
</event>
<event>
 5   0  0.2308362E-04  0.8997503E+03  0.7818609E-02  0.9425894E-01
       -1   -1    0    0    0  501  0.00000000000E+00  0.00000000000E+00  0.27643409868E+03  0.27643409873E+03  0.50400001928E-02 0.  1.
        1   -1    0    0  501    0  0.00000000000E+00  0.00000000000E+00 -0.73213713487E+03  0.73213713488E+03  0.50400001928E-02 0. -1.
    10030    2    1    2    0    0  0.00000000000E+00  0.00000000000E+00 -0.45570303619E+03  0.10085712336E+04  0.89975034097E+03 0.  0.
        1    1    3    3  502    0  0.11872311356E+03  0.39247939483E+03 -0.43530950613E+03  0.59802142037E+03  0.50400001928E-02 0. -1.
       -1    1    3    3    0  502 -0.11872311356E+03 -0.39247939483E+03 -0.20393530055E+02  0.41054981324E+03  0.50400001928E-02 0.  1.
</event>
<event>
 5   0  0.2351435E-04  0.8998442E+03  0.7818609E-02  0.9425776E-01
        1   -1    0    0  501    0  0.00000000000E+00  0.00000000000E+00  0.70468498811E+03  0.70468498813E+03  0.50400001928E-02 0.  1.
       -1   -1    0    0    0  501  0.00000000000E+00  0.00000000000E+00 -0.28726293310E+03  0.28726293315E+03  0.50400001928E-02 0. -1.
    10030    2    1    2    0    0  0.00000000000E+00  0.00000000000E+00  0.41742205501E+03  0.99194792128E+03  0.89984415679E+03 0.  0.
        4    1    3    3  502    0  0.18126401409E+03  0.20868950944E+03 -0.18261780015E+03  0.33129869904E+03  0.12699999809E+01 0. -1.
       -4    1    3    3    0  502 -0.18126401409E+03 -0.20868950944E+03  0.60003985516E+03  0.66064922223E+03  0.12699999809E+01 0.  1.
</event>
<event>
 5   0  0.4236284E-04  0.9005484E+03  0.7818609E-02  0.9424896E-01
        2   -1    0    0  501    0  0.00000000000E+00  0.00000000000E+00  0.67287511918E+03  0.67287511918E+03  0.25500000920E-02 0.  1.
       -2   -1    0    0    0  501  0.00000000000E+00  0.00000000000E+00 -0.30131425172E+03  0.30131425173E+03  0.25500000920E-02 0. -1.
    10030    2    1    2    0    0  0.00000000000E+00  0.00000000000E+00  0.37156086746E+03  0.97418937092E+03  0.90054841745E+03 0.  0.
        2    1    3    3  502    0  0.25270561651E+03  0.12421356520E+03  0.56587831932E+03  0.63206598601E+03  0.25500000920E-02 0.  1.
       -2    1    3    3    0  502 -0.25270561651E+03 -0.12421356520E+03 -0.19431745186E+03  0.34212338490E+03  0.25500000920E-02 0. -1.
</event>
<event>
 5   0  0.4236284E-04  0.8995935E+03  0.7818609E-02  0.9426090E-01
       -2   -1    0    0    0  501  0.00000000000E+00  0.00000000000E+00  0.12006281421E+04  0.12006281421E+04  0.25500000920E-02 0.  1.
        2   -1    0    0  501    0  0.00000000000E+00  0.00000000000E+00 -0.16850937421E+03  0.16850937423E+03  0.25500000920E-02 0. -1.
    10030    2    1    2    0    0  0.00000000000E+00  0.00000000000E+00  0.10321187679E+04  0.13691375163E+04  0.89959345684E+03 0.  0.
        2    1    3    3  502    0 -0.16216372683E+03  0.31038006978E+03  0.86436915140E+02  0.36069960122E+03  0.25500000920E-02 0. -1.
       -2    1    3    3    0  502  0.16216372683E+03 -0.31038006978E+03  0.94568185272E+03  0.10084379151E+04  0.25500000920E-02 0.  1.
</event>
<event>
 5   0  0.4236284E-04  0.9004439E+03  0.7818609E-02  0.9425027E-01
        2   -1    0    0  501    0  0.00000000000E+00  0.00000000000E+00  0.95865629931E+03  0.95865629931E+03  0.25500000920E-02 0. -1.
       -2   -1    0    0    0  501  0.00000000000E+00  0.00000000000E+00 -0.21144157186E+03  0.21144157187E+03  0.25500000920E-02 0.  1.
    10030    2    1    2    0    0  0.00000000000E+00  0.00000000000E+00  0.74721472745E+03  0.11700978712E+04  0.90044387900E+03 0.  0.
        2    1    3    3  502    0 -0.60154101057E+02  0.39556290020E+03  0.10536474344E+03  0.41375143874E+03  0.25500000920E-02 0.  1.
       -2    1    3    3    0  502  0.60154101057E+02 -0.39556290020E+03  0.64184998401E+03  0.75634643245E+03  0.25500000920E-02 0. -1.
</event>
<event>
 5   0  0.2332791E-04  0.9006979E+03  0.7818609E-02  0.9424709E-01
       -1   -1    0    0    0  501  0.00000000000E+00  0.00000000000E+00  0.45056088856E+03  0.45056088859E+03  0.50400001928E-02 0.  1.
        1   -1    0    0  501    0  0.00000000000E+00  0.00000000000E+00 -0.45013714543E+03  0.45013714546E+03  0.50400001928E-02 0. -1.
    10030    2    1    2    0    0  0.00000000000E+00  0.00000000000E+00  0.42374313004E+00  0.90069803405E+03  0.90069793438E+03 0.  0.
        2    1    3    3  502    0  0.24721001077E+03  0.70659742228E+01  0.37657805785E+03  0.45052608257E+03  0.25500000920E-02 0.  1.
       -2    1    3    3    0  502 -0.24721001077E+03 -0.70659742228E+01 -0.37615431472E+03  0.45017195148E+03  0.25500000920E-02 0. -1.
</event>
<event>
 5   0  0.2351435E-04  0.8998936E+03  0.7818609E-02  0.9425714E-01
       -1   -1    0    0    0  501  0.00000000000E+00  0.00000000000E+00  0.57024797432E+03  0.57024797434E+03  0.50400001928E-02 0. -1.
        1   -1    0    0  501    0  0.00000000000E+00  0.00000000000E+00 -0.35502471005E+03  0.35502471009E+03  0.50400001928E-02 0.  1.
    10030    2    1    2    0    0  0.00000000000E+00  0.00000000000E+00  0.21522326427E+03  0.92527268442E+03  0.89989359763E+03 0.  0.
        4    1    3    3  502    0  0.28890246629E+03 -0.72724366145E+01 -0.24698102635E+03  0.38015623583E+03  0.12699999809E+01 0.  1.
       -4    1    3    3    0  502 -0.28890246629E+03  0.72724366145E+01  0.46220429062E+03  0.54511644860E+03  0.12699999809E+01 0. -1.
</event>
<event>
 5   0  0.2450427E-04  0.8998319E+03  0.7818609E-02  0.9425792E-01
        1   -1    0    0  501    0  0.00000000000E+00  0.00000000000E+00  0.45403388114E+03  0.45403388117E+03  0.50400001928E-02 0. -1.
       -1   -1    0    0    0  501  0.00000000000E+00  0.00000000000E+00 -0.44583533375E+03  0.44583533378E+03  0.50400001928E-02 0.  1.
    10030    2    1    2    0    0  0.00000000000E+00  0.00000000000E+00  0.81985473926E+01  0.89986921495E+03  0.89983186643E+03 0.  0.
        3    1    3    3  502    0 -0.16326392684E+03  0.41569457544E+03 -0.50375428916E+02  0.44943829821E+03  0.10100000352E+00 0.  1.
       -3    1    3    3    0  502  0.16326392684E+03 -0.41569457544E+03  0.58573976309E+02  0.45043091674E+03  0.10100000352E+00 0. -1.
</event>
<event>
 5   0  0.3959804E-04  0.9002883E+03  0.7818609E-02  0.9425221E-01
       -2   -1    0    0    0  501  0.00000000000E+00  0.00000000000E+00  0.76980468458E+02  0.76980468500E+02  0.25500000920E-02 0.  1.
        2   -1    0    0  501    0  0.00000000000E+00  0.00000000000E+00 -0.26322231888E+04  0.26322231888E+04  0.25500000920E-02 0. -1.
    10030    2    1    2    0    0  0.00000000000E+00  0.00000000000E+00 -0.25552427203E+04  0.27092036573E+04  0.90028834096E+03 0.  0.
        5    1    3    3  502    0  0.14600447531E+03 -0.38080186817E+03 -0.18508073275E+04  0.18952142948E+04  0.46999998093E+01 0. -1.
       -5    1    3    3    0  502 -0.14600447531E+03  0.38080186817E+03 -0.70443539283E+03  0.81398936251E+03  0.46999998093E+01 0.  1.
</event>
<event>
 5   0  0.2351435E-04  0.9001131E+03  0.7818609E-02  0.9425440E-01
        1   -1    0    0  501    0  0.00000000000E+00  0.00000000000E+00  0.77997466290E+03  0.77997466292E+03  0.50400001928E-02 0. -1.
       -1   -1    0    0    0  501  0.00000000000E+00  0.00000000000E+00 -0.25968909606E+03  0.25968909611E+03  0.50400001928E-02 0.  1.
    10030    2    1    2    0    0  0.00000000000E+00  0.00000000000E+00  0.52028556685E+03  0.10396637590E+04  0.90011313776E+03 0.  0.
        4    1    3    3  502    0 -0.37907526170E+03 -0.24087594500E+03  0.29341961840E+03  0.53648481831E+03  0.12699999809E+01 0.  1.
       -4    1    3    3    0  502  0.37907526170E+03  0.24087594500E+03  0.22686594845E+03  0.50317894071E+03  0.12699999809E+01 0. -1.
</event>
<event>
 5   0  0.3959804E-04  0.8999219E+03  0.7818609E-02  0.9425679E-01
        2   -1    0    0  501    0  0.00000000000E+00  0.00000000000E+00  0.18899888250E+04  0.18899888250E+04  0.25500000920E-02 0. -1.
       -2   -1    0    0    0  501  0.00000000000E+00  0.00000000000E+00 -0.10712489932E+03  0.10712489935E+03  0.25500000920E-02 0.  1.
    10030    2    1    2    0    0  0.00000000000E+00  0.00000000000E+00  0.17828639257E+04  0.19971137244E+04  0.89992191356E+03 0.  0.
        5    1    3    3  502    0  0.11707724481E+02  0.14983266538E+03 -0.49721148513E+02  0.15837039192E+03  0.46999998093E+01 0.  1.
       -5    1    3    3    0  502 -0.11707724481E+02 -0.14983266538E+03  0.18325850742E+04  0.18387433324E+04  0.46999998093E+01 0. -1.
</event>
<event>
 5   0  0.2351435E-04  0.9001745E+03  0.7818609E-02  0.9425363E-01
       -1   -1    0    0    0  501  0.00000000000E+00  0.00000000000E+00  0.40559441675E+03  0.40559441678E+03  0.50400001928E-02 0. -1.
        1   -1    0    0  501    0  0.00000000000E+00  0.00000000000E+00 -0.49946084834E+03  0.49946084836E+03  0.50400001928E-02 0.  1.
    10030    2    1    2    0    0  0.00000000000E+00  0.00000000000E+00 -0.93866431589E+02  0.90505526514E+03  0.90017449752E+03 0.  0.
        4    1    3    3  502    0 -0.43932960340E+03  0.64623921051E+02 -0.12074904535E+03  0.46018332917E+03  0.12699999809E+01 0. -1.
       -4    1    3    3    0  502  0.43932960340E+03 -0.64623921051E+02  0.26882613764E+02  0.44487193597E+03  0.12699999809E+01 0.  1.
</event>
<event>
 5   0  0.2356918E-04  0.8998453E+03  0.7818609E-02  0.9425775E-01
        1   -1    0    0  501    0  0.00000000000E+00  0.00000000000E+00  0.82391239735E+03  0.82391239736E+03  0.50400001928E-02 0.  1.
       -1   -1    0    0    0  501  0.00000000000E+00  0.00000000000E+00 -0.24569406412E+03  0.24569406418E+03  0.50400001928E-02 0. -1.
    10030    2    1    2    0    0  0.00000000000E+00  0.00000000000E+00  0.57821833322E+03  0.10696064615E+04  0.89984528764E+03 0.  0.
        5    1    3    3  502    0 -0.25022208008E+03  0.14669247142E+03 -0.11968917093E+03  0.31381102302E+03  0.46999998093E+01 0. -1.
       -5    1    3    3    0  502  0.25022208008E+03 -0.14669247142E+03  0.69790750415E+03  0.75579543852E+03  0.46999998093E+01 0.  1.
</event>
<event>
 5   0  0.2450427E-04  0.9003023E+03  0.7818609E-02  0.9425204E-01
       -1   -1    0    0    0  501  0.00000000000E+00  0.00000000000E+00  0.37174399342E+03  0.37174399345E+03  0.50400001928E-02 0.  1.
        1   -1    0    0  501    0  0.00000000000E+00  0.00000000000E+00 -0.54509576592E+03  0.54509576594E+03  0.50400001928E-02 0. -1.
    10030    2    1    2    0    0  0.00000000000E+00  0.00000000000E+00 -0.17335177250E+03  0.91683975939E+03  0.90030234220E+03 0.  0.
        3    1    3    3  502    0  0.61059382597E+02 -0.11435149371E+03  0.35232438464E+03  0.37541576223E+03  0.10100000352E+00 0.  1.
       -3    1    3    3    0  502 -0.61059382597E+02  0.11435149371E+03 -0.52567615714E+03  0.54142399717E+03  0.10100000352E+00 0. -1.
</event>
<event>
 5   0  0.2308362E-04  0.8993215E+03  0.7818609E-02  0.9426430E-01
        1   -1    0    0  501    0  0.00000000000E+00  0.00000000000E+00  0.54335898312E+03  0.54335898315E+03  0.50400001928E-02 0.  1.
       -1   -1    0    0    0  501  0.00000000000E+00  0.00000000000E+00 -0.37212009811E+03  0.37212009815E+03  0.50400001928E-02 0. -1.
    10030    2    1    2    0    0  0.00000000000E+00  0.00000000000E+00  0.17123888501E+03  0.91547908129E+03  0.89932151789E+03 0.  0.
        1    1    3    3  502    0 -0.45249539440E+01 -0.13144566363E+03  0.52334068316E+03  0.53961459244E+03  0.50400001928E-02 0.  1.
       -1    1    3    3    0  502  0.45249539440E+01  0.13144566363E+03 -0.35210179815E+03  0.37586448885E+03  0.50400001928E-02 0. -1.
</event>
<event>
 5   0  0.4033144E-04  0.8995705E+03  0.7818609E-02  0.9426118E-01
       -2   -1    0    0    0  501  0.00000000000E+00  0.00000000000E+00  0.79046582034E+03  0.79046582034E+03  0.25500000920E-02 0. -1.
        2   -1    0    0  501    0  0.00000000000E+00  0.00000000000E+00 -0.25593363253E+03  0.25593363254E+03  0.25500000920E-02 0.  1.
    10030    2    1    2    0    0  0.00000000000E+00  0.00000000000E+00  0.53453218781E+03  0.10463994529E+04  0.89957053930E+03 0.  0.
        4    1    3    3  502    0  0.64015356647E+02  0.42186438871E+03  0.43274486767E+03  0.60773124137E+03  0.12699999809E+01 0. -1.
       -4    1    3    3    0  502 -0.64015356647E+02 -0.42186438871E+03  0.10178732014E+03  0.43866821151E+03  0.12699999809E+01 0.  1.
</event>
<event>
 5   0  0.4236284E-04  0.9005343E+03  0.7818609E-02  0.9424914E-01
        2   -1    0    0  501    0  0.00000000000E+00  0.00000000000E+00  0.72663796861E+03  0.72663796862E+03  0.25500000920E-02 0. -1.
       -2   -1    0    0    0  501  0.00000000000E+00  0.00000000000E+00 -0.27901170366E+03  0.27901170367E+03  0.25500000920E-02 0.  1.
    10030    2    1    2    0    0  0.00000000000E+00  0.00000000000E+00  0.44762626495E+03  0.10056496723E+04  0.90053428047E+03 0.  0.
        2    1    3    3  502    0  0.22923165846E+03 -0.54971940020E+02 -0.20459550838E+03  0.31213521026E+03  0.25500000920E-02 0.  1.
       -2    1    3    3    0  502 -0.22923165846E+03  0.54971940020E+02  0.65222177333E+03  0.69351446203E+03  0.25500000920E-02 0. -1.
</event>
<event>
 5   0  0.2450427E-04  0.9000543E+03  0.7818609E-02  0.9425514E-01
        1   -1    0    0  501    0  0.00000000000E+00  0.00000000000E+00  0.18903593272E+04  0.18903593272E+04  0.50400001928E-02 0.  1.
       -1   -1    0    0    0  501  0.00000000000E+00  0.00000000000E+00 -0.10713541406E+03  0.10713541418E+03  0.50400001928E-02 0. -1.
    10030    2    1    2    0    0  0.00000000000E+00  0.00000000000E+00  0.17832239132E+04  0.19974947414E+04  0.90005428587E+03 0.  0.
        3    1    3    3  502    0 -0.33744283710E+03 -0.25836213879E+03  0.56314168889E+03  0.70551203749E+03  0.10100000352E+00 0. -1.
       -3    1    3    3    0  502  0.33744283710E+03  0.25836213879E+03  0.12200822243E+04  0.12919827039E+04  0.10100000352E+00 0.  1.
</event>
<event>
 5   0  0.4110039E-04  0.9002555E+03  0.7818609E-02  0.9425262E-01
       -2   -1    0    0    0  501  0.00000000000E+00  0.00000000000E+00  0.92130561500E+03  0.92130561501E+03  0.25500000920E-02 0. -1.
        2   -1    0    0  501    0  0.00000000000E+00  0.00000000000E+00 -0.21992157156E+03  0.21992157158E+03  0.25500000920E-02 0.  1.
    10030    2    1    2    0    0  0.00000000000E+00  0.00000000000E+00  0.70138404344E+03  0.11412271866E+04  0.90025547208E+03 0.  0.
        3    1    3    3  502    0 -0.90556117111E+01  0.95656705152E+02  0.90815395343E+03  0.91322276728E+03  0.10100000352E+00 0. -1.
       -3    1    3    3    0  502  0.90556117111E+01 -0.95656705152E+02 -0.20676990999E+03  0.22800441930E+03  0.10100000352E+00 0.  1.
</event>
<event>
 5   0  0.2308362E-04  0.9001807E+03  0.7818609E-02  0.9425356E-01
        1   -1    0    0  501    0  0.00000000000E+00  0.00000000000E+00  0.68923294986E+03  0.68923294988E+03  0.50400001928E-02 0.  1.
       -1   -1    0    0    0  501  0.00000000000E+00  0.00000000000E+00 -0.29392285177E+03  0.29392285181E+03  0.50400001928E-02 0. -1.
    10030    2    1    2    0    0  0.00000000000E+00  0.00000000000E+00  0.39531009809E+03  0.98315580170E+03  0.90018068006E+03 0.  0.
        1    1    3    3  502    0 -0.23253930130E+03  0.37838387910E+03  0.27740953872E+03  0.52364581428E+03  0.50400001928E-02 0. -1.
       -1    1    3    3    0  502  0.23253930130E+03 -0.37838387910E+03  0.11790055938E+03  0.45950998742E+03  0.50400001928E-02 0.  1.
</event>
<event>
 5   0  0.2351435E-04  0.8995092E+03  0.7818609E-02  0.9426195E-01
        1   -1    0    0  501    0  0.00000000000E+00  0.00000000000E+00  0.56236186053E+03  0.56236186055E+03  0.50400001928E-02 0. -1.
       -1   -1    0    0    0  501  0.00000000000E+00  0.00000000000E+00 -0.35969577934E+03  0.35969577937E+03  0.50400001928E-02 0.  1.
    10030    2    1    2    0    0  0.00000000000E+00  0.00000000000E+00  0.20266608119E+03  0.92205763993E+03  0.89950917220E+03 0.  0.
        4    1    3    3  502    0  0.20273352390E+03  0.40106129906E+03  0.82809996596E+02  0.45695749885E+03  0.12699999809E+01 0.  1.
       -4    1    3    3    0  502 -0.20273352390E+03 -0.40106129906E+03  0.11985608460E+03  0.46510014108E+03  0.12699999809E+01 0. -1.
</event>
<event>
 5   0  0.2356918E-04  0.9010464E+03  0.7818609E-02  0.9424274E-01
       -1   -1    0    0    0  501  0.00000000000E+00  0.00000000000E+00  0.13864168365E+03  0.13864168374E+03  0.50400001928E-02 0.  1.
        1   -1    0    0  501    0  0.00000000000E+00  0.00000000000E+00 -0.14639981078E+04  0.14639981078E+04  0.50400001928E-02 0. -1.
    10030    2    1    2    0    0  0.00000000000E+00  0.00000000000E+00 -0.13253564241E+04  0.16026397915E+04  0.90104641967E+03 0.  0.
        5    1    3    3  502    0  0.15482712181E+03 -0.26375358693E+03 -0.12510076780E+04  0.12878585686E+04  0.46999998093E+01 0. -1.
       -5    1    3    3    0  502 -0.15482712181E+03  0.26375358693E+03 -0.74348746128E+02  0.31478122294E+03  0.46999998093E+01 0.  1.
</event>
<event>
 5   0  0.4110039E-04  0.9000501E+03  0.7818609E-02  0.9425519E-01
       -2   -1    0    0    0  501  0.00000000000E+00  0.00000000000E+00  0.32060905029E+03  0.32060905030E+03  0.25500000920E-02 0.  1.
        2   -1    0    0  501    0  0.00000000000E+00  0.00000000000E+00 -0.63168074207E+03  0.63168074208E+03  0.25500000920E-02 0. -1.
    10030    2    1    2    0    0  0.00000000000E+00  0.00000000000E+00 -0.31107169178E+03  0.95228979238E+03  0.90005013818E+03 0.  0.
        3    1    3    3  502    0 -0.16098088017E+03 -0.41811841352E+03 -0.20023354552E+03  0.49074569224E+03  0.10100000352E+00 0.  1.
       -3    1    3    3    0  502  0.16098088017E+03  0.41811841352E+03 -0.11083814626E+03  0.46154410014E+03  0.10100000352E+00 0. -1.
</event>
<event>
 5   0  0.2308362E-04  0.9003505E+03  0.7818609E-02  0.9425143E-01
       -1   -1    0    0    0  501  0.00000000000E+00  0.00000000000E+00  0.15221871811E+03  0.15221871819E+03  0.50400001928E-02 0. -1.
        1   -1    0    0  501    0  0.00000000000E+00  0.00000000000E+00 -0.13313589937E+04  0.13313589937E+04  0.50400001928E-02 0.  1.
    10030    2    1    2    0    0  0.00000000000E+00  0.00000000000E+00 -0.11791402756E+04  0.14835777119E+04  0.90035050825E+03 0.  0.
        1    1    3    3  502    0  0.14683465519E+03 -0.11781006139E+02  0.11138180139E+03  0.18467569893E+03  0.50400001928E-02 0. -1.
       -1    1    3    3    0  502 -0.14683465519E+03  0.11781006139E+02 -0.12905220770E+04  0.12989020129E+04  0.50400001928E-02 0.  1.
</event>
<event>
 5   0  0.4243516E-04  0.8996944E+03  0.7818609E-02  0.9425964E-01
        2   -1    0    0  501    0  0.00000000000E+00  0.00000000000E+00  0.14228861751E+04  0.14228861751E+04  0.25500000920E-02 0. -1.
       -2   -1    0    0    0  501  0.00000000000E+00  0.00000000000E+00 -0.14221973899E+03  0.14221973901E+03  0.25500000920E-02 0.  1.
    10030    2    1    2    0    0  0.00000000000E+00  0.00000000000E+00  0.12806664361E+04  0.15651059141E+04  0.89969439356E+03 0.  0.
        1    1    3    3  502    0 -0.36096987840E+03  0.23560303862E+03  0.86415696861E+03  0.96569938974E+03  0.50400001928E-02 0. -1.
       -1    1    3    3    0  502  0.36096987840E+03 -0.23560303862E+03  0.41650946747E+03  0.59940652435E+03  0.50400001928E-02 0.  1.
</event>
<event>
 5   0  0.2351435E-04  0.8999060E+03  0.7818609E-02  0.9425699E-01
       -1   -1    0    0    0  501  0.00000000000E+00  0.00000000000E+00  0.12679789563E+03  0.12679789573E+03  0.50400001928E-02 0. -1.
        1   -1    0    0  501    0  0.00000000000E+00  0.00000000000E+00 -0.15966961418E+04  0.15966961418E+04  0.50400001928E-02 0.  1.
    10030    2    1    2    0    0  0.00000000000E+00  0.00000000000E+00 -0.14698982461E+04  0.17234940375E+04  0.89990601915E+03 0.  0.
        4    1    3    3  502    0  0.29834167685E+03 -0.20159789597E+03 -0.12517200749E+04  0.13024800293E+04  0.12699999809E+01 0.  1.
       -4    1    3    3    0  502 -0.29834167685E+03  0.20159789597E+03 -0.21817817118E+03  0.42101400819E+03  0.12699999809E+01 0. -1.
</event>
<event>
 5   0  0.2356918E-04  0.9040691E+03  0.7818609E-02  0.9420509E-01
        1   -1    0    0  501    0  0.00000000000E+00  0.00000000000E+00  0.56408925614E+03  0.56408925616E+03  0.50400001928E-02 0.  1.
       -1   -1    0    0    0  501  0.00000000000E+00  0.00000000000E+00 -0.36223918239E+03  0.36223918243E+03  0.50400001928E-02 0. -1.
    10030    2    1    2    0    0  0.00000000000E+00  0.00000000000E+00  0.20185007375E+03  0.92632843859E+03  0.90406909242E+03 0.  0.
        5    1    3    3  502    0  0.29834953713E+03 -0.15994743333E+03  0.40782864111E+03  0.53003954403E+03  0.46999998093E+01 0.  1.
       -5    1    3    3    0  502 -0.29834953713E+03  0.15994743333E+03 -0.20597856736E+03  0.39628889455E+03  0.46999998093E+01 0. -1.
</event>
<event>
 5   0  0.1596250E-04  0.9002401E+03  0.7818609E-02  0.9425281E-01
        3   -1    0    0  501    0  0.00000000000E+00  0.00000000000E+00  0.11398643453E+04  0.11398643498E+04  0.10100000352E+00 0.  1.
       -3   -1    0    0    0  501  0.00000000000E+00  0.00000000000E+00 -0.17774750378E+03  0.17774753247E+03  0.10100000352E+00 0. -1.
    10030    2    1    2    0    0  0.00000000000E+00  0.00000000000E+00  0.96211684157E+03  0.13176118823E+04  0.90024010993E+03 0.  0.
        3    1    3    3  502    0 -0.25016806731E+03  0.45598409819E+02 -0.62544490798E+02  0.26186847922E+03  0.10100000352E+00 0. -1.
       -3    1    3    3    0  502  0.25016806731E+03 -0.45598409819E+02  0.10246613324E+04  0.10557434031E+04  0.10100000352E+00 0.  1.
</event>
<event>
 5   0  0.2332791E-04  0.9000858E+03  0.7818609E-02  0.9425474E-01
        1   -1    0    0  501    0  0.00000000000E+00  0.00000000000E+00  0.33953811256E+03  0.33953811260E+03  0.50400001928E-02 0.  1.
       -1   -1    0    0    0  501  0.00000000000E+00  0.00000000000E+00 -0.59651217668E+03  0.59651217670E+03  0.50400001928E-02 0. -1.
    10030    2    1    2    0    0  0.00000000000E+00  0.00000000000E+00 -0.25697406412E+03  0.93605028930E+03  0.90008581505E+03 0.  0.
        2    1    3    3  502    0 -0.34407416368E+03  0.22267368453E+03 -0.32184074162E+03  0.52110657534E+03  0.25500000920E-02 0. -1.
       -2    1    3    3    0  502  0.34407416368E+03 -0.22267368453E+03  0.64866677506E+02  0.41494371395E+03  0.25500000920E-02 0.  1.
</event>
<event>
 5   0  0.2332791E-04  0.8999558E+03  0.7818609E-02  0.9425637E-01
       -1   -1    0    0    0  501  0.00000000000E+00  0.00000000000E+00  0.20459528420E+03  0.20459528426E+03  0.50400001928E-02 0. -1.
        1   -1    0    0  501    0  0.00000000000E+00  0.00000000000E+00 -0.98966170947E+03  0.98966170948E+03  0.50400001928E-02 0.  1.
    10030    2    1    2    0    0  0.00000000000E+00  0.00000000000E+00 -0.78506642527E+03  0.11942569937E+04  0.89995581837E+03 0.  0.
        2    1    3    3  502    0  0.15544725207E+03 -0.28015646934E+03 -0.81181321105E+03  0.87274978381E+03  0.25500000920E-02 0.  1.
       -2    1    3    3    0  502 -0.15544725207E+03  0.28015646934E+03  0.26746785783E+02  0.32150720994E+03  0.25500000920E-02 0. -1.
</event>
<event>
 5   0  0.1596250E-04  0.9000201E+03  0.7818609E-02  0.9425556E-01
       -3   -1    0    0    0  501  0.00000000000E+00  0.00000000000E+00  0.21924604553E+03  0.21924606880E+03  0.10100000352E+00 0. -1.
        3   -1    0    0  501    0  0.00000000000E+00  0.00000000000E+00 -0.92366109019E+03  0.92366109571E+03  0.10100000352E+00 0.  1.
    10030    2    1    2    0    0  0.00000000000E+00  0.00000000000E+00 -0.70441504465E+03  0.11429071645E+04  0.90002012842E+03 0.  0.
        5    1    3    3  502    0 -0.44793194415E+02 -0.19902322891E+03 -0.86153447388E+03  0.88537021386E+03  0.46999998093E+01 0.  1.
       -5    1    3    3    0  502  0.44793194415E+02  0.19902322891E+03  0.15711942923E+03  0.25753695065E+03  0.46999998093E+01 0. -1.
</event>
<event>
 5   0  0.2356918E-04  0.9002893E+03  0.7818609E-02  0.9425220E-01
        1   -1    0    0  501    0  0.00000000000E+00  0.00000000000E+00  0.76132351243E+03  0.76132351245E+03  0.50400001928E-02 0.  1.
       -1   -1    0    0    0  501  0.00000000000E+00  0.00000000000E+00 -0.26615521619E+03  0.26615521624E+03  0.50400001928E-02 0. -1.
    10030    2    1    2    0    0  0.00000000000E+00  0.00000000000E+00  0.49516829624E+03  0.10274787287E+04  0.90028934033E+03 0.  0.
        5    1    3    3  502    0 -0.24912847711E+02 -0.25537552134E+03  0.66965704824E+03  0.71714709728E+03  0.46999998093E+01 0.  1.
       -5    1    3    3    0  502  0.24912847711E+02  0.25537552134E+03 -0.17448875200E+03  0.31033163141E+03  0.46999998093E+01 0. -1.
</event>
<event>
 5   0  0.4236284E-04  0.9001605E+03  0.7818609E-02  0.9425381E-01
       -2   -1    0    0    0  501  0.00000000000E+00  0.00000000000E+00  0.17431660111E+03  0.17431660113E+03  0.25500000920E-02 0.  1.
        2   -1    0    0  501    0  0.00000000000E+00  0.00000000000E+00 -0.11620938101E+04  0.11620938101E+04  0.25500000920E-02 0. -1.
    10030    2    1    2    0    0  0.00000000000E+00  0.00000000000E+00 -0.98777720899E+03  0.13364104112E+04  0.90016052604E+03 0.  0.
        2    1    3    3  502    0 -0.33860347858E+03 -0.10367570253E+02 -0.93383312281E+03  0.99338014047E+03  0.25500000920E-02 0. -1.
       -2    1    3    3    0  502  0.33860347858E+03  0.10367570253E+02 -0.53944086183E+02  0.34303027076E+03  0.25500000920E-02 0.  1.
</event>
<event>
 5   0  0.2351435E-04  0.9001924E+03  0.7818609E-02  0.9425341E-01
       -1   -1    0    0    0  501  0.00000000000E+00  0.00000000000E+00  0.43834704971E+03  0.43834704974E+03  0.50400001928E-02 0. -1.
        1   -1    0    0  501    0  0.00000000000E+00  0.00000000000E+00 -0.46216030085E+03  0.46216030088E+03  0.50400001928E-02 0.  1.
    10030    2    1    2    0    0  0.00000000000E+00  0.00000000000E+00 -0.23813251145E+02  0.90050735062E+03  0.90019243364E+03 0.  0.
        4    1    3    3  502    0 -0.37399231030E+03  0.21912303907E+03 -0.13319192498E+03  0.45346097539E+03  0.12699999809E+01 0.  1.
       -4    1    3    3    0  502  0.37399231030E+03 -0.21912303907E+03  0.10937867383E+03  0.44704637523E+03  0.12699999809E+01 0. -1.
</event>
<event>
 5   0  0.2308362E-04  0.8966844E+03  0.7818609E-02  0.9429736E-01
        1   -1    0    0  501    0  0.00000000000E+00  0.00000000000E+00  0.35132904562E+03  0.35132904566E+03  0.50400001928E-02 0. -1.
       -1   -1    0    0    0  501  0.00000000000E+00  0.00000000000E+00 -0.57214379840E+03  0.57214379842E+03  0.50400001928E-02 0.  1.
    10030    2    1    2    0    0  0.00000000000E+00  0.00000000000E+00 -0.22081475278E+03  0.92347284408E+03  0.89668441422E+03 0.  0.
        1    1    3    3  502    0  0.15965762330E+03  0.33062314878E+03  0.15458990579E+03  0.39837201482E+03  0.50400001928E-02 0.  1.
       -1    1    3    3    0  502 -0.15965762330E+03 -0.33062314878E+03 -0.37540465858E+03  0.52510082927E+03  0.50400001928E-02 0. -1.
</event>
<event>
 5   0  0.2308362E-04  0.9016124E+03  0.7818609E-02  0.9423568E-01
       -1   -1    0    0    0  501  0.00000000000E+00  0.00000000000E+00  0.17968544835E+03  0.17968544842E+03  0.50400001928E-02 0. -1.
        1   -1    0    0  501    0  0.00000000000E+00  0.00000000000E+00 -0.11310110960E+04  0.11310110960E+04  0.50400001928E-02 0.  1.
    10030    2    1    2    0    0  0.00000000000E+00  0.00000000000E+00 -0.95132564760E+03  0.13106965444E+04  0.90161241323E+03 0.  0.
        1    1    3    3  502    0  0.12665716304E+03 -0.35791768520E+03 -0.12231752613E+03  0.39888429846E+03  0.50400001928E-02 0. -1.
       -1    1    3    3    0  502 -0.12665716304E+03  0.35791768520E+03 -0.82900812148E+03  0.91181224593E+03  0.50400001928E-02 0.  1.
</event>
<event>
 5   0  0.1596250E-04  0.8998204E+03  0.7818609E-02  0.9425806E-01
       -3   -1    0    0    0  501  0.00000000000E+00  0.00000000000E+00  0.83938820780E+03  0.83938821388E+03  0.10100000352E+00 0. -1.
        3   -1    0    0  501    0  0.00000000000E+00  0.00000000000E+00 -0.24115085351E+03  0.24115087466E+03  0.10100000352E+00 0.  1.
    10030    2    1    2    0    0  0.00000000000E+00  0.00000000000E+00  0.59823735429E+03  0.10805390885E+04  0.89982042085E+03 0.  0.
        1    1    3    3  502    0  0.23430692953E+03 -0.18286068994E+03 -0.10647587408E+03  0.31571328914E+03  0.50400001928E-02 0.  1.
       -1    1    3    3    0  502 -0.23430692953E+03  0.18286068994E+03  0.70471322838E+03  0.76482579940E+03  0.50400001928E-02 0. -1.
</event>
<event>
 5   0  0.4033144E-04  0.9001300E+03  0.7818609E-02  0.9425419E-01
       -2   -1    0    0    0  501  0.00000000000E+00  0.00000000000E+00  0.52395103227E+03  0.52395103227E+03  0.25500000920E-02 0. -1.
        2   -1    0    0  501    0  0.00000000000E+00  0.00000000000E+00 -0.38659817981E+03  0.38659817982E+03  0.25500000920E-02 0.  1.
    10030    2    1    2    0    0  0.00000000000E+00  0.00000000000E+00  0.13735285246E+03  0.91054921209E+03  0.90013002481E+03 0.  0.
        4    1    3    3  502    0 -0.12555571244E+03 -0.31702911819E+03 -0.22846714537E+03  0.41045163920E+03  0.12699999809E+01 0.  1.
       -4    1    3    3    0  502  0.12555571244E+03  0.31702911819E+03  0.36581999783E+03  0.50009757289E+03  0.12699999809E+01 0. -1.
</event>
<event>
 5   0  0.2308362E-04  0.9000290E+03  0.7818609E-02  0.9425545E-01
       -1   -1    0    0    0  501  0.00000000000E+00  0.00000000000E+00  0.29782760363E+03  0.29782760367E+03  0.50400001928E-02 0.  1.
        1   -1    0    0  501    0  0.00000000000E+00  0.00000000000E+00 -0.67996739203E+03  0.67996739205E+03  0.50400001928E-02 0. -1.
    10030    2    1    2    0    0  0.00000000000E+00  0.00000000000E+00 -0.38213978840E+03  0.97779499572E+03  0.90002901941E+03 0.  0.
        1    1    3    3  502    0  0.15757062960E+03  0.41088814917E+03 -0.88835398079E+02  0.44894242662E+03  0.50400001928E-02 0. -1.
       -1    1    3    3    0  502 -0.15757062960E+03 -0.41088814917E+03 -0.29330439032E+03  0.52885256910E+03  0.50400001928E-02 0.  1.
</event>
<event>
 5   0  0.4033144E-04  0.9001080E+03  0.7818609E-02  0.9425446E-01
        2   -1    0    0  501    0  0.00000000000E+00  0.00000000000E+00  0.17270323160E+04  0.17270323160E+04  0.25500000920E-02 0. -1.
       -2   -1    0    0    0  501  0.00000000000E+00  0.00000000000E+00 -0.11728130456E+03  0.11728130459E+03  0.25500000920E-02 0.  1.
    10030    2    1    2    0    0  0.00000000000E+00  0.00000000000E+00  0.16097510114E+04  0.18443136206E+04  0.90010800034E+03 0.  0.
        4    1    3    3  502    0  0.37167502971E+03  0.15289287149E+03  0.12199084901E+04  0.12844052690E+04  0.12699999809E+01 0. -1.
       -4    1    3    3    0  502 -0.37167502971E+03 -0.15289287149E+03  0.38984252133E+03  0.55990835160E+03  0.12699999809E+01 0.  1.
</event>
<event>
 5   0  0.4110039E-04  0.8998160E+03  0.7818609E-02  0.9425811E-01
       -2   -1    0    0    0  501  0.00000000000E+00  0.00000000000E+00  0.20377601101E+03  0.20377601103E+03  0.25500000920E-02 0.  1.
        2   -1    0    0  501    0  0.00000000000E+00  0.00000000000E+00 -0.99333199090E+03  0.99333199090E+03  0.25500000920E-02 0. -1.
    10030    2    1    2    0    0  0.00000000000E+00  0.00000000000E+00 -0.78955597989E+03  0.11971080019E+04  0.89981604948E+03 0.  0.
        3    1    3    3  502    0  0.41205054812E+02  0.28999117013E+03 -0.84911118461E+03  0.89821074883E+03  0.10100000352E+00 0. -1.
       -3    1    3    3    0  502 -0.41205054812E+02 -0.28999117013E+03  0.59555204720E+02  0.29889725309E+03  0.10100000352E+00 0.  1.
</event>
<event>
 5   0  0.4243516E-04  0.9001169E+03  0.7818609E-02  0.9425435E-01
       -2   -1    0    0    0  501  0.00000000000E+00  0.00000000000E+00  0.41819124086E+03  0.41819124086E+03  0.25500000920E-02 0.  1.
        2   -1    0    0  501    0  0.00000000000E+00  0.00000000000E+00 -0.48435403862E+03  0.48435403863E+03  0.25500000920E-02 0. -1.
    10030    2    1    2    0    0  0.00000000000E+00  0.00000000000E+00 -0.66162797765E+02  0.90254527949E+03  0.90011691781E+03 0.  0.
        1    1    3    3  502    0 -0.24390444618E+03  0.34180439967E+03 -0.19548437018E+03  0.46317789834E+03  0.50400001928E-02 0. -1.
       -1    1    3    3    0  502  0.24390444618E+03 -0.34180439967E+03  0.12932157242E+03  0.43936738115E+03  0.50400001928E-02 0.  1.
</event>
<event>
 5   0  0.4033144E-04  0.9042850E+03  0.7818609E-02  0.9420241E-01
        2   -1    0    0  501    0  0.00000000000E+00  0.00000000000E+00  0.46890204692E+03  0.46890204693E+03  0.25500000920E-02 0. -1.
       -2   -1    0    0    0  501  0.00000000000E+00  0.00000000000E+00 -0.43598195048E+03  0.43598195048E+03  0.25500000920E-02 0.  1.
    10030    2    1    2    0    0  0.00000000000E+00  0.00000000000E+00  0.32920096445E+02  0.90488399741E+03  0.90428497500E+03 0.  0.
        4    1    3    3  502    0 -0.34238713543E+03 -0.27121309275E+03 -0.10043224614E+03  0.44818940322E+03  0.12699999809E+01 0.  1.
       -4    1    3    3    0  502  0.34238713543E+03  0.27121309275E+03  0.13335234259E+03  0.45669459419E+03  0.12699999809E+01 0. -1.
</event>
<event>
 5   0  0.2308362E-04  0.8999799E+03  0.7818609E-02  0.9425607E-01
        1   -1    0    0  501    0  0.00000000000E+00  0.00000000000E+00  0.74072102854E+03  0.74072102856E+03  0.50400001928E-02 0.  1.
       -1   -1    0    0    0  501  0.00000000000E+00  0.00000000000E+00 -0.27337006401E+03  0.27337006406E+03  0.50400001928E-02 0. -1.
    10030    2    1    2    0    0  0.00000000000E+00  0.00000000000E+00  0.46735096453E+03  0.10140910926E+04  0.89997989982E+03 0.  0.
        1    1    3    3  502    0 -0.28647261422E+03 -0.21250620098E+03  0.54280620189E+03  0.64951059805E+03  0.50400001928E-02 0.  1.
       -1    1    3    3    0  502  0.28647261422E+03  0.21250620098E+03 -0.75455237357E+02  0.36458049457E+03  0.50400001928E-02 0. -1.
</event>
<event>
 5   0  0.4110039E-04  0.9000587E+03  0.7818609E-02  0.9425508E-01
        2   -1    0    0  501    0  0.00000000000E+00  0.00000000000E+00  0.16024334954E+04  0.16024334954E+04  0.25500000920E-02 0.  1.
       -2   -1    0    0    0  501  0.00000000000E+00  0.00000000000E+00 -0.12638678654E+03  0.12638678657E+03  0.25500000920E-02 0. -1.
    10030    2    1    2    0    0  0.00000000000E+00  0.00000000000E+00  0.14760467088E+04  0.17288202820E+04  0.90005870953E+03 0.  0.
        3    1    3    3  502    0 -0.19783993928E+03  0.29870920614E+03  0.21495347949E+03  0.41781914742E+03  0.10100000352E+00 0. -1.
       -3    1    3    3    0  502  0.19783993928E+03 -0.29870920614E+03  0.12610932294E+04  0.13110011345E+04  0.10100000352E+00 0.  1.
</event>
<event>
 5   0  0.2308362E-04  0.9000847E+03  0.7818609E-02  0.9425476E-01
        1   -1    0    0  501    0  0.00000000000E+00  0.00000000000E+00  0.11169274424E+04  0.11169274424E+04  0.50400001928E-02 0.  1.
       -1   -1    0    0    0  501  0.00000000000E+00  0.00000000000E+00 -0.18133505541E+03  0.18133505548E+03  0.50400001928E-02 0. -1.
    10030    2    1    2    0    0  0.00000000000E+00  0.00000000000E+00  0.93559238694E+03  0.12982624978E+04  0.90008466203E+03 0.  0.
        1    1    3    3  502    0 -0.11266389855E+03 -0.39860658622E+03  0.21401248428E+03  0.46624211315E+03  0.50400001928E-02 0. -1.
       -1    1    3    3    0  502  0.11266389855E+03  0.39860658622E+03  0.72157990266E+03  0.83202038470E+03  0.50400001928E-02 0.  1.
</event>
<event>
 5   0  0.4033144E-04  0.9068812E+03  0.7818609E-02  0.9417020E-01
       -2   -1    0    0    0  501  0.00000000000E+00  0.00000000000E+00  0.12789421699E+03  0.12789421702E+03  0.25500000920E-02 0. -1.
        2   -1    0    0  501    0  0.00000000000E+00  0.00000000000E+00 -0.16076440137E+04  0.16076440137E+04  0.25500000920E-02 0.  1.
    10030    2    1    2    0    0  0.00000000000E+00  0.00000000000E+00 -0.14797497967E+04  0.17355382307E+04  0.90688118814E+03 0.  0.
        4    1    3    3  502    0 -0.19507738071E+03 -0.34491753338E+03 -0.11616957629E+04  0.12274208519E+04  0.12699999809E+01 0. -1.
       -4    1    3    3    0  502  0.19507738071E+03  0.34491753338E+03 -0.31805403376E+03  0.50811737875E+03  0.12699999809E+01 0.  1.
</event>
<event>
 5   0  0.4236284E-04  0.9001407E+03  0.7818609E-02  0.9425406E-01
        2   -1    0    0  501    0  0.00000000000E+00  0.00000000000E+00  0.73004821448E+03  0.73004821449E+03  0.25500000920E-02 0.  1.
       -2   -1    0    0    0  501  0.00000000000E+00  0.00000000000E+00 -0.27746570102E+03  0.27746570103E+03  0.25500000920E-02 0. -1.
    10030    2    1    2    0    0  0.00000000000E+00  0.00000000000E+00  0.45258251346E+03  0.10075139155E+04  0.90014074370E+03 0.  0.
        2    1    3    3  502    0 -0.23025325634E+03 -0.30489100550E+02 -0.20520313899E+03  0.30992656480E+03  0.25500000920E-02 0. -1.
       -2    1    3    3    0  502  0.23025325634E+03  0.30489100550E+02  0.65778565245E+03  0.69758735072E+03  0.25500000920E-02 0.  1.
</event>
<event>
 5   0  0.4243516E-04  0.9000005E+03  0.7818609E-02  0.9425581E-01
       -2   -1    0    0    0  501  0.00000000000E+00  0.00000000000E+00  0.28527981865E+03  0.28527981866E+03  0.25500000920E-02 0. -1.
        2   -1    0    0  501    0  0.00000000000E+00  0.00000000000E+00 -0.70983013741E+03  0.70983013742E+03  0.25500000920E-02 0.  1.
    10030    2    1    2    0    0  0.00000000000E+00  0.00000000000E+00 -0.42455031876E+03  0.99510995608E+03  0.90000047307E+03 0.  0.
        1    1    3    3  502    0 -0.39319764779E+03 -0.16456313326E+03 -0.37179489892E+03  0.56561193582E+03  0.50400001928E-02 0.  1.
       -1    1    3    3    0  502  0.39319764779E+03  0.16456313326E+03 -0.52755419839E+02  0.42949802025E+03  0.50400001928E-02 0. -1.
</event>
<event>
 5   0  0.4110039E-04  0.9007635E+03  0.7818609E-02  0.9424628E-01
        2   -1    0    0  501    0  0.00000000000E+00  0.00000000000E+00  0.12966136215E+04  0.12966136215E+04  0.25500000920E-02 0. -1.
       -2   -1    0    0    0  501  0.00000000000E+00  0.00000000000E+00 -0.15644115034E+03  0.15644115036E+03  0.25500000920E-02 0.  1.
    10030    2    1    2    0    0  0.00000000000E+00  0.00000000000E+00  0.11401724712E+04  0.14530547719E+04  0.90076351283E+03 0.  0.
        3    1    3    3  502    0 -0.71930574325E+02  0.43650320209E+03  0.70634295924E+03  0.83344432281E+03  0.10100000352E+00 0.  1.
       -3    1    3    3    0  502  0.71930574325E+02 -0.43650320209E+03  0.43382951193E+03  0.61961044906E+03  0.10100000352E+00 0. -1.
</event>
<event>
 5   0  0.1596250E-04  0.8999927E+03  0.7818609E-02  0.9425591E-01
        3   -1    0    0  501    0  0.00000000000E+00  0.00000000000E+00  0.84610029922E+03  0.84610030524E+03  0.10100000352E+00 0.  1.
       -3   -1    0    0    0  501  0.00000000000E+00  0.00000000000E+00 -0.23932940299E+03  0.23932942430E+03  0.10100000352E+00 0. -1.
    10030    2    1    2    0    0  0.00000000000E+00  0.00000000000E+00  0.60677089622E+03  0.10854297295E+04  0.89999265401E+03 0.  0.
        1    1    3    3  502    0  0.28456344129E+03  0.27430088528E+03  0.43933789892E+02  0.39767764044E+03  0.50400001928E-02 0. -1.
       -1    1    3    3    0  502 -0.28456344129E+03 -0.27430088528E+03  0.56283710633E+03  0.68775208911E+03  0.50400001928E-02 0.  1.
</event>
<event>
 5   0  0.4236284E-04  0.8999167E+03  0.7818609E-02  0.9425686E-01
       -2   -1    0    0    0  501  0.00000000000E+00  0.00000000000E+00  0.15040243162E+03  0.15040243164E+03  0.25500000920E-02 0.  1.
        2   -1    0    0  501    0  0.00000000000E+00  0.00000000000E+00 -0.13461386324E+04  0.13461386324E+04  0.25500000920E-02 0. -1.
    10030    2    1    2    0    0  0.00000000000E+00  0.00000000000E+00 -0.11957362008E+04  0.14965410640E+04  0.89991671531E+03 0.  0.
        2    1    3    3  502    0  0.13272129201E+03  0.15180558440E+03 -0.12667957234E+04  0.12827436539E+04  0.25500000920E-02 0. -1.
       -2    1    3    3    0  502 -0.13272129201E+03 -0.15180558440E+03  0.71059522641E+02  0.21379741011E+03  0.25500000920E-02 0.  1.
</event>
<event>
 5   0  0.2332791E-04  0.9001380E+03  0.7818609E-02  0.9425409E-01
        1   -1    0    0  501    0  0.00000000000E+00  0.00000000000E+00  0.67634285921E+03  0.67634285923E+03  0.50400001928E-02 0.  1.
       -1   -1    0    0    0  501  0.00000000000E+00  0.00000000000E+00 -0.29949620052E+03  0.29949620056E+03  0.50400001928E-02 0. -1.
    10030    2    1    2    0    0  0.00000000000E+00  0.00000000000E+00  0.37684665869E+03  0.97583905979E+03  0.90013802633E+03 0.  0.
        2    1    3    3  502    0  0.25338103581E+03 -0.25758348408E+03  0.47933976402E+03  0.60026478321E+03  0.25500000920E-02 0.  1.
       -2    1    3    3    0  502 -0.25338103581E+03  0.25758348408E+03 -0.10249310533E+03  0.37557427658E+03  0.25500000920E-02 0. -1.
</event>
<event>
 5   0  0.2332791E-04  0.8979605E+03  0.7818609E-02  0.9428134E-01
       -1   -1    0    0    0  501  0.00000000000E+00  0.00000000000E+00  0.49996984019E+03  0.49996984022E+03  0.50400001928E-02 0.  1.
        1   -1    0    0  501    0  0.00000000000E+00  0.00000000000E+00 -0.40319088576E+03  0.40319088579E+03  0.50400001928E-02 0. -1.
    10030    2    1    2    0    0  0.00000000000E+00  0.00000000000E+00  0.96778954434E+02  0.90316072601E+03  0.89796053977E+03 0.  0.
        2    1    3    3  502    0  0.36516102320E+02  0.35527848497E+03 -0.22526529631E+03  0.42225665340E+03  0.25500000920E-02 0. -1.
       -2    1    3    3    0  502 -0.36516102320E+02 -0.35527848497E+03  0.32204425074E+03  0.48090407261E+03  0.25500000920E-02 0.  1.
</event>
<event>
 5   0  0.2351435E-04  0.9001192E+03  0.7818609E-02  0.9425432E-01
       -1   -1    0    0    0  501  0.00000000000E+00  0.00000000000E+00  0.16033324438E+03  0.16033324446E+03  0.50400001928E-02 0. -1.
        1   -1    0    0  501    0  0.00000000000E+00  0.00000000000E+00 -0.12633289709E+04  0.12633289710E+04  0.50400001928E-02 0.  1.
    10030    2    1    2    0    0  0.00000000000E+00  0.00000000000E+00 -0.11029957266E+04  0.14236622154E+04  0.90011917588E+03 0.  0.
        4    1    3    3  502    0  0.38075724968E+03 -0.23549084557E+03 -0.62432189146E+03  0.76825221027E+03  0.12699999809E+01 0.  1.
       -4    1    3    3    0  502 -0.38075724968E+03  0.23549084557E+03 -0.47867383510E+03  0.65541000515E+03  0.12699999809E+01 0. -1.
</event>
<event>
 5   0  0.2356918E-04  0.8999639E+03  0.7818609E-02  0.9425627E-01
        1   -1    0    0  501    0  0.00000000000E+00  0.00000000000E+00  0.15096747404E+04  0.15096747404E+04  0.50400001928E-02 0.  1.
       -1   -1    0    0    0  501  0.00000000000E+00  0.00000000000E+00 -0.13412410229E+03  0.13412410239E+03  0.50400001928E-02 0. -1.
    10030    2    1    2    0    0  0.00000000000E+00  0.00000000000E+00  0.13755506381E+04  0.16437988428E+04  0.89996393127E+03 0.  0.
        5    1    3    3  502    0 -0.11642876098E+03 -0.41688608878E+03  0.46323997594E+03  0.63400554628E+03  0.46999998093E+01 0. -1.
       -5    1    3    3    0  502  0.11642876098E+03  0.41688608878E+03  0.91231066220E+03  0.10097932965E+04  0.46999998093E+01 0.  1.
</event>
<event>
 5   0  0.2356918E-04  0.9001903E+03  0.7818609E-02  0.9425344E-01
        1   -1    0    0  501    0  0.00000000000E+00  0.00000000000E+00  0.11592260010E+04  0.11592260010E+04  0.50400001928E-02 0. -1.
       -1   -1    0    0    0  501  0.00000000000E+00  0.00000000000E+00 -0.17475940515E+03  0.17475940522E+03  0.50400001928E-02 0.  1.
    10030    2    1    2    0    0  0.00000000000E+00  0.00000000000E+00  0.98446659583E+03  0.13339854062E+04  0.90019030525E+03 0.  0.
        5    1    3    3  502    0 -0.29870766782E+02 -0.37819478215E+03  0.85108394157E+03  0.93182054149E+03  0.46999998093E+01 0. -1.
       -5    1    3    3    0  502  0.29870766782E+02  0.37819478215E+03  0.13338265426E+03  0.40216486471E+03  0.46999998093E+01 0.  1.
</event>
<event>
 5   0  0.4110039E-04  0.8999391E+03  0.7818609E-02  0.9425658E-01
        2   -1    0    0  501    0  0.00000000000E+00  0.00000000000E+00  0.84700771678E+03  0.84700771678E+03  0.25500000920E-02 0. -1.
       -2   -1    0    0    0  501  0.00000000000E+00  0.00000000000E+00 -0.23904455509E+03  0.23904455511E+03  0.25500000920E-02 0.  1.
    10030    2    1    2    0    0  0.00000000000E+00  0.00000000000E+00  0.60796316168E+03  0.10860522719E+04  0.89993907089E+03 0.  0.
        3    1    3    3  502    0  0.26490462603E+03 -0.43486873196E+02  0.73978243722E+03  0.78698388399E+03  0.10100000352E+00 0. -1.
       -3    1    3    3    0  502 -0.26490462603E+03  0.43486873196E+02 -0.13181927554E+03  0.29906838790E+03  0.10100000352E+00 0.  1.
</event>
<event>
 5   0  0.4110039E-04  0.9000421E+03  0.7818609E-02  0.9425529E-01
       -2   -1    0    0    0  501  0.00000000000E+00  0.00000000000E+00  0.22553318001E+03  0.22553318002E+03  0.25500000920E-02 0.  1.
        2   -1    0    0  501    0  0.00000000000E+00  0.00000000000E+00 -0.89795624446E+03  0.89795624446E+03  0.25500000920E-02 0. -1.
    10030    2    1    2    0    0  0.00000000000E+00  0.00000000000E+00 -0.67242306445E+03  0.11234894245E+04  0.90004205975E+03 0.  0.
        3    1    3    3  502    0  0.32134561707E+03  0.15186755362E+03 -0.68076872473E+03  0.76796668302E+03  0.10100000352E+00 0. -1.
       -3    1    3    3    0  502 -0.32134561707E+03 -0.15186755362E+03  0.83456602751E+01  0.35552274147E+03  0.10100000352E+00 0.  1.
</event>
<event>
 5   0  0.2356918E-04  0.8997043E+03  0.7818609E-02  0.9425951E-01
        1   -1    0    0  501    0  0.00000000000E+00  0.00000000000E+00  0.13125018851E+04  0.13125018851E+04  0.50400001928E-02 0.  1.
       -1   -1    0    0    0  501  0.00000000000E+00  0.00000000000E+00 -0.15418412549E+03  0.15418412557E+03  0.50400001928E-02 0. -1.
    10030    2    1    2    0    0  0.00000000000E+00  0.00000000000E+00  0.11583177596E+04  0.14666860107E+04  0.89970429681E+03 0.  0.
        5    1    3    3  502    0  0.60284226054E+02 -0.57567852287E+02  0.12997615689E+04  0.13024401988E+04  0.46999998093E+01 0.  1.
       -5    1    3    3    0  502 -0.60284226054E+02  0.57567852287E+02 -0.14144380929E+03  0.16424581186E+03  0.46999998093E+01 0. -1.
</event>
<event>
 5   0  0.4243516E-04  0.8999922E+03  0.7818609E-02  0.9425591E-01
        2   -1    0    0  501    0  0.00000000000E+00  0.00000000000E+00  0.73435665625E+03  0.73435665625E+03  0.25500000920E-02 0. -1.
       -2   -1    0    0    0  501  0.00000000000E+00  0.00000000000E+00 -0.27574678789E+03  0.27574678790E+03  0.25500000920E-02 0.  1.
    10030    2    1    2    0    0  0.00000000000E+00  0.00000000000E+00  0.45860986836E+03  0.10101034442E+04  0.89999219804E+03 0.  0.
        1    1    3    3  502    0  0.32259815183E+03  0.25081357121E+03  0.17780583542E+02  0.40901487044E+03  0.50400001928E-02 0.  1.
       -1    1    3    3    0  502 -0.32259815183E+03 -0.25081357121E+03  0.44082928482E+03  0.60108857371E+03  0.50400001928E-02 0. -1.
</event>
<event>
 5   0  0.2332791E-04  0.8988075E+03  0.7818609E-02  0.9427073E-01
        1   -1    0    0  501    0  0.00000000000E+00  0.00000000000E+00  0.26013055749E+03  0.26013055754E+03  0.50400001928E-02 0.  1.
       -1   -1    0    0    0  501  0.00000000000E+00  0.00000000000E+00 -0.77639378543E+03  0.77639378544E+03  0.50400001928E-02 0. -1.
    10030    2    1    2    0    0  0.00000000000E+00  0.00000000000E+00 -0.51626322794E+03  0.10365243430E+04  0.89880753951E+03 0.  0.
        2    1    3    3  502    0  0.33828267747E+02 -0.14274666928E+03  0.23174032188E+03  0.27427092460E+03  0.25500000920E-02 0.  1.
       -2    1    3    3    0  502 -0.33828267747E+02  0.14274666928E+03 -0.74800354982E+03  0.76225341838E+03  0.25500000920E-02 0. -1.
</event>
<event>
 5   0  0.4110039E-04  0.8996451E+03  0.7818609E-02  0.9426025E-01
       -2   -1    0    0    0  501  0.00000000000E+00  0.00000000000E+00  0.38109406404E+03  0.38109406405E+03  0.25500000920E-02 0. -1.
        2   -1    0    0  501    0  0.00000000000E+00  0.00000000000E+00 -0.53094588975E+03  0.53094588975E+03  0.25500000920E-02 0.  1.
    10030    2    1    2    0    0  0.00000000000E+00  0.00000000000E+00 -0.14985182570E+03  0.91203995381E+03  0.89964510096E+03 0.  0.
        3    1    3    3  502    0  0.19100084033E+03  0.38692987601E+03 -0.20373657333E+03  0.47718408552E+03  0.10100000352E+00 0.  1.
       -3    1    3    3    0  502 -0.19100084033E+03 -0.38692987601E+03  0.53884747622E+02  0.43485586829E+03  0.10100000352E+00 0. -1.
</event>
<event>
 5   0  0.4033144E-04  0.9005631E+03  0.7818609E-02  0.9424878E-01
       -2   -1    0    0    0  501  0.00000000000E+00  0.00000000000E+00  0.18317290291E+03  0.18317290293E+03  0.25500000920E-02 0.  1.
        2   -1    0    0  501    0  0.00000000000E+00  0.00000000000E+00 -0.11068967321E+04  0.11068967321E+04  0.25500000920E-02 0. -1.
    10030    2    1    2    0    0  0.00000000000E+00  0.00000000000E+00 -0.92372382919E+03  0.12900696350E+04  0.90056312972E+03 0.  0.
        4    1    3    3  502    0  0.22722506597E+03 -0.12293506939E+03  0.66438072233E+02  0.26675811559E+03  0.12699999809E+01 0.  1.
       -4    1    3    3    0  502 -0.22722506597E+03  0.12293506939E+03 -0.99016190142E+03  0.10233115194E+04  0.12699999809E+01 0. -1.
</event>
<event>
 5   0  0.3959804E-04  0.8995897E+03  0.7818609E-02  0.9426095E-01
       -2   -1    0    0    0  501  0.00000000000E+00  0.00000000000E+00  0.18946769685E+03  0.18946769687E+03  0.25500000920E-02 0. -1.
        2   -1    0    0  501    0  0.00000000000E+00  0.00000000000E+00 -0.10678093863E+04  0.10678093863E+04  0.25500000920E-02 0.  1.
    10030    2    1    2    0    0  0.00000000000E+00  0.00000000000E+00 -0.87834168943E+03  0.12572770832E+04  0.89958965113E+03 0.  0.
        5    1    3    3  502    0  0.19513996099E+03 -0.38727374541E+03 -0.27243431485E+03  0.51215535160E+03  0.46999998093E+01 0. -1.
       -5    1    3    3    0  502 -0.19513996099E+03  0.38727374541E+03 -0.60590737458E+03  0.74512173155E+03  0.46999998093E+01 0.  1.
</event>
<event>
 5   0  0.2308362E-04  0.9006679E+03  0.7818609E-02  0.9424747E-01
       -1   -1    0    0    0  501  0.00000000000E+00  0.00000000000E+00  0.80699998180E+03  0.80699998182E+03  0.50400001928E-02 0.  1.
        1   -1    0    0  501    0  0.00000000000E+00  0.00000000000E+00 -0.25130191943E+03  0.25130191948E+03  0.50400001928E-02 0. -1.
    10030    2    1    2    0    0  0.00000000000E+00  0.00000000000E+00  0.55569806237E+03  0.10583019013E+04  0.90066785097E+03 0.  0.
        1    1    3    3  502    0  0.32072482704E+03 -0.13732163157E+03  0.61242835962E+03  0.70483341356E+03  0.50400001928E-02 0.  1.
       -1    1    3    3    0  502 -0.32072482704E+03  0.13732163157E+03 -0.56730297248E+02  0.35346848774E+03  0.50400001928E-02 0. -1.
</event>
<event>
 5   0  0.1596250E-04  0.9000943E+03  0.7818609E-02  0.9425464E-01
        3   -1    0    0  501    0  0.00000000000E+00  0.00000000000E+00  0.16643788125E+03  0.16643791189E+03  0.10100000352E+00 0.  1.
       -3   -1    0    0    0  501  0.00000000000E+00  0.00000000000E+00 -0.12169249545E+04  0.12169249587E+04  0.10100000352E+00 0. -1.
    10030    2    1    2    0    0  0.00000000000E+00  0.00000000000E+00 -0.10504870733E+04  0.13833628706E+04  0.90009429544E+03 0.  0.
        5    1    3    3  502    0  0.57480745050E-01  0.20432415755E+02 -0.12161739878E+04  0.12163546956E+04  0.46999998093E+01 0. -1.
       -5    1    3    3    0  502 -0.57480745050E-01 -0.20432415755E+02  0.16568691446E+03  0.16700817507E+03  0.46999998093E+01 0.  1.
</event>
<event>
 5   0  0.2308362E-04  0.9001985E+03  0.7818609E-02  0.9425333E-01
        1   -1    0    0  501    0  0.00000000000E+00  0.00000000000E+00  0.22934025070E+03  0.22934025076E+03  0.50400001928E-02 0.  1.
       -1   -1    0    0    0  501  0.00000000000E+00  0.00000000000E+00 -0.88335707017E+03  0.88335707019E+03  0.50400001928E-02 0. -1.
    10030    2    1    2    0    0  0.00000000000E+00  0.00000000000E+00 -0.65401681947E+03  0.11126973209E+04  0.90019849361E+03 0.  0.
        1    1    3    3  502    0  0.44232489588E+03 -0.74975319130E+02 -0.37186078732E+03  0.58271181313E+03  0.50400001928E-02 0.  1.
       -1    1    3    3    0  502 -0.44232489588E+03  0.74975319130E+02 -0.28215603215E+03  0.52998550782E+03  0.50400001928E-02 0. -1.
</event>
<event>
 5   0  0.2351435E-04  0.9007340E+03  0.7818609E-02  0.9424664E-01
       -1   -1    0    0    0  501  0.00000000000E+00  0.00000000000E+00  0.24768148214E+03  0.24768148219E+03  0.50400001928E-02 0. -1.
        1   -1    0    0  501    0  0.00000000000E+00  0.00000000000E+00 -0.81891647291E+03  0.81891647293E+03  0.50400001928E-02 0.  1.
    10030    2    1    2    0    0  0.00000000000E+00  0.00000000000E+00 -0.57123499077E+03  0.10665979551E+04  0.90073402467E+03 0.  0.
        4    1    3    3  502    0 -0.54026277306E+02  0.14166607448E+03 -0.78778452117E+03  0.80224321748E+03  0.12699999809E+01 0.  1.
       -4    1    3    3    0  502  0.54026277306E+02 -0.14166607448E+03  0.21654953040E+03  0.26435473764E+03  0.12699999809E+01 0. -1.
</event>
<event>
 5   0  0.2356918E-04  0.8996986E+03  0.7818609E-02  0.9425958E-01
        1   -1    0    0  501    0  0.00000000000E+00  0.00000000000E+00  0.63713140631E+03  0.63713140633E+03  0.50400001928E-02 0.  1.
       -1   -1    0    0    0  501  0.00000000000E+00  0.00000000000E+00 -0.31761796766E+03  0.31761796770E+03  0.50400001928E-02 0. -1.
    10030    2    1    2    0    0  0.00000000000E+00  0.00000000000E+00  0.31951343866E+03  0.95474937403E+03  0.89969857715E+03 0.  0.
        5    1    3    3  502    0 -0.16696046375E+03 -0.23903131046E+02 -0.28276650318E+03  0.32928124977E+03  0.46999998093E+01 0. -1.
       -5    1    3    3    0  502  0.16696046375E+03  0.23903131046E+02  0.60227994184E+03  0.62546812426E+03  0.46999998093E+01 0.  1.
</event>
<event>
 5   0  0.4110039E-04  0.8999906E+03  0.7818609E-02  0.9425593E-01
        2   -1    0    0  501    0  0.00000000000E+00  0.00000000000E+00  0.13735102841E+04  0.13735102841E+04  0.25500000920E-02 0.  1.
       -2   -1    0    0    0  501  0.00000000000E+00  0.00000000000E+00 -0.14742939047E+03  0.14742939050E+03  0.25500000920E-02 0. -1.
    10030    2    1    2    0    0  0.00000000000E+00  0.00000000000E+00  0.12260808937E+04  0.15209396746E+04  0.89999063110E+03 0.  0.
        3    1    3    3  502    0 -0.30625639376E+03 -0.83839137920E+02  0.74177259740E+02  0.32607400360E+03  0.10100000352E+00 0. -1.
       -3    1    3    3    0  502  0.30625639376E+03  0.83839137920E+02  0.11519036339E+04  0.11948656710E+04  0.10100000352E+00 0.  1.
</event>
<event>
 5   0  0.2332791E-04  0.9001025E+03  0.7818609E-02  0.9425453E-01
        1   -1    0    0  501    0  0.00000000000E+00  0.00000000000E+00  0.73158040475E+03  0.73158040476E+03  0.50400001928E-02 0. -1.
       -1   -1    0    0    0  501  0.00000000000E+00  0.00000000000E+00 -0.27686106365E+03  0.27686106370E+03  0.50400001928E-02 0.  1.
    10030    2    1    2    0    0  0.00000000000E+00  0.00000000000E+00  0.45471934109E+03  0.10084414685E+04  0.90010250314E+03 0.  0.
        2    1    3    3  502    0 -0.11998564105E+03 -0.41416079029E+03  0.37179706831E+03  0.56934943073E+03  0.25500000920E-02 0. -1.
       -2    1    3    3    0  502  0.11998564105E+03  0.41416079029E+03  0.82922272790E+02  0.43909203773E+03  0.25500000920E-02 0.  1.
</event>
<event>
 5   0  0.2351435E-04  0.8997268E+03  0.7818609E-02  0.9425923E-01
        1   -1    0    0  501    0  0.00000000000E+00  0.00000000000E+00  0.38498131384E+03  0.38498131387E+03  0.50400001928E-02 0.  1.
       -1   -1    0    0    0  501  0.00000000000E+00  0.00000000000E+00 -0.52568031903E+03  0.52568031905E+03  0.50400001928E-02 0. -1.
    10030    2    1    2    0    0  0.00000000000E+00  0.00000000000E+00 -0.14069900519E+03  0.91066163293E+03  0.89972684723E+03 0.  0.
        4    1    3    3  502    0 -0.25842521397E+03 -0.13556118050E+02 -0.44280014368E+03  0.51287516970E+03  0.12699999809E+01 0. -1.
       -4    1    3    3    0  502  0.25842521397E+03  0.13556118050E+02  0.30210113849E+03  0.39778646323E+03  0.12699999809E+01 0.  1.
</event>
<event>
 5   0  0.2450427E-04  0.9000139E+03  0.7818609E-02  0.9425564E-01
        1   -1    0    0  501    0  0.00000000000E+00  0.00000000000E+00  0.76880801615E+03  0.76880801616E+03  0.50400001928E-02 0. -1.
       -1   -1    0    0    0  501  0.00000000000E+00  0.00000000000E+00 -0.26340286842E+03  0.26340286847E+03  0.50400001928E-02 0.  1.
    10030    2    1    2    0    0  0.00000000000E+00  0.00000000000E+00  0.50540514773E+03  0.10322108846E+04  0.90001385934E+03 0.  0.
        3    1    3    3  502    0 -0.38317688329E+03  0.11947863204E+03  0.19327854649E+02  0.40183733471E+03  0.10100000352E+00 0. -1.
       -3    1    3    3    0  502  0.38317688329E+03 -0.11947863204E+03  0.48607729308E+03  0.63037354993E+03  0.10100000352E+00 0.  1.
</event>
<event>
 5   0  0.2351435E-04  0.9018375E+03  0.7818609E-02  0.9423287E-01
        1   -1    0    0  501    0  0.00000000000E+00  0.00000000000E+00  0.52892655514E+03  0.52892655517E+03  0.50400001928E-02 0.  1.
       -1   -1    0    0    0  501  0.00000000000E+00  0.00000000000E+00 -0.38441575317E+03  0.38441575320E+03  0.50400001928E-02 0. -1.
    10030    2    1    2    0    0  0.00000000000E+00  0.00000000000E+00  0.14451080198E+03  0.91334230836E+03  0.90183745784E+03 0.  0.
        4    1    3    3  502    0 -0.25394324287E+03  0.32022887654E+03 -0.12068050111E+03  0.42614445933E+03  0.12699999809E+01 0.  1.
       -4    1    3    3    0  502  0.25394324287E+03 -0.32022887654E+03  0.26519130308E+03  0.48719784903E+03  0.12699999809E+01 0. -1.
</event>
<event>
 5   0  0.4236284E-04  0.9000455E+03  0.7818609E-02  0.9425525E-01
        2   -1    0    0  501    0  0.00000000000E+00  0.00000000000E+00  0.10025138391E+04  0.10025138391E+04  0.25500000920E-02 0.  1.
       -2   -1    0    0    0  501  0.00000000000E+00  0.00000000000E+00 -0.20201264524E+03  0.20201264526E+03  0.25500000920E-02 0. -1.
    10030    2    1    2    0    0  0.00000000000E+00  0.00000000000E+00  0.80050119384E+03  0.12045264843E+04  0.90004549338E+03 0.  0.
        2    1    3    3  502    0 -0.20627583313E+03 -0.27881599517E+03  0.78402266173E+03  0.85730951973E+03  0.25500000920E-02 0.  1.
       -2    1    3    3    0  502  0.20627583313E+03  0.27881599517E+03  0.16478532109E+02  0.34721696462E+03  0.25500000920E-02 0. -1.
</event>
<event>
 5   0  0.3959804E-04  0.9031653E+03  0.7818609E-02  0.9421633E-01
       -2   -1    0    0    0  501  0.00000000000E+00  0.00000000000E+00  0.53460044220E+03  0.53460044221E+03  0.25500000920E-02 0.  1.
        2   -1    0    0  501    0  0.00000000000E+00  0.00000000000E+00 -0.38145663234E+03  0.38145663235E+03  0.25500000920E-02 0. -1.
    10030    2    1    2    0    0  0.00000000000E+00  0.00000000000E+00  0.15314380987E+03  0.91605707456E+03  0.90316528795E+03 0.  0.
        5    1    3    3  502    0  0.24927299894E+03  0.26117694592E+03 -0.19850842289E+03  0.41204139238E+03  0.46999998093E+01 0. -1.
       -5    1    3    3    0  502 -0.24927299894E+03 -0.26117694592E+03  0.35165223275E+03  0.50401568218E+03  0.46999998093E+01 0.  1.
</event>
<event>
 5   0  0.4110039E-04  0.9025981E+03  0.7818609E-02  0.9422340E-01
        2   -1    0    0  501    0  0.00000000000E+00  0.00000000000E+00  0.40758673911E+03  0.40758673912E+03  0.25500000920E-02 0.  1.
       -2   -1    0    0    0  501  0.00000000000E+00  0.00000000000E+00 -0.49969932698E+03  0.49969932699E+03  0.25500000920E-02 0. -1.
    10030    2    1    2    0    0  0.00000000000E+00  0.00000000000E+00 -0.92112587869E+02  0.90728606611E+03  0.90259807053E+03 0.  0.
        3    1    3    3  502    0  0.63342920339E+02  0.12008022335E+03 -0.47868597974E+03  0.49756593834E+03  0.10100000352E+00 0. -1.
       -3    1    3    3    0  502 -0.63342920339E+02 -0.12008022335E+03  0.38657339187E+03  0.40972012777E+03  0.10100000352E+00 0.  1.
</event>
<event>
 5   0  0.3959804E-04  0.9000970E+03  0.7818609E-02  0.9425460E-01
        2   -1    0    0  501    0  0.00000000000E+00  0.00000000000E+00  0.15089901117E+03  0.15089901119E+03  0.25500000920E-02 0.  1.
       -2   -1    0    0    0  501  0.00000000000E+00  0.00000000000E+00 -0.13422464014E+04  0.13422464014E+04  0.25500000920E-02 0. -1.
    10030    2    1    2    0    0  0.00000000000E+00  0.00000000000E+00 -0.11913473903E+04  0.14931454126E+04  0.90009700531E+03 0.  0.
        5    1    3    3  502    0 -0.15150574265E+03  0.90954762051E+02 -0.12822437930E+04  0.12943716598E+04  0.46999998093E+01 0. -1.
       -5    1    3    3    0  502  0.15150574265E+03 -0.90954762051E+02  0.90896402775E+02  0.19877375287E+03  0.46999998093E+01 0.  1.
</event>
<event>
 5   0  0.2351435E-04  0.8997892E+03  0.7818609E-02  0.9425845E-01
        1   -1    0    0  501    0  0.00000000000E+00  0.00000000000E+00  0.10498730829E+04  0.10498730830E+04  0.50400001928E-02 0.  1.
       -1   -1    0    0    0  501  0.00000000000E+00  0.00000000000E+00 -0.19279011284E+03  0.19279011291E+03  0.50400001928E-02 0. -1.
    10030    2    1    2    0    0  0.00000000000E+00  0.00000000000E+00  0.85708297009E+03  0.12426631959E+04  0.89978919793E+03 0.  0.
        4    1    3    3  502    0 -0.15881473394E+03  0.38532905877E+03  0.66251990683E+03  0.78270993548E+03  0.12699999809E+01 0.  1.
       -4    1    3    3    0  502  0.15881473394E+03 -0.38532905877E+03  0.19456306326E+03  0.45995326038E+03  0.12699999809E+01 0. -1.
</event>
<event>
 5   0  0.2450427E-04  0.8999165E+03  0.7818609E-02  0.9425686E-01
       -1   -1    0    0    0  501  0.00000000000E+00  0.00000000000E+00  0.63854625666E+03  0.63854625668E+03  0.50400001928E-02 0. -1.
        1   -1    0    0  501    0  0.00000000000E+00  0.00000000000E+00 -0.31706772435E+03  0.31706772439E+03  0.50400001928E-02 0.  1.
    10030    2    1    2    0    0  0.00000000000E+00  0.00000000000E+00  0.32147853231E+03  0.95561398107E+03  0.89991645950E+03 0.  0.
        3    1    3    3  502    0  0.11190632568E+03 -0.27490328404E+03  0.51985275821E+03  0.59861652309E+03  0.10100000352E+00 0. -1.
       -3    1    3    3    0  502 -0.11190632568E+03  0.27490328404E+03 -0.19837422590E+03  0.35699745798E+03  0.10100000352E+00 0.  1.
</event>
<event>
 5   0  0.2450427E-04  0.8999054E+03  0.7818609E-02  0.9425700E-01
        1   -1    0    0  501    0  0.00000000000E+00  0.00000000000E+00  0.50871853579E+03  0.50871853581E+03  0.50400001928E-02 0.  1.
       -1   -1    0    0    0  501  0.00000000000E+00  0.00000000000E+00 -0.39797537502E+03  0.39797537505E+03  0.50400001928E-02 0. -1.
    10030    2    1    2    0    0  0.00000000000E+00  0.00000000000E+00  0.11074316077E+03  0.90669391086E+03  0.89990543966E+03 0.  0.
        3    1    3    3  502    0 -0.40618826529E+03  0.41949460823E+02 -0.13502156236E+03  0.43009242800E+03  0.10100000352E+00 0. -1.
       -3    1    3    3    0  502  0.40618826529E+03 -0.41949460823E+02  0.24576472313E+03  0.47660148286E+03  0.10100000352E+00 0.  1.
</event>
<event>
 5   0  0.2356918E-04  0.9000437E+03  0.7818609E-02  0.9425527E-01
       -1   -1    0    0    0  501  0.00000000000E+00  0.00000000000E+00  0.98890118496E+03  0.98890118498E+03  0.50400001928E-02 0. -1.
        1   -1    0    0  501    0  0.00000000000E+00  0.00000000000E+00 -0.20479262476E+03  0.20479262482E+03  0.50400001928E-02 0.  1.
    10030    2    1    2    0    0  0.00000000000E+00  0.00000000000E+00  0.78410856021E+03  0.11936938098E+04  0.90004370858E+03 0.  0.
        5    1    3    3  502    0 -0.31240964091E+03  0.11410023306E+03 -0.99561411791E+01  0.33277599322E+03  0.46999998093E+01 0.  1.
       -5    1    3    3    0  502  0.31240964091E+03 -0.11410023306E+03  0.79406470138E+03  0.86091781658E+03  0.46999998093E+01 0. -1.
</event>
<event>
 5   0  0.4236284E-04  0.9036001E+03  0.7818609E-02  0.9421092E-01
        2   -1    0    0  501    0  0.00000000000E+00  0.00000000000E+00  0.17226816396E+04  0.17226816396E+04  0.25500000920E-02 0.  1.
       -2   -1    0    0    0  501  0.00000000000E+00  0.00000000000E+00 -0.11849159711E+03  0.11849159714E+03  0.25500000920E-02 0. -1.
    10030    2    1    2    0    0  0.00000000000E+00  0.00000000000E+00  0.16041900425E+04  0.18411732367E+04  0.90360013019E+03 0.  0.
        2    1    3    3  502    0 -0.21848121388E+03  0.34242437840E+03  0.12051830914E+04  0.12717919561E+04  0.25500000920E-02 0.  1.
       -2    1    3    3    0  502  0.21848121388E+03 -0.34242437840E+03  0.39900695107E+03  0.56938128064E+03  0.25500000920E-02 0. -1.
</event>
<event>
 5   0  0.4110039E-04  0.9003640E+03  0.7818609E-02  0.9425127E-01
       -2   -1    0    0    0  501  0.00000000000E+00  0.00000000000E+00  0.21706534846E+03  0.21706534847E+03  0.25500000920E-02 0. -1.
        2   -1    0    0  501    0  0.00000000000E+00  0.00000000000E+00 -0.93365351430E+03  0.93365351431E+03  0.25500000920E-02 0.  1.
    10030    2    1    2    0    0  0.00000000000E+00  0.00000000000E+00 -0.71658816584E+03  0.11507188628E+04  0.90036398291E+03 0.  0.
        3    1    3    3  502    0 -0.35942366712E+03  0.16744667646E+03 -0.63073387145E+03  0.74501609965E+03  0.10100000352E+00 0.  1.
       -3    1    3    3    0  502  0.35942366712E+03 -0.16744667646E+03 -0.85854294395E+02  0.40570276313E+03  0.10100000352E+00 0. -1.
</event>
<event>
 5   0  0.4110039E-04  0.9008448E+03  0.7818609E-02  0.9424526E-01
       -2   -1    0    0    0  501  0.00000000000E+00  0.00000000000E+00  0.91649298666E+03  0.91649298666E+03  0.25500000920E-02 0.  1.
        2   -1    0    0  501    0  0.00000000000E+00  0.00000000000E+00 -0.22136596654E+03  0.22136596655E+03  0.25500000920E-02 0. -1.
    10030    2    1    2    0    0  0.00000000000E+00  0.00000000000E+00  0.69512702012E+03  0.11378589532E+04  0.90084483864E+03 0.  0.
        3    1    3    3  502    0  0.37012261251E+02  0.44782413404E+03  0.38678039997E+03  0.59288738434E+03  0.10100000352E+00 0.  1.
       -3    1    3    3    0  502 -0.37012261251E+02 -0.44782413404E+03  0.30834662016E+03  0.54497156887E+03  0.10100000352E+00 0. -1.
</event>
<event>
 5   0  0.2332791E-04  0.8991061E+03  0.7818609E-02  0.9426700E-01
        1   -1    0    0  501    0  0.00000000000E+00  0.00000000000E+00  0.24215585049E+03  0.24215585054E+03  0.50400001928E-02 0.  1.
       -1   -1    0    0    0  501  0.00000000000E+00  0.00000000000E+00 -0.83457801303E+03  0.83457801304E+03  0.50400001928E-02 0. -1.
    10030    2    1    2    0    0  0.00000000000E+00  0.00000000000E+00 -0.59242216254E+03  0.10767338636E+04  0.89910610848E+03 0.  0.
        2    1    3    3  502    0  0.42531237063E+03  0.73929293096E+02 -0.14595759485E+03  0.45569701830E+03  0.25500000920E-02 0.  1.
       -2    1    3    3    0  502 -0.42531237063E+03 -0.73929293096E+02 -0.44646456769E+03  0.62103684528E+03  0.25500000920E-02 0. -1.
</event>
<event>
 5   0  0.4033144E-04  0.8976859E+03  0.7818609E-02  0.9428479E-01
       -2   -1    0    0    0  501  0.00000000000E+00  0.00000000000E+00  0.18582567343E+03  0.18582567345E+03  0.25500000920E-02 0.  1.
        2   -1    0    0  501    0  0.00000000000E+00  0.00000000000E+00 -0.10841343112E+04  0.10841343112E+04  0.25500000920E-02 0. -1.
    10030    2    1    2    0    0  0.00000000000E+00  0.00000000000E+00 -0.89830863776E+03  0.12699599846E+04  0.89768588822E+03 0.  0.
        4    1    3    3  502    0  0.20088760852E+03 -0.93924580391E+02 -0.10012166261E+04  0.10254823271E+04  0.12699999809E+01 0. -1.
       -4    1    3    3    0  502 -0.20088760852E+03  0.93924580391E+02  0.10290798831E+03  0.24447765750E+03  0.12699999809E+01 0.  1.
</event>
<event>
 5   0  0.4110039E-04  0.9004606E+03  0.7818609E-02  0.9425006E-01
       -2   -1    0    0    0  501  0.00000000000E+00  0.00000000000E+00  0.40206225113E+03  0.40206225113E+03  0.25500000920E-02 0.  1.
        2   -1    0    0  501    0  0.00000000000E+00  0.00000000000E+00 -0.50416900774E+03  0.50416900774E+03  0.25500000920E-02 0. -1.
    10030    2    1    2    0    0  0.00000000000E+00  0.00000000000E+00 -0.10210675661E+03  0.90623125888E+03  0.90046060704E+03 0.  0.
        3    1    3    3  502    0 -0.93953878700E+01  0.50668976921E+02 -0.50119113317E+03  0.50383348509E+03  0.10100000352E+00 0. -1.
       -3    1    3    3    0  502  0.93953878700E+01 -0.50668976921E+02  0.39908437656E+03  0.40239777379E+03  0.10100000352E+00 0.  1.
</event>
<event>
 5   0  0.4110039E-04  0.9001293E+03  0.7818609E-02  0.9425420E-01
        2   -1    0    0  501    0  0.00000000000E+00  0.00000000000E+00  0.48637812779E+03  0.48637812780E+03  0.25500000920E-02 0.  1.
       -2   -1    0    0    0  501  0.00000000000E+00  0.00000000000E+00 -0.41646238798E+03  0.41646238799E+03  0.25500000920E-02 0. -1.
    10030    2    1    2    0    0  0.00000000000E+00  0.00000000000E+00  0.69915739810E+02  0.90284051578E+03  0.90012931641E+03 0.  0.
        3    1    3    3  502    0  0.78046993643E+02  0.32685905243E+02  0.47832830442E+03  0.48575475152E+03  0.10100000352E+00 0.  1.
       -3    1    3    3    0  502 -0.78046993643E+02 -0.32685905243E+02 -0.40841256461E+03  0.41708576426E+03  0.10100000352E+00 0. -1.
</event>
<event>
 5   0  0.1596250E-04  0.8998117E+03  0.7818609E-02  0.9425817E-01
       -3   -1    0    0    0  501  0.00000000000E+00  0.00000000000E+00  0.75120875349E+02  0.75120943246E+02  0.10100000352E+00 0. -1.
        3   -1    0    0  501    0  0.00000000000E+00  0.00000000000E+00 -0.26945262072E+04  0.26945262091E+04  0.10100000352E+00 0.  1.
    10030    2    1    2    0    0  0.00000000000E+00  0.00000000000E+00 -0.26194053319E+04  0.27696471524E+04  0.89981167804E+03 0.  0.
        1    1    3    3  502    0  0.25003473232E+03  0.35936419002E+03 -0.16289178854E+04  0.16867226997E+04  0.50400001928E-02 0. -1.
       -1    1    3    3    0  502 -0.25003473232E+03 -0.35936419002E+03 -0.99048744653E+03  0.10829244527E+04  0.50400001928E-02 0.  1.
</event>
<event>
 5   0  0.4110039E-04  0.9003266E+03  0.7818609E-02  0.9425173E-01
        2   -1    0    0  501    0  0.00000000000E+00  0.00000000000E+00  0.25436348695E+03  0.25436348696E+03  0.25500000920E-02 0. -1.
       -2   -1    0    0    0  501  0.00000000000E+00  0.00000000000E+00 -0.79668264289E+03  0.79668264289E+03  0.25500000920E-02 0.  1.
    10030    2    1    2    0    0  0.00000000000E+00  0.00000000000E+00 -0.54231915594E+03  0.10510461299E+04  0.90032655197E+03 0.  0.
        3    1    3    3  502    0 -0.31883881864E+02  0.39683696013E+03 -0.25863244408E+02  0.39895497548E+03  0.10100000352E+00 0. -1.
       -3    1    3    3    0  502  0.31883881864E+02 -0.39683696013E+03 -0.51645591153E+03  0.65209115437E+03  0.10100000352E+00 0.  1.
</event>
<event>
 5   0  0.3959804E-04  0.9002981E+03  0.7818609E-02  0.9425209E-01
       -2   -1    0    0    0  501  0.00000000000E+00  0.00000000000E+00  0.44316111646E+03  0.44316111647E+03  0.25500000920E-02 0. -1.
        2   -1    0    0  501    0  0.00000000000E+00  0.00000000000E+00 -0.45724716121E+03  0.45724716122E+03  0.25500000920E-02 0.  1.
    10030    2    1    2    0    0  0.00000000000E+00  0.00000000000E+00 -0.14086044751E+02  0.90040827769E+03  0.90029808945E+03 0.  0.
        5    1    3    3  502    0 -0.28711313227E+03  0.57763913977E+00 -0.35375213273E+03  0.45562807837E+03  0.46999998093E+01 0.  1.
       -5    1    3    3    0  502  0.28711313227E+03 -0.57763913977E+00  0.33966608798E+03  0.44478019932E+03  0.46999998093E+01 0. -1.
</event>
<event>
 5   0  0.2450427E-04  0.8997015E+03  0.7818609E-02  0.9425955E-01
       -1   -1    0    0    0  501  0.00000000000E+00  0.00000000000E+00  0.45520731125E+03  0.45520731128E+03  0.50400001928E-02 0. -1.
        1   -1    0    0  501    0  0.00000000000E+00  0.00000000000E+00 -0.44455726035E+03  0.44455726038E+03  0.50400001928E-02 0.  1.
    10030    2    1    2    0    0  0.00000000000E+00  0.00000000000E+00  0.10650050897E+02  0.89976457166E+03  0.89970153986E+03 0.  0.
        3    1    3    3  502    0  0.69342141101E+02 -0.17519409577E+03 -0.40319398593E+03  0.44504685621E+03  0.10100000352E+00 0.  1.
       -3    1    3    3    0  502 -0.69342141101E+02  0.17519409577E+03  0.41384403683E+03  0.45471771545E+03  0.10100000352E+00 0. -1.
</event>
<event>
 5   0  0.1596250E-04  0.8998868E+03  0.7818609E-02  0.9425723E-01
        3   -1    0    0  501    0  0.00000000000E+00  0.00000000000E+00  0.60544309314E+03  0.60544310156E+03  0.10100000352E+00 0.  1.
       -3   -1    0    0    0  501  0.00000000000E+00  0.00000000000E+00 -0.33438161857E+03  0.33438163382E+03  0.10100000352E+00 0. -1.
    10030    2    1    2    0    0  0.00000000000E+00  0.00000000000E+00  0.27106147457E+03  0.93982473538E+03  0.89988677635E+03 0.  0.
        4    1    3    3  502    0 -0.32348514923E+03  0.24909659357E+03 -0.61953097638E+02  0.41295466326E+03  0.12699999809E+01 0. -1.
       -4    1    3    3    0  502  0.32348514923E+03 -0.24909659357E+03  0.33301457221E+03  0.52687007213E+03  0.12699999809E+01 0.  1.
</event>
<event>
 5   0  0.2332791E-04  0.8994522E+03  0.7818609E-02  0.9426266E-01
        1   -1    0    0  501    0  0.00000000000E+00  0.00000000000E+00  0.14924075339E+04  0.14924075339E+04  0.50400001928E-02 0. -1.
       -1   -1    0    0    0  501  0.00000000000E+00  0.00000000000E+00 -0.13552167946E+03  0.13552167955E+03  0.50400001928E-02 0.  1.
    10030    2    1    2    0    0  0.00000000000E+00  0.00000000000E+00  0.13568858545E+04  0.16279292135E+04  0.89945222335E+03 0.  0.
        2    1    3    3  502    0  0.23209418241E+03 -0.19647053537E+02  0.13747295770E+04  0.13943224613E+04  0.25500000920E-02 0. -1.
       -2    1    3    3    0  502 -0.23209418241E+03  0.19647053537E+02 -0.17843722543E+02  0.23360675217E+03  0.25500000920E-02 0.  1.
</event>
<event>
 5   0  0.2351435E-04  0.9001226E+03  0.7818609E-02  0.9425428E-01
       -1   -1    0    0    0  501  0.00000000000E+00  0.00000000000E+00  0.44532101246E+03  0.44532101249E+03  0.50400001928E-02 0. -1.
        1   -1    0    0  501    0  0.00000000000E+00  0.00000000000E+00 -0.45485200141E+03  0.45485200144E+03  0.50400001928E-02 0.  1.
    10030    2    1    2    0    0  0.00000000000E+00  0.00000000000E+00 -0.95309889561E+01  0.90017301393E+03  0.90012255568E+03 0.  0.
        4    1    3    3  502    0 -0.15362288111E+03 -0.30064670275E+03  0.29285009839E+03  0.44693536725E+03  0.12699999809E+01 0. -1.
       -4    1    3    3    0  502  0.15362288111E+03  0.30064670275E+03 -0.30238108735E+03  0.45323764667E+03  0.12699999809E+01 0.  1.
</event>
<event>
 5   0  0.4110039E-04  0.8997487E+03  0.7818609E-02  0.9425896E-01
        2   -1    0    0  501    0  0.00000000000E+00  0.00000000000E+00  0.41108797923E+03  0.41108797924E+03  0.25500000920E-02 0.  1.
       -2   -1    0    0    0  501  0.00000000000E+00  0.00000000000E+00 -0.49232026569E+03  0.49232026570E+03  0.25500000920E-02 0. -1.
    10030    2    1    2    0    0  0.00000000000E+00  0.00000000000E+00 -0.81232286466E+02  0.90340824494E+03  0.89974872751E+03 0.  0.
        3    1    3    3  502    0 -0.33851210189E+03  0.18461398351E+03 -0.27332195562E+03  0.47262846683E+03  0.10100000352E+00 0. -1.
       -3    1    3    3    0  502  0.33851210189E+03 -0.18461398351E+03  0.19208966915E+03  0.43077977811E+03  0.10100000352E+00 0.  1.
</event>
<event>
 5   0  0.4110039E-04  0.9000026E+03  0.7818609E-02  0.9425578E-01
        2   -1    0    0  501    0  0.00000000000E+00  0.00000000000E+00  0.60670350101E+03  0.60670350102E+03  0.25500000920E-02 0. -1.
       -2   -1    0    0    0  501  0.00000000000E+00  0.00000000000E+00 -0.33377290802E+03  0.33377290803E+03  0.25500000920E-02 0.  1.
    10030    2    1    2    0    0  0.00000000000E+00  0.00000000000E+00  0.27293059299E+03  0.94047640905E+03  0.90000264854E+03 0.  0.
        3    1    3    3  502    0  0.21650897976E+03  0.25942429334E+03 -0.17409338792E+03  0.38011264148E+03  0.10100000352E+00 0.  1.
       -3    1    3    3    0  502 -0.21650897976E+03 -0.25942429334E+03  0.44702398092E+03  0.56036376757E+03  0.10100000352E+00 0. -1.
</event>
<event>
 5   0  0.4243516E-04  0.9000755E+03  0.7818609E-02  0.9425487E-01
        2   -1    0    0  501    0  0.00000000000E+00  0.00000000000E+00  0.86991824880E+03  0.86991824880E+03  0.25500000920E-02 0. -1.
       -2   -1    0    0    0  501  0.00000000000E+00  0.00000000000E+00 -0.23281956512E+03  0.23281956514E+03  0.25500000920E-02 0.  1.
    10030    2    1    2    0    0  0.00000000000E+00  0.00000000000E+00  0.63709868368E+03  0.11027378139E+04  0.90007552658E+03 0.  0.
        1    1    3    3  502    0  0.21554556437E+03 -0.38623180400E+03  0.21678648976E+03  0.49257616559E+03  0.50400001928E-02 0.  1.
       -1    1    3    3    0  502 -0.21554556437E+03  0.38623180400E+03  0.42031219392E+03  0.61016164835E+03  0.50400001928E-02 0. -1.
</event>
<event>
 5   0  0.2308362E-04  0.9006289E+03  0.7818609E-02  0.9424796E-01
       -1   -1    0    0    0  501  0.00000000000E+00  0.00000000000E+00  0.80357823733E+03  0.80357823735E+03  0.50400001928E-02 0.  1.
        1   -1    0    0  501    0  0.00000000000E+00  0.00000000000E+00 -0.25235015806E+03  0.25235015811E+03  0.50400001928E-02 0. -1.
    10030    2    1    2    0    0  0.00000000000E+00  0.00000000000E+00  0.55122807927E+03  0.10559283955E+04  0.90062888082E+03 0.  0.
        1    1    3    3  502    0  0.80278227317E+02 -0.34399207261E+03 -0.51845801589E+02  0.35701978512E+03  0.50400001928E-02 0. -1.
       -1    1    3    3    0  502 -0.80278227317E+02  0.34399207261E+03  0.60307388086E+03  0.69890861034E+03  0.50400001928E-02 0.  1.
</event>
<event>
 5   0  0.4236284E-04  0.8996135E+03  0.7818609E-02  0.9426065E-01
        2   -1    0    0  501    0  0.00000000000E+00  0.00000000000E+00  0.13224809975E+04  0.13224809975E+04  0.25500000920E-02 0.  1.
       -2   -1    0    0    0  501  0.00000000000E+00  0.00000000000E+00 -0.15298980124E+03  0.15298980126E+03  0.25500000920E-02 0. -1.
    10030    2    1    2    0    0  0.00000000000E+00  0.00000000000E+00  0.11694911962E+04  0.14754707987E+04  0.89961348359E+03 0.  0.
        2    1    3    3  502    0 -0.25148600292E+03 -0.19403669021E+03  0.11070928141E+04  0.11517595000E+04  0.25500000920E-02 0.  1.
       -2    1    3    3    0  502  0.25148600292E+03  0.19403669021E+03  0.62398382107E+02  0.32371129870E+03  0.25500000920E-02 0. -1.
</event>
<event>
 5   0  0.4110039E-04  0.8994726E+03  0.7818609E-02  0.9426241E-01
        2   -1    0    0  501    0  0.00000000000E+00  0.00000000000E+00  0.73717643702E+03  0.73717643703E+03  0.25500000920E-02 0. -1.
       -2   -1    0    0    0  501  0.00000000000E+00  0.00000000000E+00 -0.27437493834E+03  0.27437493835E+03  0.25500000920E-02 0.  1.
    10030    2    1    2    0    0  0.00000000000E+00  0.00000000000E+00  0.46280149869E+03  0.10115513754E+04  0.89947259983E+03 0.  0.
        3    1    3    3  502    0 -0.23785262909E+02 -0.75541289134E+02 -0.26647104344E+03  0.27799110110E+03  0.10100000352E+00 0.  1.
       -3    1    3    3    0  502  0.23785262909E+02  0.75541289134E+02  0.72927254213E+03  0.73356027428E+03  0.10100000352E+00 0. -1.
</event>
<event>
 5   0  0.2308362E-04  0.8997536E+03  0.7818609E-02  0.9425890E-01
        1   -1    0    0  501    0  0.00000000000E+00  0.00000000000E+00  0.55560631654E+03  0.55560631657E+03  0.50400001928E-02 0.  1.
       -1   -1    0    0    0  501  0.00000000000E+00  0.00000000000E+00 -0.36426714798E+03  0.36426714801E+03  0.50400001928E-02 0. -1.
    10030    2    1    2    0    0  0.00000000000E+00  0.00000000000E+00  0.19133916857E+03  0.91987346458E+03  0.89975358483E+03 0.  0.
        1    1    3    3  502    0 -0.27934928863E+02 -0.25735126153E+03  0.47183625266E+03  0.53818164351E+03  0.50400001928E-02 0.  1.
       -1    1    3    3    0  502  0.27934928863E+02  0.25735126153E+03 -0.28049708409E+03  0.38169182107E+03  0.50400001928E-02 0. -1.
</event>
<event>
 5   0  0.4033144E-04  0.8996567E+03  0.7818609E-02  0.9426011E-01
        2   -1    0    0  501    0  0.00000000000E+00  0.00000000000E+00  0.36514118289E+03  0.36514118290E+03  0.25500000920E-02 0. -1.
       -2   -1    0    0    0  501  0.00000000000E+00  0.00000000000E+00 -0.55415696174E+03  0.55415696174E+03  0.25500000920E-02 0.  1.
    10030    2    1    2    0    0  0.00000000000E+00  0.00000000000E+00 -0.18901577884E+03  0.91929814464E+03  0.89965666456E+03 0.  0.
        4    1    3    3  502    0 -0.28886274473E+03 -0.11260882902E+03  0.23852395315E+03  0.39117479826E+03  0.12699999809E+01 0. -1.
       -4    1    3    3    0  502  0.28886274473E+03  0.11260882902E+03 -0.42753973199E+03  0.52812334639E+03  0.12699999809E+01 0.  1.
</event>
<event>
 5   0  0.2356918E-04  0.8942902E+03  0.7818609E-02  0.9432747E-01
        1   -1    0    0  501    0  0.00000000000E+00  0.00000000000E+00  0.18592988371E+03  0.18592988378E+03  0.50400001928E-02 0. -1.
       -1   -1    0    0    0  501  0.00000000000E+00  0.00000000000E+00 -0.10753449356E+04  0.10753449356E+04  0.50400001928E-02 0.  1.
    10030    2    1    2    0    0  0.00000000000E+00  0.00000000000E+00 -0.88941505191E+03  0.12612748194E+04  0.89429024120E+03 0.  0.
        5    1    3    3  502    0  0.25660436155E+03  0.17761845119E+03  0.68789705112E+01  0.31219148419E+03  0.46999998093E+01 0. -1.
       -5    1    3    3    0  502 -0.25660436155E+03 -0.17761845119E+03 -0.89629402242E+03  0.94908333522E+03  0.46999998093E+01 0.  1.
</event>
<event>
 5   0  0.3959804E-04  0.8996044E+03  0.7818609E-02  0.9426076E-01
        2   -1    0    0  501    0  0.00000000000E+00  0.00000000000E+00  0.30596009363E+03  0.30596009364E+03  0.25500000920E-02 0.  1.
       -2   -1    0    0    0  501  0.00000000000E+00  0.00000000000E+00 -0.66126931183E+03  0.66126931184E+03  0.25500000920E-02 0. -1.
    10030    2    1    2    0    0  0.00000000000E+00  0.00000000000E+00 -0.35530921820E+03  0.96722940547E+03  0.89960440321E+03 0.  0.
        5    1    3    3  502    0 -0.22970828816E+03 -0.29373479711E+03 -0.44806388126E+03  0.58294884885E+03  0.46999998093E+01 0. -1.
       -5    1    3    3    0  502  0.22970828816E+03  0.29373479711E+03  0.92754663054E+02  0.38428055663E+03  0.46999998093E+01 0.  1.
</event>
<event>
 5   0  0.4033144E-04  0.9003159E+03  0.7818609E-02  0.9425187E-01
        2   -1    0    0  501    0  0.00000000000E+00  0.00000000000E+00  0.10759656390E+04  0.10759656390E+04  0.25500000920E-02 0. -1.
       -2   -1    0    0    0  501  0.00000000000E+00  0.00000000000E+00 -0.18833515864E+03  0.18833515866E+03  0.25500000920E-02 0.  1.
    10030    2    1    2    0    0  0.00000000000E+00  0.00000000000E+00  0.88763048035E+03  0.12643007977E+04  0.90031585419E+03 0.  0.
        4    1    3    3  502    0 -0.10406499550E+03  0.26214866019E+02 -0.17010634648E+03  0.20113310146E+03  0.12699999809E+01 0.  1.
       -4    1    3    3    0  502  0.10406499550E+03 -0.26214866019E+02  0.10577368268E+04  0.10631676962E+04  0.12699999809E+01 0. -1.
</event>
<event>
 5   0  0.4110039E-04  0.8998157E+03  0.7818609E-02  0.9425812E-01
       -2   -1    0    0    0  501  0.00000000000E+00  0.00000000000E+00  0.26703111369E+03  0.26703111370E+03  0.25500000920E-02 0. -1.
        2   -1    0    0  501    0  0.00000000000E+00  0.00000000000E+00 -0.75802800403E+03  0.75802800404E+03  0.25500000920E-02 0.  1.
    10030    2    1    2    0    0  0.00000000000E+00  0.00000000000E+00 -0.49099689034E+03  0.10250591177E+04  0.89981567475E+03 0.  0.
        3    1    3    3  502    0  0.35786789361E+03 -0.27001423371E+03 -0.20227026128E+03  0.49182352982E+03  0.10100000352E+00 0.  1.
       -3    1    3    3    0  502 -0.35786789361E+03  0.27001423371E+03 -0.28872662906E+03  0.53323558792E+03  0.10100000352E+00 0. -1.
</event>
<event>
 5   0  0.3959804E-04  0.9000256E+03  0.7818609E-02  0.9425549E-01
        2   -1    0    0  501    0  0.00000000000E+00  0.00000000000E+00  0.10380161145E+04  0.10380161145E+04  0.25500000920E-02 0. -1.
       -2   -1    0    0    0  501  0.00000000000E+00  0.00000000000E+00 -0.19509478341E+03  0.19509478343E+03  0.25500000920E-02 0.  1.
    10030    2    1    2    0    0  0.00000000000E+00  0.00000000000E+00  0.84292133105E+03  0.12331108979E+04  0.90002561973E+03 0.  0.
        5    1    3    3  502    0 -0.13712394578E+03  0.39770145295E+03  0.64033142374E+03  0.76616959246E+03  0.46999998093E+01 0. -1.
       -5    1    3    3    0  502  0.13712394578E+03 -0.39770145295E+03  0.20258990731E+03  0.46694130544E+03  0.46999998093E+01 0.  1.
</event>
<event>
 5   0  0.4033144E-04  0.8995442E+03  0.7818609E-02  0.9426151E-01
       -2   -1    0    0    0  501  0.00000000000E+00  0.00000000000E+00  0.13737145743E+03  0.13737145745E+03  0.25500000920E-02 0. -1.
        2   -1    0    0  501    0  0.00000000000E+00  0.00000000000E+00 -0.14726126721E+04  0.14726126721E+04  0.25500000920E-02 0.  1.
    10030    2    1    2    0    0  0.00000000000E+00  0.00000000000E+00 -0.13352412146E+04  0.16099841295E+04  0.89954421572E+03 0.  0.
        4    1    3    3  502    0 -0.33233977502E+03 -0.21158270815E+03 -0.10559502585E+04  0.11270534725E+04  0.12699999809E+01 0.  1.
       -4    1    3    3    0  502  0.33233977502E+03  0.21158270815E+03 -0.27929095611E+03  0.48293065704E+03  0.12699999809E+01 0. -1.
</event>
<event>
 5   0  0.4110039E-04  0.8945805E+03  0.7818609E-02  0.9432381E-01
       -2   -1    0    0    0  501  0.00000000000E+00  0.00000000000E+00  0.19869664105E+03  0.19869664107E+03  0.25500000920E-02 0. -1.
        2   -1    0    0  501    0  0.00000000000E+00  0.00000000000E+00 -0.10069046949E+04  0.10069046949E+04  0.25500000920E-02 0.  1.
    10030    2    1    2    0    0  0.00000000000E+00  0.00000000000E+00 -0.80820805386E+03  0.12056013360E+04  0.89458052909E+03 0.  0.
        3    1    3    3  502    0 -0.25448201653E+03 -0.29194543193E+03 -0.10252840892E+03  0.40063114807E+03  0.10100000352E+00 0. -1.
       -3    1    3    3    0  502  0.25448201653E+03  0.29194543193E+03 -0.70567964494E+03  0.80497018793E+03  0.10100000352E+00 0.  1.
</event>
<event>
 5   0  0.1596250E-04  0.8995435E+03  0.7818609E-02  0.9426152E-01
        3   -1    0    0  501    0  0.00000000000E+00  0.00000000000E+00  0.36608315249E+03  0.36608316643E+03  0.10100000352E+00 0.  1.
       -3   -1    0    0    0  501  0.00000000000E+00  0.00000000000E+00 -0.55259200148E+03  0.55259201071E+03  0.10100000352E+00 0. -1.
    10030    2    1    2    0    0  0.00000000000E+00  0.00000000000E+00 -0.18650884898E+03  0.91867517713E+03  0.89954351220E+03 0.  0.
        1    1    3    3  502    0  0.21850110647E+02 -0.40301656237E+03  0.10944828929E+03  0.41818501280E+03  0.50400001928E-02 0.  1.
       -1    1    3    3    0  502 -0.21850110647E+02  0.40301656237E+03 -0.29595713827E+03  0.50049016433E+03  0.50400001928E-02 0. -1.
</event>
<event>
 5   0  0.2356918E-04  0.8994955E+03  0.7818609E-02  0.9426212E-01
        1   -1    0    0  501    0  0.00000000000E+00  0.00000000000E+00  0.26236588683E+03  0.26236588688E+03  0.50400001928E-02 0. -1.
       -1   -1    0    0    0  501  0.00000000000E+00  0.00000000000E+00 -0.77095787869E+03  0.77095787871E+03  0.50400001928E-02 0.  1.
    10030    2    1    2    0    0  0.00000000000E+00  0.00000000000E+00 -0.50859199186E+03  0.10333237656E+04  0.89949551992E+03 0.  0.
        5    1    3    3  502    0 -0.27996423388E+03  0.57808374851E+02 -0.65312203845E+03  0.71296021457E+03  0.46999998093E+01 0.  1.
       -5    1    3    3    0  502  0.27996423388E+03 -0.57808374851E+02  0.14453004659E+03  0.32036355102E+03  0.46999998093E+01 0. -1.
</event>
<event>
 5   0  0.4243516E-04  0.8989233E+03  0.7818609E-02  0.9426928E-01
        2   -1    0    0  501    0  0.00000000000E+00  0.00000000000E+00  0.11979328449E+04  0.11979328449E+04  0.25500000920E-02 0. -1.
       -2   -1    0    0    0  501  0.00000000000E+00  0.00000000000E+00 -0.16863697648E+03  0.16863697650E+03  0.25500000920E-02 0.  1.
    10030    2    1    2    0    0  0.00000000000E+00  0.00000000000E+00  0.10292958684E+04  0.13665698214E+04  0.89892329595E+03 0.  0.
        1    1    3    3  502    0 -0.13695253024E+03 -0.37402311569E+03  0.83122999978E+03  0.92173347513E+03  0.50400001928E-02 0. -1.
       -1    1    3    3    0  502  0.13695253024E+03  0.37402311569E+03  0.19806586862E+03  0.44483634625E+03  0.50400001928E-02 0.  1.
</event>
<event>
 5   0  0.2308362E-04  0.9000082E+03  0.7818609E-02  0.9425571E-01
        1   -1    0    0  501    0  0.00000000000E+00  0.00000000000E+00  0.51316029287E+03  0.51316029290E+03  0.50400001928E-02 0. -1.
       -1   -1    0    0    0  501  0.00000000000E+00  0.00000000000E+00 -0.39462070051E+03  0.39462070054E+03  0.50400001928E-02 0.  1.
    10030    2    1    2    0    0  0.00000000000E+00  0.00000000000E+00  0.11853959236E+03  0.90778099344E+03  0.90000816502E+03 0.  0.
        1    1    3    3  502    0  0.20678639443E+03  0.82874719803E+02 -0.33509909273E+03  0.40239313374E+03  0.50400001928E-02 0.  1.
       -1    1    3    3    0  502 -0.20678639443E+03 -0.82874719803E+02  0.45363868509E+03  0.50538785971E+03  0.50400001928E-02 0. -1.
</event>
<event>
 5   0  0.4033144E-04  0.8999184E+03  0.7818609E-02  0.9425683E-01
        2   -1    0    0  501    0  0.00000000000E+00  0.00000000000E+00  0.14323516983E+04  0.14323516983E+04  0.25500000920E-02 0. -1.
       -2   -1    0    0    0  501  0.00000000000E+00  0.00000000000E+00 -0.14135027145E+03  0.14135027147E+03  0.25500000920E-02 0.  1.
    10030    2    1    2    0    0  0.00000000000E+00  0.00000000000E+00  0.12910014269E+04  0.15737019698E+04  0.89991844384E+03 0.  0.
        4    1    3    3  502    0  0.13184214027E+03 -0.11474474512E+03 -0.79558828764E+02  0.19204147108E+03  0.12699999809E+01 0.  1.
       -4    1    3    3    0  502 -0.13184214027E+03  0.11474474512E+03  0.13705602556E+04  0.13816604987E+04  0.12699999809E+01 0. -1.
</event>
<event>
 5   0  0.4033144E-04  0.9015857E+03  0.7818609E-02  0.9423601E-01
       -2   -1    0    0    0  501  0.00000000000E+00  0.00000000000E+00  0.19507951252E+03  0.19507951254E+03  0.25500000920E-02 0. -1.
        2   -1    0    0  501    0  0.00000000000E+00  0.00000000000E+00 -0.10416993262E+04  0.10416993262E+04  0.25500000920E-02 0.  1.
    10030    2    1    2    0    0  0.00000000000E+00  0.00000000000E+00 -0.84661981369E+03  0.12367788387E+04  0.90158570698E+03 0.  0.
        4    1    3    3  502    0 -0.18135721476E+03 -0.28217735251E+03 -0.83643739211E+03  0.90119011393E+03  0.12699999809E+01 0.  1.
       -4    1    3    3    0  502  0.18135721476E+03  0.28217735251E+03 -0.10182421573E+02  0.33558872482E+03  0.12699999809E+01 0. -1.
</event>
<event>
 5   0  0.2356918E-04  0.8995338E+03  0.7818609E-02  0.9426164E-01
       -1   -1    0    0    0  501  0.00000000000E+00  0.00000000000E+00  0.26814824990E+03  0.26814824995E+03  0.50400001928E-02 0. -1.
        1   -1    0    0  501    0  0.00000000000E+00  0.00000000000E+00 -0.75439718999E+03  0.75439719001E+03  0.50400001928E-02 0.  1.
    10030    2    1    2    0    0  0.00000000000E+00  0.00000000000E+00 -0.48624894009E+03  0.10225454400E+04  0.89953384874E+03 0.  0.
        5    1    3    3  502    0 -0.70726915679E+01 -0.44250125800E+03 -0.33414126906E+03  0.55455375212E+03  0.46999998093E+01 0.  1.
       -5    1    3    3    0  502  0.70726915679E+01  0.44250125800E+03 -0.15210767103E+03  0.46799168784E+03  0.46999998093E+01 0. -1.
</event>
<event>
 5   0  0.4033144E-04  0.8999618E+03  0.7818609E-02  0.9425629E-01
       -2   -1    0    0    0  501  0.00000000000E+00  0.00000000000E+00  0.12149075004E+03  0.12149075007E+03  0.25500000920E-02 0. -1.
        2   -1    0    0  501    0  0.00000000000E+00  0.00000000000E+00 -0.16666520034E+04  0.16666520034E+04  0.25500000920E-02 0.  1.
    10030    2    1    2    0    0  0.00000000000E+00  0.00000000000E+00 -0.15451612533E+04  0.17881427534E+04  0.89996178136E+03 0.  0.
        4    1    3    3  502    0 -0.41113274382E+03  0.12831067830E+03 -0.51361512816E+03  0.67029536473E+03  0.12699999809E+01 0. -1.
       -4    1    3    3    0  502  0.41113274382E+03 -0.12831067830E+03 -0.10315461252E+04  0.11178473887E+04  0.12699999809E+01 0.  1.
</event>
<event>
 5   0  0.4243516E-04  0.8999227E+03  0.7818609E-02  0.9425678E-01
        2   -1    0    0  501    0  0.00000000000E+00  0.00000000000E+00  0.12269373505E+04  0.12269373505E+04  0.25500000920E-02 0.  1.
       -2   -1    0    0    0  501  0.00000000000E+00  0.00000000000E+00 -0.16501674402E+03  0.16501674404E+03  0.25500000920E-02 0. -1.
    10030    2    1    2    0    0  0.00000000000E+00  0.00000000000E+00  0.10619206065E+04  0.13919540946E+04  0.89992267826E+03 0.  0.
        1    1    3    3  502    0  0.35516787837E+03  0.14510389280E+03  0.16734000013E+03  0.41857142425E+03  0.50400001928E-02 0. -1.
       -1    1    3    3    0  502 -0.35516787837E+03 -0.14510389280E+03  0.89458060640E+03  0.97338267033E+03  0.50400001928E-02 0.  1.
</event>
<event>
 5   0  0.2351435E-04  0.9012913E+03  0.7818609E-02  0.9423969E-01
       -1   -1    0    0    0  501  0.00000000000E+00  0.00000000000E+00  0.72205350351E+03  0.72205350352E+03  0.50400001928E-02 0. -1.
        1   -1    0    0  501    0  0.00000000000E+00  0.00000000000E+00 -0.28125548856E+03  0.28125548861E+03  0.50400001928E-02 0.  1.
    10030    2    1    2    0    0  0.00000000000E+00  0.00000000000E+00  0.44079801494E+03  0.10033089921E+04  0.90129132012E+03 0.  0.
        4    1    3    3  502    0  0.42181347673E+02  0.43900353341E+03  0.32349108965E+03  0.54694740736E+03  0.12699999809E+01 0. -1.
       -4    1    3    3    0  502 -0.42181347673E+02 -0.43900353341E+03  0.11730692529E+03  0.45636158477E+03  0.12699999809E+01 0.  1.
</event>
<event>
 5   0  0.1596250E-04  0.9009612E+03  0.7818609E-02  0.9424381E-01
       -3   -1    0    0    0  501  0.00000000000E+00  0.00000000000E+00  0.12249554874E+04  0.12249554916E+04  0.10100000352E+00 0. -1.
        3   -1    0    0  501    0  0.00000000000E+00  0.00000000000E+00 -0.16566541516E+03  0.16566544595E+03  0.10100000352E+00 0.  1.
    10030    2    1    2    0    0  0.00000000000E+00  0.00000000000E+00  0.10592900723E+04  0.13906209375E+04  0.90096122820E+03 0.  0.
        2    1    3    3  502    0  0.34283977710E+03  0.59655754586E+02  0.88103220916E+02  0.35897088929E+03  0.25500000920E-02 0. -1.
       -2    1    3    3    0  502 -0.34283977710E+03 -0.59655754586E+02  0.97118685135E+03  0.10316500482E+04  0.25500000920E-02 0.  1.
</event>
<event>
 5   0  0.2450427E-04  0.8999096E+03  0.7818609E-02  0.9425694E-01
        1   -1    0    0  501    0  0.00000000000E+00  0.00000000000E+00  0.18973823926E+04  0.18973823926E+04  0.50400001928E-02 0. -1.
       -1   -1    0    0    0  501  0.00000000000E+00  0.00000000000E+00 -0.10670453920E+03  0.10670453932E+03  0.50400001928E-02 0.  1.
    10030    2    1    2    0    0  0.00000000000E+00  0.00000000000E+00  0.17906778534E+04  0.20040869319E+04  0.89990958216E+03 0.  0.
        3    1    3    3  502    0  0.31941987298E+03  0.14890887205E+03  0.27235390863E+03  0.44539821416E+03  0.10100000352E+00 0.  1.
       -3    1    3    3    0  502 -0.31941987298E+03 -0.14890887205E+03  0.15183239448E+04  0.15586887177E+04  0.10100000352E+00 0. -1.
</event>
<event>
 5   0  0.4033144E-04  0.9000114E+03  0.7818609E-02  0.9425567E-01
       -2   -1    0    0    0  501  0.00000000000E+00  0.00000000000E+00  0.12475430665E+03  0.12475430668E+03  0.25500000920E-02 0. -1.
        2   -1    0    0  501    0  0.00000000000E+00  0.00000000000E+00 -0.16232314998E+04  0.16232314998E+04  0.25500000920E-02 0.  1.
    10030    2    1    2    0    0  0.00000000000E+00  0.00000000000E+00 -0.14984771931E+04  0.17479858065E+04  0.90001137841E+03 0.  0.
        4    1    3    3  502    0  0.41538376678E+02  0.32785458686E+03 -0.15603176185E+03  0.36546079197E+03  0.12699999809E+01 0. -1.
       -4    1    3    3    0  502 -0.41538376678E+02 -0.32785458686E+03 -0.13424454313E+04  0.13825250145E+04  0.12699999809E+01 0.  1.
</event>
<event>
 5   0  0.4243516E-04  0.9002097E+03  0.7818609E-02  0.9425319E-01
       -2   -1    0    0    0  501  0.00000000000E+00  0.00000000000E+00  0.25560006631E+03  0.25560006632E+03  0.25500000920E-02 0.  1.
        2   -1    0    0  501    0  0.00000000000E+00  0.00000000000E+00 -0.79262250877E+03  0.79262250877E+03  0.25500000920E-02 0. -1.
    10030    2    1    2    0    0  0.00000000000E+00  0.00000000000E+00 -0.53702244246E+03  0.10482225751E+04  0.90020967737E+03 0.  0.
        1    1    3    3  502    0 -0.17446204280E+03  0.13256793584E+03 -0.72632709080E+03  0.75865822664E+03  0.50400001928E-02 0. -1.
       -1    1    3    3    0  502  0.17446204280E+03 -0.13256793584E+03  0.18930464834E+03  0.28956434846E+03  0.50400001928E-02 0.  1.
</event>
<event>
 5   0  0.4033144E-04  0.8986962E+03  0.7818609E-02  0.9427213E-01
        2   -1    0    0  501    0  0.00000000000E+00  0.00000000000E+00  0.56023342155E+03  0.56023342156E+03  0.25500000920E-02 0.  1.
       -2   -1    0    0    0  501  0.00000000000E+00  0.00000000000E+00 -0.36040999458E+03  0.36040999459E+03  0.25500000920E-02 0. -1.
    10030    2    1    2    0    0  0.00000000000E+00  0.00000000000E+00  0.19982342697E+03  0.92064341615E+03  0.89869622105E+03 0.  0.
        4    1    3    3  502    0  0.14374884967E+03 -0.42017451936E+03  0.17015558549E+03  0.47556797061E+03  0.12699999809E+01 0.  1.
       -4    1    3    3    0  502 -0.14374884967E+03  0.42017451936E+03  0.29667841476E+02  0.44507544553E+03  0.12699999809E+01 0. -1.
</event>
<event>
 5   0  0.3959804E-04  0.9027214E+03  0.7818609E-02  0.9422186E-01
       -2   -1    0    0    0  501  0.00000000000E+00  0.00000000000E+00  0.58320258446E+03  0.58320258446E+03  0.25500000920E-02 0. -1.
        2   -1    0    0  501    0  0.00000000000E+00  0.00000000000E+00 -0.34932372861E+03  0.34932372862E+03  0.25500000920E-02 0.  1.
    10030    2    1    2    0    0  0.00000000000E+00  0.00000000000E+00  0.23387885585E+03  0.93252631308E+03  0.90272144396E+03 0.  0.
        5    1    3    3  502    0 -0.43569382047E+03  0.11059595221E+03  0.15882238215E+03  0.47676745790E+03  0.46999998093E+01 0.  1.
       -5    1    3    3    0  502  0.43569382047E+03 -0.11059595221E+03  0.75056473699E+02  0.45575885519E+03  0.46999998093E+01 0. -1.
</event>
<event>
 5   0  0.4236284E-04  0.8996560E+03  0.7818609E-02  0.9426012E-01
        2   -1    0    0  501    0  0.00000000000E+00  0.00000000000E+00  0.87900083176E+03  0.87900083177E+03  0.25500000920E-02 0. -1.
       -2   -1    0    0    0  501  0.00000000000E+00  0.00000000000E+00 -0.23019913379E+03  0.23019913381E+03  0.25500000920E-02 0.  1.
    10030    2    1    2    0    0  0.00000000000E+00  0.00000000000E+00  0.64880169797E+03  0.11091999656E+04  0.89965600111E+03 0.  0.
        2    1    3    3  502    0  0.19138313719E+03 -0.32712727608E+03  0.62312659290E+03  0.72933292175E+03  0.25500000920E-02 0. -1.
       -2    1    3    3    0  502 -0.19138313719E+03  0.32712727608E+03  0.25675105072E+02  0.37986704383E+03  0.25500000920E-02 0.  1.
</event>
<event>
 5   0  0.2450427E-04  0.9001580E+03  0.7818609E-02  0.9425384E-01
       -1   -1    0    0    0  501  0.00000000000E+00  0.00000000000E+00  0.42150495317E+03  0.42150495320E+03  0.50400001928E-02 0. -1.
        1   -1    0    0  501    0  0.00000000000E+00  0.00000000000E+00 -0.48059014829E+03  0.48059014832E+03  0.50400001928E-02 0.  1.
    10030    2    1    2    0    0  0.00000000000E+00  0.00000000000E+00 -0.59085195121E+02  0.90209510152E+03  0.90015804829E+03 0.  0.
        3    1    3    3  502    0 -0.66600026883E+01 -0.11264079794E+03 -0.46618515328E+03  0.47964665363E+03  0.10100000352E+00 0.  1.
       -3    1    3    3    0  502  0.66600026883E+01  0.11264079794E+03  0.40709995816E+03  0.42244844790E+03  0.10100000352E+00 0. -1.
</event>
<event>
 5   0  0.4243516E-04  0.8991247E+03  0.7818609E-02  0.9426676E-01
       -2   -1    0    0    0  501  0.00000000000E+00  0.00000000000E+00  0.14285361052E+03  0.14285361054E+03  0.25500000920E-02 0. -1.
        2   -1    0    0  501    0  0.00000000000E+00  0.00000000000E+00 -0.14147790736E+04  0.14147790736E+04  0.25500000920E-02 0.  1.
    10030    2    1    2    0    0  0.00000000000E+00  0.00000000000E+00 -0.12719254631E+04  0.15576326841E+04  0.89912468270E+03 0.  0.
        1    1    3    3  502    0  0.97987426526E+02 -0.40530215558E+02 -0.13928042356E+04  0.13968349484E+04  0.50400001928E-02 0.  1.
       -1    1    3    3    0  502 -0.97987426526E+02  0.40530215558E+02  0.12087877259E+03  0.16079773574E+03  0.50400001928E-02 0. -1.
</event>
<event>
 5   0  0.2332791E-04  0.8996423E+03  0.7818609E-02  0.9426029E-01
       -1   -1    0    0    0  501  0.00000000000E+00  0.00000000000E+00  0.20837688241E+03  0.20837688247E+03  0.50400001928E-02 0.  1.
        1   -1    0    0  501    0  0.00000000000E+00  0.00000000000E+00 -0.97102448432E+03  0.97102448433E+03  0.50400001928E-02 0. -1.
    10030    2    1    2    0    0  0.00000000000E+00  0.00000000000E+00 -0.76264760190E+03  0.11794013668E+04  0.89964227298E+03 0.  0.
        2    1    3    3  502    0 -0.12354273829E+03 -0.32261228598E+01 -0.94833157760E+03  0.95635035271E+03  0.25500000920E-02 0. -1.
       -2    1    3    3    0  502  0.12354273829E+03  0.32261228598E+01  0.18568397569E+03  0.22305101409E+03  0.25500000920E-02 0.  1.
</event>
<event>
 5   0  0.2351435E-04  0.8995463E+03  0.7818609E-02  0.9426149E-01
        1   -1    0    0  501    0  0.00000000000E+00  0.00000000000E+00  0.81457930328E+03  0.81457930329E+03  0.50400001928E-02 0. -1.
       -1   -1    0    0    0  501  0.00000000000E+00  0.00000000000E+00 -0.24834400111E+03  0.24834400116E+03  0.50400001928E-02 0.  1.
    10030    2    1    2    0    0  0.00000000000E+00  0.00000000000E+00  0.56623530217E+03  0.10629233045E+04  0.89954629327E+03 0.  0.
        4    1    3    3  502    0  0.17660548873E+03  0.22341716759E+03  0.69446715813E+03  0.75059374901E+03  0.12699999809E+01 0. -1.
       -4    1    3    3    0  502 -0.17660548873E+03 -0.22341716759E+03 -0.12823185596E+03  0.31232955545E+03  0.12699999809E+01 0.  1.
</event>
<event>
 5   0  0.4110039E-04  0.8987803E+03  0.7818609E-02  0.9427107E-01
        2   -1    0    0  501    0  0.00000000000E+00  0.00000000000E+00  0.73568918399E+03  0.73568918399E+03  0.25500000920E-02 0.  1.
       -2   -1    0    0    0  501  0.00000000000E+00  0.00000000000E+00 -0.27450658598E+03  0.27450658600E+03  0.25500000920E-02 0. -1.
    10030    2    1    2    0    0  0.00000000000E+00  0.00000000000E+00  0.46118259800E+03  0.10101957700E+04  0.89878034302E+03 0.  0.
        3    1    3    3  502    0 -0.14318975274E+03 -0.40959240694E+03  0.99119963920E+02  0.44507754668E+03  0.10100000352E+00 0. -1.
       -3    1    3    3    0  502  0.14318975274E+03  0.40959240694E+03  0.36206263408E+03  0.56511822331E+03  0.10100000352E+00 0.  1.
</event>
<event>
 5   0  0.3959804E-04  0.8998491E+03  0.7818609E-02  0.9425770E-01
       -2   -1    0    0    0  501  0.00000000000E+00  0.00000000000E+00  0.10795210397E+03  0.10795210400E+03  0.25500000920E-02 0.  1.
        2   -1    0    0  501    0  0.00000000000E+00  0.00000000000E+00 -0.18752028608E+04  0.18752028608E+04  0.25500000920E-02 0. -1.
    10030    2    1    2    0    0  0.00000000000E+00  0.00000000000E+00 -0.17672507568E+04  0.19831549648E+04  0.89984908560E+03 0.  0.
        5    1    3    3  502    0 -0.17425019955E+03  0.27545979431E+03 -0.20017968479E+03  0.38253787593E+03  0.46999998093E+01 0.  1.
       -5    1    3    3    0  502  0.17425019955E+03 -0.27545979431E+03 -0.15670710720E+04  0.16006170888E+04  0.46999998093E+01 0. -1.
</event>
<event>
 5   0  0.1596250E-04  0.8999399E+03  0.7818609E-02  0.9425657E-01
        3   -1    0    0  501    0  0.00000000000E+00  0.00000000000E+00  0.52965366536E+03  0.52965367499E+03  0.10100000352E+00 0. -1.
       -3   -1    0    0    0  501  0.00000000000E+00  0.00000000000E+00 -0.38227421601E+03  0.38227422935E+03  0.10100000352E+00 0.  1.
    10030    2    1    2    0    0  0.00000000000E+00  0.00000000000E+00  0.14737944935E+03  0.91192790435E+03  0.89993988723E+03 0.  0.
        1    1    3    3  502    0 -0.28283322155E+03  0.34697977400E+03  0.27437920242E+02  0.44848905702E+03  0.50400001928E-02 0.  1.
       -1    1    3    3    0  502  0.28283322155E+03 -0.34697977400E+03  0.11994152911E+03  0.46343884732E+03  0.50400001928E-02 0. -1.
</event>
<event>
 5   0  0.1596250E-04  0.9001132E+03  0.7818609E-02  0.9425440E-01
       -3   -1    0    0    0  501  0.00000000000E+00  0.00000000000E+00  0.44059418822E+03  0.44059419979E+03  0.10100000352E+00 0.  1.
        3   -1    0    0  501    0  0.00000000000E+00  0.00000000000E+00 -0.45972224278E+03  0.45972225387E+03  0.10100000352E+00 0. -1.
    10030    2    1    2    0    0  0.00000000000E+00  0.00000000000E+00 -0.19128054559E+02  0.90031645367E+03  0.90011323414E+03 0.  0.
        2    1    3    3  502    0 -0.33841756265E+01 -0.41774864466E+03  0.15788217887E+03  0.44660067754E+03  0.25500000920E-02 0.  1.
       -2    1    3    3    0  502  0.33841756265E+01  0.41774864466E+03 -0.17701023343E+03  0.45371577613E+03  0.25500000920E-02 0. -1.
</event>
<event>
 5   0  0.3959804E-04  0.9003738E+03  0.7818609E-02  0.9425114E-01
        2   -1    0    0  501    0  0.00000000000E+00  0.00000000000E+00  0.14907992562E+04  0.14907992562E+04  0.25500000920E-02 0. -1.
       -2   -1    0    0    0  501  0.00000000000E+00  0.00000000000E+00 -0.13594603329E+03  0.13594603331E+03  0.25500000920E-02 0.  1.
    10030    2    1    2    0    0  0.00000000000E+00  0.00000000000E+00  0.13548532229E+04  0.16267452895E+04  0.90037380089E+03 0.  0.
        5    1    3    3  502    0  0.27256996106E+03 -0.18166871406E+03  0.11953083747E+03  0.34872283614E+03  0.46999998093E+01 0.  1.
       -5    1    3    3    0  502 -0.27256996106E+03  0.18166871406E+03  0.12353223854E+04  0.12780224534E+04  0.46999998093E+01 0. -1.
</event>
<event>
 5   0  0.4243516E-04  0.8998028E+03  0.7818609E-02  0.9425828E-01
       -2   -1    0    0    0  501  0.00000000000E+00  0.00000000000E+00  0.19461045925E+03  0.19461045927E+03  0.25500000920E-02 0. -1.
        2   -1    0    0  501    0  0.00000000000E+00  0.00000000000E+00 -0.10400843269E+04  0.10400843269E+04  0.25500000920E-02 0.  1.
    10030    2    1    2    0    0  0.00000000000E+00  0.00000000000E+00 -0.84547386761E+03  0.12346947861E+04  0.89980284179E+03 0.  0.
        1    1    3    3  502    0  0.18238713851E+03 -0.39099938542E+03 -0.24773266455E+03  0.49751086501E+03  0.50400001928E-02 0. -1.
       -1    1    3    3    0  502 -0.18238713851E+03  0.39099938542E+03 -0.59774120307E+03  0.73718392112E+03  0.50400001928E-02 0.  1.
</event>
<event>
 5   0  0.2351435E-04  0.8995989E+03  0.7818609E-02  0.9426083E-01
       -1   -1    0    0    0  501  0.00000000000E+00  0.00000000000E+00  0.30588560900E+03  0.30588560904E+03  0.50400001928E-02 0. -1.
        1   -1    0    0  501    0  0.00000000000E+00  0.00000000000E+00 -0.66142228037E+03  0.66142228039E+03  0.50400001928E-02 0.  1.
    10030    2    1    2    0    0  0.00000000000E+00  0.00000000000E+00 -0.35553667137E+03  0.96730788942E+03  0.89959892633E+03 0.  0.
        4    1    3    3  502    0 -0.11000952692E+02 -0.32654628709E+03  0.15463392884E+03  0.36147857948E+03  0.12699999809E+01 0. -1.
       -4    1    3    3    0  502  0.11000952692E+02  0.32654628709E+03 -0.51017060021E+03  0.60582930995E+03  0.12699999809E+01 0.  1.
</event>
<event>
 5   0  0.2356918E-04  0.9001749E+03  0.7818609E-02  0.9425363E-01
        1   -1    0    0  501    0  0.00000000000E+00  0.00000000000E+00  0.51230007014E+03  0.51230007016E+03  0.50400001928E-02 0. -1.
       -1   -1    0    0    0  501  0.00000000000E+00  0.00000000000E+00 -0.39542976251E+03  0.39542976254E+03  0.50400001928E-02 0.  1.
    10030    2    1    2    0    0  0.00000000000E+00  0.00000000000E+00  0.11687030763E+03  0.90772983270E+03  0.90017486100E+03 0.  0.
        5    1    3    3  502    0 -0.58417446135E+02  0.37038203263E+03  0.30944426614E+03  0.48618236491E+03  0.46999998093E+01 0. -1.
       -5    1    3    3    0  502  0.58417446135E+02 -0.37038203263E+03 -0.19257395852E+03  0.42154746779E+03  0.46999998093E+01 0.  1.
</event>
<event>
 5   0  0.3959804E-04  0.9005174E+03  0.7818609E-02  0.9424935E-01
       -2   -1    0    0    0  501  0.00000000000E+00  0.00000000000E+00  0.23097702697E+03  0.23097702698E+03  0.25500000920E-02 0.  1.
        2   -1    0    0  501    0  0.00000000000E+00  0.00000000000E+00 -0.87771890871E+03  0.87771890872E+03  0.25500000920E-02 0. -1.
    10030    2    1    2    0    0  0.00000000000E+00  0.00000000000E+00 -0.64674188175E+03  0.11086959357E+04  0.90051741584E+03 0.  0.
        5    1    3    3  502    0 -0.35810830759E+02 -0.11594711681E+03  0.21043272253E+03  0.24296125248E+03  0.46999998093E+01 0.  1.
       -5    1    3    3    0  502  0.35810830759E+02  0.11594711681E+03 -0.85717460428E+03  0.86573468322E+03  0.46999998093E+01 0. -1.
</event>
<event>
 5   0  0.4236284E-04  0.8999369E+03  0.7818609E-02  0.9425660E-01
        2   -1    0    0  501    0  0.00000000000E+00  0.00000000000E+00  0.91943202535E+03  0.91943202535E+03  0.25500000920E-02 0. -1.
       -2   -1    0    0    0  501  0.00000000000E+00  0.00000000000E+00 -0.22021380530E+03  0.22021380532E+03  0.25500000920E-02 0.  1.
    10030    2    1    2    0    0  0.00000000000E+00  0.00000000000E+00  0.69921822004E+03  0.11396458307E+04  0.89993694230E+03 0.  0.
        2    1    3    3  502    0  0.90900489027E+02 -0.14277253222E+03 -0.17836619288E+03  0.24588898640E+03  0.25500000920E-02 0.  1.
       -2    1    3    3    0  502 -0.90900489027E+02  0.14277253222E+03  0.87758441293E+03  0.89375684427E+03  0.25500000920E-02 0. -1.
</event>
<event>
 5   0  0.4110039E-04  0.9003874E+03  0.7818609E-02  0.9425097E-01
       -2   -1    0    0    0  501  0.00000000000E+00  0.00000000000E+00  0.15005777561E+03  0.15005777564E+03  0.25500000920E-02 0. -1.
        2   -1    0    0  501    0  0.00000000000E+00  0.00000000000E+00 -0.13506421697E+04  0.13506421697E+04  0.25500000920E-02 0.  1.
    10030    2    1    2    0    0  0.00000000000E+00  0.00000000000E+00 -0.12005843941E+04  0.15006999454E+04  0.90038738254E+03 0.  0.
        3    1    3    3  502    0 -0.20768825026E+03 -0.39942333337E+03 -0.59867545194E+03  0.74905655026E+03  0.10100000352E+00 0. -1.
       -3    1    3    3    0  502  0.20768825026E+03  0.39942333337E+03 -0.60190894219E+03  0.75164339511E+03  0.10100000352E+00 0.  1.
</event>
<event>
 5   0  0.2308362E-04  0.8998866E+03  0.7818609E-02  0.9425723E-01
        1   -1    0    0  501    0  0.00000000000E+00  0.00000000000E+00  0.61838463442E+03  0.61838463444E+03  0.50400001928E-02 0.  1.
       -1   -1    0    0    0  501  0.00000000000E+00  0.00000000000E+00 -0.32738355945E+03  0.32738355948E+03  0.50400001928E-02 0. -1.
    10030    2    1    2    0    0  0.00000000000E+00  0.00000000000E+00  0.29100107498E+03  0.94576819393E+03  0.89988657674E+03 0.  0.
        1    1    3    3  502    0 -0.15288056833E+03 -0.20128428156E+03 -0.24571639477E+03  0.35251152727E+03  0.50400001928E-02 0. -1.
       -1    1    3    3    0  502  0.15288056833E+03  0.20128428156E+03  0.53671746974E+03  0.59325666665E+03  0.50400001928E-02 0.  1.
</event>
<event>
 5   0  0.4110039E-04  0.8999192E+03  0.7818609E-02  0.9425682E-01
       -2   -1    0    0    0  501  0.00000000000E+00  0.00000000000E+00  0.79924469664E+02  0.79924469704E+02  0.25500000920E-02 0. -1.
        2   -1    0    0  501    0  0.00000000000E+00  0.00000000000E+00 -0.25331870326E+04  0.25331870326E+04  0.25500000920E-02 0.  1.
    10030    2    1    2    0    0  0.00000000000E+00  0.00000000000E+00 -0.24532625629E+04  0.26131115023E+04  0.89991917457E+03 0.  0.
        3    1    3    3  502    0 -0.67900939592E+02  0.11388589482E+03 -0.24751729076E+04  0.24787217406E+04  0.10100000352E+00 0.  1.
       -3    1    3    3    0  502  0.67900939592E+02 -0.11388589482E+03  0.21910344691E+02  0.13438976167E+03  0.10100000352E+00 0. -1.
</event>
<event>
 5   0  0.3959804E-04  0.8997545E+03  0.7818609E-02  0.9425888E-01
       -2   -1    0    0    0  501  0.00000000000E+00  0.00000000000E+00  0.22929232052E+03  0.22929232053E+03  0.25500000920E-02 0.  1.
        2   -1    0    0  501    0  0.00000000000E+00  0.00000000000E+00 -0.88267047784E+03  0.88267047784E+03  0.25500000920E-02 0. -1.
    10030    2    1    2    0    0  0.00000000000E+00  0.00000000000E+00 -0.65337815732E+03  0.11119627984E+04  0.89975454903E+03 0.  0.
        5    1    3    3  502    0 -0.36295329278E+03 -0.81260877508E+02 -0.63940841306E+03  0.73973213506E+03  0.46999998093E+01 0. -1.
       -5    1    3    3    0  502  0.36295329278E+03  0.81260877508E+02 -0.13969744258E+02  0.37223066331E+03  0.46999998093E+01 0.  1.
</event>
<event>
 5   0  0.2308362E-04  0.8973689E+03  0.7818609E-02  0.9428876E-01
       -1   -1    0    0    0  501  0.00000000000E+00  0.00000000000E+00  0.46813671150E+03  0.46813671153E+03  0.50400001928E-02 0.  1.
        1   -1    0    0  501    0  0.00000000000E+00  0.00000000000E+00 -0.43004050760E+03  0.43004050763E+03  0.50400001928E-02 0. -1.
    10030    2    1    2    0    0  0.00000000000E+00  0.00000000000E+00  0.38096203903E+02  0.89817721916E+03  0.89736892985E+03 0.  0.
        1    1    3    3  502    0  0.36978762527E+02 -0.15566851822E+03 -0.40051634400E+03  0.43129277559E+03  0.50400001928E-02 0. -1.
       -1    1    3    3    0  502 -0.36978762527E+02  0.15566851822E+03  0.43861254790E+03  0.46688444357E+03  0.50400001928E-02 0.  1.
</event>
<event>
 5   0  0.2332791E-04  0.9004834E+03  0.7818609E-02  0.9424977E-01
        1   -1    0    0  501    0  0.00000000000E+00  0.00000000000E+00  0.28680725117E+03  0.28680725122E+03  0.50400001928E-02 0. -1.
       -1   -1    0    0    0  501  0.00000000000E+00  0.00000000000E+00 -0.70680778687E+03  0.70680778689E+03  0.50400001928E-02 0.  1.
    10030    2    1    2    0    0  0.00000000000E+00  0.00000000000E+00 -0.42000053570E+03  0.99361503811E+03  0.90048342237E+03 0.  0.
        2    1    3    3  502    0  0.15521125617E+03 -0.41896964693E+03 -0.14864850913E+03  0.47087416404E+03  0.25500000920E-02 0. -1.
       -2    1    3    3    0  502 -0.15521125617E+03  0.41896964693E+03 -0.27135202657E+03  0.52274087406E+03  0.25500000920E-02 0.  1.
</event>
<event>
 5   0  0.4033144E-04  0.8998203E+03  0.7818609E-02  0.9425806E-01
       -2   -1    0    0    0  501  0.00000000000E+00  0.00000000000E+00  0.30037663894E+03  0.30037663895E+03  0.25500000920E-02 0. -1.
        2   -1    0    0  501    0  0.00000000000E+00  0.00000000000E+00 -0.67388449829E+03  0.67388449829E+03  0.25500000920E-02 0.  1.
    10030    2    1    2    0    0  0.00000000000E+00  0.00000000000E+00 -0.37350785935E+03  0.97426113725E+03  0.89982033904E+03 0.  0.
        4    1    3    3  502    0  0.74794247465E+02  0.10269425856E+03 -0.65405792199E+03  0.66628347451E+03  0.12699999809E+01 0.  1.
       -4    1    3    3    0  502 -0.74794247465E+02 -0.10269425856E+03  0.28055006264E+03  0.30797766273E+03  0.12699999809E+01 0. -1.
</event>
<event>
 5   0  0.4033144E-04  0.9005054E+03  0.7818609E-02  0.9424950E-01
        2   -1    0    0  501    0  0.00000000000E+00  0.00000000000E+00  0.15888188609E+04  0.15888188609E+04  0.25500000920E-02 0. -1.
       -2   -1    0    0    0  501  0.00000000000E+00  0.00000000000E+00 -0.12759634155E+03  0.12759634158E+03  0.25500000920E-02 0.  1.
    10030    2    1    2    0    0  0.00000000000E+00  0.00000000000E+00  0.14612225193E+04  0.17164152024E+04  0.90050535603E+03 0.  0.
        4    1    3    3  502    0  0.12257019144E+03 -0.36437562071E+03  0.11773483230E+04  0.12385248206E+04  0.12699999809E+01 0. -1.
       -4    1    3    3    0  502 -0.12257019144E+03  0.36437562071E+03  0.28387419635E+03  0.47789038183E+03  0.12699999809E+01 0.  1.
</event>
<event>
 5   0  0.4236284E-04  0.9001421E+03  0.7818609E-02  0.9425404E-01
       -2   -1    0    0    0  501  0.00000000000E+00  0.00000000000E+00  0.29682230273E+03  0.29682230274E+03  0.25500000920E-02 0. -1.
        2   -1    0    0  501    0  0.00000000000E+00  0.00000000000E+00 -0.68244183464E+03  0.68244183464E+03  0.25500000920E-02 0.  1.
    10030    2    1    2    0    0  0.00000000000E+00  0.00000000000E+00 -0.38561953191E+03  0.97926413739E+03  0.90014211510E+03 0.  0.
        2    1    3    3  502    0 -0.23057535392E+03  0.19623313351E+03  0.16946487718E+03  0.34697374703E+03  0.25500000920E-02 0. -1.
       -2    1    3    3    0  502  0.23057535392E+03 -0.19623313351E+03 -0.55508440909E+03  0.63229039036E+03  0.25500000920E-02 0.  1.
</event>
<event>
 5   0  0.4243516E-04  0.9000671E+03  0.7818609E-02  0.9425498E-01
        2   -1    0    0  501    0  0.00000000000E+00  0.00000000000E+00  0.13114151074E+04  0.13114151074E+04  0.25500000920E-02 0. -1.
       -2   -1    0    0    0  501  0.00000000000E+00  0.00000000000E+00 -0.15443636857E+03  0.15443636859E+03  0.25500000920E-02 0.  1.
    10030    2    1    2    0    0  0.00000000000E+00  0.00000000000E+00  0.11569787388E+04  0.14658514760E+04  0.90006707949E+03 0.  0.
        1    1    3    3  502    0 -0.44994303891E+03  0.40693559573E+01  0.59160836110E+03  0.74328039855E+03  0.50400001928E-02 0. -1.
       -1    1    3    3    0  502  0.44994303891E+03 -0.40693559573E+01  0.56537037773E+03  0.72257107745E+03  0.50400001928E-02 0.  1.
</event>
<event>
 5   0  0.4033144E-04  0.9005723E+03  0.7818609E-02  0.9424866E-01
       -2   -1    0    0    0  501  0.00000000000E+00  0.00000000000E+00  0.16454260484E+03  0.16454260486E+03  0.25500000920E-02 0. -1.
        2   -1    0    0  501    0  0.00000000000E+00  0.00000000000E+00 -0.12322498873E+04  0.12322498873E+04  0.25500000920E-02 0.  1.
    10030    2    1    2    0    0  0.00000000000E+00  0.00000000000E+00 -0.10677072824E+04  0.13967924921E+04  0.90057227646E+03 0.  0.
        4    1    3    3  502    0 -0.22115892684E+03 -0.47246427801E+02 -0.11377755981E+04  0.11600338014E+04  0.12699999809E+01 0.  1.
       -4    1    3    3    0  502  0.22115892684E+03  0.47246427801E+02  0.70068315702E+02  0.23675869071E+03  0.12699999809E+01 0. -1.
</event>
<event>
 5   0  0.3959804E-04  0.8999835E+03  0.7818609E-02  0.9425602E-01
       -2   -1    0    0    0  501  0.00000000000E+00  0.00000000000E+00  0.19175444240E+04  0.19175444240E+04  0.25500000920E-02 0.  1.
        2   -1    0    0  501    0  0.00000000000E+00  0.00000000000E+00 -0.10559992788E+03  0.10559992791E+03  0.25500000920E-02 0. -1.
    10030    2    1    2    0    0  0.00000000000E+00  0.00000000000E+00  0.18119444961E+04  0.20231443519E+04  0.89998345075E+03 0.  0.
        5    1    3    3  502    0  0.39866548905E+03  0.19619864400E+03  0.10656006829E+04  0.11545366973E+04  0.46999998093E+01 0.  1.
       -5    1    3    3    0  502 -0.39866548905E+03 -0.19619864400E+03  0.74634381323E+03  0.86860765459E+03  0.46999998093E+01 0. -1.
</event>
<event>
 5   0  0.2308362E-04  0.9002657E+03  0.7818609E-02  0.9425249E-01
        1   -1    0    0  501    0  0.00000000000E+00  0.00000000000E+00  0.47785878045E+03  0.47785878048E+03  0.50400001928E-02 0. -1.
       -1   -1    0    0    0  501  0.00000000000E+00  0.00000000000E+00 -0.42401561563E+03  0.42401561566E+03  0.50400001928E-02 0.  1.
    10030    2    1    2    0    0  0.00000000000E+00  0.00000000000E+00  0.53843164823E+02  0.90187439613E+03  0.90026570522E+03 0.  0.
        1    1    3    3  502    0 -0.11343850481E+03 -0.44496899357E+02  0.46102177337E+03  0.47685358757E+03  0.50400001928E-02 0. -1.
       -1    1    3    3    0  502  0.11343850481E+03  0.44496899357E+02 -0.40717860855E+03  0.42502080856E+03  0.50400001928E-02 0.  1.
</event>
<event>
 5   0  0.2308362E-04  0.9001347E+03  0.7818609E-02  0.9425413E-01
       -1   -1    0    0    0  501  0.00000000000E+00  0.00000000000E+00  0.32390867174E+03  0.32390867178E+03  0.50400001928E-02 0.  1.
        1   -1    0    0  501    0  0.00000000000E+00  0.00000000000E+00 -0.62536331289E+03  0.62536331291E+03  0.50400001928E-02 0. -1.
    10030    2    1    2    0    0  0.00000000000E+00  0.00000000000E+00 -0.30145464115E+03  0.94927198469E+03  0.90013465673E+03 0.  0.
        1    1    3    3  502    0 -0.34082119152E+03 -0.26708222091E+03 -0.21272069189E+02  0.43352566045E+03  0.50400001928E-02 0.  1.
       -1    1    3    3    0  502  0.34082119152E+03  0.26708222091E+03 -0.28018257196E+03  0.51574632424E+03  0.50400001928E-02 0. -1.
</event>
<event>
 5   0  0.2351435E-04  0.8999534E+03  0.7818609E-02  0.9425640E-01
        1   -1    0    0  501    0  0.00000000000E+00  0.00000000000E+00  0.34222143632E+03  0.34222143636E+03  0.50400001928E-02 0. -1.
       -1   -1    0    0    0  501  0.00000000000E+00  0.00000000000E+00 -0.59166085567E+03  0.59166085569E+03  0.50400001928E-02 0.  1.
    10030    2    1    2    0    0  0.00000000000E+00  0.00000000000E+00 -0.24943941935E+03  0.93388229205E+03  0.89995339406E+03 0.  0.
        4    1    3    3  502    0 -0.73291139429E+02 -0.43405919037E+03 -0.22150132912E+03  0.49279146053E+03  0.12699999809E+01 0. -1.
       -4    1    3    3    0  502  0.73291139429E+02  0.43405919037E+03 -0.27938090229E+02  0.44109083152E+03  0.12699999809E+01 0.  1.
</event>
<event>
 5   0  0.2308362E-04  0.8999243E+03  0.7818609E-02  0.9425676E-01
       -1   -1    0    0    0  501  0.00000000000E+00  0.00000000000E+00  0.28133391380E+03  0.28133391384E+03  0.50400001928E-02 0. -1.
        1   -1    0    0  501    0  0.00000000000E+00  0.00000000000E+00 -0.71966416227E+03  0.71966416229E+03  0.50400001928E-02 0.  1.
    10030    2    1    2    0    0  0.00000000000E+00  0.00000000000E+00 -0.43833024847E+03  0.10009980761E+04  0.89992429776E+03 0.  0.
        1    1    3    3  502    0 -0.37113222805E+03 -0.21311230798E+03 -0.64597750781E+02  0.43281503664E+03  0.50400001928E-02 0. -1.
       -1    1    3    3    0  502  0.37113222805E+03  0.21311230798E+03 -0.37373249769E+03  0.56818303949E+03  0.50400001928E-02 0.  1.
</event>
<event>
 5   0  0.4243516E-04  0.9026620E+03  0.7818609E-02  0.9422260E-01
       -2   -1    0    0    0  501  0.00000000000E+00  0.00000000000E+00  0.27375128799E+03  0.27375128801E+03  0.25500000920E-02 0. -1.
        2   -1    0    0  501    0  0.00000000000E+00  0.00000000000E+00 -0.74410490289E+03  0.74410490290E+03  0.25500000920E-02 0.  1.
    10030    2    1    2    0    0  0.00000000000E+00  0.00000000000E+00 -0.47035361490E+03  0.10178561909E+04  0.90266200890E+03 0.  0.
        1    1    3    3  502    0 -0.15550530022E+03  0.16941586803E+03  0.20273335714E+03  0.30656883217E+03  0.50400001928E-02 0. -1.
       -1    1    3    3    0  502  0.15550530022E+03 -0.16941586803E+03 -0.67308697204E+03  0.71128735873E+03  0.50400001928E-02 0.  1.
</event>
<event>
 5   0  0.4033144E-04  0.8986169E+03  0.7818609E-02  0.9427312E-01
        2   -1    0    0  501    0  0.00000000000E+00  0.00000000000E+00  0.15313341874E+04  0.15313341874E+04  0.25500000920E-02 0.  1.
       -2   -1    0    0    0  501  0.00000000000E+00  0.00000000000E+00 -0.13183150289E+03  0.13183150292E+03  0.25500000920E-02 0. -1.
    10030    2    1    2    0    0  0.00000000000E+00  0.00000000000E+00  0.13995026845E+04  0.16631656903E+04  0.89861690919E+03 0.  0.
        4    1    3    3  502    0 -0.10172589160E+03  0.21420227931E+03 -0.65820950895E+01  0.23722502051E+03  0.12699999809E+01 0. -1.
       -4    1    3    3    0  502  0.10172589160E+03 -0.21420227931E+03  0.14060847796E+04  0.14259406698E+04  0.12699999809E+01 0.  1.
</event>
<event>
 5   0  0.4236284E-04  0.8998660E+03  0.7818609E-02  0.9425749E-01
       -2   -1    0    0    0  501  0.00000000000E+00  0.00000000000E+00  0.37671466313E+03  0.37671466314E+03  0.25500000920E-02 0.  1.
        2   -1    0    0  501    0  0.00000000000E+00  0.00000000000E+00 -0.53738212046E+03  0.53738212047E+03  0.25500000920E-02 0. -1.
    10030    2    1    2    0    0  0.00000000000E+00  0.00000000000E+00 -0.16066745733E+03  0.91409678361E+03  0.89986604446E+03 0.  0.
        2    1    3    3  502    0  0.40564383310E+03  0.51274223714E+02  0.11042245252E+03  0.42351987365E+03  0.25500000920E-02 0.  1.
       -2    1    3    3    0  502 -0.40564383310E+03 -0.51274223714E+02 -0.27108990986E+03  0.49057690996E+03  0.25500000920E-02 0. -1.
</event>
<event>
 5   0  0.2356918E-04  0.9002960E+03  0.7818609E-02  0.9425211E-01
        1   -1    0    0  501    0  0.00000000000E+00  0.00000000000E+00  0.94891801059E+03  0.94891801060E+03  0.50400001928E-02 0. -1.
       -1   -1    0    0    0  501  0.00000000000E+00  0.00000000000E+00 -0.21354135528E+03  0.21354135534E+03  0.50400001928E-02 0.  1.
    10030    2    1    2    0    0  0.00000000000E+00  0.00000000000E+00  0.73537665531E+03  0.11624593659E+04  0.90029603592E+03 0.  0.
        5    1    3    3  502    0  0.28909302491E+03  0.10316847470E+03 -0.57412875123E+02  0.31230888468E+03  0.46999998093E+01 0.  1.
       -5    1    3    3    0  502 -0.28909302491E+03 -0.10316847470E+03  0.79278953044E+03  0.85015048126E+03  0.46999998093E+01 0. -1.
</event>
<event>
 5   0  0.2450427E-04  0.9006331E+03  0.7818609E-02  0.9424790E-01
       -1   -1    0    0    0  501  0.00000000000E+00  0.00000000000E+00  0.60748092005E+03  0.60748092008E+03  0.50400001928E-02 0.  1.
        1   -1    0    0  501    0  0.00000000000E+00  0.00000000000E+00 -0.33381296310E+03  0.33381296314E+03  0.50400001928E-02 0. -1.
    10030    2    1    2    0    0  0.00000000000E+00  0.00000000000E+00  0.27366795695E+03  0.94129388322E+03  0.90063312393E+03 0.  0.
        3    1    3    3  502    0  0.12169102108E+02 -0.28181811751E+03  0.50370205071E+03  0.57730867350E+03  0.10100000352E+00 0.  1.
       -3    1    3    3    0  502 -0.12169102108E+02  0.28181811751E+03 -0.23003409376E+03  0.36398520972E+03  0.10100000352E+00 0. -1.
</event>
<event>
 5   0  0.4243516E-04  0.9000553E+03  0.7818609E-02  0.9425512E-01
        2   -1    0    0  501    0  0.00000000000E+00  0.00000000000E+00  0.10219788383E+04  0.10219788383E+04  0.25500000920E-02 0. -1.
       -2   -1    0    0    0  501  0.00000000000E+00  0.00000000000E+00 -0.19816935460E+03  0.19816935462E+03  0.25500000920E-02 0.  1.
    10030    2    1    2    0    0  0.00000000000E+00  0.00000000000E+00  0.82380948366E+03  0.12201481929E+04  0.90005530231E+03 0.  0.
        1    1    3    3  502    0  0.37824633200E+03 -0.24229492797E+03  0.37483440517E+03  0.58504525561E+03  0.50400001928E-02 0.  1.
       -1    1    3    3    0  502 -0.37824633200E+03  0.24229492797E+03  0.44897507850E+03  0.63510293727E+03  0.50400001928E-02 0. -1.
</event>
<event>
 5   0  0.2351435E-04  0.8996080E+03  0.7818609E-02  0.9426072E-01
       -1   -1    0    0    0  501  0.00000000000E+00  0.00000000000E+00  0.10731392322E+04  0.10731392322E+04  0.50400001928E-02 0.  1.
        1   -1    0    0  501    0  0.00000000000E+00  0.00000000000E+00 -0.18853436981E+03  0.18853436988E+03  0.50400001928E-02 0. -1.
    10030    2    1    2    0    0  0.00000000000E+00  0.00000000000E+00  0.88460486240E+03  0.12616736021E+04  0.89960797889E+03 0.  0.
        4    1    3    3  502    0 -0.42496819232E+03  0.88230164186E+02  0.27671889433E+03  0.51474021189E+03  0.12699999809E+01 0. -1.
       -4    1    3    3    0  502  0.42496819232E+03 -0.88230164186E+02  0.60788596806E+03  0.74693339022E+03  0.12699999809E+01 0.  1.
</event>
<event>
 5   0  0.2450427E-04  0.9003001E+03  0.7818609E-02  0.9425206E-01
        1   -1    0    0  501    0  0.00000000000E+00  0.00000000000E+00  0.11093806422E+04  0.11093806422E+04  0.50400001928E-02 0.  1.
       -1   -1    0    0    0  501  0.00000000000E+00  0.00000000000E+00 -0.18265604342E+03  0.18265604349E+03  0.50400001928E-02 0. -1.
    10030    2    1    2    0    0  0.00000000000E+00  0.00000000000E+00  0.92672459876E+03  0.12920366857E+04  0.90030012507E+03 0.  0.
        3    1    3    3  502    0  0.34153900913E+03  0.28508046609E+03  0.36481555603E+03  0.57533483037E+03  0.10100000352E+00 0. -1.
       -3    1    3    3    0  502 -0.34153900913E+03 -0.28508046609E+03  0.56190904273E+03  0.71670185531E+03  0.10100000352E+00 0.  1.
</event>
<event>
 5   0  0.2308362E-04  0.9000878E+03  0.7818609E-02  0.9425472E-01
        1   -1    0    0  501    0  0.00000000000E+00  0.00000000000E+00  0.83693385478E+03  0.83693385479E+03  0.50400001928E-02 0.  1.
       -1   -1    0    0    0  501  0.00000000000E+00  0.00000000000E+00 -0.24200182413E+03  0.24200182418E+03  0.50400001928E-02 0. -1.
    10030    2    1    2    0    0  0.00000000000E+00  0.00000000000E+00  0.59493203065E+03  0.10789356790E+04  0.90008781698E+03 0.  0.
        1    1    3    3  502    0  0.42452005238E+03  0.14914104605E+03  0.30813330804E+03  0.54534985288E+03  0.50400001928E-02 0. -1.
       -1    1    3    3    0  502 -0.42452005238E+03 -0.14914104605E+03  0.28679872261E+03  0.53358582610E+03  0.50400001928E-02 0.  1.
</event>
<event>
 5   0  0.1596250E-04  0.9007171E+03  0.7818609E-02  0.9424685E-01
       -3   -1    0    0    0  501  0.00000000000E+00  0.00000000000E+00  0.19644085839E+03  0.19644088435E+03  0.10100000352E+00 0.  1.
        3   -1    0    0  501    0  0.00000000000E+00  0.00000000000E+00 -0.10324879010E+04  0.10324879060E+04  0.10100000352E+00 0. -1.
    10030    2    1    2    0    0  0.00000000000E+00  0.00000000000E+00 -0.83604704263E+03  0.12289287903E+04  0.90071711107E+03 0.  0.
        1    1    3    3  502    0  0.27864382545E+03  0.64568501330E+02 -0.89264935024E+03  0.93735496762E+03  0.50400001928E-02 0. -1.
       -1    1    3    3    0  502 -0.27864382545E+03 -0.64568501330E+02  0.56602307607E+02  0.29157382269E+03  0.50400001928E-02 0.  1.
</event>
<event>
 5   0  0.2356918E-04  0.8998937E+03  0.7818609E-02  0.9425714E-01
       -1   -1    0    0    0  501  0.00000000000E+00  0.00000000000E+00  0.33323946668E+03  0.33323946672E+03  0.50400001928E-02 0.  1.
        1   -1    0    0  501    0  0.00000000000E+00  0.00000000000E+00 -0.60752758028E+03  0.60752758031E+03  0.50400001928E-02 0. -1.
    10030    2    1    2    0    0  0.00000000000E+00  0.00000000000E+00 -0.27428811360E+03  0.94076704703E+03  0.89989369789E+03 0.  0.
        5    1    3    3  502    0 -0.38243920675E+03 -0.21910595835E+03 -0.23159653664E+03  0.49792189510E+03  0.46999998093E+01 0. -1.
       -5    1    3    3    0  502  0.38243920675E+03  0.21910595835E+03 -0.42691576964E+02  0.44284515192E+03  0.46999998093E+01 0.  1.
</event>
<event>
 5   0  0.2450427E-04  0.9000765E+03  0.7818609E-02  0.9425486E-01
       -1   -1    0    0    0  501  0.00000000000E+00  0.00000000000E+00  0.43753544629E+03  0.43753544632E+03  0.50400001928E-02 0.  1.
        1   -1    0    0  501    0  0.00000000000E+00  0.00000000000E+00 -0.46289835222E+03  0.46289835225E+03  0.50400001928E-02 0. -1.
    10030    2    1    2    0    0  0.00000000000E+00  0.00000000000E+00 -0.25362905930E+02  0.90043379857E+03  0.90007652375E+03 0.  0.
        3    1    3    3  502    0 -0.41422605159E+03 -0.17511928632E+03 -0.29553517143E+02  0.45069214197E+03  0.10100000352E+00 0. -1.
       -3    1    3    3    0  502  0.41422605159E+03  0.17511928632E+03  0.41906112133E+01  0.44974165660E+03  0.10100000352E+00 0.  1.
</event>
<event>
 5   0  0.4033144E-04  0.8997891E+03  0.7818609E-02  0.9425845E-01
       -2   -1    0    0    0  501  0.00000000000E+00  0.00000000000E+00  0.33893336007E+03  0.33893336008E+03  0.25500000920E-02 0. -1.
        2   -1    0    0  501    0  0.00000000000E+00  0.00000000000E+00 -0.59718257428E+03  0.59718257428E+03  0.25500000920E-02 0.  1.
    10030    2    1    2    0    0  0.00000000000E+00  0.00000000000E+00 -0.25824921421E+03  0.93611593436E+03  0.89978907857E+03 0.  0.
        4    1    3    3  502    0 -0.36125600240E+02 -0.44704157904E+03 -0.16594044147E+03  0.47821446591E+03  0.12699999809E+01 0.  1.
       -4    1    3    3    0  502  0.36125600240E+02  0.44704157904E+03 -0.92308772737E+02  0.45790146845E+03  0.12699999809E+01 0. -1.
</event>
<event>
 5   0  0.4243516E-04  0.9000002E+03  0.7818609E-02  0.9425581E-01
        2   -1    0    0  501    0  0.00000000000E+00  0.00000000000E+00  0.40591269642E+03  0.40591269643E+03  0.25500000920E-02 0.  1.
       -2   -1    0    0    0  501  0.00000000000E+00  0.00000000000E+00 -0.49887593486E+03  0.49887593487E+03  0.25500000920E-02 0. -1.
    10030    2    1    2    0    0  0.00000000000E+00  0.00000000000E+00 -0.92963238446E+02  0.90478863130E+03  0.90000016868E+03 0.  0.
        1    1    3    3  502    0  0.24881828103E+03 -0.58064989262E+02  0.32591873059E+03  0.41413174103E+03  0.50400001928E-02 0.  1.
       -1    1    3    3    0  502 -0.24881828103E+03  0.58064989262E+02 -0.41888196904E+03  0.49065689026E+03  0.50400001928E-02 0. -1.
</event>
<event>
 5   0  0.2351435E-04  0.8997132E+03  0.7818609E-02  0.9425940E-01
       -1   -1    0    0    0  501  0.00000000000E+00  0.00000000000E+00  0.74262194938E+03  0.74262194940E+03  0.50400001928E-02 0. -1.
        1   -1    0    0  501    0  0.00000000000E+00  0.00000000000E+00 -0.27250874496E+03  0.27250874500E+03  0.50400001928E-02 0.  1.
    10030    2    1    2    0    0  0.00000000000E+00  0.00000000000E+00  0.47011320442E+03  0.10151306944E+04  0.89971323306E+03 0.  0.
        4    1    3    3  502    0 -0.10934138777E+03  0.24236750476E+03 -0.17435888253E+03  0.31796254380E+03  0.12699999809E+01 0.  1.
       -4    1    3    3    0  502  0.10934138777E+03 -0.24236750476E+03  0.64447208695E+03  0.69716815059E+03  0.12699999809E+01 0. -1.
</event>
<event>
 5   0  0.3959804E-04  0.8997711E+03  0.7818609E-02  0.9425868E-01
       -2   -1    0    0    0  501  0.00000000000E+00  0.00000000000E+00  0.28359840030E+03  0.28359840031E+03  0.25500000920E-02 0. -1.
        2   -1    0    0  501    0  0.00000000000E+00  0.00000000000E+00 -0.71367475927E+03  0.71367475927E+03  0.25500000920E-02 0.  1.
    10030    2    1    2    0    0  0.00000000000E+00  0.00000000000E+00 -0.43007635897E+03  0.99727315959E+03  0.89977112662E+03 0.  0.
        5    1    3    3  502    0  0.35863970778E+03 -0.32259689106E+02  0.83833341347E+02  0.36974754449E+03  0.46999998093E+01 0. -1.
       -5    1    3    3    0  502 -0.35863970778E+03  0.32259689106E+02 -0.51390970031E+03  0.62752561510E+03  0.46999998093E+01 0.  1.
</event>
<event>
 5   0  0.2351435E-04  0.9014233E+03  0.7818609E-02  0.9423804E-01
        1   -1    0    0  501    0  0.00000000000E+00  0.00000000000E+00  0.12281646820E+04  0.12281646820E+04  0.50400001928E-02 0.  1.
       -1   -1    0    0    0  501  0.00000000000E+00  0.00000000000E+00 -0.16540206180E+03  0.16540206188E+03  0.50400001928E-02 0. -1.
    10030    2    1    2    0    0  0.00000000000E+00  0.00000000000E+00  0.10627626202E+04  0.13935667438E+04  0.90142325395E+03 0.  0.
        4    1    3    3  502    0 -0.26603329919E+03 -0.23966205142E+03  0.95455663929E+03  0.10195055692E+04  0.12699999809E+01 0.  1.
       -4    1    3    3    0  502  0.26603329919E+03  0.23966205142E+03  0.10820598087E+03  0.37406117462E+03  0.12699999809E+01 0. -1.
</event>
<event>
 5   0  0.2308362E-04  0.8997634E+03  0.7818609E-02  0.9425877E-01
       -1   -1    0    0    0  501  0.00000000000E+00  0.00000000000E+00  0.30235553892E+03  0.30235553896E+03  0.50400001928E-02 0. -1.
        1   -1    0    0  501    0  0.00000000000E+00  0.00000000000E+00 -0.66938916530E+03  0.66938916532E+03  0.50400001928E-02 0.  1.
    10030    2    1    2    0    0  0.00000000000E+00  0.00000000000E+00 -0.36703362638E+03  0.97174470429E+03  0.89976335079E+03 0.  0.
        1    1    3    3  502    0 -0.12614045483E+03  0.28754191127E+03 -0.53147433962E+03  0.61729793356E+03  0.50400001928E-02 0.  1.
       -1    1    3    3    0  502  0.12614045483E+03 -0.28754191127E+03  0.16444071324E+03  0.35444677073E+03  0.50400001928E-02 0. -1.
</event>
<event>
 5   0  0.2308362E-04  0.9007037E+03  0.7818609E-02  0.9424702E-01
        1   -1    0    0  501    0  0.00000000000E+00  0.00000000000E+00  0.13273034381E+03  0.13273034391E+03  0.50400001928E-02 0. -1.
       -1   -1    0    0    0  501  0.00000000000E+00  0.00000000000E+00 -0.15280362669E+04  0.15280362669E+04  0.50400001928E-02 0.  1.
    10030    2    1    2    0    0  0.00000000000E+00  0.00000000000E+00 -0.13953059231E+04  0.16607666109E+04  0.90070367858E+03 0.  0.
        1    1    3    3  502    0 -0.12671326075E+03  0.40836954996E+03 -0.43692618947E+03  0.61133168972E+03  0.50400001928E-02 0.  1.
       -1    1    3    3    0  502  0.12671326075E+03 -0.40836954996E+03 -0.95837973366E+03  0.10494349211E+04  0.50400001928E-02 0. -1.
</event>
<event>
 5   0  0.2450427E-04  0.9000073E+03  0.7818609E-02  0.9425572E-01
       -1   -1    0    0    0  501  0.00000000000E+00  0.00000000000E+00  0.70032018091E+03  0.70032018093E+03  0.50400001928E-02 0. -1.
        1   -1    0    0  501    0  0.00000000000E+00  0.00000000000E+00 -0.28915812798E+03  0.28915812802E+03  0.50400001928E-02 0.  1.
    10030    2    1    2    0    0  0.00000000000E+00  0.00000000000E+00  0.41116205293E+03  0.98947830895E+03  0.90000727226E+03 0.  0.
        3    1    3    3  502    0 -0.18095070177E+03  0.22963721400E+03 -0.17051870900E+03  0.33845686113E+03  0.10100000352E+00 0.  1.
       -3    1    3    3    0  502  0.18095070177E+03 -0.22963721400E+03  0.58168076194E+03  0.65102144783E+03  0.10100000352E+00 0. -1.
</event>
<event>
 5   0  0.3959804E-04  0.8989138E+03  0.7818609E-02  0.9426940E-01
       -2   -1    0    0    0  501  0.00000000000E+00  0.00000000000E+00  0.23648124975E+03  0.23648124977E+03  0.25500000920E-02 0. -1.
        2   -1    0    0  501    0  0.00000000000E+00  0.00000000000E+00 -0.85423892787E+03  0.85423892788E+03  0.25500000920E-02 0.  1.
    10030    2    1    2    0    0  0.00000000000E+00  0.00000000000E+00 -0.61775767812E+03  0.10907201776E+04  0.89891376507E+03 0.  0.
        5    1    3    3  502    0 -0.15511980039E+03  0.27762313321E+03  0.76456604691E+02  0.32711536033E+03  0.46999998093E+01 0. -1.
       -5    1    3    3    0  502  0.15511980039E+03 -0.27762313321E+03 -0.69421428281E+03  0.76360481731E+03  0.46999998093E+01 0.  1.
</event>
<event>
 5   0  0.4243516E-04  0.9005648E+03  0.7818609E-02  0.9424876E-01
        2   -1    0    0  501    0  0.00000000000E+00  0.00000000000E+00  0.88459219986E+03  0.88459219986E+03  0.25500000920E-02 0.  1.
       -2   -1    0    0    0  501  0.00000000000E+00  0.00000000000E+00 -0.22920646483E+03  0.22920646485E+03  0.25500000920E-02 0. -1.
    10030    2    1    2    0    0  0.00000000000E+00  0.00000000000E+00  0.65538573503E+03  0.11137986647E+04  0.90056482489E+03 0.  0.
        1    1    3    3  502    0 -0.37507959490E+03  0.44896055653E+02  0.63077636800E+03  0.73524090255E+03  0.50400001928E-02 0.  1.
       -1    1    3    3    0  502  0.37507959490E+03 -0.44896055653E+02  0.24609367029E+02  0.37855776216E+03  0.50400001928E-02 0. -1.
</event>
<event>
 5   0  0.2351435E-04  0.9007058E+03  0.7818609E-02  0.9424700E-01
       -1   -1    0    0    0  501  0.00000000000E+00  0.00000000000E+00  0.22241671383E+03  0.22241671389E+03  0.50400001928E-02 0.  1.
        1   -1    0    0  501    0  0.00000000000E+00  0.00000000000E+00 -0.91188175262E+03  0.91188175263E+03  0.50400001928E-02 0. -1.
    10030    2    1    2    0    0  0.00000000000E+00  0.00000000000E+00 -0.68946503878E+03  0.11342984665E+04  0.90070581848E+03 0.  0.
        4    1    3    3  502    0 -0.63727052576E+02  0.10253891864E+03  0.20165555761E+03  0.23503604805E+03  0.12699999809E+01 0.  1.
       -4    1    3    3    0  502  0.63727052576E+02 -0.10253891864E+03 -0.89112059639E+03  0.89926241847E+03  0.12699999809E+01 0. -1.
</event>
<event>
 5   0  0.2450427E-04  0.9050675E+03  0.7818609E-02  0.9419269E-01
        1   -1    0    0  501    0  0.00000000000E+00  0.00000000000E+00  0.44387823743E+03  0.44387823746E+03  0.50400001928E-02 0. -1.
       -1   -1    0    0    0  501  0.00000000000E+00  0.00000000000E+00 -0.46135804390E+03  0.46135804393E+03  0.50400001928E-02 0.  1.
    10030    2    1    2    0    0  0.00000000000E+00  0.00000000000E+00 -0.17479806472E+02  0.90523628138E+03  0.90506750107E+03 0.  0.
        3    1    3    3  502    0 -0.23934648249E+02 -0.20264122834E+03  0.39525428710E+03  0.44481714949E+03  0.10100000352E+00 0. -1.
       -3    1    3    3    0  502  0.23934648249E+02  0.20264122834E+03 -0.41273409357E+03  0.46041913189E+03  0.10100000352E+00 0.  1.
</event>
<event>
 5   0  0.3959804E-04  0.8999538E+03  0.7818609E-02  0.9425639E-01
        2   -1    0    0  501    0  0.00000000000E+00  0.00000000000E+00  0.37780388452E+03  0.37780388452E+03  0.25500000920E-02 0.  1.
       -2   -1    0    0    0  501  0.00000000000E+00  0.00000000000E+00 -0.53593728474E+03  0.53593728475E+03  0.25500000920E-02 0. -1.
    10030    2    1    2    0    0  0.00000000000E+00  0.00000000000E+00 -0.15813340023E+03  0.91374116927E+03  0.89995375001E+03 0.  0.
        5    1    3    3  502    0 -0.39125733219E+02  0.42056660237E+03  0.78389807496E+02  0.42962092820E+03  0.46999998093E+01 0.  1.
       -5    1    3    3    0  502  0.39125733219E+02 -0.42056660237E+03 -0.23652320772E+03  0.48412024107E+03  0.46999998093E+01 0. -1.
</event>
<event>
 5   0  0.2450427E-04  0.8993822E+03  0.7818609E-02  0.9426354E-01
        1   -1    0    0  501    0  0.00000000000E+00  0.00000000000E+00  0.25638887306E+03  0.25638887311E+03  0.50400001928E-02 0. -1.
       -1   -1    0    0    0  501  0.00000000000E+00  0.00000000000E+00 -0.78873193548E+03  0.78873193550E+03  0.50400001928E-02 0.  1.
    10030    2    1    2    0    0  0.00000000000E+00  0.00000000000E+00 -0.53234306242E+03  0.10451208086E+04  0.89938221490E+03 0.  0.
        3    1    3    3  502    0 -0.10820872266E+03 -0.36067832479E+03 -0.55181697141E+03  0.66805685519E+03  0.10100000352E+00 0.  1.
       -3    1    3    3    0  502  0.10820872266E+03  0.36067832479E+03  0.19473908985E+02  0.37706395342E+03  0.10100000352E+00 0. -1.
</event>
<event>
 5   0  0.2308362E-04  0.9002541E+03  0.7818609E-02  0.9425264E-01
       -1   -1    0    0    0  501  0.00000000000E+00  0.00000000000E+00  0.29664506826E+03  0.29664506831E+03  0.50400001928E-02 0.  1.
        1   -1    0    0  501    0  0.00000000000E+00  0.00000000000E+00 -0.68301953669E+03  0.68301953671E+03  0.50400001928E-02 0. -1.
    10030    2    1    2    0    0  0.00000000000E+00  0.00000000000E+00 -0.38637446843E+03  0.97966460502E+03  0.90025413549E+03 0.  0.
        1    1    3    3  502    0  0.24163021999E+03 -0.34652334896E+02 -0.60473805998E+03  0.65214574195E+03  0.50400001928E-02 0. -1.
       -1    1    3    3    0  502 -0.24163021999E+03  0.34652334896E+02  0.21836359155E+03  0.32751886307E+03  0.50400001928E-02 0.  1.
</event>
<event>
 5   0  0.4033144E-04  0.9001136E+03  0.7818609E-02  0.9425439E-01
       -2   -1    0    0    0  501  0.00000000000E+00  0.00000000000E+00  0.50242646800E+03  0.50242646801E+03  0.25500000920E-02 0. -1.
        2   -1    0    0  501    0  0.00000000000E+00  0.00000000000E+00 -0.40314582037E+03  0.40314582038E+03  0.25500000920E-02 0.  1.
    10030    2    1    2    0    0  0.00000000000E+00  0.00000000000E+00  0.99280647632E+02  0.90557228839E+03  0.90011361645E+03 0.  0.
        4    1    3    3  502    0 -0.20471303313E+03 -0.11548888141E+02 -0.35342468872E+03  0.40859689946E+03  0.12699999809E+01 0.  1.
       -4    1    3    3    0  502  0.20471303313E+03  0.11548888141E+02  0.45270533635E+03  0.49697538894E+03  0.12699999809E+01 0. -1.
</event>
<event>
 5   0  0.4236284E-04  0.8970439E+03  0.7818609E-02  0.9429284E-01
        2   -1    0    0  501    0  0.00000000000E+00  0.00000000000E+00  0.55887731716E+03  0.55887731716E+03  0.25500000920E-02 0. -1.
       -2   -1    0    0    0  501  0.00000000000E+00  0.00000000000E+00 -0.35995723108E+03  0.35995723109E+03  0.25500000920E-02 0.  1.
    10030    2    1    2    0    0  0.00000000000E+00  0.00000000000E+00  0.19892008608E+03  0.91883454826E+03  0.89704388211E+03 0.  0.
        2    1    3    3  502    0 -0.27197180888E+03 -0.32508527951E+03  0.24973039146E+03  0.49194956267E+03  0.25500000920E-02 0. -1.
       -2    1    3    3    0  502  0.27197180888E+03  0.32508527951E+03 -0.50810305386E+02  0.42688498559E+03  0.25500000920E-02 0.  1.
</event>
<event>
 5   0  0.2332791E-04  0.9001184E+03  0.7818609E-02  0.9425433E-01
       -1   -1    0    0    0  501  0.00000000000E+00  0.00000000000E+00  0.17581614901E+03  0.17581614908E+03  0.50400001928E-02 0.  1.
        1   -1    0    0  501    0  0.00000000000E+00  0.00000000000E+00 -0.11520743092E+04  0.11520743092E+04  0.50400001928E-02 0. -1.
    10030    2    1    2    0    0  0.00000000000E+00  0.00000000000E+00 -0.97625816019E+03  0.13278904583E+04  0.90011836660E+03 0.  0.
        2    1    3    3  502    0  0.18176486564E+03  0.72272105165E+02 -0.10860864645E+04  0.11035603889E+04  0.25500000920E-02 0. -1.
       -2    1    3    3    0  502 -0.18176486564E+03 -0.72272105165E+02  0.10982830436E+03  0.22433006935E+03  0.25500000920E-02 0.  1.
</event>
<event>
 5   0  0.4236284E-04  0.8996444E+03  0.7818609E-02  0.9426026E-01
       -2   -1    0    0    0  501  0.00000000000E+00  0.00000000000E+00  0.43352908707E+03  0.43352908708E+03  0.25500000920E-02 0.  1.
        2   -1    0    0  501    0  0.00000000000E+00  0.00000000000E+00 -0.46672762110E+03  0.46672762110E+03  0.25500000920E-02 0. -1.
    10030    2    1    2    0    0  0.00000000000E+00  0.00000000000E+00 -0.33198534022E+02  0.90025670818E+03  0.89964437306E+03 0.  0.
        2    1    3    3  502    0  0.21424787321E+03 -0.39012494074E+03  0.48563247067E+02  0.44772537290E+03  0.25500000920E-02 0.  1.
       -2    1    3    3    0  502 -0.21424787321E+03  0.39012494074E+03 -0.81761781089E+02  0.45253133529E+03  0.25500000920E-02 0. -1.
</event>
<event>
 5   0  0.2332791E-04  0.8998943E+03  0.7818609E-02  0.9425714E-01
        1   -1    0    0  501    0  0.00000000000E+00  0.00000000000E+00  0.17790501408E+04  0.17790501408E+04  0.50400001928E-02 0.  1.
       -1   -1    0    0    0  501  0.00000000000E+00  0.00000000000E+00 -0.11379804457E+03  0.11379804468E+03  0.50400001928E-02 0. -1.
    10030    2    1    2    0    0  0.00000000000E+00  0.00000000000E+00  0.16652520962E+04  0.18928481855E+04  0.89989427674E+03 0.  0.
        2    1    3    3  502    0 -0.19878293506E+03  0.36468765531E+03  0.46866478167E+03  0.62622553348E+03  0.25500000920E-02 0. -1.
       -2    1    3    3    0  502  0.19878293506E+03 -0.36468765531E+03  0.11965873146E+04  0.12666226520E+04  0.25500000920E-02 0.  1.
</event>
<event>
 5   0  0.2356918E-04  0.8999291E+03  0.7818609E-02  0.9425670E-01
        1   -1    0    0  501    0  0.00000000000E+00  0.00000000000E+00  0.91263066464E+03  0.91263066466E+03  0.50400001928E-02 0.  1.
       -1   -1    0    0    0  501  0.00000000000E+00  0.00000000000E+00 -0.22185107751E+03  0.22185107756E+03  0.50400001928E-02 0. -1.
    10030    2    1    2    0    0  0.00000000000E+00  0.00000000000E+00  0.69077958714E+03  0.11344817422E+04  0.89992910022E+03 0.  0.
        5    1    3    3  502    0 -0.28986960241E+03 -0.26143801675E+03  0.62747852985E+03  0.73900312478E+03  0.46999998093E+01 0. -1.
       -5    1    3    3    0  502  0.28986960241E+03  0.26143801675E+03  0.63301057282E+02  0.39547861744E+03  0.46999998093E+01 0.  1.
</event>
<event>
 5   0  0.2308362E-04  0.8998730E+03  0.7818609E-02  0.9425740E-01
        1   -1    0    0  501    0  0.00000000000E+00  0.00000000000E+00  0.88893115888E+03  0.88893115890E+03  0.50400001928E-02 0. -1.
       -1   -1    0    0    0  501  0.00000000000E+00  0.00000000000E+00 -0.22773739242E+03  0.22773739247E+03  0.50400001928E-02 0.  1.
    10030    2    1    2    0    0  0.00000000000E+00  0.00000000000E+00  0.66119376647E+03  0.11166685514E+04  0.89987302260E+03 0.  0.
        1    1    3    3  502    0 -0.31112204401E+03  0.12611044481E+03  0.70233847277E+03  0.77844723708E+03  0.50400001928E-02 0. -1.
       -1    1    3    3    0  502  0.31112204401E+03 -0.12611044481E+03 -0.41144706305E+02  0.33822131429E+03  0.50400001928E-02 0.  1.
</event>
<event>
 5   0  0.4236284E-04  0.9000598E+03  0.7818609E-02  0.9425507E-01
        2   -1    0    0  501    0  0.00000000000E+00  0.00000000000E+00  0.40961190748E+03  0.40961190749E+03  0.25500000920E-02 0.  1.
       -2   -1    0    0    0  501  0.00000000000E+00  0.00000000000E+00 -0.49443605897E+03  0.49443605898E+03  0.25500000920E-02 0. -1.
    10030    2    1    2    0    0  0.00000000000E+00  0.00000000000E+00 -0.84824151492E+02  0.90404796646E+03  0.90005976968E+03 0.  0.
        2    1    3    3  502    0  0.19903755261E+02 -0.37867790212E+02  0.40756492115E+03  0.40980397017E+03  0.25500000920E-02 0.  1.
       -2    1    3    3    0  502 -0.19903755261E+02  0.37867790212E+02 -0.49238907264E+03  0.49424399629E+03  0.25500000920E-02 0. -1.
</event>
<event>
 5   0  0.4033144E-04  0.9001648E+03  0.7818609E-02  0.9425375E-01
       -2   -1    0    0    0  501  0.00000000000E+00  0.00000000000E+00  0.33221706294E+03  0.33221706295E+03  0.25500000920E-02 0.  1.
        2   -1    0    0  501    0  0.00000000000E+00  0.00000000000E+00 -0.60976446517E+03  0.60976446517E+03  0.25500000920E-02 0. -1.
    10030    2    1    2    0    0  0.00000000000E+00  0.00000000000E+00 -0.27754740223E+03  0.94198152812E+03  0.90016478426E+03 0.  0.
        4    1    3    3  502    0  0.70058815841E+02  0.21403409717E+03 -0.54656042024E+03  0.59114189354E+03  0.12699999809E+01 0. -1.
       -4    1    3    3    0  502 -0.70058815841E+02 -0.21403409717E+03  0.26901301801E+03  0.35083963457E+03  0.12699999809E+01 0.  1.
</event>
<event>
 5   0  0.4243516E-04  0.8995154E+03  0.7818609E-02  0.9426187E-01
        2   -1    0    0  501    0  0.00000000000E+00  0.00000000000E+00  0.11926267430E+04  0.11926267430E+04  0.25500000920E-02 0.  1.
       -2   -1    0    0    0  501  0.00000000000E+00  0.00000000000E+00 -0.16961047900E+03  0.16961047902E+03  0.25500000920E-02 0. -1.
    10030    2    1    2    0    0  0.00000000000E+00  0.00000000000E+00  0.10230162640E+04  0.13622372220E+04  0.89951540988E+03 0.  0.
        1    1    3    3  502    0  0.39646152280E+03  0.96674606109E+02  0.22515092309E+03  0.46606936900E+03  0.50400001928E-02 0. -1.
       -1    1    3    3    0  502 -0.39646152280E+03 -0.96674606109E+02  0.79786534087E+03  0.89616785298E+03  0.50400001928E-02 0.  1.
</event>
<event>
 5   0  0.4243516E-04  0.8966098E+03  0.7818609E-02  0.9429829E-01
       -2   -1    0    0    0  501  0.00000000000E+00  0.00000000000E+00  0.34894812248E+03  0.34894812249E+03  0.25500000920E-02 0.  1.
        2   -1    0    0  501    0  0.00000000000E+00  0.00000000000E+00 -0.57595169803E+03  0.57595169804E+03  0.25500000920E-02 0. -1.
    10030    2    1    2    0    0  0.00000000000E+00  0.00000000000E+00 -0.22700357555E+03  0.92489982053E+03  0.89660975608E+03 0.  0.
        1    1    3    3  502    0 -0.32999044210E+03 -0.28232216877E+03  0.12639751225E+01  0.43428227746E+03  0.50400001928E-02 0.  1.
       -1    1    3    3    0  502  0.32999044210E+03  0.28232216877E+03 -0.22826755068E+03  0.49061754307E+03  0.50400001928E-02 0. -1.
</event>
<event>
 5   0  0.2332791E-04  0.8998245E+03  0.7818609E-02  0.9425801E-01
        1   -1    0    0  501    0  0.00000000000E+00  0.00000000000E+00  0.10602828669E+04  0.10602828669E+04  0.50400001928E-02 0. -1.
       -1   -1    0    0    0  501  0.00000000000E+00  0.00000000000E+00 -0.19091228971E+03  0.19091228978E+03  0.50400001928E-02 0.  1.
    10030    2    1    2    0    0  0.00000000000E+00  0.00000000000E+00  0.86937057719E+03  0.12511951567E+04  0.89982449380E+03 0.  0.
        2    1    3    3  502    0  0.41737038377E+03  0.16098460988E+01  0.20109819956E+03  0.46329376720E+03  0.25500000920E-02 0.  1.
       -2    1    3    3    0  502 -0.41737038377E+03 -0.16098460988E+01  0.66827237763E+03  0.78790138949E+03  0.25500000920E-02 0. -1.
</event>
<event>
 5   0  0.1596250E-04  0.8999784E+03  0.7818609E-02  0.9425608E-01
       -4   -1    0    0    0  501  0.00000000000E+00  0.00000000000E+00  0.89141394942E+03  0.89141485411E+03  0.12699999809E+01 0. -1.
        4   -1    0    0  501    0  0.00000000000E+00  0.00000000000E+00 -0.22715350441E+03  0.22715705463E+03  0.12699999809E+01 0.  1.
    10030    2    1    2    0    0  0.00000000000E+00  0.00000000000E+00  0.66426044501E+03  0.11185719087E+04  0.89997843097E+03 0.  0.
        1    1    3    3  502    0  0.10543416683E+03 -0.21672655530E+03 -0.14017278742E+03  0.27881028257E+03  0.50400001928E-02 0.  1.
       -1    1    3    3    0  502 -0.10543416683E+03  0.21672655530E+03  0.80443323243E+03  0.83976162616E+03  0.50400001928E-02 0. -1.
</event>
<event>
 5   0  0.4243516E-04  0.8996535E+03  0.7818609E-02  0.9426015E-01
       -2   -1    0    0    0  501  0.00000000000E+00  0.00000000000E+00  0.29724629948E+03  0.29724629949E+03  0.25500000920E-02 0. -1.
        2   -1    0    0  501    0  0.00000000000E+00  0.00000000000E+00 -0.68072879215E+03  0.68072879215E+03  0.25500000920E-02 0.  1.
    10030    2    1    2    0    0  0.00000000000E+00  0.00000000000E+00 -0.38348249266E+03  0.97797509164E+03  0.89965352092E+03 0.  0.
        1    1    3    3  502    0 -0.17583501689E+03  0.30519589142E+03 -0.49588747612E+03  0.60824902327E+03  0.50400001928E-02 0.  1.
       -1    1    3    3    0  502  0.17583501689E+03 -0.30519589142E+03  0.11240498346E+03  0.36972606838E+03  0.50400001928E-02 0. -1.
</event>
<event>
 5   0  0.3959804E-04  0.9007175E+03  0.7818609E-02  0.9424685E-01
        2   -1    0    0  501    0  0.00000000000E+00  0.00000000000E+00  0.25364624550E+04  0.25364624550E+04  0.25500000920E-02 0. -1.
       -2   -1    0    0    0  501  0.00000000000E+00  0.00000000000E+00 -0.79962946506E+02  0.79962946547E+02  0.25500000920E-02 0.  1.
    10030    2    1    2    0    0  0.00000000000E+00  0.00000000000E+00  0.24564995085E+04  0.26164254016E+04  0.90071751768E+03 0.  0.
        5    1    3    3  502    0  0.22788233733E+03 -0.28156824177E+03  0.20054726518E+04  0.20379287724E+04  0.46999998093E+01 0.  1.
       -5    1    3    3    0  502 -0.22788233733E+03  0.28156824177E+03  0.45102685676E+03  0.57849662917E+03  0.46999998093E+01 0. -1.
</event>
<event>
 5   0  0.4033144E-04  0.9002775E+03  0.7818609E-02  0.9425235E-01
       -2   -1    0    0    0  501  0.00000000000E+00  0.00000000000E+00  0.14272409785E+03  0.14272409787E+03  0.25500000920E-02 0.  1.
        2   -1    0    0  501    0  0.00000000000E+00  0.00000000000E+00 -0.14196965416E+04  0.14196965416E+04  0.25500000920E-02 0. -1.
    10030    2    1    2    0    0  0.00000000000E+00  0.00000000000E+00 -0.12769724438E+04  0.15624206395E+04  0.90027753085E+03 0.  0.
        4    1    3    3  502    0  0.10260996693E+03  0.31847743066E+03 -0.11610571674E+04  0.12083095787E+04  0.12699999809E+01 0. -1.
       -4    1    3    3    0  502 -0.10260996693E+03 -0.31847743066E+03 -0.11591527634E+03  0.35411106074E+03  0.12699999809E+01 0.  1.
</event>
<event>
 5   0  0.2308362E-04  0.8998393E+03  0.7818609E-02  0.9425782E-01
       -1   -1    0    0    0  501  0.00000000000E+00  0.00000000000E+00  0.97600113043E+03  0.97600113044E+03  0.50400001928E-02 0. -1.
        1   -1    0    0  501    0  0.00000000000E+00  0.00000000000E+00 -0.20740517886E+03  0.20740517892E+03  0.50400001928E-02 0.  1.
    10030    2    1    2    0    0  0.00000000000E+00  0.00000000000E+00  0.76859595156E+03  0.11834063094E+04  0.89983929470E+03 0.  0.
        1    1    3    3  502    0  0.34116231282E+03  0.17056526314E+03  0.70470590526E+02  0.38787928127E+03  0.50400001928E-02 0.  1.
       -1    1    3    3    0  502 -0.34116231282E+03 -0.17056526314E+03  0.69812536104E+03  0.79552702809E+03  0.50400001928E-02 0. -1.
</event>
<event>
 5   0  0.4110039E-04  0.9000283E+03  0.7818609E-02  0.9425546E-01
        2   -1    0    0  501    0  0.00000000000E+00  0.00000000000E+00  0.95436550238E+03  0.95436550238E+03  0.25500000920E-02 0. -1.
       -2   -1    0    0    0  501  0.00000000000E+00  0.00000000000E+00 -0.21219619278E+03  0.21219619280E+03  0.25500000920E-02 0.  1.
    10030    2    1    2    0    0  0.00000000000E+00  0.00000000000E+00  0.74216930959E+03  0.11665616952E+04  0.90002827987E+03 0.  0.
        3    1    3    3  502    0 -0.44998234096E+02  0.44581937859E+03  0.31712795328E+03  0.54895346647E+03  0.10100000352E+00 0. -1.
       -3    1    3    3    0  502  0.44998234096E+02 -0.44581937859E+03  0.42504135632E+03  0.61760822871E+03  0.10100000352E+00 0.  1.
</event>
<event>
 5   0  0.4243516E-04  0.9002241E+03  0.7818609E-02  0.9425301E-01
       -2   -1    0    0    0  501  0.00000000000E+00  0.00000000000E+00  0.31719353854E+03  0.31719353855E+03  0.25500000920E-02 0. -1.
        2   -1    0    0  501    0  0.00000000000E+00  0.00000000000E+00 -0.63872946877E+03  0.63872946878E+03  0.25500000920E-02 0.  1.
    10030    2    1    2    0    0  0.00000000000E+00  0.00000000000E+00 -0.32153593023E+03  0.95592300732E+03  0.90022410626E+03 0.  0.
        1    1    3    3  502    0 -0.41817438554E+03 -0.79870138051E+02 -0.56044641479E+01  0.42577043781E+03  0.50400001928E-02 0. -1.
       -1    1    3    3    0  502  0.41817438554E+03  0.79870138051E+02 -0.31593146608E+03  0.53015256951E+03  0.50400001928E-02 0.  1.
</event>
<event>
 5   0  0.2351435E-04  0.8998347E+03  0.7818609E-02  0.9425788E-01
       -1   -1    0    0    0  501  0.00000000000E+00  0.00000000000E+00  0.23450926328E+03  0.23450926334E+03  0.50400001928E-02 0.  1.
        1   -1    0    0  501    0  0.00000000000E+00  0.00000000000E+00 -0.86318811033E+03  0.86318811034E+03  0.50400001928E-02 0. -1.
    10030    2    1    2    0    0  0.00000000000E+00  0.00000000000E+00 -0.62867884704E+03  0.10976973737E+04  0.89983466896E+03 0.  0.
        4    1    3    3  502    0 -0.19798284672E+03  0.24686275077E+03  0.75806512579E+02  0.32540231339E+03  0.12699999809E+01 0.  1.
       -4    1    3    3    0  502  0.19798284672E+03 -0.24686275077E+03 -0.70448535962E+03  0.77229506028E+03  0.12699999809E+01 0. -1.
</event>
<event>
 5   0  0.4110039E-04  0.8998990E+03  0.7818609E-02  0.9425708E-01
       -2   -1    0    0    0  501  0.00000000000E+00  0.00000000000E+00  0.13203421863E+03  0.13203421865E+03  0.25500000920E-02 0. -1.
        2   -1    0    0  501    0  0.00000000000E+00  0.00000000000E+00 -0.15333489612E+04  0.15333489612E+04  0.25500000920E-02 0.  1.
    10030    2    1    2    0    0  0.00000000000E+00  0.00000000000E+00 -0.14013147426E+04  0.16653831799E+04  0.89989895432E+03 0.  0.
        3    1    3    3  502    0 -0.80161924399E+02 -0.26358653861E+02  0.11725944313E+03  0.14446625890E+03  0.10100000352E+00 0. -1.
       -3    1    3    3    0  502  0.80161924399E+02  0.26358653861E+02 -0.15185741857E+04  0.15209169210E+04  0.10100000352E+00 0.  1.
</event>
<event>
 5   0  0.4243516E-04  0.8997203E+03  0.7818609E-02  0.9425931E-01
       -2   -1    0    0    0  501  0.00000000000E+00  0.00000000000E+00  0.26300553859E+03  0.26300553860E+03  0.25500000920E-02 0.  1.
        2   -1    0    0  501    0  0.00000000000E+00  0.00000000000E+00 -0.76946732573E+03  0.76946732573E+03  0.25500000920E-02 0. -1.
    10030    2    1    2    0    0  0.00000000000E+00  0.00000000000E+00 -0.50646178714E+03  0.10324728643E+04  0.89972033085E+03 0.  0.
        1    1    3    3  502    0  0.20024323621E+03 -0.14489957526E+03 -0.68456408745E+03  0.72781950400E+03  0.50400001928E-02 0. -1.
       -1    1    3    3    0  502 -0.20024323621E+03  0.14489957526E+03  0.17810230031E+03  0.30465336033E+03  0.50400001928E-02 0.  1.
</event>
<event>
 5   0  0.2332791E-04  0.9018885E+03  0.7818609E-02  0.9423224E-01
        1   -1    0    0  501    0  0.00000000000E+00  0.00000000000E+00  0.98870642371E+03  0.98870642373E+03  0.50400001928E-02 0. -1.
       -1   -1    0    0    0  501  0.00000000000E+00  0.00000000000E+00 -0.20567350870E+03  0.20567350876E+03  0.50400001928E-02 0.  1.
    10030    2    1    2    0    0  0.00000000000E+00  0.00000000000E+00  0.78303291501E+03  0.11943799325E+04  0.90188850593E+03 0.  0.
        2    1    3    3  502    0  0.38027512845E+03  0.11604513686E+03  0.67330233372E+03  0.78192818066E+03  0.25500000920E-02 0. -1.
       -2    1    3    3    0  502 -0.38027512845E+03 -0.11604513686E+03  0.10973058130E+03  0.41245175183E+03  0.25500000920E-02 0.  1.
</event>
<event>
 5   0  0.3959804E-04  0.9002515E+03  0.7818609E-02  0.9425267E-01
       -2   -1    0    0    0  501  0.00000000000E+00  0.00000000000E+00  0.21126762171E+03  0.21126762172E+03  0.25500000920E-02 0. -1.
        2   -1    0    0  501    0  0.00000000000E+00  0.00000000000E+00 -0.95903567434E+03  0.95903567434E+03  0.25500000920E-02 0.  1.
    10030    2    1    2    0    0  0.00000000000E+00  0.00000000000E+00 -0.74776805263E+03  0.11703032961E+04  0.90025148944E+03 0.  0.
        5    1    3    3  502    0  0.19644023836E+03  0.14838482653E+03 -0.86372453704E+03  0.89813639825E+03  0.46999998093E+01 0.  1.
       -5    1    3    3    0  502 -0.19644023836E+03 -0.14838482653E+03  0.11595648440E+03  0.27216689781E+03  0.46999998093E+01 0. -1.
</event>
<event>
 5   0  0.2308362E-04  0.9003194E+03  0.7818609E-02  0.9425182E-01
       -1   -1    0    0    0  501  0.00000000000E+00  0.00000000000E+00  0.34144718502E+03  0.34144718506E+03  0.50400001928E-02 0.  1.
        1   -1    0    0  501    0  0.00000000000E+00  0.00000000000E+00 -0.59348495302E+03  0.59348495304E+03  0.50400001928E-02 0. -1.
    10030    2    1    2    0    0  0.00000000000E+00  0.00000000000E+00 -0.25203776800E+03  0.93493213809E+03  0.90031942462E+03 0.  0.
        1    1    3    3  502    0 -0.11607505275E+02  0.30386639582E+02  0.34022517656E+03  0.34177661248E+03  0.50400001928E-02 0.  1.
       -1    1    3    3    0  502  0.11607505275E+02 -0.30386639582E+02 -0.59226294456E+03  0.59315552562E+03  0.50400001928E-02 0. -1.
</event>
<event>
 5   0  0.4243516E-04  0.9049602E+03  0.7818609E-02  0.9419402E-01
        2   -1    0    0  501    0  0.00000000000E+00  0.00000000000E+00  0.81790922401E+03  0.81790922402E+03  0.25500000920E-02 0.  1.
       -2   -1    0    0    0  501  0.00000000000E+00  0.00000000000E+00 -0.25031905246E+03  0.25031905247E+03  0.25500000920E-02 0. -1.
    10030    2    1    2    0    0  0.00000000000E+00  0.00000000000E+00  0.56759017155E+03  0.10682282765E+04  0.90496024656E+03 0.  0.
        1    1    3    3  502    0  0.38379317974E+03 -0.11436901601E+02  0.12090245351E+01  0.38396545326E+03  0.50400001928E-02 0. -1.
       -1    1    3    3    0  502 -0.38379317974E+03  0.11436901601E+02  0.56638114702E+03  0.68426282323E+03  0.50400001928E-02 0.  1.
</event>
<event>
 5   0  0.4236284E-04  0.9000991E+03  0.7818609E-02  0.9425458E-01
       -2   -1    0    0    0  501  0.00000000000E+00  0.00000000000E+00  0.10572720172E+04  0.10572720172E+04  0.25500000920E-02 0. -1.
        2   -1    0    0  501    0  0.00000000000E+00  0.00000000000E+00 -0.19157282163E+03  0.19157282165E+03  0.25500000920E-02 0.  1.
    10030    2    1    2    0    0  0.00000000000E+00  0.00000000000E+00  0.86569919554E+03  0.12488448388E+04  0.90009906916E+03 0.  0.
        2    1    3    3  502    0  0.80848490593E+02 -0.14585241718E+03  0.10128233558E+04  0.10264602068E+04  0.25500000920E-02 0. -1.
       -2    1    3    3    0  502 -0.80848490593E+02  0.14585241718E+03 -0.14712416027E+03  0.22238463205E+03  0.25500000920E-02 0.  1.
</event>
<event>
 5   0  0.2356918E-04  0.9000544E+03  0.7818609E-02  0.9425513E-01
       -1   -1    0    0    0  501  0.00000000000E+00  0.00000000000E+00  0.12526630980E+03  0.12526630990E+03  0.50400001928E-02 0. -1.
        1   -1    0    0  501    0  0.00000000000E+00  0.00000000000E+00 -0.16167514667E+04  0.16167514667E+04  0.50400001928E-02 0.  1.
    10030    2    1    2    0    0  0.00000000000E+00  0.00000000000E+00 -0.14914851569E+04  0.17420177766E+04  0.90005442099E+03 0.  0.
        5    1    3    3  502    0  0.11510170229E+03 -0.34120616007E+03 -0.12680738030E+04  0.13182197486E+04  0.46999998093E+01 0.  1.
       -5    1    3    3    0  502 -0.11510170229E+03  0.34120616007E+03 -0.22341135386E+03  0.42379802804E+03  0.46999998093E+01 0. -1.
</event>
<event>
 5   0  0.2450427E-04  0.9001360E+03  0.7818609E-02  0.9425411E-01
       -1   -1    0    0    0  501  0.00000000000E+00  0.00000000000E+00  0.20513198593E+03  0.20513198599E+03  0.50400001928E-02 0.  1.
        1   -1    0    0  501    0  0.00000000000E+00  0.00000000000E+00 -0.98746777488E+03  0.98746777489E+03  0.50400001928E-02 0. -1.
    10030    2    1    2    0    0  0.00000000000E+00  0.00000000000E+00 -0.78233578895E+03  0.11925997609E+04  0.90013604693E+03 0.  0.
        3    1    3    3  502    0  0.27852277119E+03  0.27790306801E+03 -0.68070304220E+03  0.78623259354E+03  0.10100000352E+00 0. -1.
       -3    1    3    3    0  502 -0.27852277119E+03 -0.27790306801E+03 -0.10163274675E+03  0.40636716735E+03  0.10100000352E+00 0.  1.
</event>
<event>
 5   0  0.4110039E-04  0.9000862E+03  0.7818609E-02  0.9425474E-01
       -2   -1    0    0    0  501  0.00000000000E+00  0.00000000000E+00  0.44528773255E+03  0.44528773255E+03  0.25500000920E-02 0.  1.
        2   -1    0    0  501    0  0.00000000000E+00  0.00000000000E+00 -0.45484923145E+03  0.45484923146E+03  0.25500000920E-02 0. -1.
    10030    2    1    2    0    0  0.00000000000E+00  0.00000000000E+00 -0.95614989059E+01  0.90013696401E+03  0.90008618016E+03 0.  0.
        3    1    3    3  502    0  0.13569180398E+03 -0.31597184274E+03 -0.29512160638E+03  0.45315256132E+03  0.10100000352E+00 0. -1.
       -3    1    3    3    0  502 -0.13569180398E+03  0.31597184274E+03  0.28556010748E+03  0.44698440270E+03  0.10100000352E+00 0.  1.
</event>
<event>
 5   0  0.3959804E-04  0.8998500E+03  0.7818609E-02  0.9425769E-01
        2   -1    0    0  501    0  0.00000000000E+00  0.00000000000E+00  0.78498443825E+03  0.78498443825E+03  0.25500000920E-02 0.  1.
       -2   -1    0    0    0  501  0.00000000000E+00  0.00000000000E+00 -0.25788093917E+03  0.25788093918E+03  0.25500000920E-02 0. -1.
    10030    2    1    2    0    0  0.00000000000E+00  0.00000000000E+00  0.52710349908E+03  0.10428653774E+04  0.89985004123E+03 0.  0.
        5    1    3    3  502    0 -0.34531261710E+02  0.37176688865E+03 -0.27355075719E+02  0.37439740610E+03  0.46999998093E+01 0. -1.
       -5    1    3    3    0  502  0.34531261710E+02 -0.37176688865E+03  0.55445857479E+03  0.66846797133E+03  0.46999998093E+01 0.  1.
</event>
<event>
 5   0  0.2356918E-04  0.8991959E+03  0.7818609E-02  0.9426587E-01
       -1   -1    0    0    0  501  0.00000000000E+00  0.00000000000E+00  0.30238239129E+03  0.30238239133E+03  0.50400001928E-02 0.  1.
        1   -1    0    0  501    0  0.00000000000E+00  0.00000000000E+00 -0.66848578518E+03  0.66848578520E+03  0.50400001928E-02 0. -1.
    10030    2    1    2    0    0  0.00000000000E+00  0.00000000000E+00 -0.36610339390E+03  0.97086817653E+03  0.89919593036E+03 0.  0.
        5    1    3    3  502    0  0.33853906739E+02  0.28327799655E+03  0.19209597509E+03  0.34397014984E+03  0.46999998093E+01 0.  1.
       -5    1    3    3    0  502 -0.33853906739E+02 -0.28327799655E+03 -0.55819936899E+03  0.62689802669E+03  0.46999998093E+01 0. -1.
</event>
<event>
 5   0  0.4243516E-04  0.9000731E+03  0.7818609E-02  0.9425490E-01
       -2   -1    0    0    0  501  0.00000000000E+00  0.00000000000E+00  0.43167947595E+03  0.43167947595E+03  0.25500000920E-02 0. -1.
        2   -1    0    0  501    0  0.00000000000E+00  0.00000000000E+00 -0.46917427409E+03  0.46917427410E+03  0.25500000920E-02 0.  1.
    10030    2    1    2    0    0  0.00000000000E+00  0.00000000000E+00 -0.37494798148E+02  0.90085375006E+03  0.90007311875E+03 0.  0.
        1    1    3    3  502    0  0.40136499218E+02  0.29751303795E+03  0.31681634346E+03  0.43646024083E+03  0.50400001928E-02 0. -1.
       -1    1    3    3    0  502 -0.40136499218E+02 -0.29751303795E+03 -0.35431114160E+03  0.46439350922E+03  0.50400001928E-02 0.  1.
</event>
<event>
 5   0  0.2351435E-04  0.8982371E+03  0.7818609E-02  0.9427788E-01
       -1   -1    0    0    0  501  0.00000000000E+00  0.00000000000E+00  0.33581339522E+03  0.33581339526E+03  0.50400001928E-02 0.  1.
        1   -1    0    0  501    0  0.00000000000E+00  0.00000000000E+00 -0.60065344328E+03  0.60065344331E+03  0.50400001928E-02 0. -1.
    10030    2    1    2    0    0  0.00000000000E+00  0.00000000000E+00 -0.26484004806E+03  0.93646683857E+03  0.89823710048E+03 0.  0.
        4    1    3    3  502    0 -0.66900603526E+02 -0.37238025232E+03 -0.38471784694E+03  0.53958519042E+03  0.12699999809E+01 0. -1.
       -4    1    3    3    0  502  0.66900603526E+02  0.37238025232E+03  0.11987779888E+03  0.39688164814E+03  0.12699999809E+01 0.  1.
</event>
<event>
 5   0  0.4110039E-04  0.8997838E+03  0.7818609E-02  0.9425852E-01
        2   -1    0    0  501    0  0.00000000000E+00  0.00000000000E+00  0.66296077495E+03  0.66296077496E+03  0.25500000920E-02 0.  1.
       -2   -1    0    0    0  501  0.00000000000E+00  0.00000000000E+00 -0.30530121833E+03  0.30530121834E+03  0.25500000920E-02 0. -1.
    10030    2    1    2    0    0  0.00000000000E+00  0.00000000000E+00  0.35765955663E+03  0.96826199330E+03  0.89978382360E+03 0.  0.
        3    1    3    3  502    0  0.17651040882E+03  0.35134021883E+03  0.41411776889E+03  0.57104238940E+03  0.10100000352E+00 0.  1.
       -3    1    3    3    0  502 -0.17651040882E+03 -0.35134021883E+03 -0.56458212258E+02  0.39721960389E+03  0.10100000352E+00 0. -1.
</event>
<event>
 5   0  0.4033144E-04  0.9000195E+03  0.7818609E-02  0.9425557E-01
        2   -1    0    0  501    0  0.00000000000E+00  0.00000000000E+00  0.11566207369E+04  0.11566207369E+04  0.25500000920E-02 0. -1.
       -2   -1    0    0    0  501  0.00000000000E+00  0.00000000000E+00 -0.17508659625E+03  0.17508659627E+03  0.25500000920E-02 0.  1.
    10030    2    1    2    0    0  0.00000000000E+00  0.00000000000E+00  0.98153414061E+03  0.13317073331E+04  0.90001952864E+03 0.  0.
        4    1    3    3  502    0 -0.25369186672E+03 -0.16117663328E+03  0.98632524734E+03  0.10311045421E+04  0.12699999809E+01 0. -1.
       -4    1    3    3    0  502  0.25369186672E+03  0.16117663328E+03 -0.47911067319E+01  0.30060279100E+03  0.12699999809E+01 0.  1.
</event>
<event>
 5   0  0.4236284E-04  0.8997012E+03  0.7818609E-02  0.9425955E-01
       -2   -1    0    0    0  501  0.00000000000E+00  0.00000000000E+00  0.11471222649E+03  0.11471222652E+03  0.25500000920E-02 0. -1.
        2   -1    0    0  501    0  0.00000000000E+00  0.00000000000E+00 -0.17641151560E+04  0.17641151560E+04  0.25500000920E-02 0.  1.
    10030    2    1    2    0    0  0.00000000000E+00  0.00000000000E+00 -0.16494029295E+04  0.18788273825E+04  0.89970123343E+03 0.  0.
        2    1    3    3  502    0 -0.22778191635E+03  0.18216477679E+03 -0.10949412605E+03  0.31154064096E+03  0.25500000920E-02 0. -1.
       -2    1    3    3    0  502  0.22778191635E+03 -0.18216477679E+03 -0.15399088035E+04  0.15672867416E+04  0.25500000920E-02 0.  1.
</event>
<event>
 5   0  0.4033144E-04  0.9001509E+03  0.7818609E-02  0.9425393E-01
       -2   -1    0    0    0  501  0.00000000000E+00  0.00000000000E+00  0.10071184275E+03  0.10071184278E+03  0.25500000920E-02 0. -1.
        2   -1    0    0  501    0  0.00000000000E+00  0.00000000000E+00 -0.20113615632E+04  0.20113615632E+04  0.25500000920E-02 0.  1.
    10030    2    1    2    0    0  0.00000000000E+00  0.00000000000E+00 -0.19106497205E+04  0.21120734060E+04  0.90015094178E+03 0.  0.
        4    1    3    3  502    0  0.12246932182E+03 -0.26516492295E+02 -0.19696028942E+04  0.19735853244E+04  0.12699999809E+01 0.  1.
       -4    1    3    3    0  502 -0.12246932182E+03  0.26516492295E+02  0.58953173698E+02  0.13848808158E+03  0.12699999809E+01 0. -1.
</event>
<event>
 5   0  0.4243516E-04  0.8998717E+03  0.7818609E-02  0.9425742E-01
        2   -1    0    0  501    0  0.00000000000E+00  0.00000000000E+00  0.34813947249E+03  0.34813947250E+03  0.25500000920E-02 0. -1.
       -2   -1    0    0    0  501  0.00000000000E+00  0.00000000000E+00 -0.58149765361E+03  0.58149765362E+03  0.25500000920E-02 0.  1.
    10030    2    1    2    0    0  0.00000000000E+00  0.00000000000E+00 -0.23335818112E+03  0.92963712612E+03  0.89987173840E+03 0.  0.
        1    1    3    3  502    0  0.30108107886E+03  0.18024360596E+03 -0.40760496301E+03  0.53784698515E+03  0.50400001928E-02 0.  1.
       -1    1    3    3    0  502 -0.30108107886E+03 -0.18024360596E+03  0.17424678189E+03  0.39179014097E+03  0.50400001928E-02 0. -1.
</event>
<event>
 5   0  0.2356918E-04  0.9006697E+03  0.7818609E-02  0.9424745E-01
        1   -1    0    0  501    0  0.00000000000E+00  0.00000000000E+00  0.25126160813E+04  0.25126160813E+04  0.50400001928E-02 0. -1.
       -1   -1    0    0    0  501  0.00000000000E+00  0.00000000000E+00 -0.80713273464E+02  0.80713273621E+02  0.50400001928E-02 0.  1.
    10030    2    1    2    0    0  0.00000000000E+00  0.00000000000E+00  0.24319028078E+04  0.25933293549E+04  0.90066968215E+03 0.  0.
        5    1    3    3  502    0 -0.22209816392E+03 -0.13376037406E+03  0.22760782371E+04  0.22908019695E+04  0.46999998093E+01 0. -1.
       -5    1    3    3    0  502  0.22209816392E+03  0.13376037406E+03  0.15582457074E+03  0.30252738542E+03  0.46999998093E+01 0.  1.
</event>
<event>
 5   0  0.2308362E-04  0.8999601E+03  0.7818609E-02  0.9425631E-01
       -1   -1    0    0    0  501  0.00000000000E+00  0.00000000000E+00  0.22900315491E+03  0.22900315497E+03  0.50400001928E-02 0.  1.
        1   -1    0    0  501    0  0.00000000000E+00  0.00000000000E+00 -0.88418898043E+03  0.88418898044E+03  0.50400001928E-02 0. -1.
    10030    2    1    2    0    0  0.00000000000E+00  0.00000000000E+00 -0.65518582552E+03  0.11131921354E+04  0.89996014599E+03 0.  0.
        1    1    3    3  502    0 -0.16444513929E+03 -0.20509206559E+03 -0.77933182139E+03  0.82247373640E+03  0.50400001928E-02 0. -1.
       -1    1    3    3    0  502  0.16444513929E+03  0.20509206559E+03  0.12414599587E+03  0.29071839901E+03  0.50400001928E-02 0.  1.
</event>
<event>
 5   0  0.4243516E-04  0.8997267E+03  0.7818609E-02  0.9425923E-01
       -2   -1    0    0    0  501  0.00000000000E+00  0.00000000000E+00  0.42349084982E+03  0.42349084983E+03  0.25500000920E-02 0.  1.
        2   -1    0    0  501    0  0.00000000000E+00  0.00000000000E+00 -0.47787819231E+03  0.47787819232E+03  0.25500000920E-02 0. -1.
    10030    2    1    2    0    0  0.00000000000E+00  0.00000000000E+00 -0.54387342487E+02  0.90136904214E+03  0.89972671802E+03 0.  0.
        1    1    3    3  502    0  0.21426083466E+01 -0.43775721150E+03  0.76634663914E+02  0.44441966510E+03  0.50400001928E-02 0.  1.
       -1    1    3    3    0  502 -0.21426083466E+01  0.43775721150E+03 -0.13102200640E+03  0.45694937704E+03  0.50400001928E-02 0. -1.
</event>
<event>
 5   0  0.2332791E-04  0.9003138E+03  0.7818609E-02  0.9425189E-01
        1   -1    0    0  501    0  0.00000000000E+00  0.00000000000E+00  0.51989092855E+03  0.51989092857E+03  0.50400001928E-02 0.  1.
       -1   -1    0    0    0  501  0.00000000000E+00  0.00000000000E+00 -0.38977644641E+03  0.38977644644E+03  0.50400001928E-02 0. -1.
    10030    2    1    2    0    0  0.00000000000E+00  0.00000000000E+00  0.13011448213E+03  0.90966737501E+03  0.90031380902E+03 0.  0.
        2    1    3    3  502    0 -0.19601103179E+03 -0.12830594985E+03  0.45344446976E+03  0.51038674406E+03  0.25500000920E-02 0.  1.
       -2    1    3    3    0  502  0.19601103179E+03  0.12830594985E+03 -0.32332998763E+03  0.39928063095E+03  0.25500000920E-02 0. -1.
</event>
<event>
 5   0  0.2450427E-04  0.9006050E+03  0.7818609E-02  0.9424825E-01
        1   -1    0    0  501    0  0.00000000000E+00  0.00000000000E+00  0.25967393674E+04  0.25967393675E+04  0.50400001928E-02 0. -1.
       -1   -1    0    0    0  501  0.00000000000E+00  0.00000000000E+00 -0.78087286101E+02  0.78087286263E+02  0.50400001928E-02 0.  1.
    10030    2    1    2    0    0  0.00000000000E+00  0.00000000000E+00  0.25186520813E+04  0.26748266537E+04  0.90060497476E+03 0.  0.
        3    1    3    3  502    0  0.62444233783E+01 -0.42639134945E+03  0.82970949201E+03  0.93288071426E+03  0.10100000352E+00 0.  1.
       -3    1    3    3    0  502 -0.62444233783E+01  0.42639134945E+03  0.16889425893E+04  0.17419459395E+04  0.10100000352E+00 0. -1.
</event>
<event>
 5   0  0.2351435E-04  0.8993559E+03  0.7818609E-02  0.9426387E-01
       -1   -1    0    0    0  501  0.00000000000E+00  0.00000000000E+00  0.77246097152E+03  0.77246097153E+03  0.50400001928E-02 0.  1.
        1   -1    0    0  501    0  0.00000000000E+00  0.00000000000E+00 -0.26177406264E+03  0.26177406269E+03  0.50400001928E-02 0. -1.
    10030    2    1    2    0    0  0.00000000000E+00  0.00000000000E+00  0.51068690888E+03  0.10342350342E+04  0.89935587345E+03 0.  0.
        4    1    3    3  502    0 -0.13304158681E+03 -0.47754989559E+02 -0.23555906528E+03  0.27471856323E+03  0.12699999809E+01 0. -1.
       -4    1    3    3    0  502  0.13304158681E+03  0.47754989559E+02  0.74624597416E+03  0.75951647099E+03  0.12699999809E+01 0.  1.
</event>
<event>
 5   0  0.4243516E-04  0.8978049E+03  0.7818609E-02  0.9428330E-01
        2   -1    0    0  501    0  0.00000000000E+00  0.00000000000E+00  0.17042169978E+04  0.17042169978E+04  0.25500000920E-02 0.  1.
       -2   -1    0    0    0  501  0.00000000000E+00  0.00000000000E+00 -0.11824397764E+03  0.11824397767E+03  0.25500000920E-02 0. -1.
    10030    2    1    2    0    0  0.00000000000E+00  0.00000000000E+00  0.15859730201E+04  0.18224609754E+04  0.89780487102E+03 0.  0.
        1    1    3    3  502    0  0.61475712002E+02  0.16833971624E+03  0.16284504184E+04  0.16382821150E+04  0.50400001928E-02 0.  1.
       -1    1    3    3    0  502 -0.61475712002E+02 -0.16833971624E+03 -0.42477398269E+02  0.18417886041E+03  0.50400001928E-02 0. -1.
</event>
<event>
 5   0  0.2332791E-04  0.8995528E+03  0.7818609E-02  0.9426141E-01
        1   -1    0    0  501    0  0.00000000000E+00  0.00000000000E+00  0.44795030180E+03  0.44795030183E+03  0.50400001928E-02 0. -1.
       -1   -1    0    0    0  501  0.00000000000E+00  0.00000000000E+00 -0.45160998166E+03  0.45160998168E+03  0.50400001928E-02 0.  1.
    10030    2    1    2    0    0  0.00000000000E+00  0.00000000000E+00 -0.36596798536E+01  0.89956028351E+03  0.89955283915E+03 0.  0.
        2    1    3    3  502    0  0.82133213978E+02  0.18211326117E+03  0.40114709564E+03  0.44814071125E+03  0.25500000920E-02 0. -1.
       -2    1    3    3    0  502 -0.82133213978E+02 -0.18211326117E+03 -0.40480677550E+03  0.45141957227E+03  0.25500000920E-02 0.  1.
</event>
<event>
 5   0  0.2450427E-04  0.8936367E+03  0.7818609E-02  0.9433571E-01
        1   -1    0    0  501    0  0.00000000000E+00  0.00000000000E+00  0.11448978818E+04  0.11448978818E+04  0.50400001928E-02 0.  1.
       -1   -1    0    0    0  501  0.00000000000E+00  0.00000000000E+00 -0.17437943232E+03  0.17437943240E+03  0.50400001928E-02 0. -1.
    10030    2    1    2    0    0  0.00000000000E+00  0.00000000000E+00  0.97051844947E+03  0.13192773142E+04  0.89363671087E+03 0.  0.
        3    1    3    3  502    0  0.34901094705E+03 -0.25521169591E+03  0.31885585586E+03  0.53722501608E+03  0.10100000352E+00 0. -1.
       -3    1    3    3    0  502 -0.34901094705E+03  0.25521169591E+03  0.65166259361E+03  0.78205229812E+03  0.10100000352E+00 0.  1.
</event>
<event>
 5   0  0.2356918E-04  0.8977841E+03  0.7818609E-02  0.9428356E-01
       -1   -1    0    0    0  501  0.00000000000E+00  0.00000000000E+00  0.21248534929E+03  0.21248534935E+03  0.50400001928E-02 0.  1.
        1   -1    0    0  501    0  0.00000000000E+00  0.00000000000E+00 -0.94831985102E+03  0.94831985103E+03  0.50400001928E-02 0. -1.
    10030    2    1    2    0    0  0.00000000000E+00  0.00000000000E+00 -0.73583450173E+03  0.11608052004E+04  0.89778410505E+03 0.  0.
        5    1    3    3  502    0 -0.59522992315E+02 -0.79140188939E+02 -0.93398851330E+03  0.93923521500E+03  0.46999998093E+01 0. -1.
       -5    1    3    3    0  502  0.59522992315E+02  0.79140188939E+02  0.19815401157E+03  0.22156998538E+03  0.46999998093E+01 0.  1.
</event>
<event>
 5   0  0.4243516E-04  0.8983852E+03  0.7818609E-02  0.9427602E-01
        2   -1    0    0  501    0  0.00000000000E+00  0.00000000000E+00  0.13418231695E+04  0.13418231695E+04  0.25500000920E-02 0. -1.
       -2   -1    0    0    0  501  0.00000000000E+00  0.00000000000E+00 -0.15037301279E+03  0.15037301281E+03  0.25500000920E-02 0.  1.
    10030    2    1    2    0    0  0.00000000000E+00  0.00000000000E+00  0.11914501567E+04  0.14921961823E+04  0.89838520167E+03 0.  0.
        1    1    3    3  502    0 -0.25676036752E+03  0.33160465325E+03  0.32848618227E+03  0.53272009944E+03  0.50400001928E-02 0.  1.
       -1    1    3    3    0  502  0.25676036752E+03 -0.33160465325E+03  0.86296397444E+03  0.95947608287E+03  0.50400001928E-02 0. -1.
</event>
<event>
 5   0  0.1596250E-04  0.8999930E+03  0.7818609E-02  0.9425590E-01
        3   -1    0    0  501    0  0.00000000000E+00  0.00000000000E+00  0.12290559070E+04  0.12290559111E+04  0.10100000352E+00 0. -1.
       -3   -1    0    0    0  501  0.00000000000E+00  0.00000000000E+00 -0.16475802229E+03  0.16475805324E+03  0.10100000352E+00 0.  1.
    10030    2    1    2    0    0  0.00000000000E+00  0.00000000000E+00  0.10642978847E+04  0.13938139644E+04  0.89999298882E+03 0.  0.
        4    1    3    3  502    0 -0.10346854535E+03 -0.23219961168E+01 -0.14607323249E+03  0.17902551129E+03  0.12699999809E+01 0.  1.
       -4    1    3    3    0  502  0.10346854535E+03  0.23219961168E+01  0.12103711172E+04  0.12147884531E+04  0.12699999809E+01 0. -1.
</event>
<event>
 5   0  0.2356918E-04  0.9002290E+03  0.7818609E-02  0.9425295E-01
        1   -1    0    0  501    0  0.00000000000E+00  0.00000000000E+00  0.14224751701E+04  0.14224751701E+04  0.50400001928E-02 0.  1.
       -1   -1    0    0    0  501  0.00000000000E+00  0.00000000000E+00 -0.14242993358E+03  0.14242993367E+03  0.50400001928E-02 0. -1.
    10030    2    1    2    0    0  0.00000000000E+00  0.00000000000E+00  0.12800452365E+04  0.15649051037E+04  0.90022895769E+03 0.  0.
        5    1    3    3  502    0  0.94304253125E+02 -0.28078053903E+01 -0.12500509467E+03  0.15668292702E+03  0.46999998093E+01 0. -1.
       -5    1    3    3    0  502 -0.94304253125E+02  0.28078053903E+01  0.14050503312E+04  0.14082221767E+04  0.46999998093E+01 0.  1.
</event>
<event>
 5   0  0.1596250E-04  0.8996918E+03  0.7818609E-02  0.9425967E-01
        3   -1    0    0  501    0  0.00000000000E+00  0.00000000000E+00  0.38294170112E+03  0.38294171444E+03  0.10100000352E+00 0.  1.
       -3   -1    0    0    0  501  0.00000000000E+00  0.00000000000E+00 -0.52843893657E+03  0.52843894623E+03  0.10100000352E+00 0. -1.
    10030    2    1    2    0    0  0.00000000000E+00  0.00000000000E+00 -0.14549723545E+03  0.91138066067E+03  0.89969176006E+03 0.  0.
        5    1    3    3  502    0  0.94639634479E+02  0.41326894975E+03 -0.22500554705E+03  0.47999736608E+03  0.46999998093E+01 0. -1.
       -5    1    3    3    0  502 -0.94639634479E+02 -0.41326894975E+03  0.79508311595E+02  0.43138329459E+03  0.46999998093E+01 0.  1.
</event>
<event>
 5   0  0.4236284E-04  0.8999021E+03  0.7818609E-02  0.9425704E-01
        2   -1    0    0  501    0  0.00000000000E+00  0.00000000000E+00  0.17299238065E+04  0.17299238065E+04  0.25500000920E-02 0.  1.
       -2   -1    0    0    0  501  0.00000000000E+00  0.00000000000E+00 -0.11703171033E+03  0.11703171036E+03  0.25500000920E-02 0. -1.
    10030    2    1    2    0    0  0.00000000000E+00  0.00000000000E+00  0.16128920961E+04  0.18469555168E+04  0.89990208766E+03 0.  0.
        2    1    3    3  502    0  0.14244897171E+03  0.14073163206E+03  0.16334339311E+04  0.16456620276E+04  0.25500000920E-02 0.  1.
       -2    1    3    3    0  502 -0.14244897171E+03 -0.14073163206E+03 -0.20541834992E+02  0.20129348920E+03  0.25500000920E-02 0. -1.
</event>
<event>
 5   0  0.2332791E-04  0.8996198E+03  0.7818609E-02  0.9426057E-01
       -1   -1    0    0    0  501  0.00000000000E+00  0.00000000000E+00  0.56002397228E+03  0.56002397230E+03  0.50400001928E-02 0. -1.
        1   -1    0    0  501    0  0.00000000000E+00  0.00000000000E+00 -0.36128624278E+03  0.36128624281E+03  0.50400001928E-02 0.  1.
    10030    2    1    2    0    0  0.00000000000E+00  0.00000000000E+00  0.19873772950E+03  0.92131021511E+03  0.89961982378E+03 0.  0.
        2    1    3    3  502    0  0.21025925785E+03 -0.12535626061E+03 -0.28709662847E+03  0.37728983775E+03  0.25500000920E-02 0.  1.
       -2    1    3    3    0  502 -0.21025925785E+03  0.12535626061E+03  0.48583435797E+03  0.54402037736E+03  0.25500000920E-02 0. -1.
</event>
<event>
 5   0  0.3959804E-04  0.9000929E+03  0.7818609E-02  0.9425465E-01
        2   -1    0    0  501    0  0.00000000000E+00  0.00000000000E+00  0.58031844057E+03  0.58031844058E+03  0.25500000920E-02 0.  1.
       -2   -1    0    0    0  501  0.00000000000E+00  0.00000000000E+00 -0.34901837710E+03  0.34901837711E+03  0.25500000920E-02 0. -1.
    10030    2    1    2    0    0  0.00000000000E+00  0.00000000000E+00  0.23130006347E+03  0.92933681769E+03  0.90009288485E+03 0.  0.
        5    1    3    3  502    0 -0.75479427837E+02 -0.79116705943E+02 -0.33506831217E+03  0.35249037009E+03  0.46999998093E+01 0. -1.
       -5    1    3    3    0  502  0.75479427837E+02  0.79116705943E+02  0.56636837564E+03  0.57684644760E+03  0.46999998093E+01 0.  1.
</event>
<event>
 5   0  0.4033144E-04  0.9003464E+03  0.7818609E-02  0.9425149E-01
        2   -1    0    0  501    0  0.00000000000E+00  0.00000000000E+00  0.14357894233E+04  0.14357894233E+04  0.25500000920E-02 0. -1.
       -2   -1    0    0    0  501  0.00000000000E+00  0.00000000000E+00 -0.14114598548E+03  0.14114598550E+03  0.25500000920E-02 0.  1.
    10030    2    1    2    0    0  0.00000000000E+00  0.00000000000E+00  0.12946434379E+04  0.15769354088E+04  0.90034640692E+03 0.  0.
        4    1    3    3  502    0  0.27500690750E+03 -0.97648125147E+02  0.12476728847E+04  0.12813481945E+04  0.12699999809E+01 0. -1.
       -4    1    3    3    0  502 -0.27500690750E+03  0.97648125147E+02  0.46970553196E+02  0.29558721434E+03  0.12699999809E+01 0.  1.
</event>
<event>
 5   0  0.4033144E-04  0.9001311E+03  0.7818609E-02  0.9425418E-01
        2   -1    0    0  501    0  0.00000000000E+00  0.00000000000E+00  0.18486831534E+04  0.18486831534E+04  0.25500000920E-02 0.  1.
       -2   -1    0    0    0  501  0.00000000000E+00  0.00000000000E+00 -0.10956935127E+03  0.10956935130E+03  0.25500000920E-02 0. -1.
    10030    2    1    2    0    0  0.00000000000E+00  0.00000000000E+00  0.17391138021E+04  0.19582525047E+04  0.90013113233E+03 0.  0.
        4    1    3    3  502    0 -0.32203242237E+03  0.11187479435E+03  0.15087914713E+04  0.15468271291E+04  0.12699999809E+01 0.  1.
       -4    1    3    3    0  502  0.32203242237E+03 -0.11187479435E+03  0.23032233081E+03  0.41142537554E+03  0.12699999809E+01 0. -1.
</event>
<event>
 5   0  0.2356918E-04  0.8994495E+03  0.7818609E-02  0.9426270E-01
        1   -1    0    0  501    0  0.00000000000E+00  0.00000000000E+00  0.33878154299E+03  0.33878154303E+03  0.50400001928E-02 0. -1.
       -1   -1    0    0    0  501  0.00000000000E+00  0.00000000000E+00 -0.59699931489E+03  0.59699931491E+03  0.50400001928E-02 0.  1.
    10030    2    1    2    0    0  0.00000000000E+00  0.00000000000E+00 -0.25821777190E+03  0.93578085794E+03  0.89944949628E+03 0.  0.
        5    1    3    3  502    0  0.18488293414E+03 -0.32947882843E+03  0.12465371260E+03  0.39786761088E+03  0.46999998093E+01 0. -1.
       -5    1    3    3    0  502 -0.18488293414E+03  0.32947882843E+03 -0.38287148450E+03  0.53791324706E+03  0.46999998093E+01 0.  1.
</event>
<event>
 5   0  0.2356918E-04  0.9005980E+03  0.7818609E-02  0.9424834E-01
       -1   -1    0    0    0  501  0.00000000000E+00  0.00000000000E+00  0.26670938621E+03  0.26670938626E+03  0.50400001928E-02 0. -1.
        1   -1    0    0  501    0  0.00000000000E+00  0.00000000000E+00 -0.76026274731E+03  0.76026274733E+03  0.50400001928E-02 0.  1.
    10030    2    1    2    0    0  0.00000000000E+00  0.00000000000E+00 -0.49355336110E+03  0.10269721336E+04  0.90059804736E+03 0.  0.
        5    1    3    3  502    0  0.25586866149E+03  0.89726547160E+02  0.16314899608E+03  0.31647955719E+03  0.46999998093E+01 0. -1.
       -5    1    3    3    0  502 -0.25586866149E+03 -0.89726547160E+02 -0.65670235718E+03  0.71049257640E+03  0.46999998093E+01 0.  1.
</event>
<event>
 5   0  0.2356918E-04  0.8999561E+03  0.7818609E-02  0.9425636E-01
       -1   -1    0    0    0  501  0.00000000000E+00  0.00000000000E+00  0.35218120729E+03  0.35218120733E+03  0.50400001928E-02 0.  1.
        1   -1    0    0  501    0  0.00000000000E+00  0.00000000000E+00 -0.57493205294E+03  0.57493205296E+03  0.50400001928E-02 0. -1.
    10030    2    1    2    0    0  0.00000000000E+00  0.00000000000E+00 -0.22275084565E+03  0.92711326029E+03  0.89995614236E+03 0.  0.
        5    1    3    3  502    0  0.20922569227E+03 -0.89703867030E+02 -0.51120584492E+03  0.55962101457E+03  0.46999998093E+01 0. -1.
       -5    1    3    3    0  502 -0.20922569227E+03  0.89703867030E+02  0.28845499927E+03  0.36749224572E+03  0.46999998093E+01 0.  1.
</event>
<event>
 5   0  0.4243516E-04  0.8992063E+03  0.7818609E-02  0.9426574E-01
       -2   -1    0    0    0  501  0.00000000000E+00  0.00000000000E+00  0.19193737689E+03  0.19193737691E+03  0.25500000920E-02 0.  1.
        2   -1    0    0  501    0  0.00000000000E+00  0.00000000000E+00 -0.10531716887E+04  0.10531716887E+04  0.25500000920E-02 0. -1.
    10030    2    1    2    0    0  0.00000000000E+00  0.00000000000E+00 -0.86123431179E+03  0.12451090656E+04  0.89920634196E+03 0.  0.
        1    1    3    3  502    0 -0.77806036851E+02 -0.44261919006E+03 -0.41217004708E+03  0.60979478065E+03  0.50400001928E-02 0.  1.
       -1    1    3    3    0  502  0.77806036851E+02  0.44261919006E+03 -0.44906426471E+03  0.63531428494E+03  0.50400001928E-02 0. -1.
</event>
<event>
 5   0  0.3959804E-04  0.8970938E+03  0.7818609E-02  0.9429222E-01
        2   -1    0    0  501    0  0.00000000000E+00  0.00000000000E+00  0.58480724935E+03  0.58480724936E+03  0.25500000920E-02 0. -1.
       -2   -1    0    0    0  501  0.00000000000E+00  0.00000000000E+00 -0.34403528937E+03  0.34403528938E+03  0.25500000920E-02 0.  1.
    10030    2    1    2    0    0  0.00000000000E+00  0.00000000000E+00  0.24077195998E+03  0.92884253874E+03  0.89709382177E+03 0.  0.
        5    1    3    3  502    0  0.14830430580E+03 -0.42106860941E+03  0.16527109317E+03  0.47605626263E+03  0.46999998093E+01 0.  1.
       -5    1    3    3    0  502 -0.14830430580E+03  0.42106860941E+03  0.75500866805E+02  0.45278627611E+03  0.46999998093E+01 0. -1.
</event>
<event>
 5   0  0.2450427E-04  0.8999757E+03  0.7818609E-02  0.9425612E-01
        1   -1    0    0  501    0  0.00000000000E+00  0.00000000000E+00  0.96156067488E+03  0.96156067489E+03  0.50400001928E-02 0.  1.
       -1   -1    0    0    0  501  0.00000000000E+00  0.00000000000E+00 -0.21058375916E+03  0.21058375922E+03  0.50400001928E-02 0. -1.
    10030    2    1    2    0    0  0.00000000000E+00  0.00000000000E+00  0.75097691572E+03  0.11721444341E+04  0.89997569215E+03 0.  0.
        3    1    3    3  502    0 -0.36402066717E+03 -0.25893648771E+02  0.32609729612E+02  0.36639450302E+03  0.10100000352E+00 0. -1.
       -3    1    3    3    0  502  0.36402066717E+03  0.25893648771E+02  0.71836718611E+03  0.80574993109E+03  0.10100000352E+00 0.  1.
</event>
<event>
 5   0  0.4033144E-04  0.8999635E+03  0.7818609E-02  0.9425627E-01
        2   -1    0    0  501    0  0.00000000000E+00  0.00000000000E+00  0.96569569366E+03  0.96569569367E+03  0.25500000920E-02 0. -1.
       -2   -1    0    0    0  501  0.00000000000E+00  0.00000000000E+00 -0.20967637447E+03  0.20967637449E+03  0.25500000920E-02 0.  1.
    10030    2    1    2    0    0  0.00000000000E+00  0.00000000000E+00  0.75601931919E+03  0.11753720682E+04  0.89996349238E+03 0.  0.
        4    1    3    3  502    0 -0.26475983286E+03  0.14138517241E+03  0.81585713948E+03  0.86931698535E+03  0.12699999809E+01 0. -1.
       -4    1    3    3    0  502  0.26475983286E+03 -0.14138517241E+03 -0.59837820290E+02  0.30605508281E+03  0.12699999809E+01 0.  1.
</event>
<event>
 5   0  0.4243516E-04  0.9034780E+03  0.7818609E-02  0.9421244E-01
       -2   -1    0    0    0  501  0.00000000000E+00  0.00000000000E+00  0.92409054614E+02  0.92409054649E+02  0.25500000920E-02 0.  1.
        2   -1    0    0  501    0  0.00000000000E+00  0.00000000000E+00 -0.22083132248E+04  0.22083132248E+04  0.25500000920E-02 0. -1.
    10030    2    1    2    0    0  0.00000000000E+00  0.00000000000E+00 -0.21159041702E+04  0.23007222795E+04  0.90347802949E+03 0.  0.
        1    1    3    3  502    0 -0.95654314499E+02  0.21840979135E+03 -0.20350170679E+04  0.20489380302E+04  0.50400001928E-02 0. -1.
       -1    1    3    3    0  502  0.95654314499E+02 -0.21840979135E+03 -0.80887102286E+02  0.25178424927E+03  0.50400001928E-02 0.  1.
</event>
<event>
 5   0  0.1596250E-04  0.8999100E+03  0.7818609E-02  0.9425694E-01
       -3   -1    0    0    0  501  0.00000000000E+00  0.00000000000E+00  0.60419351511E+03  0.60419352355E+03  0.10100000352E+00 0. -1.
        3   -1    0    0  501    0  0.00000000000E+00  0.00000000000E+00 -0.33509043790E+03  0.33509045313E+03  0.10100000352E+00 0.  1.
    10030    2    1    2    0    0  0.00000000000E+00  0.00000000000E+00  0.26910307721E+03  0.93928397668E+03  0.89990995254E+03 0.  0.
        5    1    3    3  502    0  0.35347460362E+03 -0.13426288150E+03  0.38907880767E+03  0.54256356801E+03  0.46999998093E+01 0. -1.
       -5    1    3    3    0  502 -0.35347460362E+03  0.13426288150E+03 -0.11997573046E+03  0.39672040867E+03  0.46999998093E+01 0.  1.
</event>
<event>
 5   0  0.2308362E-04  0.9000217E+03  0.7818609E-02  0.9425554E-01
       -1   -1    0    0    0  501  0.00000000000E+00  0.00000000000E+00  0.30351970783E+03  0.30351970787E+03  0.50400001928E-02 0.  1.
        1   -1    0    0  501    0  0.00000000000E+00  0.00000000000E+00 -0.66720471220E+03  0.66720471222E+03  0.50400001928E-02 0. -1.
    10030    2    1    2    0    0  0.00000000000E+00  0.00000000000E+00 -0.36368500437E+03  0.97072442009E+03  0.90002173160E+03 0.  0.
        1    1    3    3  502    0  0.30440039976E+02 -0.18482898423E+02 -0.66568253960E+03  0.66663442539E+03  0.50400001928E-02 0. -1.
       -1    1    3    3    0  502 -0.30440039976E+02  0.18482898423E+02  0.30199753523E+03  0.30408999470E+03  0.50400001928E-02 0.  1.
</event>
<event>
 5   0  0.4110039E-04  0.8996979E+03  0.7818609E-02  0.9425959E-01
        2   -1    0    0  501    0  0.00000000000E+00  0.00000000000E+00  0.11067947793E+04  0.11067947793E+04  0.25500000920E-02 0.  1.
       -2   -1    0    0    0  501  0.00000000000E+00  0.00000000000E+00 -0.18283793849E+03  0.18283793850E+03  0.25500000920E-02 0. -1.
    10030    2    1    2    0    0  0.00000000000E+00  0.00000000000E+00  0.92395684083E+03  0.12896327178E+04  0.89969789550E+03 0.  0.
        3    1    3    3  502    0 -0.40473365415E+03  0.79346544114E+02  0.20452785454E+03  0.46036600477E+03  0.10100000352E+00 0. -1.
       -3    1    3    3    0  502  0.40473365415E+03 -0.79346544114E+02  0.71942898629E+03  0.82926671305E+03  0.10100000352E+00 0.  1.
</event>
<event>
 5   0  0.2450427E-04  0.9001273E+03  0.7818609E-02  0.9425422E-01
        1   -1    0    0  501    0  0.00000000000E+00  0.00000000000E+00  0.98947441912E+03  0.98947441914E+03  0.50400001928E-02 0. -1.
       -1   -1    0    0    0  501  0.00000000000E+00  0.00000000000E+00 -0.20471198417E+03  0.20471198423E+03  0.50400001928E-02 0.  1.
    10030    2    1    2    0    0  0.00000000000E+00  0.00000000000E+00  0.78476243495E+03  0.11941864034E+04  0.90012726138E+03 0.  0.
        3    1    3    3  502    0 -0.23136263286E+03  0.37685566326E+03  0.28131608732E+03  0.52410648727E+03  0.10100000352E+00 0. -1.
       -3    1    3    3    0  502  0.23136263286E+03 -0.37685566326E+03  0.50344634763E+03  0.67007991610E+03  0.10100000352E+00 0.  1.
</event>
<event>
 5   0  0.2356918E-04  0.8999095E+03  0.7818609E-02  0.9425695E-01
        1   -1    0    0  501    0  0.00000000000E+00  0.00000000000E+00  0.28742354726E+03  0.28742354730E+03  0.50400001928E-02 0. -1.
       -1   -1    0    0    0  501  0.00000000000E+00  0.00000000000E+00 -0.70439344667E+03  0.70439344669E+03  0.50400001928E-02 0.  1.
    10030    2    1    2    0    0  0.00000000000E+00  0.00000000000E+00 -0.41696989941E+03  0.99181699399E+03  0.89990946909E+03 0.  0.
        5    1    3    3  502    0  0.39971500086E+03 -0.20303251041E+03 -0.25034979376E+03  0.51350890102E+03  0.46999998093E+01 0.  1.
       -5    1    3    3    0  502 -0.39971500086E+03  0.20303251041E+03 -0.16662010566E+03  0.47830809297E+03  0.46999998093E+01 0. -1.
</event>
<event>
 5   0  0.1596250E-04  0.9012432E+03  0.7818609E-02  0.9424029E-01
       -3   -1    0    0    0  501  0.00000000000E+00  0.00000000000E+00  0.42925271806E+03  0.42925272994E+03  0.10100000352E+00 0. -1.
        3   -1    0    0  501    0  0.00000000000E+00  0.00000000000E+00 -0.47305423755E+03  0.47305424833E+03  0.10100000352E+00 0.  1.
    10030    2    1    2    0    0  0.00000000000E+00  0.00000000000E+00 -0.43801519491E+02  0.90230697827E+03  0.90124320243E+03 0.  0.
        3    1    3    3  502    0  0.33505606510E+03  0.26770610537E+03 -0.16037776095E+03  0.45787570587E+03  0.10100000352E+00 0.  1.
       -3    1    3    3    0  502 -0.33505606510E+03 -0.26770610537E+03  0.11657624145E+03  0.44443127240E+03  0.10100000352E+00 0. -1.
</event>
<event>
 5   0  0.2308362E-04  0.9000925E+03  0.7818609E-02  0.9425466E-01
       -1   -1    0    0    0  501  0.00000000000E+00  0.00000000000E+00  0.26367818884E+03  0.26367818889E+03  0.50400001928E-02 0. -1.
        1   -1    0    0  501    0  0.00000000000E+00  0.00000000000E+00 -0.76813944162E+03  0.76813944164E+03  0.50400001928E-02 0.  1.
    10030    2    1    2    0    0  0.00000000000E+00  0.00000000000E+00 -0.50446125278E+03  0.10318176305E+04  0.90009247698E+03 0.  0.
        1    1    3    3  502    0  0.21298267745E+03 -0.34375086101E+03 -0.47866039267E+03  0.62661155980E+03  0.50400001928E-02 0.  1.
       -1    1    3    3    0  502 -0.21298267745E+03  0.34375086101E+03 -0.25800860108E+02  0.40520607072E+03  0.50400001928E-02 0. -1.
</event>
<event>
 5   0  0.2308362E-04  0.8999356E+03  0.7818609E-02  0.9425662E-01
       -1   -1    0    0    0  501  0.00000000000E+00  0.00000000000E+00  0.75881175003E+02  0.75881175171E+02  0.50400001928E-02 0.  1.
        1   -1    0    0  501    0  0.00000000000E+00  0.00000000000E+00 -0.26682642114E+04  0.26682642114E+04  0.50400001928E-02 0. -1.
    10030    2    1    2    0    0  0.00000000000E+00  0.00000000000E+00 -0.25923830364E+04  0.27441453865E+04  0.89993560617E+03 0.  0.
        1    1    3    3  502    0 -0.37898585642E+02 -0.89530623234E+02  0.43471903216E+02  0.10649808301E+03  0.50400001928E-02 0.  1.
       -1    1    3    3    0  502  0.37898585642E+02  0.89530623234E+02 -0.26358549396E+04  0.26376473035E+04  0.50400001928E-02 0. -1.
</event>
<event>
 5   0  0.1596250E-04  0.9000360E+03  0.7818609E-02  0.9425536E-01
       -3   -1    0    0    0  501  0.00000000000E+00  0.00000000000E+00  0.42465431692E+03  0.42465432893E+03  0.10100000352E+00 0. -1.
        3   -1    0    0  501    0  0.00000000000E+00  0.00000000000E+00 -0.47689660579E+03  0.47689661649E+03  0.10100000352E+00 0.  1.
    10030    2    1    2    0    0  0.00000000000E+00  0.00000000000E+00 -0.52242288874E+02  0.90155094541E+03  0.90003602729E+03 0.  0.
        3    1    3    3  502    0 -0.24649402335E+01  0.38222718357E+03  0.21179180324E+03  0.43698910045E+03  0.10100000352E+00 0. -1.
       -3    1    3    3    0  502  0.24649402335E+01 -0.38222718357E+03 -0.26403409212E+03  0.46456184496E+03  0.10100000352E+00 0.  1.
</event>
<event>
 5   0  0.4110039E-04  0.8999907E+03  0.7818609E-02  0.9425593E-01
       -2   -1    0    0    0  501  0.00000000000E+00  0.00000000000E+00  0.10703805690E+03  0.10703805693E+03  0.25500000920E-02 0. -1.
        2   -1    0    0  501    0  0.00000000000E+00  0.00000000000E+00 -0.18918115974E+04  0.18918115974E+04  0.25500000920E-02 0.  1.
    10030    2    1    2    0    0  0.00000000000E+00  0.00000000000E+00 -0.17847735405E+04  0.19988496544E+04  0.89999074984E+03 0.  0.
        3    1    3    3  502    0  0.24889511195E+03 -0.99997306983E+02 -0.16948525317E+04  0.17159467803E+04  0.10100000352E+00 0.  1.
       -3    1    3    3    0  502 -0.24889511195E+03  0.99997306983E+02 -0.89921008795E+02  0.28290287411E+03  0.10100000352E+00 0. -1.
</event>
<event>
 5   0  0.2308362E-04  0.8999449E+03  0.7818609E-02  0.9425650E-01
       -1   -1    0    0    0  501  0.00000000000E+00  0.00000000000E+00  0.71360567895E+03  0.71360567897E+03  0.50400001928E-02 0. -1.
        1   -1    0    0  501    0  0.00000000000E+00  0.00000000000E+00 -0.28373541484E+03  0.28373541488E+03  0.50400001928E-02 0.  1.
    10030    2    1    2    0    0  0.00000000000E+00  0.00000000000E+00  0.42987026411E+03  0.99734109385E+03  0.89994489471E+03 0.  0.
        1    1    3    3  502    0 -0.39842587257E+03 -0.20829582975E+03  0.23551575329E+03  0.50754113006E+03  0.50400001928E-02 0. -1.
       -1    1    3    3    0  502  0.39842587257E+03  0.20829582975E+03  0.19435451083E+03  0.48979996379E+03  0.50400001928E-02 0.  1.
</event>
<event>
 5   0  0.2332791E-04  0.9059394E+03  0.7818609E-02  0.9418187E-01
       -1   -1    0    0    0  501  0.00000000000E+00  0.00000000000E+00  0.12938605709E+03  0.12938605719E+03  0.50400001928E-02 0. -1.
        1   -1    0    0  501    0  0.00000000000E+00  0.00000000000E+00 -0.15858088869E+04  0.15858088869E+04  0.50400001928E-02 0.  1.
    10030    2    1    2    0    0  0.00000000000E+00  0.00000000000E+00 -0.14564228298E+04  0.17151949441E+04  0.90593942242E+03 0.  0.
        2    1    3    3  502    0  0.74219965142E+02 -0.25196709079E+03 -0.29528972520E+02  0.26432551578E+03  0.25500000920E-02 0. -1.
       -2    1    3    3    0  502 -0.74219965142E+02  0.25196709079E+03 -0.14268938573E+04  0.14508694283E+04  0.25500000920E-02 0.  1.
</event>
<event>
 5   0  0.2450427E-04  0.8998055E+03  0.7818609E-02  0.9425825E-01
        1   -1    0    0  501    0  0.00000000000E+00  0.00000000000E+00  0.67947164716E+03  0.67947164718E+03  0.50400001928E-02 0.  1.
       -1   -1    0    0    0  501  0.00000000000E+00  0.00000000000E+00 -0.29789689688E+03  0.29789689692E+03  0.50400001928E-02 0. -1.
    10030    2    1    2    0    0  0.00000000000E+00  0.00000000000E+00  0.38157475028E+03  0.97736854410E+03  0.89980552396E+03 0.  0.
        3    1    3    3  502    0  0.78079966025E+02 -0.75289160485E+02 -0.28348225171E+03  0.30352452293E+03  0.10100000352E+00 0. -1.
       -3    1    3    3    0  502 -0.78079966025E+02  0.75289160485E+02  0.66505700199E+03  0.67384402118E+03  0.10100000352E+00 0.  1.
</event>
<event>
 5   0  0.4243516E-04  0.9005747E+03  0.7818609E-02  0.9424863E-01
        2   -1    0    0  501    0  0.00000000000E+00  0.00000000000E+00  0.56643965972E+03  0.56643965973E+03  0.25500000920E-02 0. -1.
       -2   -1    0    0    0  501  0.00000000000E+00  0.00000000000E+00 -0.35795285147E+03  0.35795285148E+03  0.25500000920E-02 0.  1.
    10030    2    1    2    0    0  0.00000000000E+00  0.00000000000E+00  0.20848680825E+03  0.92439251121E+03  0.90057468628E+03 0.  0.
        1    1    3    3  502    0 -0.35823161827E+03 -0.37124519465E+02 -0.17318344205E+03  0.39962560842E+03  0.50400001928E-02 0.  1.
       -1    1    3    3    0  502  0.35823161827E+03  0.37124519465E+02  0.38167025030E+03  0.52476690279E+03  0.50400001928E-02 0. -1.
</event>
<event>
 5   0  0.4110039E-04  0.9000624E+03  0.7818609E-02  0.9425503E-01
        2   -1    0    0  501    0  0.00000000000E+00  0.00000000000E+00  0.84055972087E+03  0.84055972087E+03  0.25500000920E-02 0.  1.
       -2   -1    0    0    0  501  0.00000000000E+00  0.00000000000E+00 -0.24094428437E+03  0.24094428438E+03  0.25500000920E-02 0. -1.
    10030    2    1    2    0    0  0.00000000000E+00  0.00000000000E+00  0.59961543650E+03  0.10815040053E+04  0.90006235434E+03 0.  0.
        3    1    3    3  502    0  0.36545911850E+03  0.68616660006E+02 -0.47881391278E+01  0.37187571822E+03  0.10100000352E+00 0. -1.
       -3    1    3    3    0  502 -0.36545911850E+03 -0.68616660006E+02  0.60440357562E+03  0.70962828703E+03  0.10100000352E+00 0.  1.
</event>
<event>
 5   0  0.2351435E-04  0.9009523E+03  0.7818609E-02  0.9424392E-01
       -1   -1    0    0    0  501  0.00000000000E+00  0.00000000000E+00  0.32012671359E+03  0.32012671363E+03  0.50400001928E-02 0. -1.
        1   -1    0    0  501    0  0.00000000000E+00  0.00000000000E+00 -0.63390131430E+03  0.63390131432E+03  0.50400001928E-02 0.  1.
    10030    2    1    2    0    0  0.00000000000E+00  0.00000000000E+00 -0.31377460071E+03  0.95402802796E+03  0.90095226182E+03 0.  0.
        4    1    3    3  502    0  0.35526703657E+03  0.26907435763E+03 -0.22641714409E+03  0.49988199932E+03  0.12699999809E+01 0.  1.
       -4    1    3    3    0  502 -0.35526703657E+03 -0.26907435763E+03 -0.87357456624E+02  0.45414602864E+03  0.12699999809E+01 0. -1.
</event>
<event>
 5   0  0.2332791E-04  0.8999049E+03  0.7818609E-02  0.9425700E-01
       -1   -1    0    0    0  501  0.00000000000E+00  0.00000000000E+00  0.19010429615E+03  0.19010429622E+03  0.50400001928E-02 0. -1.
        1   -1    0    0  501    0  0.00000000000E+00  0.00000000000E+00 -0.10649796135E+04  0.10649796135E+04  0.50400001928E-02 0.  1.
    10030    2    1    2    0    0  0.00000000000E+00  0.00000000000E+00 -0.87487531734E+03  0.12550839097E+04  0.89990488361E+03 0.  0.
        2    1    3    3  502    0 -0.22612124699E+03 -0.13894396579E+03 -0.94419213046E+03  0.98078286241E+03  0.25500000920E-02 0.  1.
       -2    1    3    3    0  502  0.22612124699E+03  0.13894396579E+03  0.69316813119E+02  0.27430104731E+03  0.25500000920E-02 0. -1.
</event>
<event>
 5   0  0.2351435E-04  0.8994188E+03  0.7818609E-02  0.9426308E-01
       -1   -1    0    0    0  501  0.00000000000E+00  0.00000000000E+00  0.23618169778E+03  0.23618169783E+03  0.50400001928E-02 0.  1.
        1   -1    0    0  501    0  0.00000000000E+00  0.00000000000E+00 -0.85628369301E+03  0.85628369302E+03  0.50400001928E-02 0. -1.
    10030    2    1    2    0    0  0.00000000000E+00  0.00000000000E+00 -0.62010199523E+03  0.10924653908E+04  0.89941878217E+03 0.  0.
        4    1    3    3  502    0  0.37185323913E+03 -0.17768967567E+03 -0.91455627284E+02  0.42215423360E+03  0.12699999809E+01 0.  1.
       -4    1    3    3    0  502 -0.37185323913E+03  0.17768967567E+03 -0.52864636794E+03  0.67031115725E+03  0.12699999809E+01 0. -1.
</event>
<event>
 5   0  0.2308362E-04  0.8998319E+03  0.7818609E-02  0.9425792E-01
        1   -1    0    0  501    0  0.00000000000E+00  0.00000000000E+00  0.50633129581E+03  0.50633129583E+03  0.50400001928E-02 0.  1.
       -1   -1    0    0    0  501  0.00000000000E+00  0.00000000000E+00 -0.39978643127E+03  0.39978643130E+03  0.50400001928E-02 0. -1.
    10030    2    1    2    0    0  0.00000000000E+00  0.00000000000E+00  0.10654486454E+03  0.90611772713E+03  0.89983194390E+03 0.  0.
        1    1    3    3  502    0  0.32417316356E+03 -0.14883851322E+03 -0.22283858485E+03  0.42059265081E+03  0.50400001928E-02 0. -1.
       -1    1    3    3    0  502 -0.32417316356E+03  0.14883851322E+03  0.32938344939E+03  0.48552507633E+03  0.50400001928E-02 0.  1.
</event>
<event>
 5   0  0.2356918E-04  0.8999297E+03  0.7818609E-02  0.9425669E-01
        1   -1    0    0  501    0  0.00000000000E+00  0.00000000000E+00  0.87375299290E+03  0.87375299291E+03  0.50400001928E-02 0.  1.
       -1   -1    0    0    0  501  0.00000000000E+00  0.00000000000E+00 -0.23172265683E+03  0.23172265688E+03  0.50400001928E-02 0. -1.
    10030    2    1    2    0    0  0.00000000000E+00  0.00000000000E+00  0.64203033607E+03  0.11054756498E+04  0.89992969717E+03 0.  0.
        5    1    3    3  502    0 -0.33263944462E+03  0.14778080734E+03  0.64592258431E+03  0.74143525817E+03  0.46999998093E+01 0.  1.
       -5    1    3    3    0  502  0.33263944462E+03 -0.14778080734E+03 -0.38922482400E+01  0.36404039162E+03  0.46999998093E+01 0. -1.
</event>
<event>
 5   0  0.2351435E-04  0.8999705E+03  0.7818609E-02  0.9425618E-01
        1   -1    0    0  501    0  0.00000000000E+00  0.00000000000E+00  0.16333072372E+04  0.16333072372E+04  0.50400001928E-02 0.  1.
       -1   -1    0    0    0  501  0.00000000000E+00  0.00000000000E+00 -0.12397343837E+03  0.12397343847E+03  0.50400001928E-02 0. -1.
    10030    2    1    2    0    0  0.00000000000E+00  0.00000000000E+00  0.15093337989E+04  0.17572806757E+04  0.89997047554E+03 0.  0.
        4    1    3    3  502    0 -0.25831338769E+03  0.22218662300E+03  0.18074785060E+03  0.38569949455E+03  0.12699999809E+01 0. -1.
       -4    1    3    3    0  502  0.25831338769E+03 -0.22218662300E+03  0.13285859483E+04  0.13715811812E+04  0.12699999809E+01 0.  1.
</event>
<event>
 5   0  0.4033144E-04  0.8998843E+03  0.7818609E-02  0.9425726E-01
       -2   -1    0    0    0  501  0.00000000000E+00  0.00000000000E+00  0.17458935393E+03  0.17458935395E+03  0.25500000920E-02 0. -1.
        2   -1    0    0  501    0  0.00000000000E+00  0.00000000000E+00 -0.11595662266E+04  0.11595662266E+04  0.25500000920E-02 0.  1.
    10030    2    1    2    0    0  0.00000000000E+00  0.00000000000E+00 -0.98497687265E+03  0.13341555805E+04  0.89988425557E+03 0.  0.
        4    1    3    3  502    0 -0.10683590813E+03  0.33950675658E+03 -0.90058361526E+03  0.96836522552E+03  0.12699999809E+01 0.  1.
       -4    1    3    3    0  502  0.10683590813E+03 -0.33950675658E+03 -0.84393257386E+02  0.36579035501E+03  0.12699999809E+01 0. -1.
</event>
<event>
 5   0  0.1596250E-04  0.9001661E+03  0.7818609E-02  0.9425374E-01
       -3   -1    0    0    0  501  0.00000000000E+00  0.00000000000E+00  0.20553840790E+03  0.20553843272E+03  0.10100000352E+00 0.  1.
        3   -1    0    0  501    0  0.00000000000E+00  0.00000000000E+00 -0.98558096156E+03  0.98558096673E+03  0.10100000352E+00 0. -1.
    10030    2    1    2    0    0  0.00000000000E+00  0.00000000000E+00 -0.78004255366E+03  0.11911193994E+04  0.90016611702E+03 0.  0.
        4    1    3    3  502    0  0.18652332126E+03  0.29628912009E+03 -0.76427310833E+03  0.84065045594E+03  0.12699999809E+01 0. -1.
       -4    1    3    3    0  502 -0.18652332126E+03 -0.29628912009E+03 -0.15769445322E+02  0.35046894350E+03  0.12699999809E+01 0.  1.
</event>
<event>
 5   0  0.4033144E-04  0.9002565E+03  0.7818609E-02  0.9425261E-01
        2   -1    0    0  501    0  0.00000000000E+00  0.00000000000E+00  0.77905556582E+03  0.77905556582E+03  0.25500000920E-02 0.  1.
       -2   -1    0    0    0  501  0.00000000000E+00  0.00000000000E+00 -0.26007831082E+03  0.26007831084E+03  0.25500000920E-02 0. -1.
    10030    2    1    2    0    0  0.00000000000E+00  0.00000000000E+00  0.51897725500E+03  0.10391338767E+04  0.90025653145E+03 0.  0.
        4    1    3    3  502    0 -0.22995402034E+03 -0.33706691430E+03  0.47886225814E+03  0.62912926442E+03  0.12699999809E+01 0. -1.
       -4    1    3    3    0  502  0.22995402034E+03  0.33706691430E+03  0.40114996858E+02  0.41000461224E+03  0.12699999809E+01 0.  1.
</event>
<event>
 5   0  0.2308362E-04  0.9000748E+03  0.7818609E-02  0.9425488E-01
        1   -1    0    0  501    0  0.00000000000E+00  0.00000000000E+00  0.18371373598E+03  0.18371373604E+03  0.50400001928E-02 0. -1.
       -1   -1    0    0    0  501  0.00000000000E+00  0.00000000000E+00 -0.11024415280E+04  0.11024415280E+04  0.50400001928E-02 0.  1.
    10030    2    1    2    0    0  0.00000000000E+00  0.00000000000E+00 -0.91872779198E+03  0.12861552640E+04  0.90007477878E+03 0.  0.
        1    1    3    3  502    0  0.16660752026E+03 -0.40738627444E+03 -0.59350203701E+03  0.73889533114E+03  0.50400001928E-02 0.  1.
       -1    1    3    3    0  502 -0.16660752026E+03  0.40738627444E+03 -0.32522575497E+03  0.54725993288E+03  0.50400001928E-02 0. -1.
</event>
<event>
 5   0  0.2351435E-04  0.8969069E+03  0.7818609E-02  0.9429456E-01
       -1   -1    0    0    0  501  0.00000000000E+00  0.00000000000E+00  0.55247722501E+03  0.55247722503E+03  0.50400001928E-02 0. -1.
        1   -1    0    0  501    0  0.00000000000E+00  0.00000000000E+00 -0.36401587154E+03  0.36401587157E+03  0.50400001928E-02 0.  1.
    10030    2    1    2    0    0  0.00000000000E+00  0.00000000000E+00  0.18846135347E+03  0.91649309660E+03  0.89690685936E+03 0.  0.
        4    1    3    3  502    0 -0.37144997145E+03 -0.14130115483E+03  0.30653637454E+03  0.50190363563E+03  0.12699999809E+01 0. -1.
       -4    1    3    3    0  502  0.37144997145E+03  0.14130115483E+03 -0.11807502107E+03  0.41458946097E+03  0.12699999809E+01 0.  1.
</event>
<event>
 5   0  0.4033144E-04  0.8983412E+03  0.7818609E-02  0.9427657E-01
       -2   -1    0    0    0  501  0.00000000000E+00  0.00000000000E+00  0.39532188016E+03  0.39532188017E+03  0.25500000920E-02 0.  1.
        2   -1    0    0  501    0  0.00000000000E+00  0.00000000000E+00 -0.51035431084E+03  0.51035431084E+03  0.25500000920E-02 0. -1.
    10030    2    1    2    0    0  0.00000000000E+00  0.00000000000E+00 -0.11503243067E+03  0.90567619101E+03  0.89834119513E+03 0.  0.
        4    1    3    3  502    0 -0.32755491380E+03  0.53137804545E+02  0.24767112182E+03  0.41407541018E+03  0.12699999809E+01 0.  1.
       -4    1    3    3    0  502  0.32755491380E+03 -0.53137804545E+02 -0.36270355249E+03  0.49160078084E+03  0.12699999809E+01 0. -1.
</event>
<event>
 5   0  0.4033144E-04  0.8999415E+03  0.7818609E-02  0.9425655E-01
       -2   -1    0    0    0  501  0.00000000000E+00  0.00000000000E+00  0.67556367288E+03  0.67556367288E+03  0.25500000920E-02 0.  1.
        2   -1    0    0  501    0  0.00000000000E+00  0.00000000000E+00 -0.29971071543E+03  0.29971071544E+03  0.25500000920E-02 0. -1.
    10030    2    1    2    0    0  0.00000000000E+00  0.00000000000E+00  0.37585295745E+03  0.97527438832E+03  0.89994149082E+03 0.  0.
        4    1    3    3  502    0  0.10476825025E+03  0.31748268167E+03 -0.13844875214E+03  0.36185813421E+03  0.12699999809E+01 0. -1.
       -4    1    3    3    0  502 -0.10476825025E+03 -0.31748268167E+03  0.51430170959E+03  0.61341625411E+03  0.12699999809E+01 0.  1.
</event>
<event>
 5   0  0.3959804E-04  0.9000742E+03  0.7818609E-02  0.9425489E-01
       -2   -1    0    0    0  501  0.00000000000E+00  0.00000000000E+00  0.14601951950E+03  0.14601951952E+03  0.25500000920E-02 0. -1.
        2   -1    0    0  501    0  0.00000000000E+00  0.00000000000E+00 -0.13870295535E+04  0.13870295535E+04  0.25500000920E-02 0.  1.
    10030    2    1    2    0    0  0.00000000000E+00  0.00000000000E+00 -0.12410100340E+04  0.15330490731E+04  0.90007419462E+03 0.  0.
        5    1    3    3  502    0  0.12431384141E+03  0.18303995452E+03 -0.12879384381E+04  0.13068148554E+04  0.46999998093E+01 0.  1.
       -5    1    3    3    0  502 -0.12431384141E+03 -0.18303995452E+03  0.46928404042E+02  0.22623421762E+03  0.46999998093E+01 0. -1.
</event>
<event>
 5   0  0.4243516E-04  0.8999221E+03  0.7818609E-02  0.9425679E-01
       -2   -1    0    0    0  501  0.00000000000E+00  0.00000000000E+00  0.19434836843E+03  0.19434836845E+03  0.25500000920E-02 0. -1.
        2   -1    0    0  501    0  0.00000000000E+00  0.00000000000E+00 -0.10417630477E+04  0.10417630478E+04  0.25500000920E-02 0.  1.
    10030    2    1    2    0    0  0.00000000000E+00  0.00000000000E+00 -0.84741467932E+03  0.12361114162E+04  0.89992210470E+03 0.  0.
        1    1    3    3  502    0 -0.44818060988E+03 -0.20072366557E+02 -0.47121380473E+03  0.65062370750E+03  0.50400001928E-02 0. -1.
       -1    1    3    3    0  502  0.44818060988E+03  0.20072366557E+02 -0.37620087459E+03  0.58548770870E+03  0.50400001928E-02 0.  1.
</event>
<event>
 5   0  0.2356918E-04  0.8999182E+03  0.7818609E-02  0.9425684E-01
        1   -1    0    0  501    0  0.00000000000E+00  0.00000000000E+00  0.72819559452E+03  0.72819559453E+03  0.50400001928E-02 0. -1.
       -1   -1    0    0    0  501  0.00000000000E+00  0.00000000000E+00 -0.27803409758E+03  0.27803409763E+03  0.50400001928E-02 0.  1.
    10030    2    1    2    0    0  0.00000000000E+00  0.00000000000E+00  0.45016149693E+03  0.10062296922E+04  0.89991822965E+03 0.  0.
        5    1    3    3  502    0  0.14082165385E+03 -0.33581791403E+03  0.52056609645E+03  0.63530745340E+03  0.46999998093E+01 0. -1.
       -5    1    3    3    0  502 -0.14082165385E+03  0.33581791403E+03 -0.70404599520E+02  0.37092223876E+03  0.46999998093E+01 0.  1.
</event>
<event>
 5   0  0.3959804E-04  0.9001497E+03  0.7818609E-02  0.9425394E-01
        2   -1    0    0  501    0  0.00000000000E+00  0.00000000000E+00  0.36448038350E+03  0.36448038351E+03  0.25500000920E-02 0.  1.
       -2   -1    0    0    0  501  0.00000000000E+00  0.00000000000E+00 -0.55577032476E+03  0.55577032477E+03  0.25500000920E-02 0. -1.
    10030    2    1    2    0    0  0.00000000000E+00  0.00000000000E+00 -0.19128994126E+03  0.92025070827E+03  0.90014972335E+03 0.  0.
        5    1    3    3  502    0  0.18371980564E+03  0.28406614445E+03 -0.39908738172E+03  0.52320107956E+03  0.46999998093E+01 0. -1.
       -5    1    3    3    0  502 -0.18371980564E+03 -0.28406614445E+03  0.20779744046E+03  0.39704962872E+03  0.46999998093E+01 0.  1.
</event>
<event>
 5   0  0.1596250E-04  0.8999322E+03  0.7818609E-02  0.9425666E-01
       -4   -1    0    0    0  501  0.00000000000E+00  0.00000000000E+00  0.92971516933E+03  0.92971603675E+03  0.12699999809E+01 0.  1.
        4   -1    0    0  501    0  0.00000000000E+00  0.00000000000E+00 -0.21777301859E+03  0.21777672173E+03  0.12699999809E+01 0. -1.
    10030    2    1    2    0    0  0.00000000000E+00  0.00000000000E+00  0.71194215074E+03  0.11474927585E+04  0.89993222231E+03 0.  0.
        5    1    3    3  502    0 -0.32361658769E+03  0.38993669562E+01  0.75453451442E+03  0.82102821165E+03  0.46999998093E+01 0.  1.
       -5    1    3    3    0  502  0.32361658769E+03 -0.38993669562E+01 -0.42592363673E+02  0.32646454682E+03  0.46999998093E+01 0. -1.
</event>
<event>
 5   0  0.3959804E-04  0.9004054E+03  0.7818609E-02  0.9425075E-01
       -2   -1    0    0    0  501  0.00000000000E+00  0.00000000000E+00  0.41175714524E+03  0.41175714524E+03  0.25500000920E-02 0.  1.
        2   -1    0    0  501    0  0.00000000000E+00  0.00000000000E+00 -0.49223793080E+03  0.49223793081E+03  0.25500000920E-02 0. -1.
    10030    2    1    2    0    0  0.00000000000E+00  0.00000000000E+00 -0.80480785565E+02  0.90399507605E+03  0.90040543128E+03 0.  0.
        5    1    3    3  502    0  0.41158754862E+03  0.61245964063E+02 -0.21269543336E+03  0.46735084858E+03  0.46999998093E+01 0. -1.
       -5    1    3    3    0  502 -0.41158754862E+03 -0.61245964063E+02  0.13221464779E+03  0.43664422747E+03  0.46999998093E+01 0.  1.
</event>
<event>
 5   0  0.2450427E-04  0.9002422E+03  0.7818609E-02  0.9425279E-01
        1   -1    0    0  501    0  0.00000000000E+00  0.00000000000E+00  0.15728860189E+04  0.15728860190E+04  0.50400001928E-02 0. -1.
       -1   -1    0    0    0  501  0.00000000000E+00  0.00000000000E+00 -0.12881354143E+03  0.12881354152E+03  0.50400001928E-02 0.  1.
    10030    2    1    2    0    0  0.00000000000E+00  0.00000000000E+00  0.14440724775E+04  0.17016995605E+04  0.90024223063E+03 0.  0.
        3    1    3    3  502    0 -0.12608676261E+03 -0.13324453536E+03 -0.54946979068E+02  0.19149715042E+03  0.10100000352E+00 0.  1.
       -3    1    3    3    0  502  0.12608676261E+03  0.13324453536E+03  0.14990194566E+04  0.15102024101E+04  0.10100000352E+00 0. -1.
</event>
<event>
 5   0  0.2351435E-04  0.9004885E+03  0.7818609E-02  0.9424971E-01
        1   -1    0    0  501    0  0.00000000000E+00  0.00000000000E+00  0.79998391545E+03  0.79998391546E+03  0.50400001928E-02 0. -1.
       -1   -1    0    0    0  501  0.00000000000E+00  0.00000000000E+00 -0.25340495773E+03  0.25340495778E+03  0.50400001928E-02 0.  1.
    10030    2    1    2    0    0  0.00000000000E+00  0.00000000000E+00  0.54657895772E+03  0.10533888732E+04  0.90048851256E+03 0.  0.
        4    1    3    3  502    0 -0.23584494211E+03 -0.10746582950E+03  0.70396953568E+03  0.75016428954E+03  0.12699999809E+01 0. -1.
       -4    1    3    3    0  502  0.23584494211E+03  0.10746582950E+03 -0.15739057796E+03  0.30322458370E+03  0.12699999809E+01 0.  1.
</event>
<event>
 5   0  0.2450427E-04  0.8992134E+03  0.7818609E-02  0.9426565E-01
        1   -1    0    0  501    0  0.00000000000E+00  0.00000000000E+00  0.43528085278E+03  0.43528085281E+03  0.50400001928E-02 0.  1.
       -1   -1    0    0    0  501  0.00000000000E+00  0.00000000000E+00 -0.46440403078E+03  0.46440403081E+03  0.50400001928E-02 0. -1.
    10030    2    1    2    0    0  0.00000000000E+00  0.00000000000E+00 -0.29123178002E+02  0.89968488362E+03  0.89921339531E+03 0.  0.
        3    1    3    3  502    0 -0.44039003952E+03 -0.25448373579E+01  0.76019351260E+02  0.44691029868E+03  0.10100000352E+00 0.  1.
       -3    1    3    3    0  502  0.44039003952E+03  0.25448373579E+01 -0.10514252926E+03  0.45277458493E+03  0.10100000352E+00 0. -1.
</event>
<event>
 5   0  0.2450427E-04  0.9007241E+03  0.7818609E-02  0.9424677E-01
        1   -1    0    0  501    0  0.00000000000E+00  0.00000000000E+00  0.58567485651E+03  0.58567485653E+03  0.50400001928E-02 0.  1.
       -1   -1    0    0    0  501  0.00000000000E+00  0.00000000000E+00 -0.34631157011E+03  0.34631157014E+03  0.50400001928E-02 0. -1.
    10030    2    1    2    0    0  0.00000000000E+00  0.00000000000E+00  0.23936328640E+03  0.93198642667E+03  0.90072410683E+03 0.  0.
        3    1    3    3  502    0  0.18281224885E+03  0.23741191769E+03  0.46756707473E+03  0.55534108129E+03  0.10100000352E+00 0.  1.
       -3    1    3    3    0  502 -0.18281224885E+03 -0.23741191769E+03 -0.22820378833E+03  0.37664534538E+03  0.10100000352E+00 0. -1.
</event>
<event>
 5   0  0.4236284E-04  0.8991972E+03  0.7818609E-02  0.9426585E-01
        2   -1    0    0  501    0  0.00000000000E+00  0.00000000000E+00  0.10298788693E+04  0.10298788693E+04  0.25500000920E-02 0.  1.
       -2   -1    0    0    0  501  0.00000000000E+00  0.00000000000E+00 -0.19627445853E+03  0.19627445855E+03  0.25500000920E-02 0. -1.
    10030    2    1    2    0    0  0.00000000000E+00  0.00000000000E+00  0.83360441077E+03  0.12261533278E+04  0.89919723628E+03 0.  0.
        2    1    3    3  502    0  0.12426349460E+03  0.48955509183E+02 -0.16859884589E+03  0.21508981568E+03  0.25500000920E-02 0. -1.
       -2    1    3    3    0  502 -0.12426349460E+03 -0.48955509183E+02  0.10022032567E+04  0.10110635122E+04  0.25500000920E-02 0.  1.
</event>
<event>
 5   0  0.2356918E-04  0.8995175E+03  0.7818609E-02  0.9426185E-01
       -1   -1    0    0    0  501  0.00000000000E+00  0.00000000000E+00  0.30409665708E+03  0.30409665712E+03  0.50400001928E-02 0. -1.
        1   -1    0    0  501    0  0.00000000000E+00  0.00000000000E+00 -0.66519289573E+03  0.66519289574E+03  0.50400001928E-02 0.  1.
    10030    2    1    2    0    0  0.00000000000E+00  0.00000000000E+00 -0.36109623864E+03  0.96928955287E+03  0.89951750608E+03 0.  0.
        5    1    3    3  502    0  0.35622316398E+03  0.38696720212E+02  0.11232091538E+03  0.37554021987E+03  0.46999998093E+01 0. -1.
       -5    1    3    3    0  502 -0.35622316398E+03 -0.38696720212E+02 -0.47341715403E+03  0.59374933300E+03  0.46999998093E+01 0.  1.
</event>
<event>
 5   0  0.2332791E-04  0.9028064E+03  0.7818609E-02  0.9422080E-01
        1   -1    0    0  501    0  0.00000000000E+00  0.00000000000E+00  0.10429580176E+04  0.10429580176E+04  0.50400001928E-02 0.  1.
       -1   -1    0    0    0  501  0.00000000000E+00  0.00000000000E+00 -0.19537204324E+03  0.19537204330E+03  0.50400001928E-02 0. -1.
    10030    2    1    2    0    0  0.00000000000E+00  0.00000000000E+00  0.84758597437E+03  0.12383300609E+04  0.90280637782E+03 0.  0.
        2    1    3    3  502    0  0.30999932171E+03 -0.31289331412E+03  0.55932259646E+03  0.71192947150E+03  0.25500000920E-02 0.  1.
       -2    1    3    3    0  502 -0.30999932171E+03  0.31289331412E+03  0.28826337791E+03  0.52640058941E+03  0.25500000920E-02 0. -1.
</event>
<event>
 5   0  0.2308362E-04  0.9001467E+03  0.7818609E-02  0.9425398E-01
        1   -1    0    0  501    0  0.00000000000E+00  0.00000000000E+00  0.36444790528E+03  0.36444790531E+03  0.50400001928E-02 0.  1.
       -1   -1    0    0    0  501  0.00000000000E+00  0.00000000000E+00 -0.55581610715E+03  0.55581610718E+03  0.50400001928E-02 0. -1.
    10030    2    1    2    0    0  0.00000000000E+00  0.00000000000E+00 -0.19136820188E+03  0.92026401249E+03  0.90014669026E+03 0.  0.
        1    1    3    3  502    0  0.89438172627E+02  0.37525400895E+03  0.14134052321E+03  0.41084291582E+03  0.50400001928E-02 0.  1.
       -1    1    3    3    0  502 -0.89438172627E+02 -0.37525400895E+03 -0.33270872509E+03  0.50942109667E+03  0.50400001928E-02 0. -1.
</event>
<event>
 5   0  0.4243516E-04  0.8995387E+03  0.7818609E-02  0.9426158E-01
       -2   -1    0    0    0  501  0.00000000000E+00  0.00000000000E+00  0.48004809211E+03  0.48004809212E+03  0.25500000920E-02 0. -1.
        2   -1    0    0  501    0  0.00000000000E+00  0.00000000000E+00 -0.42140039504E+03  0.42140039505E+03  0.25500000920E-02 0.  1.
    10030    2    1    2    0    0  0.00000000000E+00  0.00000000000E+00  0.58647697076E+02  0.90144848717E+03  0.89953867212E+03 0.  0.
        1    1    3    3  502    0 -0.24082749313E+03  0.26130229142E+03 -0.24697093589E+03  0.43274867088E+03  0.50400001928E-02 0.  1.
       -1    1    3    3    0  502  0.24082749313E+03 -0.26130229142E+03  0.30561863297E+03  0.46869981629E+03  0.50400001928E-02 0. -1.
</event>
<event>
 5   0  0.4236284E-04  0.8997832E+03  0.7818609E-02  0.9425852E-01
       -2   -1    0    0    0  501  0.00000000000E+00  0.00000000000E+00  0.10982468950E+03  0.10982468953E+03  0.25500000920E-02 0. -1.
        2   -1    0    0  501    0  0.00000000000E+00  0.00000000000E+00 -0.18429595057E+04  0.18429595057E+04  0.25500000920E-02 0.  1.
    10030    2    1    2    0    0  0.00000000000E+00  0.00000000000E+00 -0.17331348162E+04  0.19527841952E+04  0.89978320833E+03 0.  0.
        2    1    3    3  502    0 -0.16453446934E+03  0.82792408424E+02 -0.17573787768E+04  0.17670049065E+04  0.25500000920E-02 0.  1.
       -2    1    3    3    0  502  0.16453446934E+03 -0.82792408424E+02  0.24243960573E+02  0.18577928874E+03  0.25500000920E-02 0. -1.
</event>
<event>
 5   0  0.2450427E-04  0.8999365E+03  0.7818609E-02  0.9425661E-01
       -1   -1    0    0    0  501  0.00000000000E+00  0.00000000000E+00  0.17697104238E+03  0.17697104245E+03  0.50400001928E-02 0.  1.
        1   -1    0    0  501    0  0.00000000000E+00  0.00000000000E+00 -0.11440935418E+04  0.11440935418E+04  0.50400001928E-02 0. -1.
    10030    2    1    2    0    0  0.00000000000E+00  0.00000000000E+00 -0.96712249941E+03  0.13210645842E+04  0.89993650158E+03 0.  0.
        3    1    3    3  502    0  0.81314456010E+02 -0.41873320882E+03 -0.27327023920E+03  0.50658284097E+03  0.10100000352E+00 0.  1.
       -3    1    3    3    0  502 -0.81314456010E+02  0.41873320882E+03 -0.69385226021E+03  0.81448174327E+03  0.10100000352E+00 0. -1.
</event>
<event>
 5   0  0.4243516E-04  0.8997533E+03  0.7818609E-02  0.9425890E-01
       -2   -1    0    0    0  501  0.00000000000E+00  0.00000000000E+00  0.48679208658E+03  0.48679208658E+03  0.25500000920E-02 0. -1.
        2   -1    0    0  501    0  0.00000000000E+00  0.00000000000E+00 -0.41576065859E+03  0.41576065860E+03  0.25500000920E-02 0.  1.
    10030    2    1    2    0    0  0.00000000000E+00  0.00000000000E+00  0.71031427989E+02  0.90255274518E+03  0.89975329623E+03 0.  0.
        1    1    3    3  502    0 -0.13375450701E+02  0.14912573980E+03 -0.39003482555E+03  0.41778529668E+03  0.50400001928E-02 0.  1.
       -1    1    3    3    0  502  0.13375450701E+02 -0.14912573980E+03  0.46106625354E+03  0.48476744850E+03  0.50400001928E-02 0. -1.
</event>
<event>
 5   0  0.2308362E-04  0.9000342E+03  0.7818609E-02  0.9425539E-01
        1   -1    0    0  501    0  0.00000000000E+00  0.00000000000E+00  0.65589346388E+03  0.65589346390E+03  0.50400001928E-02 0. -1.
       -1   -1    0    0    0  501  0.00000000000E+00  0.00000000000E+00 -0.30876263057E+03  0.30876263061E+03  0.50400001928E-02 0.  1.
    10030    2    1    2    0    0  0.00000000000E+00  0.00000000000E+00  0.34713083330E+03  0.96465609451E+03  0.90003420226E+03 0.  0.
        1    1    3    3  502    0 -0.29330299675E+03  0.17328257137E+03  0.48872162805E+03  0.59573679355E+03  0.50400001928E-02 0. -1.
       -1    1    3    3    0  502  0.29330299675E+03 -0.17328257137E+03 -0.14159079474E+03  0.36891930096E+03  0.50400001928E-02 0.  1.
</event>
<event>
 5   0  0.2450427E-04  0.8989717E+03  0.7818609E-02  0.9426868E-01
       -1   -1    0    0    0  501  0.00000000000E+00  0.00000000000E+00  0.19058933518E+03  0.19058933524E+03  0.50400001928E-02 0. -1.
        1   -1    0    0  501    0  0.00000000000E+00  0.00000000000E+00 -0.10600674479E+04  0.10600674479E+04  0.50400001928E-02 0.  1.
    10030    2    1    2    0    0  0.00000000000E+00  0.00000000000E+00 -0.86947811274E+03  0.12506567832E+04  0.89897174636E+03 0.  0.
        3    1    3    3  502    0 -0.16192370233E+03 -0.36350127391E+03 -0.14396298776E+03  0.42317586599E+03  0.10100000352E+00 0. -1.
       -3    1    3    3    0  502  0.16192370233E+03  0.36350127391E+03 -0.72551512498E+03  0.82748091718E+03  0.10100000352E+00 0.  1.
</event>
<event>
 5   0  0.4033144E-04  0.9000737E+03  0.7818609E-02  0.9425489E-01
       -2   -1    0    0    0  501  0.00000000000E+00  0.00000000000E+00  0.20220261788E+03  0.20220261790E+03  0.25500000920E-02 0.  1.
        2   -1    0    0  501    0  0.00000000000E+00  0.00000000000E+00 -0.10016347257E+04  0.10016347257E+04  0.25500000920E-02 0. -1.
    10030    2    1    2    0    0  0.00000000000E+00  0.00000000000E+00 -0.79943210780E+03  0.12038373436E+04  0.90007369411E+03 0.  0.
        4    1    3    3  502    0  0.25282048773E+02  0.30588743676E+03 -0.83992065934E+03  0.89424528673E+03  0.12699999809E+01 0. -1.
       -4    1    3    3    0  502 -0.25282048773E+02 -0.30588743676E+03  0.40488551545E+02  0.30959205685E+03  0.12699999809E+01 0.  1.
</event>
<event>
 5   0  0.1596250E-04  0.8991220E+03  0.7818609E-02  0.9426680E-01
       -4   -1    0    0    0  501  0.00000000000E+00  0.00000000000E+00  0.50769771448E+03  0.50769930292E+03  0.12699999809E+01 0.  1.
        4   -1    0    0  501    0  0.00000000000E+00  0.00000000000E+00 -0.39807833083E+03  0.39808035669E+03  0.12699999809E+01 0. -1.
    10030    2    1    2    0    0  0.00000000000E+00  0.00000000000E+00  0.10961938365E+03  0.90577965961E+03  0.89912200645E+03 0.  0.
        4    1    3    3  502    0  0.29476697981E+03 -0.33188895751E+03 -0.16890559612E+02  0.44421251266E+03  0.12699999809E+01 0. -1.
       -4    1    3    3    0  502 -0.29476697981E+03  0.33188895751E+03  0.12650994326E+03  0.46156714695E+03  0.12699999809E+01 0.  1.
</event>
<event>
 5   0  0.1596250E-04  0.9005302E+03  0.7818609E-02  0.9424919E-01
       -3   -1    0    0    0  501  0.00000000000E+00  0.00000000000E+00  0.95059478460E+03  0.95059478996E+03  0.10100000352E+00 0. -1.
        3   -1    0    0  501    0  0.00000000000E+00  0.00000000000E+00 -0.21327556760E+03  0.21327559152E+03  0.10100000352E+00 0.  1.
    10030    2    1    2    0    0  0.00000000000E+00  0.00000000000E+00  0.73731921699E+03  0.11638703815E+04  0.90053019780E+03 0.  0.
        2    1    3    3  502    0  0.88486224674E+02  0.17967930493E+03 -0.15253380054E+03  0.25175588352E+03  0.25500000920E-02 0.  1.
       -2    1    3    3    0  502 -0.88486224674E+02 -0.17967930493E+03  0.88985301753E+03  0.91211449796E+03  0.25500000920E-02 0. -1.
</event>
<event>
 5   0  0.4243516E-04  0.9004631E+03  0.7818609E-02  0.9425003E-01
        2   -1    0    0  501    0  0.00000000000E+00  0.00000000000E+00  0.50754650061E+03  0.50754650062E+03  0.25500000920E-02 0. -1.
       -2   -1    0    0    0  501  0.00000000000E+00  0.00000000000E+00 -0.39938888901E+03  0.39938888901E+03  0.25500000920E-02 0.  1.
    10030    2    1    2    0    0  0.00000000000E+00  0.00000000000E+00  0.10815761161E+03  0.90693538964E+03  0.90046306533E+03 0.  0.
        1    1    3    3  502    0 -0.16710721069E+01 -0.12178187744E+03  0.49063959691E+03  0.50553024859E+03  0.50400001928E-02 0. -1.
       -1    1    3    3    0  502  0.16710721069E+01  0.12178187744E+03 -0.38248198530E+03  0.40140514105E+03  0.50400001928E-02 0.  1.
</event>
<event>
 5   0  0.3959804E-04  0.8999192E+03  0.7818609E-02  0.9425682E-01
       -2   -1    0    0    0  501  0.00000000000E+00  0.00000000000E+00  0.73794906503E+02  0.73794906547E+02  0.25500000920E-02 0.  1.
        2   -1    0    0  501    0  0.00000000000E+00  0.00000000000E+00 -0.27435992662E+04  0.27435992662E+04  0.25500000920E-02 0. -1.
    10030    2    1    2    0    0  0.00000000000E+00  0.00000000000E+00 -0.26698043597E+04  0.28173941727E+04  0.89991922169E+03 0.  0.
        5    1    3    3  502    0 -0.12694911512E+03 -0.19956897701E+03 -0.25331854539E+04  0.25442080277E+04  0.46999998093E+01 0. -1.
       -5    1    3    3    0  502  0.12694911512E+03  0.19956897701E+03 -0.13661890577E+03  0.27318614501E+03  0.46999998093E+01 0.  1.
</event>
<event>
 5   0  0.4033144E-04  0.9000713E+03  0.7818609E-02  0.9425492E-01
        2   -1    0    0  501    0  0.00000000000E+00  0.00000000000E+00  0.38198160410E+03  0.38198160410E+03  0.25500000920E-02 0. -1.
       -2   -1    0    0    0  501  0.00000000000E+00  0.00000000000E+00 -0.53021428157E+03  0.53021428158E+03  0.25500000920E-02 0.  1.
    10030    2    1    2    0    0  0.00000000000E+00  0.00000000000E+00 -0.14823267748E+03  0.91219588568E+03  0.90007133450E+03 0.  0.
        4    1    3    3  502    0  0.73850664198E+02 -0.35704642626E+03  0.19324486113E+03  0.41265149989E+03  0.12699999809E+01 0. -1.
       -4    1    3    3    0  502 -0.73850664198E+02  0.35704642626E+03 -0.34147753861E+03  0.49954438580E+03  0.12699999809E+01 0.  1.
</event>
<event>
 5   0  0.2450427E-04  0.9004756E+03  0.7818609E-02  0.9424987E-01
        1   -1    0    0  501    0  0.00000000000E+00  0.00000000000E+00  0.52902665537E+03  0.52902665540E+03  0.50400001928E-02 0.  1.
       -1   -1    0    0    0  501  0.00000000000E+00  0.00000000000E+00 -0.38318308439E+03  0.38318308442E+03  0.50400001928E-02 0. -1.
    10030    2    1    2    0    0  0.00000000000E+00  0.00000000000E+00  0.14584357099E+03  0.91220973982E+03  0.90047557558E+03 0.  0.
        3    1    3    3  502    0  0.15913705323E+03 -0.13893914233E+03  0.47570244177E+03  0.52050121065E+03  0.10100000352E+00 0.  1.
       -3    1    3    3    0  502 -0.15913705323E+03  0.13893914233E+03 -0.32985887078E+03  0.39170852916E+03  0.10100000352E+00 0. -1.
</event>
<event>
 5   0  0.2450427E-04  0.9029892E+03  0.7818609E-02  0.9421852E-01
       -1   -1    0    0    0  501  0.00000000000E+00  0.00000000000E+00  0.25694920594E+03  0.25694920599E+03  0.50400001928E-02 0. -1.
        1   -1    0    0  501    0  0.00000000000E+00  0.00000000000E+00 -0.79333721752E+03  0.79333721754E+03  0.50400001928E-02 0.  1.
    10030    2    1    2    0    0  0.00000000000E+00  0.00000000000E+00 -0.53638801158E+03  0.10502864235E+04  0.90298918735E+03 0.  0.
        3    1    3    3  502    0  0.12833955434E+03 -0.33430980309E+03 -0.58802770284E+03  0.68848433182E+03  0.10100000352E+00 0.  1.
       -3    1    3    3    0  502 -0.12833955434E+03  0.33430980309E+03  0.51639691252E+02  0.36180209171E+03  0.10100000352E+00 0. -1.
</event>
<event>
 5   0  0.4110039E-04  0.8994473E+03  0.7818609E-02  0.9426273E-01
       -2   -1    0    0    0  501  0.00000000000E+00  0.00000000000E+00  0.61667138734E+03  0.61667138734E+03  0.25500000920E-02 0.  1.
        2   -1    0    0  501    0  0.00000000000E+00  0.00000000000E+00 -0.32797265286E+03  0.32797265287E+03  0.25500000920E-02 0. -1.
    10030    2    1    2    0    0  0.00000000000E+00  0.00000000000E+00  0.28869873448E+03  0.94464404021E+03  0.89944727662E+03 0.  0.
        3    1    3    3  502    0 -0.31599852279E+03  0.31010389020E+03  0.61440491362E+02  0.44698370586E+03  0.10100000352E+00 0.  1.
       -3    1    3    3    0  502  0.31599852279E+03 -0.31010389020E+03  0.22725824311E+03  0.49766033435E+03  0.10100000352E+00 0. -1.
</event>
<event>
 5   0  0.4033144E-04  0.9039432E+03  0.7818609E-02  0.9420666E-01
        2   -1    0    0  501    0  0.00000000000E+00  0.00000000000E+00  0.14711808220E+04  0.14711808220E+04  0.25500000920E-02 0. -1.
       -2   -1    0    0    0  501  0.00000000000E+00  0.00000000000E+00 -0.13885331226E+03  0.13885331228E+03  0.25500000920E-02 0.  1.
    10030    2    1    2    0    0  0.00000000000E+00  0.00000000000E+00  0.13323275098E+04  0.16100341343E+04  0.90394320639E+03 0.  0.
        4    1    3    3  502    0 -0.10207151854E+03  0.43215496972E+03  0.81624601646E+03  0.92921240039E+03  0.12699999809E+01 0.  1.
       -4    1    3    3    0  502  0.10207151854E+03 -0.43215496972E+03  0.51608149332E+03  0.68082173394E+03  0.12699999809E+01 0. -1.
</event>
<event>
 5   0  0.2332791E-04  0.8998937E+03  0.7818609E-02  0.9425714E-01
        1   -1    0    0  501    0  0.00000000000E+00  0.00000000000E+00  0.60168391516E+03  0.60168391518E+03  0.50400001928E-02 0. -1.
       -1   -1    0    0    0  501  0.00000000000E+00  0.00000000000E+00 -0.33647598072E+03  0.33647598076E+03  0.50400001928E-02 0.  1.
    10030    2    1    2    0    0  0.00000000000E+00  0.00000000000E+00  0.26520793444E+03  0.93815989594E+03  0.89989373921E+03 0.  0.
        2    1    3    3  502    0 -0.34796015650E+03  0.13757151760E+03 -0.12792248711E+03  0.39543185971E+03  0.25500000920E-02 0.  1.
       -2    1    3    3    0  502  0.34796015650E+03 -0.13757151760E+03  0.39313042154E+03  0.54272803623E+03  0.25500000920E-02 0. -1.
</event>
<event>
 5   0  0.2308362E-04  0.9003361E+03  0.7818609E-02  0.9425161E-01
       -1   -1    0    0    0  501  0.00000000000E+00  0.00000000000E+00  0.17106105749E+03  0.17106105757E+03  0.50400001928E-02 0.  1.
        1   -1    0    0  501    0  0.00000000000E+00  0.00000000000E+00 -0.11846721130E+04  0.11846721130E+04  0.50400001928E-02 0. -1.
    10030    2    1    2    0    0  0.00000000000E+00  0.00000000000E+00 -0.10136110555E+04  0.13557331705E+04  0.90033608054E+03 0.  0.
        1    1    3    3  502    0 -0.21128284630E+02 -0.28412260568E+03 -0.10316378069E+04  0.10702563357E+04  0.50400001928E-02 0. -1.
       -1    1    3    3    0  502  0.21128284630E+02  0.28412260568E+03  0.18026751371E+02  0.28547683489E+03  0.50400001928E-02 0.  1.
</event>
<event>
 5   0  0.2332791E-04  0.9009535E+03  0.7818609E-02  0.9424390E-01
       -1   -1    0    0    0  501  0.00000000000E+00  0.00000000000E+00  0.90433869086E+03  0.90433869088E+03  0.50400001928E-02 0. -1.
        1   -1    0    0  501    0  0.00000000000E+00  0.00000000000E+00 -0.22439525903E+03  0.22439525908E+03  0.50400001928E-02 0.  1.
    10030    2    1    2    0    0  0.00000000000E+00  0.00000000000E+00  0.67994343184E+03  0.11287339500E+04  0.90095352782E+03 0.  0.
        2    1    3    3  502    0  0.29045054690E+03  0.14569757940E+03  0.73084401290E+03  0.79982640368E+03  0.25500000920E-02 0. -1.
       -2    1    3    3    0  502 -0.29045054690E+03 -0.14569757940E+03 -0.50900581056E+02  0.32890754628E+03  0.25500000920E-02 0.  1.
</event>
<event>
 5   0  0.1596250E-04  0.8996474E+03  0.7818609E-02  0.9426022E-01
       -3   -1    0    0    0  501  0.00000000000E+00  0.00000000000E+00  0.23212935012E+03  0.23212937210E+03  0.10100000352E+00 0. -1.
        3   -1    0    0  501    0  0.00000000000E+00  0.00000000000E+00 -0.87167496297E+03  0.87167496882E+03  0.10100000352E+00 0.  1.
    10030    2    1    2    0    0  0.00000000000E+00  0.00000000000E+00 -0.63954561284E+03  0.11038043409E+04  0.89964739321E+03 0.  0.
        4    1    3    3  502    0  0.21029938621E+02  0.40941183176E+03 -0.54693529805E+03  0.68352040164E+03  0.12699999809E+01 0.  1.
       -4    1    3    3    0  502 -0.21029938621E+02 -0.40941183176E+03 -0.92610314793E+02  0.42028393927E+03  0.12699999809E+01 0. -1.
</event>
<event>
 5   0  0.4033144E-04  0.9003782E+03  0.7818609E-02  0.9425109E-01
       -2   -1    0    0    0  501  0.00000000000E+00  0.00000000000E+00  0.36861654781E+03  0.36861654782E+03  0.25500000920E-02 0. -1.
        2   -1    0    0  501    0  0.00000000000E+00  0.00000000000E+00 -0.54981314219E+03  0.54981314219E+03  0.25500000920E-02 0.  1.
    10030    2    1    2    0    0  0.00000000000E+00  0.00000000000E+00 -0.18119659438E+03  0.91842969001E+03  0.90037819258E+03 0.  0.
        4    1    3    3  502    0  0.17736473792E+03 -0.31322612349E+03  0.18519195193E+03  0.40480430662E+03  0.12699999809E+01 0. -1.
       -4    1    3    3    0  502 -0.17736473792E+03  0.31322612349E+03 -0.36638854631E+03  0.51362538339E+03  0.12699999809E+01 0.  1.
</event>
<event>
 5   0  0.4033144E-04  0.9001002E+03  0.7818609E-02  0.9425456E-01
       -2   -1    0    0    0  501  0.00000000000E+00  0.00000000000E+00  0.11475306590E+03  0.11475306593E+03  0.25500000920E-02 0.  1.
        2   -1    0    0  501    0  0.00000000000E+00  0.00000000000E+00 -0.17650514977E+04  0.17650514977E+04  0.25500000920E-02 0. -1.
    10030    2    1    2    0    0  0.00000000000E+00  0.00000000000E+00 -0.16502984318E+04  0.18798045636E+04  0.90010015190E+03 0.  0.
        4    1    3    3  502    0  0.18211584941E+03 -0.37200161417E+03 -0.45748853456E+03  0.61712944809E+03  0.12699999809E+01 0. -1.
       -4    1    3    3    0  502 -0.18211584941E+03  0.37200161417E+03 -0.11928098972E+04  0.12626751155E+04  0.12699999809E+01 0.  1.
</event>
<event>
 5   0  0.3959804E-04  0.9014887E+03  0.7818609E-02  0.9423722E-01
        2   -1    0    0  501    0  0.00000000000E+00  0.00000000000E+00  0.13227979016E+04  0.13227979016E+04  0.25500000920E-02 0. -1.
       -2   -1    0    0    0  501  0.00000000000E+00  0.00000000000E+00 -0.15359148052E+03  0.15359148054E+03  0.25500000920E-02 0.  1.
    10030    2    1    2    0    0  0.00000000000E+00  0.00000000000E+00  0.11692064211E+04  0.14763893821E+04  0.90148874237E+03 0.  0.
        5    1    3    3  502    0  0.40959911052E+03 -0.35279334749E+01  0.27662180794E+03  0.49429302269E+03  0.46999998093E+01 0.  1.
       -5    1    3    3    0  502 -0.40959911052E+03  0.35279334749E+01  0.89258461313E+03  0.98209635945E+03  0.46999998093E+01 0. -1.
</event>
<event>
 5   0  0.1596250E-04  0.8998568E+03  0.7818609E-02  0.9425760E-01
       -3   -1    0    0    0  501  0.00000000000E+00  0.00000000000E+00  0.58514946455E+03  0.58514947327E+03  0.10100000352E+00 0.  1.
        3   -1    0    0  501    0  0.00000000000E+00  0.00000000000E+00 -0.34595530468E+03  0.34595531942E+03  0.10100000352E+00 0. -1.
    10030    2    1    2    0    0  0.00000000000E+00  0.00000000000E+00  0.23919415987E+03  0.93110479269E+03  0.89985681575E+03 0.  0.
        3    1    3    3  502    0 -0.32624130801E+03 -0.13603525310E+03 -0.16845195374E+03  0.39155466037E+03  0.10100000352E+00 0. -1.
       -3    1    3    3    0  502  0.32624130801E+03  0.13603525310E+03  0.40764611362E+03  0.53955013232E+03  0.10100000352E+00 0.  1.
</event>
<event>
 5   0  0.2450427E-04  0.9000148E+03  0.7818609E-02  0.9425563E-01
        1   -1    0    0  501    0  0.00000000000E+00  0.00000000000E+00  0.13232242347E+04  0.13232242347E+04  0.50400001928E-02 0.  1.
       -1   -1    0    0    0  501  0.00000000000E+00  0.00000000000E+00 -0.15304032752E+03  0.15304032760E+03  0.50400001928E-02 0. -1.
    10030    2    1    2    0    0  0.00000000000E+00  0.00000000000E+00  0.11701839072E+04  0.14762645623E+04  0.90001482283E+03 0.  0.
        3    1    3    3  502    0 -0.33318363506E+03 -0.49802883733E+01  0.10811758297E+04  0.11313608279E+04  0.10100000352E+00 0.  1.
       -3    1    3    3    0  502  0.33318363506E+03  0.49802883733E+01  0.89008077437E+02  0.34490373439E+03  0.10100000352E+00 0. -1.
</event>
<event>
 5   0  0.2332791E-04  0.8999653E+03  0.7818609E-02  0.9425625E-01
       -1   -1    0    0    0  501  0.00000000000E+00  0.00000000000E+00  0.47241611280E+03  0.47241611282E+03  0.50400001928E-02 0.  1.
        1   -1    0    0  501    0  0.00000000000E+00  0.00000000000E+00 -0.42861443482E+03  0.42861443485E+03  0.50400001928E-02 0. -1.
    10030    2    1    2    0    0  0.00000000000E+00  0.00000000000E+00  0.43801677974E+02  0.90103054768E+03  0.89996525536E+03 0.  0.
        2    1    3    3  502    0  0.23437784024E+03  0.46473129861E+01 -0.36264989313E+03  0.43182116033E+03  0.25500000920E-02 0. -1.
       -2    1    3    3    0  502 -0.23437784024E+03 -0.46473129861E+01  0.40645157111E+03  0.46920938735E+03  0.25500000920E-02 0.  1.
</event>
<event>
 5   0  0.4243516E-04  0.9020300E+03  0.7818609E-02  0.9423047E-01
       -2   -1    0    0    0  501  0.00000000000E+00  0.00000000000E+00  0.31842248451E+03  0.31842248452E+03  0.25500000920E-02 0. -1.
        2   -1    0    0  501    0  0.00000000000E+00  0.00000000000E+00 -0.63881960459E+03  0.63881960459E+03  0.25500000920E-02 0.  1.
    10030    2    1    2    0    0  0.00000000000E+00  0.00000000000E+00 -0.32039712007E+03  0.95724208911E+03  0.90202998987E+03 0.  0.
        1    1    3    3  502    0 -0.20573488535E+03  0.18021297868E+03 -0.54077316685E+03  0.60600262272E+03  0.50400001928E-02 0.  1.
       -1    1    3    3    0  502  0.20573488535E+03 -0.18021297868E+03  0.22037604678E+03  0.35123946639E+03  0.50400001928E-02 0. -1.
</event>
<event>
 5   0  0.2351435E-04  0.8994262E+03  0.7818609E-02  0.9426299E-01
        1   -1    0    0  501    0  0.00000000000E+00  0.00000000000E+00  0.16545430148E+04  0.16545430148E+04  0.50400001928E-02 0.  1.
       -1   -1    0    0    0  501  0.00000000000E+00  0.00000000000E+00 -0.12223427648E+03  0.12223427659E+03  0.50400001928E-02 0. -1.
    10030    2    1    2    0    0  0.00000000000E+00  0.00000000000E+00  0.15323087383E+04  0.17767772914E+04  0.89942619136E+03 0.  0.
        4    1    3    3  502    0 -0.13519568292E+03  0.14082992962E+03 -0.34159865914E+02  0.19819044149E+03  0.12699999809E+01 0. -1.
       -4    1    3    3    0  502  0.13519568292E+03 -0.14082992962E+03  0.15664686043E+04  0.15785868499E+04  0.12699999809E+01 0.  1.
</event>
<event>
 5   0  0.4243516E-04  0.9002939E+03  0.7818609E-02  0.9425214E-01
       -2   -1    0    0    0  501  0.00000000000E+00  0.00000000000E+00  0.15653801179E+03  0.15653801181E+03  0.25500000920E-02 0.  1.
        2   -1    0    0  501    0  0.00000000000E+00  0.00000000000E+00 -0.12944603859E+04  0.12944603859E+04  0.25500000920E-02 0. -1.
    10030    2    1    2    0    0  0.00000000000E+00  0.00000000000E+00 -0.11379223741E+04  0.14509983977E+04  0.90029385241E+03 0.  0.
        1    1    3    3  502    0  0.67516124884E+01 -0.38072427086E+03 -0.95588765245E+03  0.10289401143E+04  0.50400001928E-02 0. -1.
       -1    1    3    3    0  502 -0.67516124884E+01  0.38072427086E+03 -0.18203472170E+03  0.42205828344E+03  0.50400001928E-02 0.  1.
</event>
<event>
 5   0  0.1596250E-04  0.8999665E+03  0.7818609E-02  0.9425623E-01
       -3   -1    0    0    0  501  0.00000000000E+00  0.00000000000E+00  0.10728436647E+04  0.10728436695E+04  0.10100000352E+00 0. -1.
        3   -1    0    0  501    0  0.00000000000E+00  0.00000000000E+00 -0.18873663224E+03  0.18873665926E+03  0.10100000352E+00 0.  1.
    10030    2    1    2    0    0  0.00000000000E+00  0.00000000000E+00  0.88410703247E+03  0.12615803287E+04  0.89996648879E+03 0.  0.
        2    1    3    3  502    0  0.95815663526E+02 -0.15740724168E+03 -0.13341772283E+03  0.22750377993E+03  0.25500000920E-02 0.  1.
       -2    1    3    3    0  502 -0.95815663526E+02  0.15740724168E+03  0.10175247553E+04  0.10340765488E+04  0.25500000920E-02 0. -1.
</event>
<event>
 5   0  0.4236284E-04  0.9002272E+03  0.7818609E-02  0.9425297E-01
       -2   -1    0    0    0  501  0.00000000000E+00  0.00000000000E+00  0.13072129654E+03  0.13072129656E+03  0.25500000920E-02 0.  1.
        2   -1    0    0  501    0  0.00000000000E+00  0.00000000000E+00 -0.15498795613E+04  0.15498795613E+04  0.25500000920E-02 0. -1.
    10030    2    1    2    0    0  0.00000000000E+00  0.00000000000E+00 -0.14191582647E+04  0.16806008578E+04  0.90022722854E+03 0.  0.
        2    1    3    3  502    0  0.11984918129E+03 -0.25031700845E+03 -0.13711439329E+04  0.13989489325E+04  0.25500000920E-02 0. -1.
       -2    1    3    3    0  502 -0.11984918129E+03  0.25031700845E+03 -0.48014331808E+02  0.28165192533E+03  0.25500000920E-02 0.  1.
</event>
<event>
 5   0  0.2351435E-04  0.8991575E+03  0.7818609E-02  0.9426635E-01
       -1   -1    0    0    0  501  0.00000000000E+00  0.00000000000E+00  0.15586592319E+03  0.15586592327E+03  0.50400001928E-02 0.  1.
        1   -1    0    0  501    0  0.00000000000E+00  0.00000000000E+00 -0.12967624150E+04  0.12967624150E+04  0.50400001928E-02 0. -1.
    10030    2    1    2    0    0  0.00000000000E+00  0.00000000000E+00 -0.11408964918E+04  0.14526283383E+04  0.89915754134E+03 0.  0.
        4    1    3    3  502    0  0.42719092168E+03 -0.76765160325E+02 -0.75978063135E+03  0.87501611075E+03  0.12699999809E+01 0. -1.
       -4    1    3    3    0  502 -0.42719092168E+03  0.76765160325E+02 -0.38111586049E+03  0.57761222755E+03  0.12699999809E+01 0.  1.
</event>
<event>
 5   0  0.4033144E-04  0.9001492E+03  0.7818609E-02  0.9425395E-01
        2   -1    0    0  501    0  0.00000000000E+00  0.00000000000E+00  0.31889341784E+03  0.31889341785E+03  0.25500000920E-02 0. -1.
       -2   -1    0    0    0  501  0.00000000000E+00  0.00000000000E+00 -0.63521901089E+03  0.63521901090E+03  0.25500000920E-02 0.  1.
    10030    2    1    2    0    0  0.00000000000E+00  0.00000000000E+00 -0.31632559305E+03  0.95411242875E+03  0.90014923534E+03 0.  0.
        4    1    3    3  502    0 -0.13882843297E+03 -0.42073709632E+03 -0.24210990404E+03  0.50488796435E+03  0.12699999809E+01 0. -1.
       -4    1    3    3    0  502  0.13882843297E+03  0.42073709632E+03 -0.74215689010E+02  0.44922446440E+03  0.12699999809E+01 0.  1.
</event>
<event>
 5   0  0.2450427E-04  0.8984515E+03  0.7818609E-02  0.9427519E-01
        1   -1    0    0  501    0  0.00000000000E+00  0.00000000000E+00  0.51098993422E+03  0.51098993424E+03  0.50400001928E-02 0.  1.
       -1   -1    0    0    0  501  0.00000000000E+00  0.00000000000E+00 -0.39492708966E+03  0.39492708969E+03  0.50400001928E-02 0. -1.
    10030    2    1    2    0    0  0.00000000000E+00  0.00000000000E+00  0.11606284456E+03  0.90591702393E+03  0.89845148470E+03 0.  0.
        3    1    3    3  502    0  0.31992435364E+03  0.82895932871E+02 -0.24876718673E+03  0.41365257298E+03  0.10100000352E+00 0. -1.
       -3    1    3    3    0  502 -0.31992435364E+03 -0.82895932871E+02  0.36483003130E+03  0.49226445095E+03  0.10100000352E+00 0.  1.
</event>
<event>
 5   0  0.3959804E-04  0.8995139E+03  0.7818609E-02  0.9426189E-01
        2   -1    0    0  501    0  0.00000000000E+00  0.00000000000E+00  0.39598772912E+03  0.39598772913E+03  0.25500000920E-02 0.  1.
       -2   -1    0    0    0  501  0.00000000000E+00  0.00000000000E+00 -0.51082727637E+03  0.51082727638E+03  0.25500000920E-02 0. -1.
    10030    2    1    2    0    0  0.00000000000E+00  0.00000000000E+00 -0.11483954725E+03  0.90681500551E+03  0.89951394241E+03 0.  0.
        5    1    3    3  502    0 -0.25851102824E+03  0.22040287860E+03 -0.35452163124E+03  0.49103264416E+03  0.46999998093E+01 0. -1.
       -5    1    3    3    0  502  0.25851102824E+03 -0.22040287860E+03  0.23968208399E+03  0.41578236134E+03  0.46999998093E+01 0.  1.
</event>
<event>
 5   0  0.3959804E-04  0.8999523E+03  0.7818609E-02  0.9425641E-01
        2   -1    0    0  501    0  0.00000000000E+00  0.00000000000E+00  0.33601589941E+03  0.33601589942E+03  0.25500000920E-02 0. -1.
       -2   -1    0    0    0  501  0.00000000000E+00  0.00000000000E+00 -0.60258617572E+03  0.60258617572E+03  0.25500000920E-02 0.  1.
    10030    2    1    2    0    0  0.00000000000E+00  0.00000000000E+00 -0.26657027631E+03  0.93860207514E+03  0.89995230054E+03 0.  0.
        5    1    3    3  502    0 -0.17187273759E+03  0.40520625795E+03 -0.35870943035E+02  0.44163464987E+03  0.46999998093E+01 0. -1.
       -5    1    3    3    0  502  0.17187273759E+03 -0.40520625795E+03 -0.23069933327E+03  0.49696742527E+03  0.46999998093E+01 0.  1.
</event>
<event>
 5   0  0.4243516E-04  0.8999464E+03  0.7818609E-02  0.9425648E-01
        2   -1    0    0  501    0  0.00000000000E+00  0.00000000000E+00  0.40555658159E+03  0.40555658160E+03  0.25500000920E-02 0.  1.
       -2   -1    0    0    0  501  0.00000000000E+00  0.00000000000E+00 -0.49925431817E+03  0.49925431818E+03  0.25500000920E-02 0. -1.
    10030    2    1    2    0    0  0.00000000000E+00  0.00000000000E+00 -0.93697736583E+02  0.90481089977E+03  0.89994638646E+03 0.  0.
        1    1    3    3  502    0  0.11649804632E+03 -0.78161077203E+02 -0.47670512674E+03  0.49691923557E+03  0.50400001928E-02 0. -1.
       -1    1    3    3    0  502 -0.11649804632E+03  0.78161077203E+02  0.38300739016E+03  0.40789166421E+03  0.50400001928E-02 0.  1.
</event>
<event>
 5   0  0.2332791E-04  0.8999729E+03  0.7818609E-02  0.9425615E-01
       -1   -1    0    0    0  501  0.00000000000E+00  0.00000000000E+00  0.42799896649E+03  0.42799896652E+03  0.50400001928E-02 0.  1.
        1   -1    0    0  501    0  0.00000000000E+00  0.00000000000E+00 -0.47310345254E+03  0.47310345256E+03  0.50400001928E-02 0. -1.
    10030    2    1    2    0    0  0.00000000000E+00  0.00000000000E+00 -0.45104486047E+02  0.90110241908E+03  0.89997286349E+03 0.  0.
        2    1    3    3  502    0 -0.39355529195E+02 -0.33453040851E+03  0.27619841548E+03  0.43559731016E+03  0.25500000920E-02 0.  1.
       -2    1    3    3    0  502  0.39355529195E+02  0.33453040851E+03 -0.32130290153E+03  0.46550510892E+03  0.25500000920E-02 0. -1.
</event>
<event>
 5   0  0.2450427E-04  0.9006202E+03  0.7818609E-02  0.9424806E-01
        1   -1    0    0  501    0  0.00000000000E+00  0.00000000000E+00  0.43793542481E+03  0.43793542484E+03  0.50400001928E-02 0.  1.
       -1   -1    0    0    0  501  0.00000000000E+00  0.00000000000E+00 -0.46303443315E+03  0.46303443317E+03  0.50400001928E-02 0. -1.
    10030    2    1    2    0    0  0.00000000000E+00  0.00000000000E+00 -0.25099008333E+02  0.90096985801E+03  0.90062018900E+03 0.  0.
        3    1    3    3  502    0  0.15165776274E+02 -0.86018435920E+02 -0.45447886923E+03  0.46279609427E+03  0.10100000352E+00 0. -1.
       -3    1    3    3    0  502 -0.15165776274E+02  0.86018435920E+02  0.42937986090E+03  0.43817376375E+03  0.10100000352E+00 0.  1.
</event>
<event>
 5   0  0.2308362E-04  0.8998215E+03  0.7818609E-02  0.9425805E-01
       -1   -1    0    0    0  501  0.00000000000E+00  0.00000000000E+00  0.49098839799E+03  0.49098839802E+03  0.50400001928E-02 0. -1.
        1   -1    0    0  501    0  0.00000000000E+00  0.00000000000E+00 -0.41226978036E+03  0.41226978039E+03  0.50400001928E-02 0.  1.
    10030    2    1    2    0    0  0.00000000000E+00  0.00000000000E+00  0.78718617638E+02  0.90325817841E+03  0.89982149124E+03 0.  0.
        1    1    3    3  502    0  0.13144083453E+03 -0.31823969411E+03  0.33006247150E+03  0.47696376279E+03  0.50400001928E-02 0. -1.
       -1    1    3    3    0  502 -0.13144083453E+03  0.31823969411E+03 -0.25134385386E+03  0.42629441562E+03  0.50400001928E-02 0.  1.
</event>
<event>
 5   0  0.4033144E-04  0.8994586E+03  0.7818609E-02  0.9426258E-01
        2   -1    0    0  501    0  0.00000000000E+00  0.00000000000E+00  0.40037127238E+03  0.40037127239E+03  0.25500000920E-02 0. -1.
       -2   -1    0    0    0  501  0.00000000000E+00  0.00000000000E+00 -0.50517220387E+03  0.50517220387E+03  0.25500000920E-02 0.  1.
    10030    2    1    2    0    0  0.00000000000E+00  0.00000000000E+00 -0.10480093149E+03  0.90554347626E+03  0.89945858835E+03 0.  0.
        4    1    3    3  502    0 -0.10947949197E+03 -0.29935495034E+03 -0.37180955915E+03  0.48973779376E+03  0.12699999809E+01 0.  1.
       -4    1    3    3    0  502  0.10947949197E+03  0.29935495034E+03  0.26700862767E+03  0.41580568251E+03  0.12699999809E+01 0. -1.
</event>
<event>
 5   0  0.2356918E-04  0.8996658E+03  0.7818609E-02  0.9425999E-01
       -1   -1    0    0    0  501  0.00000000000E+00  0.00000000000E+00  0.27280676246E+03  0.27280676251E+03  0.50400001928E-02 0.  1.
        1   -1    0    0  501    0  0.00000000000E+00  0.00000000000E+00 -0.74173245214E+03  0.74173245216E+03  0.50400001928E-02 0. -1.
    10030    2    1    2    0    0  0.00000000000E+00  0.00000000000E+00 -0.46892568968E+03  0.10145392147E+04  0.89966577998E+03 0.  0.
        5    1    3    3  502    0  0.31814036564E+02  0.31786801066E+03  0.12263291606E+03  0.34221795281E+03  0.46999998093E+01 0.  1.
       -5    1    3    3    0  502 -0.31814036564E+02 -0.31786801066E+03 -0.59155860574E+03  0.67232126186E+03  0.46999998093E+01 0. -1.
</event>
<event>
 5   0  0.2351435E-04  0.9002162E+03  0.7818609E-02  0.9425311E-01
       -1   -1    0    0    0  501  0.00000000000E+00  0.00000000000E+00  0.24417879096E+03  0.24417879101E+03  0.50400001928E-02 0. -1.
        1   -1    0    0  501    0  0.00000000000E+00  0.00000000000E+00 -0.82970882415E+03  0.82970882417E+03  0.50400001928E-02 0.  1.
    10030    2    1    2    0    0  0.00000000000E+00  0.00000000000E+00 -0.58553003319E+03  0.10738876152E+04  0.90021619085E+03 0.  0.
        4    1    3    3  502    0  0.22835813440E+03  0.38711818940E+03 -0.26384423561E+03  0.52117494536E+03  0.12699999809E+01 0. -1.
       -4    1    3    3    0  502 -0.22835813440E+03 -0.38711818940E+03 -0.32168579758E+03  0.55271266982E+03  0.12699999809E+01 0.  1.
</event>
<event>
 5   0  0.2332791E-04  0.9000195E+03  0.7818609E-02  0.9425557E-01
        1   -1    0    0  501    0  0.00000000000E+00  0.00000000000E+00  0.32458095517E+04  0.32458095517E+04  0.50400001928E-02 0. -1.
       -1   -1    0    0    0  501  0.00000000000E+00  0.00000000000E+00 -0.62390838731E+02  0.62390838934E+02  0.50400001928E-02 0.  1.
    10030    2    1    2    0    0  0.00000000000E+00  0.00000000000E+00  0.31834187130E+04  0.33082003907E+04  0.90001951231E+03 0.  0.
        2    1    3    3  502    0 -0.37578316509E+03 -0.13399653915E+03  0.23569322408E+04  0.23904597147E+04  0.25500000920E-02 0. -1.
       -2    1    3    3    0  502  0.37578316509E+03  0.13399653915E+03  0.82648647218E+03  0.91774067599E+03  0.25500000920E-02 0.  1.
</event>
<event>
 5   0  0.4110039E-04  0.9004853E+03  0.7818609E-02  0.9424975E-01
        2   -1    0    0  501    0  0.00000000000E+00  0.00000000000E+00  0.17706839808E+04  0.17706839808E+04  0.25500000920E-02 0.  1.
       -2   -1    0    0    0  501  0.00000000000E+00  0.00000000000E+00 -0.11448594134E+03  0.11448594137E+03  0.25500000920E-02 0. -1.
    10030    2    1    2    0    0  0.00000000000E+00  0.00000000000E+00  0.16561980395E+04  0.18851699222E+04  0.90048525228E+03 0.  0.
        3    1    3    3  502    0 -0.10987116745E+02 -0.44276853793E+03  0.65861929546E+03  0.79369016717E+03  0.10100000352E+00 0.  1.
       -3    1    3    3    0  502  0.10987116745E+02  0.44276853793E+03  0.99757874399E+03  0.10914797550E+04  0.10100000352E+00 0. -1.
</event>
<event>
 5   0  0.4033144E-04  0.8993141E+03  0.7818609E-02  0.9426439E-01
        2   -1    0    0  501    0  0.00000000000E+00  0.00000000000E+00  0.58828090877E+03  0.58828090878E+03  0.25500000920E-02 0.  1.
       -2   -1    0    0    0  501  0.00000000000E+00  0.00000000000E+00 -0.34369882300E+03  0.34369882301E+03  0.25500000920E-02 0. -1.
    10030    2    1    2    0    0  0.00000000000E+00  0.00000000000E+00  0.24458208578E+03  0.93197973179E+03  0.89931408517E+03 0.  0.
        4    1    3    3  502    0  0.37047019507E+03  0.92990792741E+01  0.38620811804E+03  0.53525037287E+03  0.12699999809E+01 0.  1.
       -4    1    3    3    0  502 -0.37047019507E+03 -0.92990792741E+01 -0.14162603227E+03  0.39672935892E+03  0.12699999809E+01 0. -1.
</event>
<event>
 5   0  0.4110039E-04  0.8994672E+03  0.7818609E-02  0.9426248E-01
        2   -1    0    0  501    0  0.00000000000E+00  0.00000000000E+00  0.51326327094E+03  0.51326327095E+03  0.25500000920E-02 0.  1.
       -2   -1    0    0    0  501  0.00000000000E+00  0.00000000000E+00 -0.39406734512E+03  0.39406734512E+03  0.25500000920E-02 0. -1.
    10030    2    1    2    0    0  0.00000000000E+00  0.00000000000E+00  0.11919592583E+03  0.90733061608E+03  0.89946716345E+03 0.  0.
        3    1    3    3  502    0  0.37348800562E+03  0.24775788798E+03  0.97112098418E+02  0.45859353600E+03  0.10100000352E+00 0.  1.
       -3    1    3    3    0  502 -0.37348800562E+03 -0.24775788798E+03  0.22083827410E+02  0.44873708008E+03  0.10100000352E+00 0. -1.
</event>
<event>
 5   0  0.4110039E-04  0.8998715E+03  0.7818609E-02  0.9425742E-01
       -2   -1    0    0    0  501  0.00000000000E+00  0.00000000000E+00  0.32950612335E+03  0.32950612336E+03  0.25500000920E-02 0. -1.
        2   -1    0    0  501    0  0.00000000000E+00  0.00000000000E+00 -0.61438059088E+03  0.61438059089E+03  0.25500000920E-02 0.  1.
    10030    2    1    2    0    0  0.00000000000E+00  0.00000000000E+00 -0.28487446753E+03  0.94388671424E+03  0.89987147253E+03 0.  0.
        3    1    3    3  502    0  0.31185727989E+03 -0.13754961837E+03  0.16564204002E+03  0.37896194553E+03  0.10100000352E+00 0. -1.
       -3    1    3    3    0  502 -0.31185727989E+03  0.13754961837E+03 -0.45051650755E+03  0.56492476872E+03  0.10100000352E+00 0.  1.
</event>
<event>
 5   0  0.2356918E-04  0.9000508E+03  0.7818609E-02  0.9425518E-01
        1   -1    0    0  501    0  0.00000000000E+00  0.00000000000E+00  0.95234164321E+03  0.95234164322E+03  0.50400001928E-02 0. -1.
       -1   -1    0    0    0  501  0.00000000000E+00  0.00000000000E+00 -0.21265779917E+03  0.21265779923E+03  0.50400001928E-02 0.  1.
    10030    2    1    2    0    0  0.00000000000E+00  0.00000000000E+00  0.73968384404E+03  0.11649994425E+04  0.90005083845E+03 0.  0.
        5    1    3    3  502    0 -0.33406090412E+03  0.29170048415E+03  0.46854503303E+03  0.64516850364E+03  0.46999998093E+01 0.  1.
       -5    1    3    3    0  502  0.33406090412E+03 -0.29170048415E+03  0.27113881101E+03  0.51983093881E+03  0.46999998093E+01 0. -1.
</event>
<event>
 5   0  0.2351435E-04  0.8995727E+03  0.7818609E-02  0.9426116E-01
       -1   -1    0    0    0  501  0.00000000000E+00  0.00000000000E+00  0.16602069189E+03  0.16602069197E+03  0.50400001928E-02 0.  1.
        1   -1    0    0  501    0  0.00000000000E+00  0.00000000000E+00 -0.12185694654E+04  0.12185694654E+04  0.50400001928E-02 0. -1.
    10030    2    1    2    0    0  0.00000000000E+00  0.00000000000E+00 -0.10525487735E+04  0.13845901573E+04  0.89957266703E+03 0.  0.
        4    1    3    3  502    0 -0.10105741977E+03  0.32929558426E+03 -0.97145741090E+03  0.10307178557E+04  0.12699999809E+01 0. -1.
       -4    1    3    3    0  502  0.10105741977E+03 -0.32929558426E+03 -0.81091362575E+02  0.35387230167E+03  0.12699999809E+01 0.  1.
</event>
<event>
 5   0  0.2450427E-04  0.8985398E+03  0.7818609E-02  0.9427409E-01
       -1   -1    0    0    0  501  0.00000000000E+00  0.00000000000E+00  0.35868341333E+03  0.35868341337E+03  0.50400001928E-02 0.  1.
        1   -1    0    0  501    0  0.00000000000E+00  0.00000000000E+00 -0.56273426489E+03  0.56273426491E+03  0.50400001928E-02 0. -1.
    10030    2    1    2    0    0  0.00000000000E+00  0.00000000000E+00 -0.20405085156E+03  0.92141767828E+03  0.89853980871E+03 0.  0.
        3    1    3    3  502    0 -0.40510155794E+03  0.18633224181E+03 -0.45704729477E+02  0.44823644328E+03  0.10100000352E+00 0. -1.
       -3    1    3    3    0  502  0.40510155794E+03 -0.18633224181E+03 -0.15834612208E+03  0.47318123501E+03  0.10100000352E+00 0.  1.
</event>
<event>
 5   0  0.2308362E-04  0.8999855E+03  0.7818609E-02  0.9425600E-01
        1   -1    0    0  501    0  0.00000000000E+00  0.00000000000E+00  0.55111835800E+03  0.55111835802E+03  0.50400001928E-02 0.  1.
       -1   -1    0    0    0  501  0.00000000000E+00  0.00000000000E+00 -0.36742285702E+03  0.36742285706E+03  0.50400001928E-02 0. -1.
    10030    2    1    2    0    0  0.00000000000E+00  0.00000000000E+00  0.18369550098E+03  0.91854121508E+03  0.89998551473E+03 0.  0.
        1    1    3    3  502    0 -0.24282521916E+03  0.31299905967E+03 -0.12600330697E+03  0.41570341809E+03  0.50400001928E-02 0. -1.
       -1    1    3    3    0  502  0.24282521916E+03 -0.31299905967E+03  0.30969880795E+03  0.50283779699E+03  0.50400001928E-02 0.  1.
</event>
<event>
 5   0  0.4033144E-04  0.8998790E+03  0.7818609E-02  0.9425733E-01
       -2   -1    0    0    0  501  0.00000000000E+00  0.00000000000E+00  0.60216143763E+02  0.60216143817E+02  0.25500000920E-02 0.  1.
        2   -1    0    0  501    0  0.00000000000E+00  0.00000000000E+00 -0.33619817338E+04  0.33619817338E+04  0.25500000920E-02 0. -1.
    10030    2    1    2    0    0  0.00000000000E+00  0.00000000000E+00 -0.33017655900E+04  0.34221978776E+04  0.89987904855E+03 0.  0.
        4    1    3    3  502    0 -0.84875674154E+02  0.18386894568E+03 -0.31788575728E+04  0.31853019873E+04  0.12699999809E+01 0. -1.
       -4    1    3    3    0  502  0.84875674154E+02 -0.18386894568E+03 -0.12290801724E+03  0.23689589032E+03  0.12699999809E+01 0.  1.
</event>
<event>
 5   0  0.4243516E-04  0.8999800E+03  0.7818609E-02  0.9425606E-01
       -2   -1    0    0    0  501  0.00000000000E+00  0.00000000000E+00  0.29309774598E+03  0.29309774599E+03  0.25500000920E-02 0. -1.
        2   -1    0    0  501    0  0.00000000000E+00  0.00000000000E+00 -0.69086503507E+03  0.69086503507E+03  0.25500000920E-02 0.  1.
    10030    2    1    2    0    0  0.00000000000E+00  0.00000000000E+00 -0.39776728909E+03  0.98396278107E+03  0.89997996548E+03 0.  0.
        1    1    3    3  502    0 -0.30846601922E+03  0.14833957094E+03  0.12049774589E+03  0.36287135477E+03  0.50400001928E-02 0. -1.
       -1    1    3    3    0  502  0.30846601922E+03 -0.14833957094E+03 -0.51826503498E+03  0.62109142630E+03  0.50400001928E-02 0.  1.
</event>
<event>
 5   0  0.4236284E-04  0.9006213E+03  0.7818609E-02  0.9424805E-01
        2   -1    0    0  501    0  0.00000000000E+00  0.00000000000E+00  0.99745751332E+03  0.99745751332E+03  0.25500000920E-02 0.  1.
       -2   -1    0    0    0  501  0.00000000000E+00  0.00000000000E+00 -0.20329657115E+03  0.20329657116E+03  0.25500000920E-02 0. -1.
    10030    2    1    2    0    0  0.00000000000E+00  0.00000000000E+00  0.79416094217E+03  0.12007540845E+04  0.90062132405E+03 0.  0.
        2    1    3    3  502    0  0.35929324000E+03  0.26782584608E+03  0.45606647802E+03  0.63938951236E+03  0.25500000920E-02 0.  1.
       -2    1    3    3    0  502 -0.35929324000E+03 -0.26782584608E+03  0.33809446415E+03  0.56136457212E+03  0.25500000920E-02 0. -1.
</event>
<event>
 5   0  0.2450427E-04  0.8999444E+03  0.7818609E-02  0.9425651E-01
       -1   -1    0    0    0  501  0.00000000000E+00  0.00000000000E+00  0.15228183122E+03  0.15228183130E+03  0.50400001928E-02 0. -1.
        1   -1    0    0  501    0  0.00000000000E+00  0.00000000000E+00 -0.13296069340E+04  0.13296069340E+04  0.50400001928E-02 0.  1.
    10030    2    1    2    0    0  0.00000000000E+00  0.00000000000E+00 -0.11773251027E+04  0.14818887653E+04  0.89994439555E+03 0.  0.
        3    1    3    3  502    0  0.25720227772E+03 -0.36713674887E+03 -0.65312537341E+03  0.79215854955E+03  0.10100000352E+00 0.  1.
       -3    1    3    3    0  502 -0.25720227772E+03  0.36713674887E+03 -0.52419972933E+03  0.68973021571E+03  0.10100000352E+00 0. -1.
</event>
<event>
 5   0  0.4110039E-04  0.9020532E+03  0.7818609E-02  0.9423019E-01
        2   -1    0    0  501    0  0.00000000000E+00  0.00000000000E+00  0.20440198323E+04  0.20440198323E+04  0.25500000920E-02 0.  1.
       -2   -1    0    0    0  501  0.00000000000E+00  0.00000000000E+00 -0.99522018058E+02  0.99522018091E+02  0.25500000920E-02 0. -1.
    10030    2    1    2    0    0  0.00000000000E+00  0.00000000000E+00  0.19444978143E+04  0.21435418504E+04  0.90205316628E+03 0.  0.
        3    1    3    3  502    0 -0.10880997258E+03  0.66614873581E+02  0.20002467767E+04  0.20043114352E+04  0.10100000352E+00 0.  1.
       -3    1    3    3    0  502  0.10880997258E+03 -0.66614873581E+02 -0.55748962392E+02  0.13923041522E+03  0.10100000352E+00 0. -1.
</event>
<event>
 5   0  0.3959804E-04  0.8994081E+03  0.7818609E-02  0.9426322E-01
       -2   -1    0    0    0  501  0.00000000000E+00  0.00000000000E+00  0.12196434761E+03  0.12196434764E+03  0.25500000920E-02 0.  1.
        2   -1    0    0  501    0  0.00000000000E+00  0.00000000000E+00 -0.16581381193E+04  0.16581381193E+04  0.25500000920E-02 0. -1.
    10030    2    1    2    0    0  0.00000000000E+00  0.00000000000E+00 -0.15361737717E+04  0.17801024669E+04  0.89940810312E+03 0.  0.
        5    1    3    3  502    0 -0.35704170590E+03 -0.32404439677E+02 -0.13053305659E+04  0.13536760335E+04  0.46999998093E+01 0. -1.
       -5    1    3    3    0  502  0.35704170590E+03  0.32404439677E+02 -0.23084320580E+03  0.42642643343E+03  0.46999998093E+01 0.  1.
</event>
<event>
 5   0  0.4243516E-04  0.9014477E+03  0.7818609E-02  0.9423774E-01
        2   -1    0    0  501    0  0.00000000000E+00  0.00000000000E+00  0.12546868967E+04  0.12546868967E+04  0.25500000920E-02 0.  1.
       -2   -1    0    0    0  501  0.00000000000E+00  0.00000000000E+00 -0.16191448246E+03  0.16191448248E+03  0.25500000920E-02 0. -1.
    10030    2    1    2    0    0  0.00000000000E+00  0.00000000000E+00  0.10927724142E+04  0.14166013791E+04  0.90144767910E+03 0.  0.
        1    1    3    3  502    0 -0.12296734881E+03 -0.38684655095E+03  0.23851866706E+03  0.47081034124E+03  0.50400001928E-02 0. -1.
       -1    1    3    3    0  502  0.12296734881E+03  0.38684655095E+03  0.85425374714E+03  0.94579103790E+03  0.50400001928E-02 0.  1.
</event>
<event>
 5   0  0.2308362E-04  0.8999615E+03  0.7818609E-02  0.9425630E-01
        1   -1    0    0  501    0  0.00000000000E+00  0.00000000000E+00  0.47235833240E+03  0.47235833242E+03  0.50400001928E-02 0.  1.
       -1   -1    0    0    0  501  0.00000000000E+00  0.00000000000E+00 -0.42866332543E+03  0.42866332546E+03  0.50400001928E-02 0. -1.
    10030    2    1    2    0    0  0.00000000000E+00  0.00000000000E+00  0.43695006970E+02  0.90102165788E+03  0.89996154047E+03 0.  0.
        1    1    3    3  502    0 -0.44962958188E+02  0.36983125282E+03  0.27450536976E+03  0.46276346142E+03  0.50400001928E-02 0.  1.
       -1    1    3    3    0  502  0.44962958188E+02 -0.36983125282E+03 -0.23081036279E+03  0.43825819646E+03  0.50400001928E-02 0. -1.
</event>
<event>
 5   0  0.2351435E-04  0.9000677E+03  0.7818609E-02  0.9425497E-01
        1   -1    0    0  501    0  0.00000000000E+00  0.00000000000E+00  0.90786218721E+03  0.90786218723E+03  0.50400001928E-02 0.  1.
       -1   -1    0    0    0  501  0.00000000000E+00  0.00000000000E+00 -0.22308501099E+03  0.22308501105E+03  0.50400001928E-02 0. -1.
    10030    2    1    2    0    0  0.00000000000E+00  0.00000000000E+00  0.68477717622E+03  0.11309471983E+04  0.90006765535E+03 0.  0.
        4    1    3    3  502    0  0.42749290424E+03 -0.14006347590E+03  0.35832565305E+03  0.57512333198E+03  0.12699999809E+01 0.  1.
       -4    1    3    3    0  502 -0.42749290424E+03  0.14006347590E+03  0.32645152317E+03  0.55582386629E+03  0.12699999809E+01 0. -1.
</event>
<event>
 5   0  0.2450427E-04  0.9004912E+03  0.7818609E-02  0.9424968E-01
       -1   -1    0    0    0  501  0.00000000000E+00  0.00000000000E+00  0.30762470409E+03  0.30762470413E+03  0.50400001928E-02 0. -1.
        1   -1    0    0  501    0  0.00000000000E+00  0.00000000000E+00 -0.65898839068E+03  0.65898839069E+03  0.50400001928E-02 0.  1.
    10030    2    1    2    0    0  0.00000000000E+00  0.00000000000E+00 -0.35136368659E+03  0.96661309482E+03  0.90049121863E+03 0.  0.
        3    1    3    3  502    0 -0.65603555029E+02 -0.59930991681E+02  0.29811934525E+03  0.31107990036E+03  0.10100000352E+00 0. -1.
       -3    1    3    3    0  502  0.65603555029E+02  0.59930991681E+02 -0.64948303184E+03  0.65553319446E+03  0.10100000352E+00 0.  1.
</event>
<event>
 5   0  0.4033144E-04  0.9003195E+03  0.7818609E-02  0.9425182E-01
        2   -1    0    0  501    0  0.00000000000E+00  0.00000000000E+00  0.20785709750E+03  0.20785709751E+03  0.25500000920E-02 0. -1.
       -2   -1    0    0    0  501  0.00000000000E+00  0.00000000000E+00 -0.97491886618E+03  0.97491886618E+03  0.25500000920E-02 0.  1.
    10030    2    1    2    0    0  0.00000000000E+00  0.00000000000E+00 -0.76706176868E+03  0.11827759637E+04  0.90031951179E+03 0.  0.
        4    1    3    3  502    0 -0.30161582289E+03 -0.20526640894E+03 -0.72995652072E+03  0.81605424961E+03  0.12699999809E+01 0.  1.
       -4    1    3    3    0  502  0.30161582289E+03  0.20526640894E+03 -0.37105247964E+02  0.36672171409E+03  0.12699999809E+01 0. -1.
</event>
<event>
 5   0  0.3959804E-04  0.8998397E+03  0.7818609E-02  0.9425782E-01
       -2   -1    0    0    0  501  0.00000000000E+00  0.00000000000E+00  0.39550682808E+03  0.39550682809E+03  0.25500000920E-02 0.  1.
        2   -1    0    0  501    0  0.00000000000E+00  0.00000000000E+00 -0.51181889264E+03  0.51181889265E+03  0.25500000920E-02 0. -1.
    10030    2    1    2    0    0  0.00000000000E+00  0.00000000000E+00 -0.11631206456E+03  0.90732572074E+03  0.89983968970E+03 0.  0.
        5    1    3    3  502    0 -0.40469695445E+02 -0.37276951579E+03  0.19253021026E+03  0.42152684377E+03  0.46999998093E+01 0.  1.
       -5    1    3    3    0  502  0.40469695445E+02  0.37276951579E+03 -0.30884227482E+03  0.48579887697E+03  0.46999998093E+01 0. -1.
</event>
<event>
 5   0  0.4236284E-04  0.9002382E+03  0.7818609E-02  0.9425284E-01
        2   -1    0    0  501    0  0.00000000000E+00  0.00000000000E+00  0.36770724666E+03  0.36770724667E+03  0.25500000920E-02 0.  1.
       -2   -1    0    0    0  501  0.00000000000E+00  0.00000000000E+00 -0.55100137557E+03  0.55100137558E+03  0.25500000920E-02 0. -1.
    10030    2    1    2    0    0  0.00000000000E+00  0.00000000000E+00 -0.18329412892E+03  0.91870862224E+03  0.90023818787E+03 0.  0.
        2    1    3    3  502    0  0.11512954615E+02 -0.17805285307E+03 -0.51337122220E+03  0.54349367834E+03  0.25500000920E-02 0. -1.
       -2    1    3    3    0  502 -0.11512954615E+02  0.17805285307E+03  0.33007709328E+03  0.37521494390E+03  0.25500000920E-02 0.  1.
</event>
<event>
 5   0  0.4110039E-04  0.8999625E+03  0.7818609E-02  0.9425628E-01
        2   -1    0    0  501    0  0.00000000000E+00  0.00000000000E+00  0.20445933305E+03  0.20445933307E+03  0.25500000920E-02 0. -1.
       -2   -1    0    0    0  501  0.00000000000E+00  0.00000000000E+00 -0.99033454967E+03  0.99033454968E+03  0.25500000920E-02 0.  1.
    10030    2    1    2    0    0  0.00000000000E+00  0.00000000000E+00 -0.78587521662E+03  0.11947938827E+04  0.89996253597E+03 0.  0.
        3    1    3    3  502    0 -0.14543517935E+03 -0.15861346235E+03 -0.91759070971E+03  0.94248731693E+03  0.10100000352E+00 0.  1.
       -3    1    3    3    0  502  0.14543517935E+03  0.15861346235E+03  0.13171549309E+03  0.25230656581E+03  0.10100000352E+00 0. -1.
</event>
<event>
 5   0  0.4236284E-04  0.9002435E+03  0.7818609E-02  0.9425277E-01
        2   -1    0    0  501    0  0.00000000000E+00  0.00000000000E+00  0.42547832779E+03  0.42547832780E+03  0.25500000920E-02 0.  1.
       -2   -1    0    0    0  501  0.00000000000E+00  0.00000000000E+00 -0.47619252220E+03  0.47619252221E+03  0.25500000920E-02 0. -1.
    10030    2    1    2    0    0  0.00000000000E+00  0.00000000000E+00 -0.50714194410E+02  0.90167085001E+03  0.90024351830E+03 0.  0.
        2    1    3    3  502    0 -0.29673743110E+03 -0.16901029492E+03 -0.31906598583E+03  0.46735498941E+03  0.25500000920E-02 0. -1.
       -2    1    3    3    0  502  0.29673743110E+03  0.16901029492E+03  0.26835179142E+03  0.43431586060E+03  0.25500000920E-02 0.  1.
</event>
<event>
 5   0  0.4110039E-04  0.9008355E+03  0.7818609E-02  0.9424538E-01
        2   -1    0    0  501    0  0.00000000000E+00  0.00000000000E+00  0.35683865322E+03  0.35683865323E+03  0.25500000920E-02 0. -1.
       -2   -1    0    0    0  501  0.00000000000E+00  0.00000000000E+00 -0.56853742437E+03  0.56853742437E+03  0.25500000920E-02 0.  1.
    10030    2    1    2    0    0  0.00000000000E+00  0.00000000000E+00 -0.21169877115E+03  0.92537607760E+03  0.90083545406E+03 0.  0.
        3    1    3    3  502    0  0.25024879478E+03  0.34950365909E+03  0.32347516457E+02  0.43107266096E+03  0.10100000352E+00 0. -1.
       -3    1    3    3    0  502 -0.25024879478E+03 -0.34950365909E+03 -0.24404628761E+03  0.49430341664E+03  0.10100000352E+00 0.  1.
</event>
<event>
 5   0  0.4110039E-04  0.8997685E+03  0.7818609E-02  0.9425871E-01
       -2   -1    0    0    0  501  0.00000000000E+00  0.00000000000E+00  0.24591872599E+03  0.24591872601E+03  0.25500000920E-02 0.  1.
        2   -1    0    0  501    0  0.00000000000E+00  0.00000000000E+00 -0.82301913122E+03  0.82301913122E+03  0.25500000920E-02 0. -1.
    10030    2    1    2    0    0  0.00000000000E+00  0.00000000000E+00 -0.57710040523E+03  0.10689378572E+04  0.89976845072E+03 0.  0.
        3    1    3    3  502    0  0.41275304252E+03 -0.60353910776E+02 -0.48871612683E+03  0.64253492627E+03  0.10100000352E+00 0. -1.
       -3    1    3    3    0  502 -0.41275304252E+03  0.60353910776E+02 -0.88384278398E+02  0.42640293096E+03  0.10100000352E+00 0.  1.
</event>
<event>
 5   0  0.4033144E-04  0.8998298E+03  0.7818609E-02  0.9425794E-01
        2   -1    0    0  501    0  0.00000000000E+00  0.00000000000E+00  0.88364218867E+03  0.88364218867E+03  0.25500000920E-02 0.  1.
       -2   -1    0    0    0  501  0.00000000000E+00  0.00000000000E+00 -0.22907851262E+03  0.22907851263E+03  0.25500000920E-02 0. -1.
    10030    2    1    2    0    0  0.00000000000E+00  0.00000000000E+00  0.65456367605E+03  0.11127207013E+04  0.89982984675E+03 0.  0.
        4    1    3    3  502    0 -0.10051062940E+03  0.38528607727E+03  0.58629973451E+03  0.70872896057E+03  0.12699999809E+01 0.  1.
       -4    1    3    3    0  502  0.10051062940E+03 -0.38528607727E+03  0.68263941536E+02  0.40399174073E+03  0.12699999809E+01 0. -1.
</event>
<event>
 5   0  0.2450427E-04  0.9070470E+03  0.7818609E-02  0.9416815E-01
       -1   -1    0    0    0  501  0.00000000000E+00  0.00000000000E+00  0.31360501360E+03  0.31360501365E+03  0.50400001928E-02 0. -1.
        1   -1    0    0  501    0  0.00000000000E+00  0.00000000000E+00 -0.65586820438E+03  0.65586820440E+03  0.50400001928E-02 0.  1.
    10030    2    1    2    0    0  0.00000000000E+00  0.00000000000E+00 -0.34226319078E+03  0.96947321804E+03  0.90704698266E+03 0.  0.
        3    1    3    3  502    0  0.10880685889E+02 -0.20845757638E+03 -0.60147161472E+03  0.63666401186E+03  0.10100000352E+00 0.  1.
       -3    1    3    3    0  502 -0.10880685889E+02  0.20845757638E+03  0.25920842395E+03  0.33280920619E+03  0.10100000352E+00 0. -1.
</event>
<event>
 5   0  0.2332791E-04  0.8999083E+03  0.7818609E-02  0.9425696E-01
        1   -1    0    0  501    0  0.00000000000E+00  0.00000000000E+00  0.91910481061E+03  0.91910481062E+03  0.50400001928E-02 0.  1.
       -1   -1    0    0    0  501  0.00000000000E+00  0.00000000000E+00 -0.22027820243E+03  0.22027820249E+03  0.50400001928E-02 0. -1.
    10030    2    1    2    0    0  0.00000000000E+00  0.00000000000E+00  0.69882660818E+03  0.11393830131E+04  0.89990834104E+03 0.  0.
        2    1    3    3  502    0  0.24403622711E+03 -0.48944975086E+02  0.82400950013E+03  0.86077926731E+03  0.25500000920E-02 0.  1.
       -2    1    3    3    0  502 -0.24403622711E+03  0.48944975086E+02 -0.12518289195E+03  0.27860374579E+03  0.25500000920E-02 0. -1.
</event>
<event>
 5   0  0.2332791E-04  0.9000005E+03  0.7818609E-02  0.9425581E-01
        1   -1    0    0  501    0  0.00000000000E+00  0.00000000000E+00  0.98171890678E+03  0.98171890680E+03  0.50400001928E-02 0. -1.
       -1   -1    0    0    0  501  0.00000000000E+00  0.00000000000E+00 -0.20627107525E+03  0.20627107531E+03  0.50400001928E-02 0.  1.
    10030    2    1    2    0    0  0.00000000000E+00  0.00000000000E+00  0.77544783153E+03  0.11879899821E+04  0.90000047676E+03 0.  0.
        2    1    3    3  502    0 -0.30278343915E+03  0.30815793590E+03  0.22148352373E+03  0.48548334242E+03  0.25500000920E-02 0. -1.
       -2    1    3    3    0  502  0.30278343915E+03 -0.30815793590E+03  0.55396430780E+03  0.70250663969E+03  0.25500000920E-02 0.  1.
</event>
<event>
 5   0  0.2450427E-04  0.9000088E+03  0.7818609E-02  0.9425570E-01
       -1   -1    0    0    0  501  0.00000000000E+00  0.00000000000E+00  0.70592621330E+03  0.70592621332E+03  0.50400001928E-02 0. -1.
        1   -1    0    0  501    0  0.00000000000E+00  0.00000000000E+00 -0.28686277458E+03  0.28686277462E+03  0.50400001928E-02 0.  1.
    10030    2    1    2    0    0  0.00000000000E+00  0.00000000000E+00  0.41906343873E+03  0.99278898794E+03  0.90000878268E+03 0.  0.
        3    1    3    3  502    0 -0.10498231552E+03  0.42158795003E+03  0.80200785011E+02  0.44180296773E+03  0.10100000352E+00 0. -1.
       -3    1    3    3    0  502  0.10498231552E+03 -0.42158795003E+03  0.33886265372E+03  0.55098602021E+03  0.10100000352E+00 0.  1.
</event>
<event>
 5   0  0.4243516E-04  0.8996406E+03  0.7818609E-02  0.9426031E-01
        2   -1    0    0  501    0  0.00000000000E+00  0.00000000000E+00  0.12122905299E+04  0.12122905299E+04  0.25500000920E-02 0.  1.
       -2   -1    0    0    0  501  0.00000000000E+00  0.00000000000E+00 -0.16690578452E+03  0.16690578454E+03  0.25500000920E-02 0. -1.
    10030    2    1    2    0    0  0.00000000000E+00  0.00000000000E+00  0.10453847454E+04  0.13791963144E+04  0.89964059929E+03 0.  0.
        1    1    3    3  502    0 -0.17252094066E+03  0.31244863410E+02 -0.11236636168E+03  0.20824484560E+03  0.50400001928E-02 0. -1.
       -1    1    3    3    0  502  0.17252094066E+03 -0.31244863410E+02  0.11577511070E+04  0.11709514688E+04  0.50400001928E-02 0.  1.
</event>
<event>
 5   0  0.2450427E-04  0.8998744E+03  0.7818609E-02  0.9425738E-01
       -1   -1    0    0    0  501  0.00000000000E+00  0.00000000000E+00  0.47517972207E+03  0.47517972209E+03  0.50400001928E-02 0.  1.
        1   -1    0    0  501    0  0.00000000000E+00  0.00000000000E+00 -0.42603562460E+03  0.42603562463E+03  0.50400001928E-02 0. -1.
    10030    2    1    2    0    0  0.00000000000E+00  0.00000000000E+00  0.49144097468E+02  0.90121534672E+03  0.89987441282E+03 0.  0.
        3    1    3    3  502    0 -0.44044820814E+03  0.16932227314E+02  0.11505132083E+03  0.45554159086E+03  0.10100000352E+00 0.  1.
       -3    1    3    3    0  502  0.44044820814E+03 -0.16932227314E+02 -0.65907223362E+02  0.44567375586E+03  0.10100000352E+00 0. -1.
</event>
<event>
 5   0  0.4110039E-04  0.8996330E+03  0.7818609E-02  0.9426040E-01
        2   -1    0    0  501    0  0.00000000000E+00  0.00000000000E+00  0.10008112780E+04  0.10008112780E+04  0.25500000920E-02 0. -1.
       -2   -1    0    0    0  501  0.00000000000E+00  0.00000000000E+00 -0.20217085006E+03  0.20217085008E+03  0.25500000920E-02 0.  1.
    10030    2    1    2    0    0  0.00000000000E+00  0.00000000000E+00  0.79864042792E+03  0.12029821281E+04  0.89963296256E+03 0.  0.
        3    1    3    3  502    0 -0.76463532318E+02  0.11073632985E+03 -0.17462291974E+03  0.22045947660E+03  0.10100000352E+00 0.  1.
       -3    1    3    3    0  502  0.76463532318E+02 -0.11073632985E+03  0.97326334766E+03  0.98252265146E+03  0.10100000352E+00 0. -1.
</event>
<event>
 5   0  0.2308362E-04  0.8997883E+03  0.7818609E-02  0.9425846E-01
       -1   -1    0    0    0  501  0.00000000000E+00  0.00000000000E+00  0.17467607135E+03  0.17467607143E+03  0.50400001928E-02 0. -1.
        1   -1    0    0  501    0  0.00000000000E+00  0.00000000000E+00 -0.11587433655E+04  0.11587433656E+04  0.50400001928E-02 0.  1.
    10030    2    1    2    0    0  0.00000000000E+00  0.00000000000E+00 -0.98406729419E+03  0.13334194370E+04  0.89978828367E+03 0.  0.
        1    1    3    3  502    0  0.41667069239E+02  0.32872918612E+03 -0.41066042359E+02  0.33389435803E+03  0.50400001928E-02 0. -1.
       -1    1    3    3    0  502 -0.41667069239E+02 -0.32872918612E+03 -0.94300125183E+03  0.99952507895E+03  0.50400001928E-02 0.  1.
</event>
<event>
 5   0  0.4033144E-04  0.8999632E+03  0.7818609E-02  0.9425627E-01
       -2   -1    0    0    0  501  0.00000000000E+00  0.00000000000E+00  0.10798909177E+03  0.10798909180E+03  0.25500000920E-02 0. -1.
        2   -1    0    0  501    0  0.00000000000E+00  0.00000000000E+00 -0.18750359174E+04  0.18750359174E+04  0.25500000920E-02 0.  1.
    10030    2    1    2    0    0  0.00000000000E+00  0.00000000000E+00 -0.17670468257E+04  0.19830250092E+04  0.89996316767E+03 0.  0.
        4    1    3    3  502    0  0.12984985500E+03 -0.34588604090E+03 -0.31751653956E+03  0.48715141786E+03  0.12699999809E+01 0. -1.
       -4    1    3    3    0  502 -0.12984985500E+03  0.34588604090E+03 -0.14495302861E+04  0.14958735914E+04  0.12699999809E+01 0.  1.
</event>
<event>
 5   0  0.4033144E-04  0.8998837E+03  0.7818609E-02  0.9425727E-01
        2   -1    0    0  501    0  0.00000000000E+00  0.00000000000E+00  0.20511926553E+03  0.20511926555E+03  0.25500000920E-02 0.  1.
       -2   -1    0    0    0  501  0.00000000000E+00  0.00000000000E+00 -0.98697531449E+03  0.98697531449E+03  0.25500000920E-02 0. -1.
    10030    2    1    2    0    0  0.00000000000E+00  0.00000000000E+00 -0.78185604896E+03  0.11920945800E+04  0.89988366274E+03 0.  0.
        4    1    3    3  502    0  0.25541756061E+03 -0.36812241993E+03 -0.44544784724E+03  0.63180506791E+03  0.12699999809E+01 0. -1.
       -4    1    3    3    0  502 -0.25541756061E+03  0.36812241993E+03 -0.33640820172E+03  0.56028951213E+03  0.12699999809E+01 0.  1.
</event>
<event>
 5   0  0.2356918E-04  0.9003803E+03  0.7818609E-02  0.9425106E-01
        1   -1    0    0  501    0  0.00000000000E+00  0.00000000000E+00  0.11701798387E+04  0.11701798387E+04  0.50400001928E-02 0. -1.
       -1   -1    0    0    0  501  0.00000000000E+00  0.00000000000E+00 -0.17319658737E+03  0.17319658745E+03  0.50400001928E-02 0.  1.
    10030    2    1    2    0    0  0.00000000000E+00  0.00000000000E+00  0.99698325132E+03  0.13433764262E+04  0.90038026352E+03 0.  0.
        5    1    3    3  502    0 -0.44193995321E+03 -0.53968201980E+02  0.39923565481E+03  0.59802565759E+03  0.46999998093E+01 0.  1.
       -5    1    3    3    0  502  0.44193995321E+03  0.53968201980E+02  0.59774759651E+03  0.74535076857E+03  0.46999998093E+01 0. -1.
</event>
<event>
 5   0  0.2450427E-04  0.9000121E+03  0.7818609E-02  0.9425566E-01
       -1   -1    0    0    0  501  0.00000000000E+00  0.00000000000E+00  0.15520864426E+03  0.15520864434E+03  0.50400001928E-02 0. -1.
        1   -1    0    0  501    0  0.00000000000E+00  0.00000000000E+00 -0.13047305850E+04  0.13047305850E+04  0.50400001928E-02 0.  1.
    10030    2    1    2    0    0  0.00000000000E+00  0.00000000000E+00 -0.11495219408E+04  0.14599392294E+04  0.90001214501E+03 0.  0.
        3    1    3    3  502    0 -0.14446634129E+03  0.12203085183E+03 -0.12371463503E+04  0.12515163422E+04  0.10100000352E+00 0.  1.
       -3    1    3    3    0  502  0.14446634129E+03 -0.12203085183E+03  0.87624409504E+02  0.20842288719E+03  0.10100000352E+00 0. -1.
</event>
<event>
 5   0  0.2332791E-04  0.8999466E+03  0.7818609E-02  0.9425648E-01
       -1   -1    0    0    0  501  0.00000000000E+00  0.00000000000E+00  0.12690485220E+03  0.12690485230E+03  0.50400001928E-02 0. -1.
        1   -1    0    0  501    0  0.00000000000E+00  0.00000000000E+00 -0.15954943460E+04  0.15954943460E+04  0.50400001928E-02 0.  1.
    10030    2    1    2    0    0  0.00000000000E+00  0.00000000000E+00 -0.14685894938E+04  0.17223991983E+04  0.89994660788E+03 0.  0.
        2    1    3    3  502    0  0.11831803669E+03  0.42932118386E+03 -0.61085048285E+03  0.75594586388E+03  0.25500000920E-02 0. -1.
       -2    1    3    3    0  502 -0.11831803669E+03 -0.42932118386E+03 -0.85773901094E+03  0.96645333442E+03  0.25500000920E-02 0.  1.
</event>
<event>
 5   0  0.4033144E-04  0.9005126E+03  0.7818609E-02  0.9424941E-01
        2   -1    0    0  501    0  0.00000000000E+00  0.00000000000E+00  0.54256950759E+03  0.54256950760E+03  0.25500000920E-02 0. -1.
       -2   -1    0    0    0  501  0.00000000000E+00  0.00000000000E+00 -0.37364932634E+03  0.37364932635E+03  0.25500000920E-02 0.  1.
    10030    2    1    2    0    0  0.00000000000E+00  0.00000000000E+00  0.16892018125E+03  0.91621883395E+03  0.90051258961E+03 0.  0.
        4    1    3    3  502    0 -0.23691335578E+03  0.25936146652E+03  0.37103346921E+03  0.51094398581E+03  0.12699999809E+01 0. -1.
       -4    1    3    3    0  502  0.23691335578E+03 -0.25936146652E+03 -0.20211328796E+03  0.40527484814E+03  0.12699999809E+01 0.  1.
</event>
<event>
 5   0  0.2450427E-04  0.9001300E+03  0.7818609E-02  0.9425419E-01
       -1   -1    0    0    0  501  0.00000000000E+00  0.00000000000E+00  0.12357697280E+04  0.12357697280E+04  0.50400001928E-02 0.  1.
        1   -1    0    0  501    0  0.00000000000E+00  0.00000000000E+00 -0.16391283246E+03  0.16391283254E+03  0.50400001928E-02 0. -1.
    10030    2    1    2    0    0  0.00000000000E+00  0.00000000000E+00  0.10718568956E+04  0.13996825606E+04  0.90013002716E+03 0.  0.
        3    1    3    3  502    0 -0.28345628045E+03 -0.29030229352E+03  0.83879262289E+03  0.93177033595E+03  0.10100000352E+00 0.  1.
       -3    1    3    3    0  502  0.28345628045E+03  0.29030229352E+03  0.23306427269E+03  0.46791222463E+03  0.10100000352E+00 0. -1.
</event>
<event>
 5   0  0.4236284E-04  0.9000140E+03  0.7818609E-02  0.9425564E-01
        2   -1    0    0  501    0  0.00000000000E+00  0.00000000000E+00  0.75607601884E+03  0.75607601884E+03  0.25500000920E-02 0.  1.
       -2   -1    0    0    0  501  0.00000000000E+00  0.00000000000E+00 -0.26783855176E+03  0.26783855177E+03  0.25500000920E-02 0. -1.
    10030    2    1    2    0    0  0.00000000000E+00  0.00000000000E+00  0.48823746708E+03  0.10239145706E+04  0.90001401303E+03 0.  0.
        2    1    3    3  502    0  0.18966140479E+03 -0.40747258479E+03  0.26958185720E+03  0.52409897305E+03  0.25500000920E-02 0. -1.
       -2    1    3    3    0  502 -0.18966140479E+03  0.40747258479E+03  0.21865560988E+03  0.49981559756E+03  0.25500000920E-02 0.  1.
</event>
<event>
 5   0  0.4033144E-04  0.9001664E+03  0.7818609E-02  0.9425373E-01
        2   -1    0    0  501    0  0.00000000000E+00  0.00000000000E+00  0.74453992821E+03  0.74453992822E+03  0.25500000920E-02 0.  1.
       -2   -1    0    0    0  501  0.00000000000E+00  0.00000000000E+00 -0.27208064901E+03  0.27208064902E+03  0.25500000920E-02 0. -1.
    10030    2    1    2    0    0  0.00000000000E+00  0.00000000000E+00  0.47245927920E+03  0.10166205772E+04  0.90016644437E+03 0.  0.
        4    1    3    3  502    0 -0.92478550697E+02  0.51257032890E+02 -0.25785337876E+03  0.27869256108E+03  0.12699999809E+01 0. -1.
       -4    1    3    3    0  502  0.92478550697E+02 -0.51257032890E+02  0.73031265796E+03  0.73792801616E+03  0.12699999809E+01 0.  1.
</event>
<event>
 5   0  0.2356918E-04  0.9003307E+03  0.7818609E-02  0.9425168E-01
        1   -1    0    0  501    0  0.00000000000E+00  0.00000000000E+00  0.61609500524E+03  0.61609500526E+03  0.50400001928E-02 0.  1.
       -1   -1    0    0    0  501  0.00000000000E+00  0.00000000000E+00 -0.32892466231E+03  0.32892466235E+03  0.50400001928E-02 0. -1.
    10030    2    1    2    0    0  0.00000000000E+00  0.00000000000E+00  0.28717034292E+03  0.94501966761E+03  0.90033069831E+03 0.  0.
        5    1    3    3  502    0  0.10095422873E+03  0.11783150386E+03  0.58711170496E+03  0.60728762848E+03  0.46999998093E+01 0.  1.
       -5    1    3    3    0  502 -0.10095422873E+03 -0.11783150386E+03 -0.29994136204E+03  0.33773203913E+03  0.46999998093E+01 0. -1.
</event>
<event>
 5   0  0.1596250E-04  0.8983690E+03  0.7818609E-02  0.9427623E-01
       -4   -1    0    0    0  501  0.00000000000E+00  0.00000000000E+00  0.80893691567E+03  0.80893791260E+03  0.12699999809E+01 0.  1.
        4   -1    0    0  501    0  0.00000000000E+00  0.00000000000E+00 -0.24941927087E+03  0.24942250416E+03  0.12699999809E+01 0. -1.
    10030    2    1    2    0    0  0.00000000000E+00  0.00000000000E+00  0.55951764480E+03  0.10583604168E+04  0.89836895367E+03 0.  0.
        3    1    3    3  502    0 -0.22083675611E+03  0.17875661236E+03  0.68963273769E+03  0.74586602176E+03  0.10100000352E+00 0.  1.
       -3    1    3    3    0  502  0.22083675611E+03 -0.17875661236E+03 -0.13011509289E+03  0.31249439500E+03  0.10100000352E+00 0. -1.
</event>
<event>
 5   0  0.4236284E-04  0.8992934E+03  0.7818609E-02  0.9426465E-01
       -2   -1    0    0    0  501  0.00000000000E+00  0.00000000000E+00  0.52038599522E+03  0.52038599523E+03  0.25500000920E-02 0.  1.
        2   -1    0    0  501    0  0.00000000000E+00  0.00000000000E+00 -0.38852339704E+03  0.38852339705E+03  0.25500000920E-02 0. -1.
    10030    2    1    2    0    0  0.00000000000E+00  0.00000000000E+00  0.13186259818E+03  0.90890939228E+03  0.89929335513E+03 0.  0.
        2    1    3    3  502    0 -0.28319796919E+03  0.20509235808E+03  0.35165217374E+03  0.49590645933E+03  0.25500000920E-02 0.  1.
       -2    1    3    3    0  502  0.28319796919E+03 -0.20509235808E+03 -0.21978957556E+03  0.41300293296E+03  0.25500000920E-02 0. -1.
</event>
<event>
 5   0  0.4110039E-04  0.9002964E+03  0.7818609E-02  0.9425211E-01
       -2   -1    0    0    0  501  0.00000000000E+00  0.00000000000E+00  0.17729002596E+03  0.17729002598E+03  0.25500000920E-02 0. -1.
        2   -1    0    0  501    0  0.00000000000E+00  0.00000000000E+00 -0.11429487974E+04  0.11429487974E+04  0.25500000920E-02 0.  1.
    10030    2    1    2    0    0  0.00000000000E+00  0.00000000000E+00 -0.96565877142E+03  0.13202388234E+04  0.90029644446E+03 0.  0.
        3    1    3    3  502    0  0.12433410133E+03 -0.24611865200E+03 -0.10046051548E+04  0.10417604748E+04  0.10100000352E+00 0.  1.
       -3    1    3    3    0  502 -0.12433410133E+03  0.24611865200E+03  0.38946383417E+02  0.27847834853E+03  0.10100000352E+00 0. -1.
</event>
<event>
 5   0  0.3959804E-04  0.9002827E+03  0.7818609E-02  0.9425228E-01
       -2   -1    0    0    0  501  0.00000000000E+00  0.00000000000E+00  0.44584001251E+03  0.44584001252E+03  0.25500000920E-02 0. -1.
        2   -1    0    0  501    0  0.00000000000E+00  0.00000000000E+00 -0.45448415346E+03  0.45448415347E+03  0.25500000920E-02 0.  1.
    10030    2    1    2    0    0  0.00000000000E+00  0.00000000000E+00 -0.86441409488E+01  0.90032416599E+03  0.90028266821E+03 0.  0.
        5    1    3    3  502    0 -0.78606139751E+02 -0.20456132068E+03 -0.39750793292E+03  0.45393711663E+03  0.46999998093E+01 0.  1.
       -5    1    3    3    0  502  0.78606139751E+02  0.20456132068E+03  0.38886379197E+03  0.44638704935E+03  0.46999998093E+01 0. -1.
</event>
<event>
 5   0  0.2332791E-04  0.8996465E+03  0.7818609E-02  0.9426023E-01
        1   -1    0    0  501    0  0.00000000000E+00  0.00000000000E+00  0.69878322414E+03  0.69878322416E+03  0.50400001928E-02 0. -1.
       -1   -1    0    0    0  501  0.00000000000E+00  0.00000000000E+00 -0.28956181398E+03  0.28956181403E+03  0.50400001928E-02 0.  1.
    10030    2    1    2    0    0  0.00000000000E+00  0.00000000000E+00  0.40922141016E+03  0.98834503818E+03  0.89964645943E+03 0.  0.
        2    1    3    3  502    0 -0.82052647039E+01  0.44973687367E+03  0.20814607142E+03  0.49563632732E+03  0.25500000920E-02 0.  1.
       -2    1    3    3    0  502  0.82052647039E+01 -0.44973687367E+03  0.20107533874E+03  0.49270871086E+03  0.25500000920E-02 0. -1.
</event>
<event>
 5   0  0.4236284E-04  0.9000737E+03  0.7818609E-02  0.9425489E-01
        2   -1    0    0  501    0  0.00000000000E+00  0.00000000000E+00  0.69441202138E+03  0.69441202139E+03  0.25500000920E-02 0.  1.
       -2   -1    0    0    0  501  0.00000000000E+00  0.00000000000E+00 -0.29166137633E+03  0.29166137634E+03  0.25500000920E-02 0. -1.
    10030    2    1    2    0    0  0.00000000000E+00  0.00000000000E+00  0.40275064505E+03  0.98607339773E+03  0.90007369900E+03 0.  0.
        2    1    3    3  502    0  0.44060452658E+03 -0.78967567910E+02  0.15040068679E+03  0.47221667931E+03  0.25500000920E-02 0. -1.
       -2    1    3    3    0  502 -0.44060452658E+03  0.78967567910E+02  0.25234995826E+03  0.51385671842E+03  0.25500000920E-02 0.  1.
</event>
<event>
 5   0  0.2332791E-04  0.8999456E+03  0.7818609E-02  0.9425649E-01
        1   -1    0    0  501    0  0.00000000000E+00  0.00000000000E+00  0.11854624973E+04  0.11854624973E+04  0.50400001928E-02 0.  1.
       -1   -1    0    0    0  501  0.00000000000E+00  0.00000000000E+00 -0.17079876397E+03  0.17079876404E+03  0.50400001928E-02 0. -1.
    10030    2    1    2    0    0  0.00000000000E+00  0.00000000000E+00  0.10146637333E+04  0.13562612613E+04  0.89994561906E+03 0.  0.
        2    1    3    3  502    0  0.20967530045E+03 -0.34507680309E+03  0.80660063200E+03  0.90202345379E+03  0.25500000920E-02 0.  1.
       -2    1    3    3    0  502 -0.20967530045E+03  0.34507680309E+03  0.20806310130E+03  0.45423780752E+03  0.25500000920E-02 0. -1.
</event>
<event>
 5   0  0.3959804E-04  0.8999347E+03  0.7818609E-02  0.9425663E-01
       -2   -1    0    0    0  501  0.00000000000E+00  0.00000000000E+00  0.12693787762E+03  0.12693787765E+03  0.25500000920E-02 0.  1.
        2   -1    0    0  501    0  0.00000000000E+00  0.00000000000E+00 -0.15950369476E+04  0.15950369476E+04  0.25500000920E-02 0. -1.
    10030    2    1    2    0    0  0.00000000000E+00  0.00000000000E+00 -0.14680990700E+04  0.17219748252E+04  0.89993467513E+03 0.  0.
        5    1    3    3  502    0  0.24837798494E+03  0.79680321176E+02 -0.32548572622E+02  0.26291077681E+03  0.46999998093E+01 0.  1.
       -5    1    3    3    0  502 -0.24837798494E+03 -0.79680321176E+02 -0.14355504973E+04  0.14590640484E+04  0.46999998093E+01 0. -1.
</event>
<event>
 5   0  0.2351435E-04  0.8996443E+03  0.7818609E-02  0.9426026E-01
       -1   -1    0    0    0  501  0.00000000000E+00  0.00000000000E+00  0.26487465165E+03  0.26487465169E+03  0.50400001928E-02 0. -1.
        1   -1    0    0  501    0  0.00000000000E+00  0.00000000000E+00 -0.76390831923E+03  0.76390831925E+03  0.50400001928E-02 0.  1.
    10030    2    1    2    0    0  0.00000000000E+00  0.00000000000E+00 -0.49903366759E+03  0.10287829709E+04  0.89964426298E+03 0.  0.
        4    1    3    3  502    0  0.35533165259E+03  0.14253425669E+03  0.20518819354E+02  0.38340478937E+03  0.12699999809E+01 0. -1.
       -4    1    3    3    0  502 -0.35533165259E+03 -0.14253425669E+03 -0.51955248694E+03  0.64537818157E+03  0.12699999809E+01 0.  1.
</event>
<event>
 5   0  0.2332791E-04  0.9000055E+03  0.7818609E-02  0.9425575E-01
        1   -1    0    0  501    0  0.00000000000E+00  0.00000000000E+00  0.64103565855E+03  0.64103565857E+03  0.50400001928E-02 0.  1.
       -1   -1    0    0    0  501  0.00000000000E+00  0.00000000000E+00 -0.31589890310E+03  0.31589890314E+03  0.50400001928E-02 0. -1.
    10030    2    1    2    0    0  0.00000000000E+00  0.00000000000E+00  0.32513675545E+03  0.95693456171E+03  0.90000546979E+03 0.  0.
        2    1    3    3  502    0  0.19757851336E+02 -0.33875679405E+03 -0.15168739945E+03  0.37169289119E+03  0.25500000920E-02 0. -1.
       -2    1    3    3    0  502 -0.19757851336E+02  0.33875679405E+03  0.47682415489E+03  0.58524167051E+03  0.25500000920E-02 0.  1.
</event>
<event>
 5   0  0.2308362E-04  0.9000335E+03  0.7818609E-02  0.9425540E-01
        1   -1    0    0  501    0  0.00000000000E+00  0.00000000000E+00  0.28685421875E+03  0.28685421879E+03  0.50400001928E-02 0. -1.
       -1   -1    0    0    0  501  0.00000000000E+00  0.00000000000E+00 -0.70598601493E+03  0.70598601495E+03  0.50400001928E-02 0.  1.
    10030    2    1    2    0    0  0.00000000000E+00  0.00000000000E+00 -0.41913179618E+03  0.99284023374E+03  0.90003348113E+03 0.  0.
        1    1    3    3  502    0 -0.21086485410E+03 -0.34098932660E+03  0.15905363502E+02  0.40123644920E+03  0.50400001928E-02 0. -1.
       -1    1    3    3    0  502  0.21086485410E+03  0.34098932660E+03 -0.43503715969E+03  0.59160378454E+03  0.50400001928E-02 0.  1.
</event>
<event>
 5   0  0.3959804E-04  0.8982829E+03  0.7818609E-02  0.9427730E-01
        2   -1    0    0  501    0  0.00000000000E+00  0.00000000000E+00  0.10544026944E+04  0.10544026944E+04  0.25500000920E-02 0. -1.
       -2   -1    0    0    0  501  0.00000000000E+00  0.00000000000E+00 -0.19131973612E+03  0.19131973613E+03  0.25500000920E-02 0.  1.
    10030    2    1    2    0    0  0.00000000000E+00  0.00000000000E+00  0.86308295832E+03  0.12457224306E+04  0.89828290704E+03 0.  0.
        5    1    3    3  502    0  0.40975429023E+03 -0.18117861011E+03  0.38809096474E+03  0.59275707844E+03  0.46999998093E+01 0.  1.
       -5    1    3    3    0  502 -0.40975429023E+03  0.18117861011E+03  0.47499199358E+03  0.65296535213E+03  0.46999998093E+01 0. -1.
</event>
<event>
 5   0  0.2356918E-04  0.8996731E+03  0.7818609E-02  0.9425990E-01
       -1   -1    0    0    0  501  0.00000000000E+00  0.00000000000E+00  0.34367056856E+03  0.34367056860E+03  0.50400001928E-02 0. -1.
        1   -1    0    0  501    0  0.00000000000E+00  0.00000000000E+00 -0.58879909211E+03  0.58879909213E+03  0.50400001928E-02 0.  1.
    10030    2    1    2    0    0  0.00000000000E+00  0.00000000000E+00 -0.24512852355E+03  0.93246966073E+03  0.89967309348E+03 0.  0.
        5    1    3    3  502    0  0.26380903578E+03 -0.36223889508E+03 -0.82174406862E+02  0.45561710636E+03  0.46999998093E+01 0. -1.
       -5    1    3    3    0  502 -0.26380903578E+03  0.36223889508E+03 -0.16295411669E+03  0.47685255437E+03  0.46999998093E+01 0.  1.
</event>
<event>
 5   0  0.2450427E-04  0.8997949E+03  0.7818609E-02  0.9425838E-01
       -1   -1    0    0    0  501  0.00000000000E+00  0.00000000000E+00  0.63145039823E+03  0.63145039825E+03  0.50400001928E-02 0. -1.
        1   -1    0    0  501    0  0.00000000000E+00  0.00000000000E+00 -0.32054412894E+03  0.32054412898E+03  0.50400001928E-02 0.  1.
    10030    2    1    2    0    0  0.00000000000E+00  0.00000000000E+00  0.31090626928E+03  0.95199452723E+03  0.89979490530E+03 0.  0.
        3    1    3    3  502    0  0.52500825890E+02 -0.23531042600E+03 -0.24642516143E+03  0.34475020477E+03  0.10100000352E+00 0.  1.
       -3    1    3    3    0  502 -0.52500825890E+02  0.23531042600E+03  0.55733143071E+03  0.60724432246E+03  0.10100000352E+00 0. -1.
</event>
<event>
 5   0  0.4243516E-04  0.9002669E+03  0.7818609E-02  0.9425248E-01
        2   -1    0    0  501    0  0.00000000000E+00  0.00000000000E+00  0.72755676710E+03  0.72755676710E+03  0.25500000920E-02 0.  1.
       -2   -1    0    0    0  501  0.00000000000E+00  0.00000000000E+00 -0.27849389329E+03  0.27849389330E+03  0.25500000920E-02 0. -1.
    10030    2    1    2    0    0  0.00000000000E+00  0.00000000000E+00  0.44906287381E+03  0.10060506604E+04  0.90026688635E+03 0.  0.
        1    1    3    3  502    0 -0.25380575404E+03  0.33152328368E+03  0.41250810486E+03  0.58693098828E+03  0.50400001928E-02 0. -1.
       -1    1    3    3    0  502  0.25380575404E+03 -0.33152328368E+03  0.36554768946E+02  0.41911967212E+03  0.50400001928E-02 0.  1.
</event>
<event>
 5   0  0.2308362E-04  0.9001402E+03  0.7818609E-02  0.9425406E-01
       -1   -1    0    0    0  501  0.00000000000E+00  0.00000000000E+00  0.16044244258E+03  0.16044244265E+03  0.50400001928E-02 0. -1.
        1   -1    0    0  501    0  0.00000000000E+00  0.00000000000E+00 -0.12625280117E+04  0.12625280117E+04  0.50400001928E-02 0.  1.
    10030    2    1    2    0    0  0.00000000000E+00  0.00000000000E+00 -0.11020855691E+04  0.14229704544E+04  0.90014016260E+03 0.  0.
        1    1    3    3  502    0  0.20360953192E+03  0.21215179652E+03 -0.12403734969E+02  0.29431119402E+03  0.50400001928E-02 0. -1.
       -1    1    3    3    0  502 -0.20360953192E+03 -0.21215179652E+03 -0.10896818342E+04  0.11286592604E+04  0.50400001928E-02 0.  1.
</event>
<event>
 5   0  0.4110039E-04  0.9000184E+03  0.7818609E-02  0.9425558E-01
       -2   -1    0    0    0  501  0.00000000000E+00  0.00000000000E+00  0.15169586887E+03  0.15169586889E+03  0.25500000920E-02 0.  1.
        2   -1    0    0  501    0  0.00000000000E+00  0.00000000000E+00 -0.13349623091E+04  0.13349623091E+04  0.25500000920E-02 0. -1.
    10030    2    1    2    0    0  0.00000000000E+00  0.00000000000E+00 -0.11832664402E+04  0.14866581780E+04  0.90001837182E+03 0.  0.
        3    1    3    3  502    0 -0.32711144143E+03  0.10753816038E+03 -0.10702072890E+04  0.11242375206E+04  0.10100000352E+00 0. -1.
       -3    1    3    3    0  502  0.32711144143E+03 -0.10753816038E+03 -0.11305915126E+03  0.36242065744E+03  0.10100000352E+00 0.  1.
</event>
<event>
 5   0  0.2308362E-04  0.9009966E+03  0.7818609E-02  0.9424336E-01
       -1   -1    0    0    0  501  0.00000000000E+00  0.00000000000E+00  0.62536359940E+03  0.62536359942E+03  0.50400001928E-02 0.  1.
        1   -1    0    0  501    0  0.00000000000E+00  0.00000000000E+00 -0.32452915606E+03  0.32452915610E+03  0.50400001928E-02 0. -1.
    10030    2    1    2    0    0  0.00000000000E+00  0.00000000000E+00  0.30083444333E+03  0.94989275552E+03  0.90099660637E+03 0.  0.
        1    1    3    3  502    0 -0.18321242950E+03  0.38830084179E+03  0.29421727831E+03  0.52048837157E+03  0.50400001928E-02 0.  1.
       -1    1    3    3    0  502  0.18321242950E+03 -0.38830084179E+03  0.66171650272E+01  0.42940438395E+03  0.50400001928E-02 0. -1.
</event>
<event>
 5   0  0.2351435E-04  0.9000795E+03  0.7818609E-02  0.9425482E-01
        1   -1    0    0  501    0  0.00000000000E+00  0.00000000000E+00  0.20751295429E+04  0.20751295429E+04  0.50400001928E-02 0. -1.
       -1   -1    0    0    0  501  0.00000000000E+00  0.00000000000E+00 -0.97601510281E+02  0.97601510411E+02  0.50400001928E-02 0.  1.
    10030    2    1    2    0    0  0.00000000000E+00  0.00000000000E+00  0.19775280326E+04  0.21727310533E+04  0.90007950219E+03 0.  0.
        4    1    3    3  502    0 -0.35835610120E+03 -0.52006583746E+02  0.16338324439E+04  0.16734795629E+04  0.12699999809E+01 0. -1.
       -4    1    3    3    0  502  0.35835610120E+03  0.52006583746E+02  0.34369558875E+03  0.49925149038E+03  0.12699999809E+01 0.  1.
</event>
<event>
 5   0  0.4243516E-04  0.9008631E+03  0.7818609E-02  0.9424503E-01
       -2   -1    0    0    0  501  0.00000000000E+00  0.00000000000E+00  0.15742072932E+03  0.15742072934E+03  0.25500000920E-02 0. -1.
        2   -1    0    0  501    0  0.00000000000E+00  0.00000000000E+00 -0.12888300167E+04  0.12888300167E+04  0.25500000920E-02 0.  1.
    10030    2    1    2    0    0  0.00000000000E+00  0.00000000000E+00 -0.11314092873E+04  0.14462507460E+04  0.90086305553E+03 0.  0.
        1    1    3    3  502    0  0.34265658060E+03 -0.21776463600E+03 -0.87887644428E+03  0.96812125958E+03  0.50400001928E-02 0.  1.
       -1    1    3    3    0  502 -0.34265658060E+03  0.21776463600E+03 -0.25253284306E+03  0.47812948641E+03  0.50400001928E-02 0. -1.
</event>
<event>
 5   0  0.2308362E-04  0.8999728E+03  0.7818609E-02  0.9425615E-01
       -1   -1    0    0    0  501  0.00000000000E+00  0.00000000000E+00  0.33857877659E+03  0.33857877662E+03  0.50400001928E-02 0. -1.
        1   -1    0    0  501    0  0.00000000000E+00  0.00000000000E+00 -0.59805207609E+03  0.59805207611E+03  0.50400001928E-02 0.  1.
    10030    2    1    2    0    0  0.00000000000E+00  0.00000000000E+00 -0.25947329950E+03  0.93663085273E+03  0.89997275577E+03 0.  0.
        1    1    3    3  502    0 -0.19403909340E+03 -0.35384120562E+03  0.77452694280E+02  0.41091810429E+03  0.50400001928E-02 0. -1.
       -1    1    3    3    0  502  0.19403909340E+03  0.35384120562E+03 -0.33692599378E+03  0.52571274844E+03  0.50400001928E-02 0.  1.
</event>
<event>
 5   0  0.2308362E-04  0.9000629E+03  0.7818609E-02  0.9425503E-01
       -1   -1    0    0    0  501  0.00000000000E+00  0.00000000000E+00  0.25866775184E+03  0.25866775189E+03  0.50400001928E-02 0. -1.
        1   -1    0    0  501    0  0.00000000000E+00  0.00000000000E+00 -0.78296700143E+03  0.78296700145E+03  0.50400001928E-02 0.  1.
    10030    2    1    2    0    0  0.00000000000E+00  0.00000000000E+00 -0.52429924960E+03  0.10416347533E+04  0.90006291793E+03 0.  0.
        1    1    3    3  502    0  0.37669104697E+03 -0.10493390253E+03 -0.43539977558E+01  0.39105782960E+03  0.50400001928E-02 0. -1.
       -1    1    3    3    0  502 -0.37669104697E+03  0.10493390253E+03 -0.51994525184E+03  0.65057692374E+03  0.50400001928E-02 0.  1.
</event>
<event>
 5   0  0.4110039E-04  0.8998965E+03  0.7818609E-02  0.9425711E-01
       -2   -1    0    0    0  501  0.00000000000E+00  0.00000000000E+00  0.16228820742E+03  0.16228820744E+03  0.25500000920E-02 0. -1.
        2   -1    0    0  501    0  0.00000000000E+00  0.00000000000E+00 -0.12474931838E+04  0.12474931838E+04  0.25500000920E-02 0.  1.
    10030    2    1    2    0    0  0.00000000000E+00  0.00000000000E+00 -0.10852049763E+04  0.14097813912E+04  0.89989651088E+03 0.  0.
        3    1    3    3  502    0 -0.29109601467E+03 -0.12194241737E+03 -0.40197281176E+02  0.31815511080E+03  0.10100000352E+00 0. -1.
       -3    1    3    3    0  502  0.29109601467E+03  0.12194241737E+03 -0.10450076952E+04  0.10916262804E+04  0.10100000352E+00 0.  1.
</event>
<event>
 5   0  0.3959804E-04  0.9002073E+03  0.7818609E-02  0.9425322E-01
        2   -1    0    0  501    0  0.00000000000E+00  0.00000000000E+00  0.75090778639E+03  0.75090778639E+03  0.25500000920E-02 0. -1.
       -2   -1    0    0    0  501  0.00000000000E+00  0.00000000000E+00 -0.26979785306E+03  0.26979785307E+03  0.25500000920E-02 0.  1.
    10030    2    1    2    0    0  0.00000000000E+00  0.00000000000E+00  0.48110993332E+03  0.10207056395E+04  0.90020732861E+03 0.  0.
        5    1    3    3  502    0  0.35882561848E+03 -0.25266695279E+03  0.35379765732E+03  0.56372979860E+03  0.46999998093E+01 0. -1.
       -5    1    3    3    0  502 -0.35882561848E+03  0.25266695279E+03  0.12731227600E+03  0.45697584086E+03  0.46999998093E+01 0.  1.
</event>
<event>
 5   0  0.4236284E-04  0.8999269E+03  0.7818609E-02  0.9425673E-01
       -2   -1    0    0    0  501  0.00000000000E+00  0.00000000000E+00  0.22255324982E+03  0.22255324984E+03  0.25500000920E-02 0.  1.
        2   -1    0    0  501    0  0.00000000000E+00  0.00000000000E+00 -0.90974679394E+03  0.90974679395E+03  0.25500000920E-02 0. -1.
    10030    2    1    2    0    0  0.00000000000E+00  0.00000000000E+00 -0.68719354412E+03  0.11323000438E+04  0.89992689818E+03 0.  0.
        2    1    3    3  502    0 -0.33623400301E+03  0.20344462489E+03 -0.61932665876E+03  0.73349064782E+03  0.25500000920E-02 0.  1.
       -2    1    3    3    0  502  0.33623400301E+03 -0.20344462489E+03 -0.67866885363E+02  0.39880939597E+03  0.25500000920E-02 0. -1.
</event>
<event>
 5   0  0.4236284E-04  0.8993033E+03  0.7818609E-02  0.9426453E-01
       -2   -1    0    0    0  501  0.00000000000E+00  0.00000000000E+00  0.20071127589E+03  0.20071127591E+03  0.25500000920E-02 0.  1.
        2   -1    0    0  501    0  0.00000000000E+00  0.00000000000E+00 -0.10073505388E+04  0.10073505388E+04  0.25500000920E-02 0. -1.
    10030    2    1    2    0    0  0.00000000000E+00  0.00000000000E+00 -0.80663926291E+03  0.12080618147E+04  0.89930331240E+03 0.  0.
        2    1    3    3  502    0 -0.44514150115E+03 -0.38033647599E+02 -0.47167256661E+03  0.64967108947E+03  0.25500000920E-02 0. -1.
       -2    1    3    3    0  502  0.44514150115E+03  0.38033647599E+02 -0.33496669631E+03  0.55839072524E+03  0.25500000920E-02 0.  1.
</event>
<event>
 5   0  0.4110039E-04  0.9001172E+03  0.7818609E-02  0.9425435E-01
        2   -1    0    0  501    0  0.00000000000E+00  0.00000000000E+00  0.11680860909E+04  0.11680860909E+04  0.25500000920E-02 0.  1.
       -2   -1    0    0    0  501  0.00000000000E+00  0.00000000000E+00 -0.17340564524E+03  0.17340564526E+03  0.25500000920E-02 0. -1.
    10030    2    1    2    0    0  0.00000000000E+00  0.00000000000E+00  0.99468044569E+03  0.13414917362E+04  0.90011715305E+03 0.  0.
        3    1    3    3  502    0 -0.81414961458E+02 -0.18435606874E+03  0.10970791215E+04  0.11154363115E+04  0.10100000352E+00 0.  1.
       -3    1    3    3    0  502  0.81414961458E+02  0.18435606874E+03 -0.10239867578E+03  0.22605542469E+03  0.10100000352E+00 0. -1.
</event>
<event>
 5   0  0.2332791E-04  0.9002575E+03  0.7818609E-02  0.9425260E-01
        1   -1    0    0  501    0  0.00000000000E+00  0.00000000000E+00  0.14323516596E+04  0.14323516596E+04  0.50400001928E-02 0.  1.
       -1   -1    0    0    0  501  0.00000000000E+00  0.00000000000E+00 -0.14145681217E+03  0.14145681226E+03  0.50400001928E-02 0. -1.
    10030    2    1    2    0    0  0.00000000000E+00  0.00000000000E+00  0.12908948475E+04  0.15738084719E+04  0.90025751817E+03 0.  0.
        2    1    3    3  502    0 -0.30304778067E+03  0.27494092690E+03  0.31752844876E+03  0.51793318723E+03  0.25500000920E-02 0. -1.
       -2    1    3    3    0  502  0.30304778067E+03 -0.27494092690E+03  0.97336639871E+03  0.10558752847E+04  0.25500000920E-02 0.  1.
</event>
<event>
 5   0  0.4243516E-04  0.8999179E+03  0.7818609E-02  0.9425684E-01
        2   -1    0    0  501    0  0.00000000000E+00  0.00000000000E+00  0.87501396238E+03  0.87501396238E+03  0.25500000920E-02 0.  1.
       -2   -1    0    0    0  501  0.00000000000E+00  0.00000000000E+00 -0.23138264196E+03  0.23138264197E+03  0.25500000920E-02 0. -1.
    10030    2    1    2    0    0  0.00000000000E+00  0.00000000000E+00  0.64363132042E+03  0.11063966044E+04  0.89991786820E+03 0.  0.
        1    1    3    3  502    0 -0.18065263419E+03 -0.27213078483E+02  0.82736461660E+03  0.84729459736E+03  0.50400001928E-02 0.  1.
       -1    1    3    3    0  502  0.18065263419E+03  0.27213078483E+02 -0.18373329618E+03  0.25910200700E+03  0.50400001928E-02 0. -1.
</event>
<event>
 5   0  0.2308362E-04  0.9001807E+03  0.7818609E-02  0.9425356E-01
        1   -1    0    0  501    0  0.00000000000E+00  0.00000000000E+00  0.41437493347E+03  0.41437493350E+03  0.50400001928E-02 0. -1.
       -1   -1    0    0    0  501  0.00000000000E+00  0.00000000000E+00 -0.48888412558E+03  0.48888412560E+03  0.50400001928E-02 0.  1.
    10030    2    1    2    0    0  0.00000000000E+00  0.00000000000E+00 -0.74509192110E+02  0.90325905910E+03  0.90018070860E+03 0.  0.
        1    1    3    3  502    0  0.26255670112E+03 -0.23441407567E+03 -0.31874082400E+03  0.47484912666E+03  0.50400001928E-02 0.  1.
       -1    1    3    3    0  502 -0.26255670112E+03  0.23441407567E+03  0.24423163189E+03  0.42840993244E+03  0.50400001928E-02 0. -1.
</event>
<event>
 5   0  0.2450427E-04  0.8998390E+03  0.7818609E-02  0.9425783E-01
        1   -1    0    0  501    0  0.00000000000E+00  0.00000000000E+00  0.52374005014E+03  0.52374005017E+03  0.50400001928E-02 0. -1.
       -1   -1    0    0    0  501  0.00000000000E+00  0.00000000000E+00 -0.38650390889E+03  0.38650390892E+03  0.50400001928E-02 0.  1.
    10030    2    1    2    0    0  0.00000000000E+00  0.00000000000E+00  0.13723614125E+03  0.91024395909E+03  0.89983904483E+03 0.  0.
        3    1    3    3  502    0  0.17878497935E+03  0.39506512938E+03 -0.52714867591E+02  0.43682879113E+03  0.10100000352E+00 0.  1.
       -3    1    3    3    0  502 -0.17878497935E+03 -0.39506512938E+03  0.18995100885E+03  0.47341516796E+03  0.10100000352E+00 0. -1.
</event>
<event>
 5   0  0.2351435E-04  0.9002019E+03  0.7818609E-02  0.9425329E-01
        1   -1    0    0  501    0  0.00000000000E+00  0.00000000000E+00  0.56480832540E+03  0.56480832542E+03  0.50400001928E-02 0. -1.
       -1   -1    0    0    0  501  0.00000000000E+00  0.00000000000E+00 -0.35868954929E+03  0.35868954933E+03  0.50400001928E-02 0.  1.
    10030    2    1    2    0    0  0.00000000000E+00  0.00000000000E+00  0.20611877611E+03  0.92349787475E+03  0.90020185226E+03 0.  0.
        4    1    3    3  502    0 -0.21946457262E+03  0.30481912657E+03  0.35748935963E+03  0.51853606789E+03  0.12699999809E+01 0. -1.
       -4    1    3    3    0  502  0.21946457262E+03 -0.30481912657E+03 -0.15137058352E+03  0.40496180686E+03  0.12699999809E+01 0.  1.
</event>
<event>
 5   0  0.4033144E-04  0.9004620E+03  0.7818609E-02  0.9425004E-01
        2   -1    0    0  501    0  0.00000000000E+00  0.00000000000E+00  0.53725239664E+03  0.53725239664E+03  0.25500000920E-02 0.  1.
       -2   -1    0    0    0  501  0.00000000000E+00  0.00000000000E+00 -0.37730489488E+03  0.37730489489E+03  0.25500000920E-02 0. -1.
    10030    2    1    2    0    0  0.00000000000E+00  0.00000000000E+00  0.15994750175E+03  0.91455729153E+03  0.90046201262E+03 0.  0.
        4    1    3    3  502    0 -0.10657006927E+03 -0.32032739354E+03 -0.22258106925E+03  0.40436464238E+03  0.12699999809E+01 0. -1.
       -4    1    3    3    0  502  0.10657006927E+03  0.32032739354E+03  0.38252857101E+03  0.51019264916E+03  0.12699999809E+01 0.  1.
</event>
<event>
 5   0  0.2450427E-04  0.9008019E+03  0.7818609E-02  0.9424580E-01
        1   -1    0    0  501    0  0.00000000000E+00  0.00000000000E+00  0.17259476013E+04  0.17259476013E+04  0.50400001928E-02 0.  1.
       -1   -1    0    0    0  501  0.00000000000E+00  0.00000000000E+00 -0.11753602166E+03  0.11753602177E+03  0.50400001928E-02 0. -1.
    10030    2    1    2    0    0  0.00000000000E+00  0.00000000000E+00  0.16084115797E+04  0.18434836231E+04  0.90080189779E+03 0.  0.
        3    1    3    3  502    0  0.12536079446E+03  0.11421125877E+03 -0.49702447552E+02  0.17671978924E+03  0.10100000352E+00 0. -1.
       -3    1    3    3    0  502 -0.12536079446E+03 -0.11421125877E+03  0.16581140272E+04  0.16667638339E+04  0.10100000352E+00 0.  1.
</event>
<event>
 5   0  0.3959804E-04  0.9002364E+03  0.7818609E-02  0.9425286E-01
        2   -1    0    0  501    0  0.00000000000E+00  0.00000000000E+00  0.39699737343E+03  0.39699737344E+03  0.25500000920E-02 0. -1.
       -2   -1    0    0    0  501  0.00000000000E+00  0.00000000000E+00 -0.51034698508E+03  0.51034698509E+03  0.25500000920E-02 0.  1.
    10030    2    1    2    0    0  0.00000000000E+00  0.00000000000E+00 -0.11334961165E+03  0.90734435852E+03  0.90023644143E+03 0.  0.
        5    1    3    3  502    0 -0.68309019435E+02 -0.16692814144E+03 -0.47230582634E+03  0.50559470936E+03  0.46999998093E+01 0.  1.
       -5    1    3    3    0  502  0.68309019435E+02  0.16692814144E+03  0.35895621469E+03  0.40174964916E+03  0.46999998093E+01 0. -1.
</event>
<event>
 5   0  0.2450427E-04  0.9037855E+03  0.7818609E-02  0.9420862E-01
       -1   -1    0    0    0  501  0.00000000000E+00  0.00000000000E+00  0.21926954560E+03  0.21926954566E+03  0.50400001928E-02 0. -1.
        1   -1    0    0  501    0  0.00000000000E+00  0.00000000000E+00 -0.93130601912E+03  0.93130601913E+03  0.50400001928E-02 0.  1.
    10030    2    1    2    0    0  0.00000000000E+00  0.00000000000E+00 -0.71203647352E+03  0.11505755648E+04  0.90378547823E+03 0.  0.
        3    1    3    3  502    0 -0.36512577474E+03 -0.20413947618E+03 -0.13841283023E+03  0.44062214979E+03  0.10100000352E+00 0. -1.
       -3    1    3    3    0  502  0.36512577474E+03  0.20413947618E+03 -0.57362364329E+03  0.70995341499E+03  0.10100000352E+00 0.  1.
</event>
<event>
 5   0  0.4243516E-04  0.8988143E+03  0.7818609E-02  0.9427065E-01
        2   -1    0    0  501    0  0.00000000000E+00  0.00000000000E+00  0.30365668748E+03  0.30365668749E+03  0.25500000920E-02 0.  1.
       -2   -1    0    0    0  501  0.00000000000E+00  0.00000000000E+00 -0.66511560969E+03  0.66511560969E+03  0.25500000920E-02 0. -1.
    10030    2    1    2    0    0  0.00000000000E+00  0.00000000000E+00 -0.36145892221E+03  0.96877229718E+03  0.89881433642E+03 0.  0.
        1    1    3    3  502    0 -0.27746533178E+02  0.41834282235E+03 -0.63127508804E+01  0.41930947756E+03  0.50400001928E-02 0.  1.
       -1    1    3    3    0  502  0.27746533178E+02 -0.41834282235E+03 -0.35514617133E+03  0.54946281963E+03  0.50400001928E-02 0. -1.
</event>
<event>
 5   0  0.2450427E-04  0.8992438E+03  0.7818609E-02  0.9426527E-01
       -1   -1    0    0    0  501  0.00000000000E+00  0.00000000000E+00  0.51411017427E+03  0.51411017429E+03  0.50400001928E-02 0. -1.
        1   -1    0    0  501    0  0.00000000000E+00  0.00000000000E+00 -0.39322284278E+03  0.39322284281E+03  0.50400001928E-02 0.  1.
    10030    2    1    2    0    0  0.00000000000E+00  0.00000000000E+00  0.12088733149E+03  0.90733301710E+03  0.89924382512E+03 0.  0.
        3    1    3    3  502    0 -0.38672779124E+03 -0.12174450020E+03 -0.13567492711E+03  0.42753690355E+03  0.10100000352E+00 0.  1.
       -3    1    3    3    0  502  0.38672779124E+03  0.12174450020E+03  0.25656225859E+03  0.47979611356E+03  0.10100000352E+00 0. -1.
</event>
<event>
 5   0  0.3959804E-04  0.9000097E+03  0.7818609E-02  0.9425569E-01
        2   -1    0    0  501    0  0.00000000000E+00  0.00000000000E+00  0.10829706293E+04  0.10829706293E+04  0.25500000920E-02 0.  1.
       -2   -1    0    0    0  501  0.00000000000E+00  0.00000000000E+00 -0.18698971715E+03  0.18698971716E+03  0.25500000920E-02 0. -1.
    10030    2    1    2    0    0  0.00000000000E+00  0.00000000000E+00  0.89598091213E+03  0.12699603464E+04  0.90000971474E+03 0.  0.
        5    1    3    3  502    0  0.19001216121E+02 -0.42820109450E+03  0.64128425440E+03  0.77135258376E+03  0.46999998093E+01 0.  1.
       -5    1    3    3    0  502 -0.19001216121E+02  0.42820109450E+03  0.25469665773E+03  0.49860776268E+03  0.46999998093E+01 0. -1.
</event>
<event>
 5   0  0.4110039E-04  0.9003208E+03  0.7818609E-02  0.9425181E-01
       -2   -1    0    0    0  501  0.00000000000E+00  0.00000000000E+00  0.12784915670E+03  0.12784915673E+03  0.25500000920E-02 0. -1.
        2   -1    0    0  501    0  0.00000000000E+00  0.00000000000E+00 -0.15850270388E+04  0.15850270388E+04  0.25500000920E-02 0.  1.
    10030    2    1    2    0    0  0.00000000000E+00  0.00000000000E+00 -0.14571778821E+04  0.17128761956E+04  0.90032076571E+03 0.  0.
        3    1    3    3  502    0 -0.48182026323E+02 -0.31522844173E+03 -0.12409741329E+03  0.34218511996E+03  0.10100000352E+00 0. -1.
       -3    1    3    3    0  502  0.48182026323E+02  0.31522844173E+03 -0.13330804688E+04  0.13706910756E+04  0.10100000352E+00 0.  1.
</event>
<event>
 5   0  0.1596250E-04  0.9001478E+03  0.7818609E-02  0.9425397E-01
       -3   -1    0    0    0  501  0.00000000000E+00  0.00000000000E+00  0.49317125675E+03  0.49317126709E+03  0.10100000352E+00 0.  1.
        3   -1    0    0  501    0  0.00000000000E+00  0.00000000000E+00 -0.41074271706E+03  0.41074272947E+03  0.10100000352E+00 0. -1.
    10030    2    1    2    0    0  0.00000000000E+00  0.00000000000E+00  0.82428539696E+02  0.90391399657E+03  0.90014779289E+03 0.  0.
        3    1    3    3  502    0  0.28693356697E+03 -0.34629681499E+03  0.59012595512E+02  0.45358003986E+03  0.10100000352E+00 0.  1.
       -3    1    3    3    0  502 -0.28693356697E+03  0.34629681499E+03  0.23415944185E+02  0.45033395671E+03  0.10100000352E+00 0. -1.
</event>
<event>
 5   0  0.4110039E-04  0.9000578E+03  0.7818609E-02  0.9425509E-01
        2   -1    0    0  501    0  0.00000000000E+00  0.00000000000E+00  0.79806510664E+03  0.79806510664E+03  0.25500000920E-02 0. -1.
       -2   -1    0    0    0  501  0.00000000000E+00  0.00000000000E+00 -0.25377127648E+03  0.25377127650E+03  0.25500000920E-02 0.  1.
    10030    2    1    2    0    0  0.00000000000E+00  0.00000000000E+00  0.54429383016E+03  0.10518363831E+04  0.90005777779E+03 0.  0.
        3    1    3    3  502    0  0.54428139551E+02  0.32391296635E+03  0.63166790266E+03  0.71195953649E+03  0.10100000352E+00 0. -1.
       -3    1    3    3    0  502 -0.54428139551E+02 -0.32391296635E+03 -0.87374072502E+02  0.33987684665E+03  0.10100000352E+00 0.  1.
</event>
<event>
 5   0  0.2351435E-04  0.8996994E+03  0.7818609E-02  0.9425957E-01
       -1   -1    0    0    0  501  0.00000000000E+00  0.00000000000E+00  0.42754717757E+03  0.42754717760E+03  0.50400001928E-02 0.  1.
        1   -1    0    0  501    0  0.00000000000E+00  0.00000000000E+00 -0.47331565350E+03  0.47331565353E+03  0.50400001928E-02 0. -1.
    10030    2    1    2    0    0  0.00000000000E+00  0.00000000000E+00 -0.45768475933E+02  0.90086283113E+03  0.89969944266E+03 0.  0.
        4    1    3    3  502    0 -0.30264374592E+03 -0.12941750763E+03  0.28414074858E+03  0.43483296348E+03  0.12699999809E+01 0. -1.
       -4    1    3    3    0  502  0.30264374592E+03  0.12941750763E+03 -0.32990922451E+03  0.46602986765E+03  0.12699999809E+01 0.  1.
</event>
<event>
 5   0  0.2351435E-04  0.9001208E+03  0.7818609E-02  0.9425430E-01
       -1   -1    0    0    0  501  0.00000000000E+00  0.00000000000E+00  0.41777427150E+03  0.41777427153E+03  0.50400001928E-02 0.  1.
        1   -1    0    0  501    0  0.00000000000E+00  0.00000000000E+00 -0.48484166974E+03  0.48484166976E+03  0.50400001928E-02 0. -1.
    10030    2    1    2    0    0  0.00000000000E+00  0.00000000000E+00 -0.67067398239E+02  0.90261594129E+03  0.90012082609E+03 0.  0.
        4    1    3    3  502    0 -0.37561160478E+03  0.19316995378E+03 -0.18938025320E+03  0.46288789343E+03  0.12699999809E+01 0.  1.
       -4    1    3    3    0  502  0.37561160478E+03 -0.19316995378E+03  0.12231285496E+03  0.43972804786E+03  0.12699999809E+01 0. -1.
</event>
<event>
 5   0  0.2308362E-04  0.9000181E+03  0.7818609E-02  0.9425559E-01
       -1   -1    0    0    0  501  0.00000000000E+00  0.00000000000E+00  0.18935415778E+03  0.18935415785E+03  0.50400001928E-02 0. -1.
        1   -1    0    0  501    0  0.00000000000E+00  0.00000000000E+00 -0.10694676315E+04  0.10694676315E+04  0.50400001928E-02 0.  1.
    10030    2    1    2    0    0  0.00000000000E+00  0.00000000000E+00 -0.88011347371E+03  0.12588217894E+04  0.90001809468E+03 0.  0.
        1    1    3    3  502    0 -0.16909329377E+03 -0.43939958826E+02 -0.10200970061E+04  0.10349498364E+04  0.50400001928E-02 0.  1.
       -1    1    3    3    0  502  0.16909329377E+03  0.43939958826E+02  0.13998353236E+03  0.22387195299E+03  0.50400001928E-02 0. -1.
</event>
<event>
 5   0  0.2356918E-04  0.9000404E+03  0.7818609E-02  0.9425531E-01
       -1   -1    0    0    0  501  0.00000000000E+00  0.00000000000E+00  0.98028146017E+02  0.98028146147E+02  0.50400001928E-02 0.  1.
        1   -1    0    0  501    0  0.00000000000E+00  0.00000000000E+00 -0.20659185390E+04  0.20659185390E+04  0.50400001928E-02 0. -1.
    10030    2    1    2    0    0  0.00000000000E+00  0.00000000000E+00 -0.19678903930E+04  0.21639466852E+04  0.90004036432E+03 0.  0.
        5    1    3    3  502    0  0.59321679602E+02  0.43996700966E+03 -0.11607216111E+04  0.12427335916E+04  0.46999998093E+01 0.  1.
       -5    1    3    3    0  502 -0.59321679602E+02 -0.43996700966E+03 -0.80716878189E+03  0.92121309355E+03  0.46999998093E+01 0. -1.
</event>
<event>
 5   0  0.2450427E-04  0.8996887E+03  0.7818609E-02  0.9425971E-01
       -1   -1    0    0    0  501  0.00000000000E+00  0.00000000000E+00  0.15430339508E+03  0.15430339516E+03  0.50400001928E-02 0. -1.
        1   -1    0    0  501    0  0.00000000000E+00  0.00000000000E+00 -0.13114418725E+04  0.13114418725E+04  0.50400001928E-02 0.  1.
    10030    2    1    2    0    0  0.00000000000E+00  0.00000000000E+00 -0.11571384774E+04  0.14657452677E+04  0.89968868714E+03 0.  0.
        3    1    3    3  502    0 -0.22776559097E+03 -0.96961950369E+01 -0.12103609228E+04  0.12316431115E+04  0.10100000352E+00 0.  1.
       -3    1    3    3    0  502  0.22776559097E+03  0.96961950369E+01  0.53222445326E+02  0.23410215615E+03  0.10100000352E+00 0. -1.
</event>
<event>
 5   0  0.2351435E-04  0.8974630E+03  0.7818609E-02  0.9428758E-01
       -1   -1    0    0    0  501  0.00000000000E+00  0.00000000000E+00  0.25921416275E+03  0.25921416280E+03  0.50400001928E-02 0. -1.
        1   -1    0    0  501    0  0.00000000000E+00  0.00000000000E+00 -0.77680917542E+03  0.77680917544E+03  0.50400001928E-02 0.  1.
    10030    2    1    2    0    0  0.00000000000E+00  0.00000000000E+00 -0.51759501267E+03  0.10360233382E+04  0.89746295757E+03 0.  0.
        4    1    3    3  502    0  0.14971430202E+03 -0.16231064773E+03 -0.70974829113E+03  0.74330570310E+03  0.12699999809E+01 0.  1.
       -4    1    3    3    0  502 -0.14971430202E+03  0.16231064773E+03  0.19215327846E+03  0.29271763513E+03  0.12699999809E+01 0. -1.
</event>
<event>
 5   0  0.2332791E-04  0.9002297E+03  0.7818609E-02  0.9425294E-01
        1   -1    0    0  501    0  0.00000000000E+00  0.00000000000E+00  0.70396176645E+03  0.70396176647E+03  0.50400001928E-02 0. -1.
       -1   -1    0    0    0  501  0.00000000000E+00  0.00000000000E+00 -0.28780450187E+03  0.28780450191E+03  0.50400001928E-02 0.  1.
    10030    2    1    2    0    0  0.00000000000E+00  0.00000000000E+00  0.41615726458E+03  0.99176626838E+03  0.90022967194E+03 0.  0.
        2    1    3    3  502    0  0.14435408331E+01 -0.74326084421E+02  0.69715185720E+03  0.70110424520E+03  0.25500000920E-02 0. -1.
       -2    1    3    3    0  502 -0.14435408331E+01  0.74326084421E+02 -0.28099459262E+03  0.29066202318E+03  0.25500000920E-02 0.  1.
</event>
<event>
 5   0  0.4236284E-04  0.8994583E+03  0.7818609E-02  0.9426259E-01
        2   -1    0    0  501    0  0.00000000000E+00  0.00000000000E+00  0.19644956370E+04  0.19644956370E+04  0.25500000920E-02 0.  1.
       -2   -1    0    0    0  501  0.00000000000E+00  0.00000000000E+00 -0.10295583460E+03  0.10295583463E+03  0.25500000920E-02 0. -1.
    10030    2    1    2    0    0  0.00000000000E+00  0.00000000000E+00  0.18615398024E+04  0.20674514717E+04  0.89945825453E+03 0.  0.
        2    1    3    3  502    0 -0.26099350610E+03 -0.10099138048E+03  0.17399758003E+04  0.17623372705E+04  0.25500000920E-02 0.  1.
       -2    1    3    3    0  502  0.26099350610E+03  0.10099138048E+03  0.12156400212E+03  0.30511420120E+03  0.25500000920E-02 0. -1.
</event>
<event>
 5   0  0.2450427E-04  0.8997843E+03  0.7818609E-02  0.9425851E-01
       -1   -1    0    0    0  501  0.00000000000E+00  0.00000000000E+00  0.82370714248E+03  0.82370714250E+03  0.50400001928E-02 0. -1.
        1   -1    0    0  501    0  0.00000000000E+00  0.00000000000E+00 -0.24572194963E+03  0.24572194968E+03  0.50400001928E-02 0.  1.
    10030    2    1    2    0    0  0.00000000000E+00  0.00000000000E+00  0.57798519285E+03  0.10694290922E+04  0.89978425194E+03 0.  0.
        3    1    3    3  502    0 -0.17827188582E+03 -0.33166692107E+03 -0.36370747126E+01  0.37655949107E+03  0.10100000352E+00 0.  1.
       -3    1    3    3    0  502  0.17827188582E+03  0.33166692107E+03  0.58162226756E+03  0.69286960110E+03  0.10100000352E+00 0. -1.
</event>
<event>
 5   0  0.2308362E-04  0.8995410E+03  0.7818609E-02  0.9426155E-01
        1   -1    0    0  501    0  0.00000000000E+00  0.00000000000E+00  0.43462442109E+03  0.43462442112E+03  0.50400001928E-02 0.  1.
       -1   -1    0    0    0  501  0.00000000000E+00  0.00000000000E+00 -0.46544435870E+03  0.46544435873E+03  0.50400001928E-02 0. -1.
    10030    2    1    2    0    0  0.00000000000E+00  0.00000000000E+00 -0.30819937617E+02  0.90006877985E+03  0.89954096066E+03 0.  0.
        1    1    3    3  502    0 -0.13875945258E+03 -0.32486430972E+02  0.41143608933E+03  0.43541843037E+03  0.50400001928E-02 0.  1.
       -1    1    3    3    0  502  0.13875945258E+03  0.32486430972E+02 -0.44225602694E+03  0.46465034948E+03  0.50400001928E-02 0. -1.
</event>
<event>
 5   0  0.4236284E-04  0.8999284E+03  0.7818609E-02  0.9425671E-01
        2   -1    0    0  501    0  0.00000000000E+00  0.00000000000E+00  0.45339684425E+03  0.45339684426E+03  0.25500000920E-02 0. -1.
       -2   -1    0    0    0  501  0.00000000000E+00  0.00000000000E+00 -0.44655752117E+03  0.44655752118E+03  0.25500000920E-02 0.  1.
    10030    2    1    2    0    0  0.00000000000E+00  0.00000000000E+00  0.68393230789E+01  0.89995436544E+03  0.89992837689E+03 0.  0.
        2    1    3    3  502    0  0.24632531293E+03  0.14289934965E+03 -0.34497436409E+03  0.44732951592E+03  0.25500000920E-02 0.  1.
       -2    1    3    3    0  502 -0.24632531293E+03 -0.14289934965E+03  0.35181368717E+03  0.45262484953E+03  0.25500000920E-02 0. -1.
</event>
<event>
 5   0  0.2332791E-04  0.8997024E+03  0.7818609E-02  0.9425953E-01
       -1   -1    0    0    0  501  0.00000000000E+00  0.00000000000E+00  0.52955562909E+03  0.52955562912E+03  0.50400001928E-02 0. -1.
        1   -1    0    0  501    0  0.00000000000E+00  0.00000000000E+00 -0.38214326732E+03  0.38214326735E+03  0.50400001928E-02 0.  1.
    10030    2    1    2    0    0  0.00000000000E+00  0.00000000000E+00  0.14741236178E+03  0.91169889647E+03  0.89970243604E+03 0.  0.
        2    1    3    3  502    0 -0.67251137413E+02 -0.36081918565E+03  0.33727607361E+03  0.49846599689E+03  0.25500000920E-02 0. -1.
       -2    1    3    3    0  502  0.67251137413E+02  0.36081918565E+03 -0.18986371183E+03  0.41323289958E+03  0.25500000920E-02 0.  1.
</event>
<event>
 5   0  0.2450427E-04  0.8999355E+03  0.7818609E-02  0.9425662E-01
       -1   -1    0    0    0  501  0.00000000000E+00  0.00000000000E+00  0.74648383315E+03  0.74648383317E+03  0.50400001928E-02 0. -1.
        1   -1    0    0  501    0  0.00000000000E+00  0.00000000000E+00 -0.27123288254E+03  0.27123288259E+03  0.50400001928E-02 0.  1.
    10030    2    1    2    0    0  0.00000000000E+00  0.00000000000E+00  0.47525095061E+03  0.10177167158E+04  0.89993546851E+03 0.  0.
        3    1    3    3  502    0  0.43248554876E+03  0.10861079417E+03  0.16948227690E+03  0.47703700787E+03  0.10100000352E+00 0.  1.
       -3    1    3    3    0  502 -0.43248554876E+03 -0.10861079417E+03  0.30576867371E+03  0.54067970789E+03  0.10100000352E+00 0. -1.
</event>
<event>
 5   0  0.4243516E-04  0.8996876E+03  0.7818609E-02  0.9425972E-01
       -2   -1    0    0    0  501  0.00000000000E+00  0.00000000000E+00  0.11011154672E+03  0.11011154675E+03  0.25500000920E-02 0. -1.
        2   -1    0    0  501    0  0.00000000000E+00  0.00000000000E+00 -0.18377677822E+04  0.18377677822E+04  0.25500000920E-02 0.  1.
    10030    2    1    2    0    0  0.00000000000E+00  0.00000000000E+00 -0.17276562355E+04  0.19478793289E+04  0.89968761920E+03 0.  0.
        1    1    3    3  502    0  0.74593262403E+02  0.18733365942E+03 -0.17344452166E+04  0.17461266461E+04  0.50400001928E-02 0.  1.
       -1    1    3    3    0  502 -0.74593262403E+02 -0.18733365942E+03  0.67889811358E+01  0.20175268285E+03  0.50400001928E-02 0. -1.
</event>
<event>
 5   0  0.4236284E-04  0.8998679E+03  0.7818609E-02  0.9425747E-01
       -2   -1    0    0    0  501  0.00000000000E+00  0.00000000000E+00  0.18817619901E+03  0.18817619902E+03  0.25500000920E-02 0.  1.
        2   -1    0    0  501    0  0.00000000000E+00  0.00000000000E+00 -0.10758031400E+04  0.10758031401E+04  0.25500000920E-02 0. -1.
    10030    2    1    2    0    0  0.00000000000E+00  0.00000000000E+00 -0.88762694104E+03  0.12639793391E+04  0.89986786982E+03 0.  0.
        2    1    3    3  502    0  0.24301174695E+03  0.12009843520E+03  0.60606706781E+02  0.27776161759E+03  0.25500000920E-02 0.  1.
       -2    1    3    3    0  502 -0.24301174695E+03 -0.12009843520E+03 -0.94823364782E+03  0.98621772148E+03  0.25500000920E-02 0. -1.
</event>
<event>
 5   0  0.4033144E-04  0.9000445E+03  0.7818609E-02  0.9425526E-01
       -2   -1    0    0    0  501  0.00000000000E+00  0.00000000000E+00  0.12394965478E+03  0.12394965480E+03  0.25500000920E-02 0. -1.
        2   -1    0    0  501    0  0.00000000000E+00  0.00000000000E+00 -0.16338893511E+04  0.16338893511E+04  0.25500000920E-02 0.  1.
    10030    2    1    2    0    0  0.00000000000E+00  0.00000000000E+00 -0.15099396963E+04  0.17578390059E+04  0.90004449011E+03 0.  0.
        4    1    3    3  502    0  0.36432258926E+03 -0.22223821720E+03 -0.10339061355E+04  0.11185187902E+04  0.12699999809E+01 0.  1.
       -4    1    3    3    0  502 -0.36432258926E+03  0.22223821720E+03 -0.47603356089E+03  0.63932021572E+03  0.12699999809E+01 0. -1.
</event>
<event>
 5   0  0.3959804E-04  0.9003307E+03  0.7818609E-02  0.9425168E-01
       -2   -1    0    0    0  501  0.00000000000E+00  0.00000000000E+00  0.17938107758E+03  0.17938107760E+03  0.25500000920E-02 0.  1.
        2   -1    0    0  501    0  0.00000000000E+00  0.00000000000E+00 -0.11297113479E+04  0.11297113479E+04  0.25500000920E-02 0. -1.
    10030    2    1    2    0    0  0.00000000000E+00  0.00000000000E+00 -0.95033027031E+03  0.13090924255E+04  0.90033069248E+03 0.  0.
        5    1    3    3  502    0 -0.24111242519E+03 -0.29673576121E+03 -0.12973550733E+03  0.40378299299E+03  0.46999998093E+01 0.  1.
       -5    1    3    3    0  502  0.24111242519E+03  0.29673576121E+03 -0.82059476298E+03  0.90530943251E+03  0.46999998093E+01 0. -1.
</event>
<event>
 5   0  0.4033144E-04  0.9000506E+03  0.7818609E-02  0.9425518E-01
        2   -1    0    0  501    0  0.00000000000E+00  0.00000000000E+00  0.93653839638E+03  0.93653839638E+03  0.25500000920E-02 0.  1.
       -2   -1    0    0    0  501  0.00000000000E+00  0.00000000000E+00 -0.21624611632E+03  0.21624611633E+03  0.25500000920E-02 0. -1.
    10030    2    1    2    0    0  0.00000000000E+00  0.00000000000E+00  0.72029228006E+03  0.11527845127E+04  0.90005064526E+03 0.  0.
        4    1    3    3  502    0 -0.18447447544E+03 -0.12082278442E+03  0.86259225312E+03  0.89033476028E+03  0.12699999809E+01 0.  1.
       -4    1    3    3    0  502  0.18447447544E+03  0.12082278442E+03 -0.14229997305E+03  0.26244975244E+03  0.12699999809E+01 0. -1.
</event>
<event>
 5   0  0.4243516E-04  0.9020295E+03  0.7818609E-02  0.9423048E-01
       -2   -1    0    0    0  501  0.00000000000E+00  0.00000000000E+00  0.23421340264E+03  0.23421340265E+03  0.25500000920E-02 0. -1.
        2   -1    0    0  501    0  0.00000000000E+00  0.00000000000E+00 -0.86849988515E+03  0.86849988516E+03  0.25500000920E-02 0.  1.
    10030    2    1    2    0    0  0.00000000000E+00  0.00000000000E+00 -0.63428648252E+03  0.11027132878E+04  0.90202951903E+03 0.  0.
        1    1    3    3  502    0 -0.32400407164E+01  0.38648833640E+03 -0.60130241255E+03  0.71480649367E+03  0.50400001928E-02 0. -1.
       -1    1    3    3    0  502  0.32400407164E+01 -0.38648833640E+03 -0.32984069969E+02  0.38790679414E+03  0.50400001928E-02 0.  1.
</event>
<event>
 5   0  0.2332791E-04  0.9000719E+03  0.7818609E-02  0.9425492E-01
        1   -1    0    0  501    0  0.00000000000E+00  0.00000000000E+00  0.11362844281E+04  0.11362844281E+04  0.50400001928E-02 0.  1.
       -1   -1    0    0    0  501  0.00000000000E+00  0.00000000000E+00 -0.17824089737E+03  0.17824089744E+03  0.50400001928E-02 0. -1.
    10030    2    1    2    0    0  0.00000000000E+00  0.00000000000E+00  0.95804353070E+03  0.13145253255E+04  0.90007189976E+03 0.  0.
        2    1    3    3  502    0 -0.43151904414E+03  0.92951806772E+02  0.35100258503E+03  0.56396058244E+03  0.25500000920E-02 0. -1.
       -2    1    3    3    0  502  0.43151904414E+03 -0.92951806772E+02  0.60704094567E+03  0.75056474309E+03  0.25500000920E-02 0.  1.
</event>
<event>
 5   0  0.4236284E-04  0.9002350E+03  0.7818609E-02  0.9425288E-01
        2   -1    0    0  501    0  0.00000000000E+00  0.00000000000E+00  0.54405029236E+03  0.54405029236E+03  0.25500000920E-02 0.  1.
       -2   -1    0    0    0  501  0.00000000000E+00  0.00000000000E+00 -0.37240267728E+03  0.37240267729E+03  0.25500000920E-02 0. -1.
    10030    2    1    2    0    0  0.00000000000E+00  0.00000000000E+00  0.17164761508E+03  0.91645296965E+03  0.90023504810E+03 0.  0.
        2    1    3    3  502    0 -0.18539780095E+03  0.35609401995E+03 -0.12138790486E+03  0.41941664141E+03  0.25500000920E-02 0. -1.
       -2    1    3    3    0  502  0.18539780095E+03 -0.35609401995E+03  0.29303551994E+03  0.49703632824E+03  0.25500000920E-02 0.  1.
</event>
<event>
 5   0  0.4110039E-04  0.8999433E+03  0.7818609E-02  0.9425652E-01
        2   -1    0    0  501    0  0.00000000000E+00  0.00000000000E+00  0.18890181472E+04  0.18890181472E+04  0.25500000920E-02 0.  1.
       -2   -1    0    0    0  501  0.00000000000E+00  0.00000000000E+00 -0.10718504520E+03  0.10718504523E+03  0.25500000920E-02 0. -1.
    10030    2    1    2    0    0  0.00000000000E+00  0.00000000000E+00  0.17818331020E+04  0.19962031924E+04  0.89994332159E+03 0.  0.
        3    1    3    3  502    0  0.69214871556E+02 -0.65446174752E+02 -0.84563695068E+02  0.12737711317E+03  0.10100000352E+00 0. -1.
       -3    1    3    3    0  502 -0.69214871556E+02  0.65446174752E+02  0.18663967970E+04  0.18688260792E+04  0.10100000352E+00 0.  1.
</event>
<event>
 5   0  0.1596250E-04  0.8997837E+03  0.7818609E-02  0.9425852E-01
       -4   -1    0    0    0  501  0.00000000000E+00  0.00000000000E+00  0.88712527940E+03  0.88712618846E+03  0.12699999809E+01 0. -1.
        4   -1    0    0  501    0  0.00000000000E+00  0.00000000000E+00 -0.22815289409E+03  0.22815642876E+03  0.12699999809E+01 0.  1.
    10030    2    1    2    0    0  0.00000000000E+00  0.00000000000E+00  0.65897238530E+03  0.11152826172E+04  0.89978370271E+03 0.  0.
        2    1    3    3  502    0 -0.21408125429E+03  0.22123079920E+03 -0.77154761816E+02  0.31737471107E+03  0.25500000920E-02 0.  1.
       -2    1    3    3    0  502  0.21408125429E+03 -0.22123079920E+03  0.73612714712E+03  0.79790790614E+03  0.25500000920E-02 0. -1.
</event>
<event>
 5   0  0.4243516E-04  0.9001407E+03  0.7818609E-02  0.9425406E-01
        2   -1    0    0  501    0  0.00000000000E+00  0.00000000000E+00  0.42295689138E+03  0.42295689139E+03  0.25500000920E-02 0. -1.
       -2   -1    0    0    0  501  0.00000000000E+00  0.00000000000E+00 -0.47892191647E+03  0.47892191648E+03  0.25500000920E-02 0.  1.
    10030    2    1    2    0    0  0.00000000000E+00  0.00000000000E+00 -0.55965025095E+02  0.90187880787E+03  0.90014071125E+03 0.  0.
        1    1    3    3  502    0 -0.10120250101E+03  0.20649045359E+03  0.35965350291E+03  0.42688510845E+03  0.50400001928E-02 0. -1.
       -1    1    3    3    0  502  0.10120250101E+03 -0.20649045359E+03 -0.41561852801E+03  0.47499369941E+03  0.50400001928E-02 0.  1.
</event>
<event>
 5   0  0.2308362E-04  0.9003487E+03  0.7818609E-02  0.9425146E-01
        1   -1    0    0  501    0  0.00000000000E+00  0.00000000000E+00  0.35193805633E+03  0.35193805637E+03  0.50400001928E-02 0. -1.
       -1   -1    0    0    0  501  0.00000000000E+00  0.00000000000E+00 -0.57583122742E+03  0.57583122744E+03  0.50400001928E-02 0.  1.
    10030    2    1    2    0    0  0.00000000000E+00  0.00000000000E+00 -0.22389317109E+03  0.92776928381E+03  0.90034865020E+03 0.  0.
        1    1    3    3  502    0  0.15138580413E+03  0.42345247988E+03 -0.90646828345E+02  0.45874449525E+03  0.50400001928E-02 0. -1.
       -1    1    3    3    0  502 -0.15138580413E+03 -0.42345247988E+03 -0.13324634274E+03  0.46902478856E+03  0.50400001928E-02 0.  1.
</event>
<event>
 5   0  0.4236284E-04  0.9004260E+03  0.7818609E-02  0.9425049E-01
       -2   -1    0    0    0  501  0.00000000000E+00  0.00000000000E+00  0.40724123014E+03  0.40724123015E+03  0.25500000920E-02 0. -1.
        2   -1    0    0  501    0  0.00000000000E+00  0.00000000000E+00 -0.49771915554E+03  0.49771915555E+03  0.25500000920E-02 0.  1.
    10030    2    1    2    0    0  0.00000000000E+00  0.00000000000E+00 -0.90477925399E+02  0.90496038570E+03  0.90042603511E+03 0.  0.
        2    1    3    3  502    0 -0.26733434887E+03 -0.69763987178E+02  0.31201852346E+03  0.41676159490E+03  0.25500000920E-02 0. -1.
       -2    1    3    3    0  502  0.26733434887E+03  0.69763987178E+02 -0.40249644886E+03  0.48819879080E+03  0.25500000920E-02 0.  1.
</event>
<event>
 5   0  0.2450427E-04  0.9006422E+03  0.7818609E-02  0.9424779E-01
       -1   -1    0    0    0  501  0.00000000000E+00  0.00000000000E+00  0.32669041249E+03  0.32669041253E+03  0.50400001928E-02 0. -1.
        1   -1    0    0  501    0  0.00000000000E+00  0.00000000000E+00 -0.62073780185E+03  0.62073780188E+03  0.50400001928E-02 0.  1.
    10030    2    1    2    0    0  0.00000000000E+00  0.00000000000E+00 -0.29404738937E+03  0.94742821440E+03  0.90064218991E+03 0.  0.
        3    1    3    3  502    0  0.43464859867E+03 -0.96482359137E+02 -0.75981577893E+02  0.45166520823E+03  0.10100000352E+00 0. -1.
       -3    1    3    3    0  502 -0.43464859867E+03  0.96482359137E+02 -0.21806581147E+03  0.49576300617E+03  0.10100000352E+00 0.  1.
</event>
<event>
 5   0  0.3959804E-04  0.9000419E+03  0.7818609E-02  0.9425529E-01
       -2   -1    0    0    0  501  0.00000000000E+00  0.00000000000E+00  0.29524364283E+03  0.29524364284E+03  0.25500000920E-02 0. -1.
        2   -1    0    0  501    0  0.00000000000E+00  0.00000000000E+00 -0.68593801395E+03  0.68593801395E+03  0.25500000920E-02 0.  1.
    10030    2    1    2    0    0  0.00000000000E+00  0.00000000000E+00 -0.39069437112E+03  0.98118165679E+03  0.90004186125E+03 0.  0.
        5    1    3    3  502    0  0.26784868191E+03 -0.88093825910E+02  0.18697319965E+03  0.33835559098E+03  0.46999998093E+01 0. -1.
       -5    1    3    3    0  502 -0.26784868191E+03  0.88093825910E+02 -0.57766757077E+03  0.64282606581E+03  0.46999998093E+01 0.  1.
</event>
<event>
 5   0  0.2332791E-04  0.9003994E+03  0.7818609E-02  0.9425082E-01
       -1   -1    0    0    0  501  0.00000000000E+00  0.00000000000E+00  0.45376863170E+03  0.45376863173E+03  0.50400001928E-02 0.  1.
        1   -1    0    0  501    0  0.00000000000E+00  0.00000000000E+00 -0.44665886465E+03  0.44665886467E+03  0.50400001928E-02 0. -1.
    10030    2    1    2    0    0  0.00000000000E+00  0.00000000000E+00  0.71097670589E+01  0.90042749641E+03  0.90039942664E+03 0.  0.
        2    1    3    3  502    0  0.40198721460E+02 -0.40843391731E+03 -0.18150649841E+03  0.44875250527E+03  0.25500000920E-02 0.  1.
       -2    1    3    3    0  502 -0.40198721460E+02  0.40843391731E+03  0.18861626546E+03  0.45167499114E+03  0.25500000920E-02 0. -1.
</event>
<event>
 5   0  0.4033144E-04  0.8996583E+03  0.7818609E-02  0.9426009E-01
        2   -1    0    0  501    0  0.00000000000E+00  0.00000000000E+00  0.53139172840E+03  0.53139172840E+03  0.25500000920E-02 0. -1.
       -2   -1    0    0    0  501  0.00000000000E+00  0.00000000000E+00 -0.38078552878E+03  0.38078552879E+03  0.25500000920E-02 0.  1.
    10030    2    1    2    0    0  0.00000000000E+00  0.00000000000E+00  0.15060619962E+03  0.91217725719E+03  0.89965833580E+03 0.  0.
        4    1    3    3  502    0  0.25225534053E+03 -0.25380039325E+03 -0.20106509553E+03  0.41045850214E+03  0.12699999809E+01 0.  1.
       -4    1    3    3    0  502 -0.25225534053E+03  0.25380039325E+03  0.35167129515E+03  0.50171875505E+03  0.12699999809E+01 0. -1.
</event>
<event>
 5   0  0.2308362E-04  0.8998708E+03  0.7818609E-02  0.9425743E-01
       -1   -1    0    0    0  501  0.00000000000E+00  0.00000000000E+00  0.33011247054E+03  0.33011247058E+03  0.50400001928E-02 0. -1.
        1   -1    0    0  501    0  0.00000000000E+00  0.00000000000E+00 -0.61325114090E+03  0.61325114092E+03  0.50400001928E-02 0.  1.
    10030    2    1    2    0    0  0.00000000000E+00  0.00000000000E+00 -0.28313867036E+03  0.94336361150E+03  0.89987076675E+03 0.  0.
        1    1    3    3  502    0 -0.28316030021E+03 -0.21893210386E+03 -0.42738331042E+03  0.55746525969E+03  0.50400001928E-02 0. -1.
       -1    1    3    3    0  502  0.28316030021E+03  0.21893210386E+03  0.14424464006E+03  0.38589835180E+03  0.50400001928E-02 0.  1.
</event>
<event>
 5   0  0.4243516E-04  0.8996676E+03  0.7818609E-02  0.9425997E-01
        2   -1    0    0  501    0  0.00000000000E+00  0.00000000000E+00  0.82538861504E+03  0.82538861504E+03  0.25500000920E-02 0.  1.
       -2   -1    0    0    0  501  0.00000000000E+00  0.00000000000E+00 -0.24515779062E+03  0.24515779063E+03  0.25500000920E-02 0. -1.
    10030    2    1    2    0    0  0.00000000000E+00  0.00000000000E+00  0.58023082442E+03  0.10705464057E+04  0.89966760367E+03 0.  0.
        1    1    3    3  502    0  0.25665431973E+03 -0.26793608413E+03  0.59276460597E+03  0.69930755976E+03  0.50400001928E-02 0. -1.
       -1    1    3    3    0  502 -0.25665431973E+03  0.26793608413E+03 -0.12533781555E+02  0.37123884592E+03  0.50400001928E-02 0.  1.
</event>
<event>
 5   0  0.2351435E-04  0.8998215E+03  0.7818609E-02  0.9425805E-01
       -1   -1    0    0    0  501  0.00000000000E+00  0.00000000000E+00  0.26266021222E+03  0.26266021227E+03  0.50400001928E-02 0.  1.
        1   -1    0    0  501    0  0.00000000000E+00  0.00000000000E+00 -0.77065222204E+03  0.77065222206E+03  0.50400001928E-02 0. -1.
    10030    2    1    2    0    0  0.00000000000E+00  0.00000000000E+00 -0.50799200982E+03  0.10333124343E+04  0.89982148502E+03 0.  0.
        4    1    3    3  502    0  0.14793217426E+03 -0.75379991534E+02  0.22619120603E+03  0.28058892689E+03  0.12699999809E+01 0.  1.
       -4    1    3    3    0  502 -0.14793217426E+03  0.75379991534E+02 -0.73418321586E+03  0.75272350744E+03  0.12699999809E+01 0. -1.
</event>
<event>
 5   0  0.1596250E-04  0.9003469E+03  0.7818609E-02  0.9425148E-01
        3   -1    0    0  501    0  0.00000000000E+00  0.00000000000E+00  0.35719724204E+03  0.35719725632E+03  0.10100000352E+00 0.  1.
       -3   -1    0    0    0  501  0.00000000000E+00  0.00000000000E+00 -0.56735080129E+03  0.56735081028E+03  0.10100000352E+00 0. -1.
    10030    2    1    2    0    0  0.00000000000E+00  0.00000000000E+00 -0.21015355925E+03  0.92454806660E+03  0.90034693812E+03 0.  0.
        4    1    3    3  502    0  0.28091067936E+03  0.34656453754E+03 -0.43150301820E+02  0.44819789146E+03  0.12699999809E+01 0. -1.
       -4    1    3    3    0  502 -0.28091067936E+03 -0.34656453754E+03 -0.16700325743E+03  0.47635017514E+03  0.12699999809E+01 0.  1.
</event>
<event>
 5   0  0.4110039E-04  0.8988053E+03  0.7818609E-02  0.9427076E-01
       -2   -1    0    0    0  501  0.00000000000E+00  0.00000000000E+00  0.27361010675E+03  0.27361010677E+03  0.25500000920E-02 0. -1.
        2   -1    0    0  501    0  0.00000000000E+00  0.00000000000E+00 -0.73814066582E+03  0.73814066582E+03  0.25500000920E-02 0.  1.
    10030    2    1    2    0    0  0.00000000000E+00  0.00000000000E+00 -0.46453055906E+03  0.10117507726E+04  0.89880531014E+03 0.  0.
        3    1    3    3  502    0  0.36038322931E+03  0.11173567344E+03  0.42547937293E+02  0.37969892001E+03  0.10100000352E+00 0. -1.
       -3    1    3    3    0  502 -0.36038322931E+03 -0.11173567344E+03 -0.50707849635E+03  0.63205185258E+03  0.10100000352E+00 0.  1.
</event>
<event>
 5   0  0.2450427E-04  0.9001453E+03  0.7818609E-02  0.9425400E-01
       -1   -1    0    0    0  501  0.00000000000E+00  0.00000000000E+00  0.13232011884E+03  0.13232011893E+03  0.50400001928E-02 0. -1.
        1   -1    0    0  501    0  0.00000000000E+00  0.00000000000E+00 -0.15308736369E+04  0.15308736369E+04  0.50400001928E-02 0.  1.
    10030    2    1    2    0    0  0.00000000000E+00  0.00000000000E+00 -0.13985535181E+04  0.16631937558E+04  0.90014528082E+03 0.  0.
        3    1    3    3  502    0  0.37376561974E+03 -0.33520625910E+02 -0.11583870934E+04  0.12176555503E+04  0.10100000352E+00 0.  1.
       -3    1    3    3    0  502 -0.37376561974E+03  0.33520625910E+02 -0.24016642470E+03  0.44553820556E+03  0.10100000352E+00 0. -1.
</event>
<event>
 5   0  0.4243516E-04  0.9053820E+03  0.7818609E-02  0.9418879E-01
        2   -1    0    0  501    0  0.00000000000E+00  0.00000000000E+00  0.12539141133E+04  0.12539141133E+04  0.25500000920E-02 0. -1.
       -2   -1    0    0    0  501  0.00000000000E+00  0.00000000000E+00 -0.16343155719E+03  0.16343155721E+03  0.25500000920E-02 0.  1.
    10030    2    1    2    0    0  0.00000000000E+00  0.00000000000E+00  0.10904825561E+04  0.14173456706E+04  0.90538198821E+03 0.  0.
        1    1    3    3  502    0 -0.10196332418E+03 -0.23810184701E+03  0.11264495190E+04  0.11558449412E+04  0.50400001928E-02 0. -1.
       -1    1    3    3    0  502  0.10196332418E+03  0.23810184701E+03 -0.35966962903E+02  0.26150072939E+03  0.50400001928E-02 0.  1.
</event>
<event>
 5   0  0.2351435E-04  0.8982333E+03  0.7818609E-02  0.9427793E-01
       -1   -1    0    0    0  501  0.00000000000E+00  0.00000000000E+00  0.13539878183E+03  0.13539878192E+03  0.50400001928E-02 0. -1.
        1   -1    0    0  501    0  0.00000000000E+00  0.00000000000E+00 -0.14897161316E+04  0.14897161316E+04  0.50400001928E-02 0.  1.
    10030    2    1    2    0    0  0.00000000000E+00  0.00000000000E+00 -0.13543173498E+04  0.16251149135E+04  0.89823326497E+03 0.  0.
        4    1    3    3  502    0 -0.42687111412E+03  0.11517858975E+03 -0.53448033415E+03  0.69365401758E+03  0.12699999809E+01 0. -1.
       -4    1    3    3    0  502  0.42687111412E+03 -0.11517858975E+03 -0.81983701563E+03  0.93146089596E+03  0.12699999809E+01 0.  1.
</event>
<event>
 5   0  0.4110039E-04  0.8999728E+03  0.7818609E-02  0.9425615E-01
        2   -1    0    0  501    0  0.00000000000E+00  0.00000000000E+00  0.84752367014E+03  0.84752367014E+03  0.25500000920E-02 0. -1.
       -2   -1    0    0    0  501  0.00000000000E+00  0.00000000000E+00 -0.23891695707E+03  0.23891695709E+03  0.25500000920E-02 0.  1.
    10030    2    1    2    0    0  0.00000000000E+00  0.00000000000E+00  0.60860671306E+03  0.10864406272E+04  0.89997283587E+03 0.  0.
        3    1    3    3  502    0  0.56534201759E+02 -0.27891366496E+03  0.72509065513E+03  0.77893864767E+03  0.10100000352E+00 0. -1.
       -3    1    3    3    0  502 -0.56534201759E+02  0.27891366496E+03 -0.11648394207E+03  0.30750197956E+03  0.10100000352E+00 0.  1.
</event>
<event>
 5   0  0.2351435E-04  0.8999981E+03  0.7818609E-02  0.9425584E-01
       -1   -1    0    0    0  501  0.00000000000E+00  0.00000000000E+00  0.38969663144E+03  0.38969663148E+03  0.50400001928E-02 0. -1.
        1   -1    0    0  501    0  0.00000000000E+00  0.00000000000E+00 -0.51963272673E+03  0.51963272676E+03  0.50400001928E-02 0.  1.
    10030    2    1    2    0    0  0.00000000000E+00  0.00000000000E+00 -0.12993609529E+03  0.90932935823E+03  0.89999805160E+03 0.  0.
        4    1    3    3  502    0 -0.32972722238E+03 -0.28020505164E+03  0.59854740418E+02  0.43682847320E+03  0.12699999809E+01 0. -1.
       -4    1    3    3    0  502  0.32972722238E+03  0.28020505164E+03 -0.18979083571E+03  0.47250088504E+03  0.12699999809E+01 0.  1.
</event>
<event>
 5   0  0.2356918E-04  0.8993594E+03  0.7818609E-02  0.9426383E-01
       -1   -1    0    0    0  501  0.00000000000E+00  0.00000000000E+00  0.11079671010E+03  0.11079671021E+03  0.50400001928E-02 0.  1.
        1   -1    0    0  501    0  0.00000000000E+00  0.00000000000E+00 -0.18250708522E+04  0.18250708522E+04  0.50400001928E-02 0. -1.
    10030    2    1    2    0    0  0.00000000000E+00  0.00000000000E+00 -0.17142741421E+04  0.19358675624E+04  0.89935943034E+03 0.  0.
        5    1    3    3  502    0  0.33905418017E+03  0.34878738838E+02 -0.22584448252E+03  0.40890351405E+03  0.46999998093E+01 0.  1.
       -5    1    3    3    0  502 -0.33905418017E+03 -0.34878738838E+02 -0.14884296596E+04  0.15269640484E+04  0.46999998093E+01 0. -1.
</event>
<event>
 5   0  0.2351435E-04  0.8992946E+03  0.7818609E-02  0.9426464E-01
        1   -1    0    0  501    0  0.00000000000E+00  0.00000000000E+00  0.97193856553E+03  0.97193856554E+03  0.50400001928E-02 0.  1.
       -1   -1    0    0    0  501  0.00000000000E+00  0.00000000000E+00 -0.20802003408E+03  0.20802003414E+03  0.50400001928E-02 0. -1.
    10030    2    1    2    0    0  0.00000000000E+00  0.00000000000E+00  0.76391853145E+03  0.11799585997E+04  0.89929459816E+03 0.  0.
        4    1    3    3  502    0  0.11003285643E+02 -0.23576835892E+03 -0.12020291580E+03  0.26487382889E+03  0.12699999809E+01 0. -1.
       -4    1    3    3    0  502 -0.11003285643E+02  0.23576835892E+03  0.88412144725E+03  0.91508477080E+03  0.12699999809E+01 0.  1.
</event>
<event>
 5   0  0.2450427E-04  0.9000845E+03  0.7818609E-02  0.9425476E-01
       -1   -1    0    0    0  501  0.00000000000E+00  0.00000000000E+00  0.11587409155E+03  0.11587409166E+03  0.50400001928E-02 0.  1.
        1   -1    0    0  501    0  0.00000000000E+00  0.00000000000E+00 -0.17479145966E+04  0.17479145966E+04  0.50400001928E-02 0. -1.
    10030    2    1    2    0    0  0.00000000000E+00  0.00000000000E+00 -0.16320405051E+04  0.18637886883E+04  0.90008447627E+03 0.  0.
        3    1    3    3  502    0  0.21061593869E+03 -0.93017365807E+02 -0.16167256891E+04  0.16330380485E+04  0.10100000352E+00 0. -1.
       -3    1    3    3    0  502 -0.21061593869E+03  0.93017365807E+02 -0.15314816003E+02  0.23075063979E+03  0.10100000352E+00 0.  1.
</event>
<event>
 5   0  0.4236284E-04  0.8999549E+03  0.7818609E-02  0.9425638E-01
        2   -1    0    0  501    0  0.00000000000E+00  0.00000000000E+00  0.10836977575E+04  0.10836977575E+04  0.25500000920E-02 0. -1.
       -2   -1    0    0    0  501  0.00000000000E+00  0.00000000000E+00 -0.18684149515E+03  0.18684149517E+03  0.25500000920E-02 0.  1.
    10030    2    1    2    0    0  0.00000000000E+00  0.00000000000E+00  0.89685626235E+03  0.12705392527E+04  0.89995490847E+03 0.  0.
        2    1    3    3  502    0  0.15321447572E+03 -0.32953407601E+03  0.73807506301E+02  0.37083005651E+03  0.25500000920E-02 0.  1.
       -2    1    3    3    0  502 -0.15321447572E+03  0.32953407601E+03  0.82304875605E+03  0.89970919617E+03  0.25500000920E-02 0. -1.
</event>
<event>
 5   0  0.4033144E-04  0.8999720E+03  0.7818609E-02  0.9425616E-01
       -2   -1    0    0    0  501  0.00000000000E+00  0.00000000000E+00  0.34226814671E+03  0.34226814672E+03  0.25500000920E-02 0.  1.
        2   -1    0    0  501    0  0.00000000000E+00  0.00000000000E+00 -0.59160454673E+03  0.59160454674E+03  0.25500000920E-02 0. -1.
    10030    2    1    2    0    0  0.00000000000E+00  0.00000000000E+00 -0.24933640002E+03  0.93387269346E+03  0.89997198135E+03 0.  0.
        4    1    3    3  502    0 -0.43391132850E+03  0.11747050738E+03 -0.14561311917E+03  0.47252846949E+03  0.12699999809E+01 0.  1.
       -4    1    3    3    0  502  0.43391132850E+03 -0.11747050738E+03 -0.10372328085E+03  0.46134422397E+03  0.12699999809E+01 0. -1.
</event>
<event>
 5   0  0.3959804E-04  0.9001218E+03  0.7818609E-02  0.9425429E-01
       -2   -1    0    0    0  501  0.00000000000E+00  0.00000000000E+00  0.21938274421E+03  0.21938274423E+03  0.25500000920E-02 0. -1.
        2   -1    0    0  501    0  0.00000000000E+00  0.00000000000E+00 -0.92329427684E+03  0.92329427684E+03  0.25500000920E-02 0.  1.
    10030    2    1    2    0    0  0.00000000000E+00  0.00000000000E+00 -0.70391153262E+03  0.11426770211E+04  0.90012184104E+03 0.  0.
        5    1    3    3  502    0 -0.14941175834E+03  0.12997083337E+03  0.16106761786E+03  0.25530600969E+03  0.46999998093E+01 0. -1.
       -5    1    3    3    0  502  0.14941175834E+03 -0.12997083337E+03 -0.86497915049E+03  0.88737101138E+03  0.46999998093E+01 0.  1.
</event>
<event>
 5   0  0.1596250E-04  0.9002123E+03  0.7818609E-02  0.9425316E-01
       -4   -1    0    0    0  501  0.00000000000E+00  0.00000000000E+00  0.54517642543E+03  0.54517790467E+03  0.12699999809E+01 0. -1.
        4   -1    0    0  501    0  0.00000000000E+00  0.00000000000E+00 -0.37161156378E+03  0.37161373391E+03  0.12699999809E+01 0.  1.
    10030    2    1    2    0    0  0.00000000000E+00  0.00000000000E+00  0.17356486165E+03  0.91679163859E+03  0.90021227907E+03 0.  0.
        2    1    3    3  502    0  0.10666307145E+03 -0.42711468512E+03 -0.87078068616E+01  0.44031782949E+03  0.25500000920E-02 0.  1.
       -2    1    3    3    0  502 -0.10666307145E+03  0.42711468512E+03  0.18227266852E+03  0.47647380910E+03  0.25500000920E-02 0. -1.
</event>
<event>
 5   0  0.2332791E-04  0.9001101E+03  0.7818609E-02  0.9425444E-01
        1   -1    0    0  501    0  0.00000000000E+00  0.00000000000E+00  0.25980520175E+03  0.25980520180E+03  0.50400001928E-02 0.  1.
       -1   -1    0    0    0  501  0.00000000000E+00  0.00000000000E+00 -0.77962086739E+03  0.77962086741E+03  0.50400001928E-02 0. -1.
    10030    2    1    2    0    0  0.00000000000E+00  0.00000000000E+00 -0.51981566564E+03  0.10394260692E+04  0.90011011944E+03 0.  0.
        2    1    3    3  502    0 -0.42749606503E+03 -0.11397121352E+03 -0.16463188255E+03  0.47206565210E+03  0.25500000920E-02 0. -1.
       -2    1    3    3    0  502  0.42749606503E+03  0.11397121352E+03 -0.35518378309E+03  0.56736041711E+03  0.25500000920E-02 0.  1.
</event>
<event>
 5   0  0.2308362E-04  0.8996854E+03  0.7818609E-02  0.9425975E-01
        1   -1    0    0  501    0  0.00000000000E+00  0.00000000000E+00  0.68035630006E+03  0.68035630008E+03  0.50400001928E-02 0.  1.
       -1   -1    0    0    0  501  0.00000000000E+00  0.00000000000E+00 -0.29743010051E+03  0.29743010055E+03  0.50400001928E-02 0. -1.
    10030    2    1    2    0    0  0.00000000000E+00  0.00000000000E+00  0.38292619955E+03  0.97778640063E+03  0.89968537331E+03 0.  0.
        1    1    3    3  502    0  0.73664779042E+02 -0.48917536481E+02  0.67081747091E+03  0.67662065026E+03  0.50400001928E-02 0.  1.
       -1    1    3    3    0  502 -0.73664779042E+02  0.48917536481E+02 -0.28789127136E+03  0.30116575037E+03  0.50400001928E-02 0. -1.
</event>
<event>
 5   0  0.4110039E-04  0.9000057E+03  0.7818609E-02  0.9425574E-01
       -2   -1    0    0    0  501  0.00000000000E+00  0.00000000000E+00  0.26269909484E+03  0.26269909485E+03  0.25500000920E-02 0. -1.
        2   -1    0    0  501    0  0.00000000000E+00  0.00000000000E+00 -0.77085368891E+03  0.77085368891E+03  0.25500000920E-02 0.  1.
    10030    2    1    2    0    0  0.00000000000E+00  0.00000000000E+00 -0.50815459407E+03  0.10335527838E+04  0.90000570296E+03 0.  0.
        3    1    3    3  502    0 -0.44141272558E+03  0.54210504634E+02 -0.17519252043E+03  0.47799205279E+03  0.10100000352E+00 0. -1.
       -3    1    3    3    0  502  0.44141272558E+03 -0.54210504634E+02 -0.33296207364E+03  0.55556073097E+03  0.10100000352E+00 0.  1.
</event>
<event>
 5   0  0.4243516E-04  0.9002954E+03  0.7818609E-02  0.9425212E-01
        2   -1    0    0  501    0  0.00000000000E+00  0.00000000000E+00  0.15085080875E+04  0.15085080875E+04  0.25500000920E-02 0.  1.
       -2   -1    0    0    0  501  0.00000000000E+00  0.00000000000E+00 -0.13432672810E+03  0.13432672812E+03  0.25500000920E-02 0. -1.
    10030    2    1    2    0    0  0.00000000000E+00  0.00000000000E+00  0.13741813594E+04  0.16428348157E+04  0.90029540870E+03 0.  0.
        1    1    3    3  502    0 -0.40279830617E+02  0.17809302526E+03 -0.63717217125E+02  0.19338943659E+03  0.50400001928E-02 0. -1.
       -1    1    3    3    0  502  0.40279830617E+02 -0.17809302526E+03  0.14378985766E+04  0.14494453791E+04  0.50400001928E-02 0.  1.
</event>
<event>
 5   0  0.1596250E-04  0.8988455E+03  0.7818609E-02  0.9427026E-01
       -3   -1    0    0    0  501  0.00000000000E+00  0.00000000000E+00  0.17986725491E+03  0.17986728327E+03  0.10100000352E+00 0. -1.
        3   -1    0    0  501    0  0.00000000000E+00  0.00000000000E+00 -0.11229435986E+04  0.11229436031E+04  0.10100000352E+00 0.  1.
    10030    2    1    2    0    0  0.00000000000E+00  0.00000000000E+00 -0.94307634366E+03  0.13028108864E+04  0.89884549044E+03 0.  0.
        2    1    3    3  502    0  0.34796266543E+03  0.26630949133E+03 -0.61635066680E+03  0.75623204519E+03  0.25500000920E-02 0. -1.
       -2    1    3    3    0  502 -0.34796266543E+03 -0.26630949133E+03 -0.32672567685E+03  0.54657884118E+03  0.25500000920E-02 0.  1.
</event>
<event>
 5   0  0.3959804E-04  0.9001747E+03  0.7818609E-02  0.9425363E-01
        2   -1    0    0  501    0  0.00000000000E+00  0.00000000000E+00  0.11996754831E+04  0.11996754831E+04  0.25500000920E-02 0. -1.
       -2   -1    0    0    0  501  0.00000000000E+00  0.00000000000E+00 -0.16886119536E+03  0.16886119538E+03  0.25500000920E-02 0.  1.
    10030    2    1    2    0    0  0.00000000000E+00  0.00000000000E+00  0.10308142877E+04  0.13685366785E+04  0.90017473001E+03 0.  0.
        5    1    3    3  502    0  0.29472563324E+03  0.22164649445E+03  0.12316302757E+03  0.38882076687E+03  0.46999998093E+01 0.  1.
       -5    1    3    3    0  502 -0.29472563324E+03 -0.22164649445E+03  0.90765126016E+03  0.97971591161E+03  0.46999998093E+01 0. -1.
</event>
<event>
 5   0  0.2450427E-04  0.9006818E+03  0.7818609E-02  0.9424730E-01
       -1   -1    0    0    0  501  0.00000000000E+00  0.00000000000E+00  0.55518053478E+03  0.55518053480E+03  0.50400001928E-02 0. -1.
        1   -1    0    0  501    0  0.00000000000E+00  0.00000000000E+00 -0.36529908416E+03  0.36529908420E+03  0.50400001928E-02 0.  1.
    10030    2    1    2    0    0  0.00000000000E+00  0.00000000000E+00  0.18988145062E+03  0.92047961899E+03  0.90068183267E+03 0.  0.
        3    1    3    3  502    0 -0.16232640950E+03 -0.14020347560E+03  0.49962457859E+03  0.54372015552E+03  0.10100000352E+00 0. -1.
       -3    1    3    3    0  502  0.16232640950E+03  0.14020347560E+03 -0.30974312797E+03  0.37675946347E+03  0.10100000352E+00 0.  1.
</event>
<event>
 5   0  0.1596250E-04  0.9013452E+03  0.7818609E-02  0.9423901E-01
       -3   -1    0    0    0  501  0.00000000000E+00  0.00000000000E+00  0.88074268303E+03  0.88074268882E+03  0.10100000352E+00 0. -1.
        3   -1    0    0  501    0  0.00000000000E+00  0.00000000000E+00 -0.23060739549E+03  0.23060741761E+03  0.10100000352E+00 0.  1.
    10030    2    1    2    0    0  0.00000000000E+00  0.00000000000E+00  0.65013528754E+03  0.11113501064E+04  0.90134519855E+03 0.  0.
        4    1    3    3  502    0 -0.33934462271E+03 -0.12035103423E+03  0.65926275235E+03  0.75117783110E+03  0.12699999809E+01 0. -1.
       -4    1    3    3    0  502  0.33934462271E+03  0.12035103423E+03 -0.91274648128E+01  0.36017227533E+03  0.12699999809E+01 0.  1.
</event>
<event>
 5   0  0.4236284E-04  0.9000949E+03  0.7818609E-02  0.9425463E-01
       -2   -1    0    0    0  501  0.00000000000E+00  0.00000000000E+00  0.19586206461E+03  0.19586206463E+03  0.25500000920E-02 0.  1.
        2   -1    0    0  501    0  0.00000000000E+00  0.00000000000E+00 -0.10341088069E+04  0.10341088069E+04  0.25500000920E-02 0. -1.
    10030    2    1    2    0    0  0.00000000000E+00  0.00000000000E+00 -0.83824674231E+03  0.12299708716E+04  0.90009485271E+03 0.  0.
        2    1    3    3  502    0  0.11870558051E+03  0.89654666538E+02 -0.99954196847E+03  0.10105508997E+04  0.25500000920E-02 0. -1.
       -2    1    3    3    0  502 -0.11870558051E+03 -0.89654666538E+02  0.16129522616E+03  0.21941997189E+03  0.25500000920E-02 0.  1.
</event>
<event>
 5   0  0.2308362E-04  0.8982231E+03  0.7818609E-02  0.9427805E-01
        1   -1    0    0  501    0  0.00000000000E+00  0.00000000000E+00  0.93251346609E+03  0.93251346610E+03  0.50400001928E-02 0. -1.
       -1   -1    0    0    0  501  0.00000000000E+00  0.00000000000E+00 -0.21629843652E+03  0.21629843658E+03  0.50400001928E-02 0.  1.
    10030    2    1    2    0    0  0.00000000000E+00  0.00000000000E+00  0.71621502957E+03  0.11488119027E+04  0.89822314553E+03 0.  0.
        1    1    3    3  502    0  0.37651801048E+03 -0.16665632301E+03  0.58747395751E+03  0.71740211388E+03  0.50400001928E-02 0. -1.
       -1    1    3    3    0  502 -0.37651801048E+03  0.16665632301E+03  0.12874107205E+03  0.43140978880E+03  0.50400001928E-02 0.  1.
</event>
<event>
 5   0  0.4110039E-04  0.9014149E+03  0.7818609E-02  0.9423814E-01
        2   -1    0    0  501    0  0.00000000000E+00  0.00000000000E+00  0.63593799047E+03  0.63593799048E+03  0.25500000920E-02 0. -1.
       -2   -1    0    0    0  501  0.00000000000E+00  0.00000000000E+00 -0.31942926825E+03  0.31942926826E+03  0.25500000920E-02 0.  1.
    10030    2    1    2    0    0  0.00000000000E+00  0.00000000000E+00  0.31650872222E+03  0.95536725874E+03  0.90141490327E+03 0.  0.
        3    1    3    3  502    0  0.25303377747E+03  0.18963371979E+03 -0.18213859554E+03  0.36491302856E+03  0.10100000352E+00 0.  1.
       -3    1    3    3    0  502 -0.25303377747E+03 -0.18963371979E+03  0.49864731776E+03  0.59045423018E+03  0.10100000352E+00 0. -1.
</event>
<event>
 5   0  0.4236284E-04  0.9011844E+03  0.7818609E-02  0.9424102E-01
        2   -1    0    0  501    0  0.00000000000E+00  0.00000000000E+00  0.68313211123E+03  0.68313211124E+03  0.25500000920E-02 0. -1.
       -2   -1    0    0    0  501  0.00000000000E+00  0.00000000000E+00 -0.29720946811E+03  0.29720946812E+03  0.25500000920E-02 0.  1.
    10030    2    1    2    0    0  0.00000000000E+00  0.00000000000E+00  0.38592264312E+03  0.98034157936E+03  0.90118440164E+03 0.  0.
        2    1    3    3  502    0 -0.17872589967E+03  0.32517416275E+03 -0.85134004921E+02  0.38069539285E+03  0.25500000920E-02 0.  1.
       -2    1    3    3    0  502  0.17872589967E+03 -0.32517416275E+03  0.47105664804E+03  0.59964618652E+03  0.25500000920E-02 0. -1.
</event>
<event>
 5   0  0.2308362E-04  0.9002487E+03  0.7818609E-02  0.9425271E-01
        1   -1    0    0  501    0  0.00000000000E+00  0.00000000000E+00  0.13502043380E+04  0.13502043380E+04  0.50400001928E-02 0. -1.
       -1   -1    0    0    0  501  0.00000000000E+00  0.00000000000E+00 -0.15006018717E+03  0.15006018726E+03  0.50400001928E-02 0.  1.
    10030    2    1    2    0    0  0.00000000000E+00  0.00000000000E+00  0.12001441508E+04  0.15002645253E+04  0.90024866732E+03 0.  0.
        1    1    3    3  502    0  0.53489809617E+02 -0.33636545734E+03  0.10963086772E+03  0.35780135244E+03  0.50400001928E-02 0.  1.
       -1    1    3    3    0  502 -0.53489809617E+02  0.33636545734E+03  0.10905132831E+04  0.11424631728E+04  0.50400001928E-02 0. -1.
</event>
<event>
 5   0  0.3959804E-04  0.8989746E+03  0.7818609E-02  0.9426864E-01
        2   -1    0    0  501    0  0.00000000000E+00  0.00000000000E+00  0.11219648225E+04  0.11219648225E+04  0.25500000920E-02 0.  1.
       -2   -1    0    0    0  501  0.00000000000E+00  0.00000000000E+00 -0.18007590428E+03  0.18007590429E+03  0.25500000920E-02 0. -1.
    10030    2    1    2    0    0  0.00000000000E+00  0.00000000000E+00  0.94188891827E+03  0.13020407268E+04  0.89897459363E+03 0.  0.
        5    1    3    3  502    0 -0.22161885282E+03  0.36714113335E+03  0.27603768634E+03  0.51002590326E+03  0.46999998093E+01 0. -1.
       -5    1    3    3    0  502  0.22161885282E+03 -0.36714113335E+03  0.66585123192E+03  0.79201482358E+03  0.46999998093E+01 0.  1.
</event>
<event>
 5   0  0.4236284E-04  0.8997547E+03  0.7818609E-02  0.9425888E-01
       -2   -1    0    0    0  501  0.00000000000E+00  0.00000000000E+00  0.12246347595E+03  0.12246347597E+03  0.25500000920E-02 0.  1.
        2   -1    0    0  501    0  0.00000000000E+00  0.00000000000E+00 -0.16526531133E+04  0.16526531133E+04  0.25500000920E-02 0. -1.
    10030    2    1    2    0    0  0.00000000000E+00  0.00000000000E+00 -0.15301896374E+04  0.17751165893E+04  0.89975473284E+03 0.  0.
        2    1    3    3  502    0 -0.40804398428E+03 -0.47367022953E+02 -0.11269795147E+04  0.11995108814E+04  0.25500000920E-02 0.  1.
       -2    1    3    3    0  502  0.40804398428E+03  0.47367022953E+02 -0.40321012268E+03  0.57560570793E+03  0.25500000920E-02 0. -1.
</event>
<event>
 5   0  0.3959804E-04  0.8947184E+03  0.7818609E-02  0.9432208E-01
       -2   -1    0    0    0  501  0.00000000000E+00  0.00000000000E+00  0.26253151597E+03  0.26253151598E+03  0.25500000920E-02 0.  1.
        2   -1    0    0  501    0  0.00000000000E+00  0.00000000000E+00 -0.76230950414E+03  0.76230950415E+03  0.25500000920E-02 0. -1.
    10030    2    1    2    0    0  0.00000000000E+00  0.00000000000E+00 -0.49977798818E+03  0.10248410201E+04  0.89471843564E+03 0.  0.
        5    1    3    3  502    0 -0.44389666693E+03 -0.70741740200E+01 -0.31277202215E+03  0.54308629396E+03  0.46999998093E+01 0.  1.
       -5    1    3    3    0  502  0.44389666693E+03  0.70741740200E+01 -0.18700596603E+03  0.48175472617E+03  0.46999998093E+01 0. -1.
</event>
<event>
 5   0  0.2308362E-04  0.8999214E+03  0.7818609E-02  0.9425680E-01
        1   -1    0    0  501    0  0.00000000000E+00  0.00000000000E+00  0.91294606848E+03  0.91294606849E+03  0.50400001928E-02 0.  1.
       -1   -1    0    0    0  501  0.00000000000E+00  0.00000000000E+00 -0.22177061620E+03  0.22177061625E+03  0.50400001928E-02 0. -1.
    10030    2    1    2    0    0  0.00000000000E+00  0.00000000000E+00  0.69117545228E+03  0.11347166847E+04  0.89992135701E+03 0.  0.
        1    1    3    3  502    0 -0.43554356572E+03  0.92214827987E+02  0.26326260094E+03  0.51721269244E+03  0.50400001928E-02 0. -1.
       -1    1    3    3    0  502  0.43554356572E+03 -0.92214827987E+02  0.42791285134E+03  0.61750399230E+03  0.50400001928E-02 0.  1.
</event>
<event>
 5   0  0.4033144E-04  0.8952519E+03  0.7818609E-02  0.9431536E-01
        2   -1    0    0  501    0  0.00000000000E+00  0.00000000000E+00  0.22675787706E+04  0.22675787706E+04  0.25500000920E-02 0. -1.
       -2   -1    0    0    0  501  0.00000000000E+00  0.00000000000E+00 -0.88362520756E+02  0.88362520793E+02  0.25500000920E-02 0.  1.
    10030    2    1    2    0    0  0.00000000000E+00  0.00000000000E+00  0.21792162499E+04  0.23559412914E+04  0.89525186675E+03 0.  0.
        4    1    3    3  502    0  0.10080952829E+03  0.34369839979E+02  0.22337427996E+04  0.22362809203E+04  0.12699999809E+01 0. -1.
       -4    1    3    3    0  502 -0.10080952829E+03 -0.34369839979E+02 -0.54526549713E+02  0.11966037112E+03  0.12699999809E+01 0.  1.
</event>
<event>
 5   0  0.4110039E-04  0.9015785E+03  0.7818609E-02  0.9423610E-01
       -2   -1    0    0    0  501  0.00000000000E+00  0.00000000000E+00  0.28734902582E+03  0.28734902583E+03  0.25500000920E-02 0. -1.
        2   -1    0    0  501    0  0.00000000000E+00  0.00000000000E+00 -0.70719198617E+03  0.70719198618E+03  0.25500000920E-02 0.  1.
    10030    2    1    2    0    0  0.00000000000E+00  0.00000000000E+00 -0.41984296035E+03  0.99454101201E+03  0.90157845649E+03 0.  0.
        3    1    3    3  502    0  0.69104575608E+02  0.18948569670E+03  0.23479866492E+03  0.30953302711E+03  0.10100000352E+00 0. -1.
       -3    1    3    3    0  502 -0.69104575608E+02 -0.18948569670E+03 -0.65464162528E+03  0.68500798489E+03  0.10100000352E+00 0.  1.
</event>
<event>
 5   0  0.3959804E-04  0.9002685E+03  0.7818609E-02  0.9425246E-01
        2   -1    0    0  501    0  0.00000000000E+00  0.00000000000E+00  0.24325930292E+04  0.24325930292E+04  0.25500000920E-02 0. -1.
       -2   -1    0    0    0  501  0.00000000000E+00  0.00000000000E+00 -0.83294171475E+02  0.83294171514E+02  0.25500000920E-02 0.  1.
    10030    2    1    2    0    0  0.00000000000E+00  0.00000000000E+00  0.23492988577E+04  0.25158872007E+04  0.90026845097E+03 0.  0.
        5    1    3    3  502    0 -0.24726555636E+03  0.11264804533E+03  0.17182566559E+03  0.32152136295E+03  0.46999998093E+01 0.  1.
       -5    1    3    3    0  502  0.24726555636E+03 -0.11264804533E+03  0.21774731921E+04  0.21943658378E+04  0.46999998093E+01 0. -1.
</event>
<event>
 5   0  0.4110039E-04  0.9000347E+03  0.7818609E-02  0.9425538E-01
       -2   -1    0    0    0  501  0.00000000000E+00  0.00000000000E+00  0.21731101445E+03  0.21731101446E+03  0.25500000920E-02 0.  1.
        2   -1    0    0  501    0  0.00000000000E+00  0.00000000000E+00 -0.93191607068E+03  0.93191607068E+03  0.25500000920E-02 0. -1.
    10030    2    1    2    0    0  0.00000000000E+00  0.00000000000E+00 -0.71460505623E+03  0.11492270851E+04  0.90003472535E+03 0.  0.
        3    1    3    3  502    0 -0.29118742209E+03 -0.34286271321E+03 -0.37398323715E+03  0.58498583468E+03  0.10100000352E+00 0. -1.
       -3    1    3    3    0  502  0.29118742209E+03  0.34286271321E+03 -0.34062181908E+03  0.56424125047E+03  0.10100000352E+00 0.  1.
</event>
<event>
 5   0  0.2450427E-04  0.8981432E+03  0.7818609E-02  0.9427906E-01
       -1   -1    0    0    0  501  0.00000000000E+00  0.00000000000E+00  0.15253003807E+03  0.15253003816E+03  0.50400001928E-02 0. -1.
        1   -1    0    0  501    0  0.00000000000E+00  0.00000000000E+00 -0.13221349225E+04  0.13221349225E+04  0.50400001928E-02 0.  1.
    10030    2    1    2    0    0  0.00000000000E+00  0.00000000000E+00 -0.11696048844E+04  0.14746649607E+04  0.89814317375E+03 0.  0.
        3    1    3    3  502    0 -0.49810615223E+02  0.25016459755E+03 -0.11916450820E+04  0.12186391734E+04  0.10100000352E+00 0.  1.
       -3    1    3    3    0  502  0.49810615223E+02 -0.25016459755E+03  0.22040197545E+02  0.25602578731E+03  0.10100000352E+00 0. -1.
</event>
<event>
 5   0  0.2450427E-04  0.9000183E+03  0.7818609E-02  0.9425559E-01
       -1   -1    0    0    0  501  0.00000000000E+00  0.00000000000E+00  0.17343621218E+03  0.17343621225E+03  0.50400001928E-02 0.  1.
        1   -1    0    0  501    0  0.00000000000E+00  0.00000000000E+00 -0.11676236124E+04  0.11676236124E+04  0.50400001928E-02 0. -1.
    10030    2    1    2    0    0  0.00000000000E+00  0.00000000000E+00 -0.99418740024E+03  0.13410598247E+04  0.90001825903E+03 0.  0.
        3    1    3    3  502    0  0.23247753418E+03  0.32040629228E+03 -0.17820432410E+03  0.43412300948E+03  0.10100000352E+00 0.  1.
       -3    1    3    3    0  502 -0.23247753418E+03 -0.32040629228E+03 -0.81598307614E+03  0.90693681521E+03  0.10100000352E+00 0. -1.
</event>
<event>
 5   0  0.4033144E-04  0.9001023E+03  0.7818609E-02  0.9425454E-01
       -2   -1    0    0    0  501  0.00000000000E+00  0.00000000000E+00  0.21911250456E+03  0.21911250457E+03  0.25500000920E-02 0.  1.
        2   -1    0    0  501    0  0.00000000000E+00  0.00000000000E+00 -0.92439283215E+03  0.92439283216E+03  0.25500000920E-02 0. -1.
    10030    2    1    2    0    0  0.00000000000E+00  0.00000000000E+00 -0.70528032759E+03  0.11435053367E+04  0.90010228010E+03 0.  0.
        4    1    3    3  502    0 -0.31530087423E+03  0.18863405826E+03 -0.68281902020E+03  0.77539723786E+03  0.12699999809E+01 0. -1.
       -4    1    3    3    0  502  0.31530087423E+03 -0.18863405826E+03 -0.22461307393E+02  0.36810809887E+03  0.12699999809E+01 0.  1.
</event>
<event>
 5   0  0.2356918E-04  0.9000854E+03  0.7818609E-02  0.9425475E-01
        1   -1    0    0  501    0  0.00000000000E+00  0.00000000000E+00  0.30706918254E+03  0.30706918258E+03  0.50400001928E-02 0. -1.
       -1   -1    0    0    0  501  0.00000000000E+00  0.00000000000E+00 -0.65958565086E+03  0.65958565088E+03  0.50400001928E-02 0.  1.
    10030    2    1    2    0    0  0.00000000000E+00  0.00000000000E+00 -0.35251646832E+03  0.96665483347E+03  0.90008538852E+03 0.  0.
        5    1    3    3  502    0 -0.29936915832E+03  0.31875888502E+03 -0.62159414699E+02  0.44171823889E+03  0.46999998093E+01 0.  1.
       -5    1    3    3    0  502  0.29936915832E+03 -0.31875888502E+03 -0.29035705362E+03  0.52493659457E+03  0.46999998093E+01 0. -1.
</event>
<event>
 5   0  0.1596250E-04  0.8992242E+03  0.7818609E-02  0.9426552E-01
        3   -1    0    0  501    0  0.00000000000E+00  0.00000000000E+00  0.62950600825E+03  0.62950601635E+03  0.10100000352E+00 0. -1.
       -3   -1    0    0    0  501  0.00000000000E+00  0.00000000000E+00 -0.32112642660E+03  0.32112644249E+03  0.10100000352E+00 0.  1.
    10030    2    1    2    0    0  0.00000000000E+00  0.00000000000E+00  0.30837958164E+03  0.95063245884E+03  0.89922416862E+03 0.  0.
        2    1    3    3  502    0 -0.40955944161E+03  0.15308216845E+03  0.26495543846E+03  0.51124795441E+03  0.25500000920E-02 0. -1.
       -2    1    3    3    0  502  0.40955944161E+03 -0.15308216845E+03  0.43424143182E+02  0.43938450443E+03  0.25500000920E-02 0.  1.
</event>
<event>
 5   0  0.2450427E-04  0.8974429E+03  0.7818609E-02  0.9428784E-01
        1   -1    0    0  501    0  0.00000000000E+00  0.00000000000E+00  0.38058605811E+03  0.38058605814E+03  0.50400001928E-02 0. -1.
       -1   -1    0    0    0  501  0.00000000000E+00  0.00000000000E+00 -0.52905492983E+03  0.52905492985E+03  0.50400001928E-02 0.  1.
    10030    2    1    2    0    0  0.00000000000E+00  0.00000000000E+00 -0.14846887171E+03  0.90964098799E+03  0.89744287906E+03 0.  0.
        3    1    3    3  502    0  0.16841920256E+03  0.41565586356E+03 -0.89134425077E+02  0.45725242551E+03  0.10100000352E+00 0. -1.
       -3    1    3    3    0  502 -0.16841920256E+03 -0.41565586356E+03 -0.59334446637E+02  0.45238856248E+03  0.10100000352E+00 0.  1.
</event>
<event>
 5   0  0.2356918E-04  0.8953874E+03  0.7818609E-02  0.9431366E-01
        1   -1    0    0  501    0  0.00000000000E+00  0.00000000000E+00  0.10036717389E+04  0.10036717389E+04  0.50400001928E-02 0.  1.
       -1   -1    0    0    0  501  0.00000000000E+00  0.00000000000E+00 -0.19969642869E+03  0.19969642875E+03  0.50400001928E-02 0. -1.
    10030    2    1    2    0    0  0.00000000000E+00  0.00000000000E+00  0.80397531025E+03  0.12033681677E+04  0.89538742874E+03 0.  0.
        5    1    3    3  502    0 -0.15483362525E+03 -0.39604777591E+03  0.21392742173E+03  0.47604025468E+03  0.46999998093E+01 0. -1.
       -5    1    3    3    0  502  0.15483362525E+03  0.39604777591E+03  0.59004788851E+03  0.72732791301E+03  0.46999998093E+01 0.  1.
</event>
<event>
 5   0  0.2450427E-04  0.8996429E+03  0.7818609E-02  0.9426028E-01
        1   -1    0    0  501    0  0.00000000000E+00  0.00000000000E+00  0.41275963935E+03  0.41275963938E+03  0.50400001928E-02 0.  1.
       -1   -1    0    0    0  501  0.00000000000E+00  0.00000000000E+00 -0.49021104051E+03  0.49021104053E+03  0.50400001928E-02 0. -1.
    10030    2    1    2    0    0  0.00000000000E+00  0.00000000000E+00 -0.77451401157E+02  0.90297067991E+03  0.89964288984E+03 0.  0.
        3    1    3    3  502    0 -0.27491891854E+03 -0.61041679193E+02 -0.39078351828E+03  0.48168274489E+03  0.10100000352E+00 0. -1.
       -3    1    3    3    0  502  0.27491891854E+03  0.61041679193E+02  0.31333211712E+03  0.42128793502E+03  0.10100000352E+00 0.  1.
</event>
<event>
 5   0  0.4243516E-04  0.9000268E+03  0.7818609E-02  0.9425548E-01
       -2   -1    0    0    0  501  0.00000000000E+00  0.00000000000E+00  0.74541098137E+02  0.74541098180E+02  0.25500000920E-02 0. -1.
        2   -1    0    0  501    0  0.00000000000E+00  0.00000000000E+00 -0.27167837788E+04  0.27167837788E+04  0.25500000920E-02 0.  1.
    10030    2    1    2    0    0  0.00000000000E+00  0.00000000000E+00 -0.26422426807E+04  0.27913248770E+04  0.90002676923E+03 0.  0.
        1    1    3    3  502    0  0.23394890707E+03  0.33462077593E+02 -0.13340929258E+03  0.27138504220E+03  0.50400001928E-02 0. -1.
       -1    1    3    3    0  502 -0.23394890707E+03 -0.33462077593E+02 -0.25088333881E+04  0.25199398348E+04  0.50400001928E-02 0.  1.
</event>
<event>
 5   0  0.2332791E-04  0.8988983E+03  0.7818609E-02  0.9426960E-01
       -1   -1    0    0    0  501  0.00000000000E+00  0.00000000000E+00  0.14026009868E+03  0.14026009877E+03  0.50400001928E-02 0.  1.
        1   -1    0    0  501    0  0.00000000000E+00  0.00000000000E+00 -0.14402137158E+04  0.14402137158E+04  0.50400001928E-02 0. -1.
    10030    2    1    2    0    0  0.00000000000E+00  0.00000000000E+00 -0.12999536171E+04  0.15804738145E+04  0.89889825448E+03 0.  0.
        2    1    3    3  502    0  0.44174086560E+03  0.62388727702E+02 -0.74591217780E+03  0.86914459251E+03  0.25500000920E-02 0.  1.
       -2    1    3    3    0  502 -0.44174086560E+03 -0.62388727702E+02 -0.55404143928E+03  0.71132922204E+03  0.25500000920E-02 0. -1.
</event>
<event>
 5   0  0.2450427E-04  0.9001184E+03  0.7818609E-02  0.9425433E-01
        1   -1    0    0  501    0  0.00000000000E+00  0.00000000000E+00  0.64868203328E+03  0.64868203329E+03  0.50400001928E-02 0.  1.
       -1   -1    0    0    0  501  0.00000000000E+00  0.00000000000E+00 -0.31225359093E+03  0.31225359097E+03  0.50400001928E-02 0. -1.
    10030    2    1    2    0    0  0.00000000000E+00  0.00000000000E+00  0.33642844235E+03  0.96093562426E+03  0.90011842396E+03 0.  0.
        3    1    3    3  502    0  0.28342960212E+03 -0.22637233326E+03 -0.11620043208E+03  0.38089279757E+03  0.10100000352E+00 0. -1.
       -3    1    3    3    0  502 -0.28342960212E+03  0.22637233326E+03  0.45262887443E+03  0.58004282669E+03  0.10100000352E+00 0.  1.
</event>
<event>
 5   0  0.2332791E-04  0.9063795E+03  0.7818609E-02  0.9417642E-01
       -1   -1    0    0    0  501  0.00000000000E+00  0.00000000000E+00  0.17548504036E+03  0.17548504043E+03  0.50400001928E-02 0. -1.
        1   -1    0    0  501    0  0.00000000000E+00  0.00000000000E+00 -0.11703616764E+04  0.11703616764E+04  0.50400001928E-02 0.  1.
    10030    2    1    2    0    0  0.00000000000E+00  0.00000000000E+00 -0.99487663604E+03  0.13458467168E+04  0.90637953656E+03 0.  0.
        2    1    3    3  502    0 -0.28562552391E+03  0.11858748795E+02 -0.10195907588E+04  0.10589088182E+04  0.25500000920E-02 0.  1.
       -2    1    3    3    0  502  0.28562552391E+03 -0.11858748795E+02  0.24714122719E+02  0.28693789868E+03  0.25500000920E-02 0. -1.
</event>
<event>
 5   0  0.2450427E-04  0.8997391E+03  0.7818609E-02  0.9425908E-01
       -1   -1    0    0    0  501  0.00000000000E+00  0.00000000000E+00  0.61262612720E+03  0.61262612722E+03  0.50400001928E-02 0. -1.
        1   -1    0    0  501    0  0.00000000000E+00  0.00000000000E+00 -0.33035253742E+03  0.33035253746E+03  0.50400001928E-02 0.  1.
    10030    2    1    2    0    0  0.00000000000E+00  0.00000000000E+00  0.28227358979E+03  0.94297866468E+03  0.89973906359E+03 0.  0.
        3    1    3    3  502    0 -0.27771432771E+03  0.31524092153E+03  0.30974224668E+03  0.52196010959E+03  0.10100000352E+00 0. -1.
       -3    1    3    3    0  502  0.27771432771E+03 -0.31524092153E+03 -0.27468656893E+02  0.42101855509E+03  0.10100000352E+00 0.  1.
</event>
<event>
 5   0  0.3959804E-04  0.8998755E+03  0.7818609E-02  0.9425737E-01
       -2   -1    0    0    0  501  0.00000000000E+00  0.00000000000E+00  0.17556429089E+03  0.17556429090E+03  0.25500000920E-02 0.  1.
        2   -1    0    0  501    0  0.00000000000E+00  0.00000000000E+00 -0.11531044872E+04  0.11531044872E+04  0.25500000920E-02 0. -1.
    10030    2    1    2    0    0  0.00000000000E+00  0.00000000000E+00 -0.97754019631E+03  0.13286687781E+04  0.89987548389E+03 0.  0.
        5    1    3    3  502    0  0.53948614854E+02 -0.27241426086E+03 -0.10114227235E+04  0.10488651001E+04  0.46999998093E+01 0. -1.
       -5    1    3    3    0  502 -0.53948614854E+02  0.27241426086E+03  0.33882527225E+02  0.27980367798E+03  0.46999998093E+01 0.  1.
</event>
<event>
 5   0  0.4243516E-04  0.9002993E+03  0.7818609E-02  0.9425207E-01
        2   -1    0    0  501    0  0.00000000000E+00  0.00000000000E+00  0.29329452924E+03  0.29329452925E+03  0.25500000920E-02 0. -1.
       -2   -1    0    0    0  501  0.00000000000E+00  0.00000000000E+00 -0.69089152351E+03  0.69089152351E+03  0.25500000920E-02 0.  1.
    10030    2    1    2    0    0  0.00000000000E+00  0.00000000000E+00 -0.39759699427E+03  0.98418605276E+03  0.90029929278E+03 0.  0.
        1    1    3    3  502    0 -0.44399707000E+03 -0.45185360862E+02 -0.26309725134E+03  0.51806879726E+03  0.50400001928E-02 0.  1.
       -1    1    3    3    0  502  0.44399707000E+03  0.45185360862E+02 -0.13449974293E+03  0.46611725550E+03  0.50400001928E-02 0. -1.
</event>
<event>
 5   0  0.2308362E-04  0.8997833E+03  0.7818609E-02  0.9425852E-01
       -1   -1    0    0    0  501  0.00000000000E+00  0.00000000000E+00  0.10085156359E+03  0.10085156372E+03  0.50400001928E-02 0. -1.
        1   -1    0    0  501    0  0.00000000000E+00  0.00000000000E+00 -0.20069344617E+04  0.20069344617E+04  0.50400001928E-02 0.  1.
    10030    2    1    2    0    0  0.00000000000E+00  0.00000000000E+00 -0.19060828981E+04  0.21077860254E+04  0.89978325974E+03 0.  0.
        1    1    3    3  502    0  0.28731540093E+03  0.25422639642E+03 -0.40256107499E+03  0.55609047769E+03  0.50400001928E-02 0. -1.
       -1    1    3    3    0  502 -0.28731540093E+03 -0.25422639642E+03 -0.15035218231E+04  0.15516955477E+04  0.50400001928E-02 0.  1.
</event>
<event>
 5   0  0.4236284E-04  0.8990628E+03  0.7818609E-02  0.9426754E-01
        2   -1    0    0  501    0  0.00000000000E+00  0.00000000000E+00  0.93076791788E+03  0.93076791788E+03  0.25500000920E-02 0.  1.
       -2   -1    0    0    0  501  0.00000000000E+00  0.00000000000E+00 -0.21710943882E+03  0.21710943884E+03  0.25500000920E-02 0. -1.
    10030    2    1    2    0    0  0.00000000000E+00  0.00000000000E+00  0.71365847906E+03  0.11478773567E+04  0.89906284615E+03 0.  0.
        2    1    3    3  502    0 -0.41647510484E+03  0.16058811865E+03  0.28880783942E+03  0.53164840348E+03  0.25500000920E-02 0. -1.
       -2    1    3    3    0  502  0.41647510484E+03 -0.16058811865E+03  0.42485063964E+03  0.61622895324E+03  0.25500000920E-02 0.  1.
</event>
<event>
 5   0  0.3959804E-04  0.9000034E+03  0.7818609E-02  0.9425577E-01
        2   -1    0    0  501    0  0.00000000000E+00  0.00000000000E+00  0.47315939370E+03  0.47315939370E+03  0.25500000920E-02 0.  1.
       -2   -1    0    0    0  501  0.00000000000E+00  0.00000000000E+00 -0.42797739870E+03  0.42797739871E+03  0.25500000920E-02 0. -1.
    10030    2    1    2    0    0  0.00000000000E+00  0.00000000000E+00  0.45181994995E+02  0.90113679241E+03  0.90000339220E+03 0.  0.
        5    1    3    3  502    0 -0.91074731348E+02  0.13916410503E+03  0.44123018113E+03  0.47155849855E+03  0.46999998093E+01 0.  1.
       -5    1    3    3    0  502  0.91074731348E+02 -0.13916410503E+03 -0.39604818613E+03  0.42957829386E+03  0.46999998093E+01 0. -1.
</event>
<event>
 5   0  0.2332791E-04  0.8995892E+03  0.7818609E-02  0.9426095E-01
        1   -1    0    0  501    0  0.00000000000E+00  0.00000000000E+00  0.99429451957E+03  0.99429451958E+03  0.50400001928E-02 0.  1.
       -1   -1    0    0    0  501  0.00000000000E+00  0.00000000000E+00 -0.20347612526E+03  0.20347612532E+03  0.50400001928E-02 0. -1.
    10030    2    1    2    0    0  0.00000000000E+00  0.00000000000E+00  0.79081839431E+03  0.11977706449E+04  0.89958923126E+03 0.  0.
        2    1    3    3  502    0  0.96867451599E+02  0.26577396442E+03  0.86103357351E+03  0.90631005625E+03  0.25500000920E-02 0.  1.
       -2    1    3    3    0  502 -0.96867451599E+02 -0.26577396442E+03 -0.70215179200E+02  0.29146058865E+03  0.25500000920E-02 0. -1.
</event>
<event>
 5   0  0.4236284E-04  0.9000457E+03  0.7818609E-02  0.9425524E-01
        2   -1    0    0  501    0  0.00000000000E+00  0.00000000000E+00  0.91958415305E+03  0.91958415306E+03  0.25500000920E-02 0.  1.
       -2   -1    0    0    0  501  0.00000000000E+00  0.00000000000E+00 -0.22023058977E+03  0.22023058979E+03  0.25500000920E-02 0. -1.
    10030    2    1    2    0    0  0.00000000000E+00  0.00000000000E+00  0.69935356328E+03  0.11398147428E+04  0.90004568858E+03 0.  0.
        2    1    3    3  502    0  0.33314319544E+02 -0.32012636307E+02  0.91657266349E+03  0.91773640019E+03  0.25500000920E-02 0.  1.
       -2    1    3    3    0  502 -0.33314319544E+02  0.32012636307E+02 -0.21721910021E+03  0.22207834265E+03  0.25500000920E-02 0. -1.
</event>
<event>
 5   0  0.4110039E-04  0.9002339E+03  0.7818609E-02  0.9425289E-01
        2   -1    0    0  501    0  0.00000000000E+00  0.00000000000E+00  0.92654984403E+03  0.92654984404E+03  0.25500000920E-02 0. -1.
       -2   -1    0    0    0  501  0.00000000000E+00  0.00000000000E+00 -0.21866632312E+03  0.21866632313E+03  0.25500000920E-02 0.  1.
    10030    2    1    2    0    0  0.00000000000E+00  0.00000000000E+00  0.70788352091E+03  0.11452161672E+04  0.90023385316E+03 0.  0.
        3    1    3    3  502    0 -0.32437379338E+03  0.81655759624E+02 -0.29219660553E+02  0.33576750837E+03  0.10100000352E+00 0.  1.
       -3    1    3    3    0  502  0.32437379338E+03 -0.81655759624E+02  0.73710318147E+03  0.80944865880E+03  0.10100000352E+00 0. -1.
</event>
<event>
 5   0  0.2356918E-04  0.9014601E+03  0.7818609E-02  0.9423758E-01
       -1   -1    0    0    0  501  0.00000000000E+00  0.00000000000E+00  0.49463941708E+03  0.49463941710E+03  0.50400001928E-02 0.  1.
        1   -1    0    0  501    0  0.00000000000E+00  0.00000000000E+00 -0.41071850577E+03  0.41071850580E+03  0.50400001928E-02 0. -1.
    10030    2    1    2    0    0  0.00000000000E+00  0.00000000000E+00  0.83920911312E+02  0.90535792290E+03  0.90146006523E+03 0.  0.
        5    1    3    3  502    0  0.94868297608E+01  0.23496400119E+03 -0.34419836406E+03  0.41688449913E+03  0.46999998093E+01 0. -1.
       -5    1    3    3    0  502 -0.94868297608E+01 -0.23496400119E+03  0.42811927537E+03  0.48847342378E+03  0.46999998093E+01 0.  1.
</event>
<event>
 5   0  0.2356918E-04  0.9004574E+03  0.7818609E-02  0.9425010E-01
        1   -1    0    0  501    0  0.00000000000E+00  0.00000000000E+00  0.55640332350E+03  0.55640332353E+03  0.50400001928E-02 0.  1.
       -1   -1    0    0    0  501  0.00000000000E+00  0.00000000000E+00 -0.36431466727E+03  0.36431466731E+03  0.50400001928E-02 0. -1.
    10030    2    1    2    0    0  0.00000000000E+00  0.00000000000E+00  0.19208865623E+03  0.92071799083E+03  0.90045742087E+03 0.  0.
        5    1    3    3  502    0 -0.25449407781E+03 -0.12844526685E+03  0.45233599413E+03  0.53469184004E+03  0.46999998093E+01 0.  1.
       -5    1    3    3    0  502  0.25449407781E+03  0.12844526685E+03 -0.26024733790E+03  0.38602615080E+03  0.46999998093E+01 0. -1.
</event>
<event>
 5   0  0.4243516E-04  0.9000844E+03  0.7818609E-02  0.9425476E-01
        2   -1    0    0  501    0  0.00000000000E+00  0.00000000000E+00  0.70599709915E+03  0.70599709915E+03  0.25500000920E-02 0.  1.
       -2   -1    0    0    0  501  0.00000000000E+00  0.00000000000E+00 -0.28688219942E+03  0.28688219944E+03  0.25500000920E-02 0. -1.
    10030    2    1    2    0    0  0.00000000000E+00  0.00000000000E+00  0.41911489973E+03  0.99287929859E+03  0.90008444181E+03 0.  0.
        1    1    3    3  502    0  0.38933855039E+02 -0.41546895060E+03  0.39547966617E+03  0.57492126449E+03  0.50400001928E-02 0.  1.
       -1    1    3    3    0  502 -0.38933855039E+02  0.41546895060E+03  0.23635233554E+02  0.41795803410E+03  0.50400001928E-02 0. -1.
</event>
<event>
 5   0  0.2351435E-04  0.8998636E+03  0.7818609E-02  0.9425752E-01
       -1   -1    0    0    0  501  0.00000000000E+00  0.00000000000E+00  0.38054697499E+03  0.38054697502E+03  0.50400001928E-02 0. -1.
        1   -1    0    0  501    0  0.00000000000E+00  0.00000000000E+00 -0.53196748458E+03  0.53196748461E+03  0.50400001928E-02 0.  1.
    10030    2    1    2    0    0  0.00000000000E+00  0.00000000000E+00 -0.15142050959E+03  0.91251445963E+03  0.89986358316E+03 0.  0.
        4    1    3    3  502    0 -0.88422808232E+02 -0.25804147899E+03 -0.43855768358E+03  0.51646728127E+03  0.12699999809E+01 0.  1.
       -4    1    3    3    0  502  0.88422808232E+02  0.25804147899E+03  0.28713717399E+03  0.39604717836E+03  0.12699999809E+01 0. -1.
</event>
<event>
 5   0  0.2332791E-04  0.9001324E+03  0.7818609E-02  0.9425416E-01
        1   -1    0    0  501    0  0.00000000000E+00  0.00000000000E+00  0.48056897492E+03  0.48056897495E+03  0.50400001928E-02 0. -1.
       -1   -1    0    0    0  501  0.00000000000E+00  0.00000000000E+00 -0.42149951640E+03  0.42149951643E+03  0.50400001928E-02 0.  1.
    10030    2    1    2    0    0  0.00000000000E+00  0.00000000000E+00  0.59069458520E+02  0.90206849138E+03  0.90013241371E+03 0.  0.
        2    1    3    3  502    0  0.14792300932E+03 -0.70815027748E+02 -0.39048917647E+03  0.42353014271E+03  0.25500000920E-02 0.  1.
       -2    1    3    3    0  502 -0.14792300932E+03  0.70815027748E+02  0.44955863499E+03  0.47853834866E+03  0.25500000920E-02 0. -1.
</event>
<event>
 5   0  0.4033144E-04  0.9000123E+03  0.7818609E-02  0.9425566E-01
       -2   -1    0    0    0  501  0.00000000000E+00  0.00000000000E+00  0.34672243519E+03  0.34672243520E+03  0.25500000920E-02 0. -1.
        2   -1    0    0  501    0  0.00000000000E+00  0.00000000000E+00 -0.58405665938E+03  0.58405665938E+03  0.25500000920E-02 0.  1.
    10030    2    1    2    0    0  0.00000000000E+00  0.00000000000E+00 -0.23733422418E+03  0.93077909458E+03  0.90001232711E+03 0.  0.
        4    1    3    3  502    0 -0.20703175443E+03 -0.36967104079E+03 -0.27545822492E+03  0.50536884779E+03  0.12699999809E+01 0.  1.
       -4    1    3    3    0  502  0.20703175443E+03  0.36967104079E+03  0.38124000739E+02  0.42541024679E+03  0.12699999809E+01 0. -1.
</event>
<event>
 5   0  0.4236284E-04  0.9000817E+03  0.7818609E-02  0.9425479E-01
        2   -1    0    0  501    0  0.00000000000E+00  0.00000000000E+00  0.48055475786E+03  0.48055475786E+03  0.25500000920E-02 0. -1.
       -2   -1    0    0    0  501  0.00000000000E+00  0.00000000000E+00 -0.42146449653E+03  0.42146449654E+03  0.25500000920E-02 0.  1.
    10030    2    1    2    0    0  0.00000000000E+00  0.00000000000E+00  0.59090261322E+02  0.90201925441E+03  0.90008170537E+03 0.  0.
        2    1    3    3  502    0 -0.17767497277E+03 -0.86055604120E+02 -0.37575444582E+03  0.42445891027E+03  0.25500000920E-02 0.  1.
       -2    1    3    3    0  502  0.17767497277E+03  0.86055604120E+02  0.43484470715E+03  0.47756034413E+03  0.25500000920E-02 0. -1.
</event>
<event>
 5   0  0.3959804E-04  0.9000668E+03  0.7818609E-02  0.9425498E-01
       -2   -1    0    0    0  501  0.00000000000E+00  0.00000000000E+00  0.20090618219E+03  0.20090618221E+03  0.25500000920E-02 0. -1.
        2   -1    0    0  501    0  0.00000000000E+00  0.00000000000E+00 -0.10080828228E+04  0.10080828228E+04  0.25500000920E-02 0.  1.
    10030    2    1    2    0    0  0.00000000000E+00  0.00000000000E+00 -0.80717664062E+03  0.12089890050E+04  0.90006682258E+03 0.  0.
        5    1    3    3  502    0 -0.50141336891E+02  0.43972223334E+03 -0.29414927959E+03  0.53142796768E+03  0.46999998093E+01 0. -1.
       -5    1    3    3    0  502  0.50141336891E+02 -0.43972223334E+03 -0.51302736104E+03  0.67756103734E+03  0.46999998093E+01 0.  1.
</event>
<event>
 5   0  0.1596250E-04  0.9001628E+03  0.7818609E-02  0.9425378E-01
        4   -1    0    0  501    0  0.00000000000E+00  0.00000000000E+00  0.66529030943E+03  0.66529152161E+03  0.12699999809E+01 0.  1.
       -4   -1    0    0    0  501  0.00000000000E+00  0.00000000000E+00 -0.30448570968E+03  0.30448835823E+03  0.12699999809E+01 0. -1.
    10030    2    1    2    0    0  0.00000000000E+00  0.00000000000E+00  0.36080459975E+03  0.96977987984E+03  0.90016279424E+03 0.  0.
        1    1    3    3  502    0  0.77882976854E+02 -0.69730680980E+02  0.65203185618E+03  0.66035874148E+03  0.50400001928E-02 0.  1.
       -1    1    3    3    0  502 -0.77882976854E+02  0.69730680980E+02 -0.29122725643E+03  0.30942113836E+03  0.50400001928E-02 0. -1.
</event>
<event>
 5   0  0.4033144E-04  0.8995750E+03  0.7818609E-02  0.9426113E-01
        2   -1    0    0  501    0  0.00000000000E+00  0.00000000000E+00  0.49032118467E+03  0.49032118468E+03  0.25500000920E-02 0.  1.
       -2   -1    0    0    0  501  0.00000000000E+00  0.00000000000E+00 -0.41260461658E+03  0.41260461659E+03  0.25500000920E-02 0. -1.
    10030    2    1    2    0    0  0.00000000000E+00  0.00000000000E+00  0.77716568093E+02  0.90292580127E+03  0.89957497611E+03 0.  0.
        4    1    3    3  502    0 -0.15326574731E+03  0.13155626424E+03 -0.36452142178E+03  0.41674323006E+03  0.12699999809E+01 0. -1.
       -4    1    3    3    0  502  0.15326574731E+03 -0.13155626424E+03  0.44223798988E+03  0.48618257121E+03  0.12699999809E+01 0.  1.
</event>
<event>
 5   0  0.4110039E-04  0.8993048E+03  0.7818609E-02  0.9426451E-01
       -2   -1    0    0    0  501  0.00000000000E+00  0.00000000000E+00  0.70301794488E+03  0.70301794489E+03  0.25500000920E-02 0.  1.
        2   -1    0    0  501    0  0.00000000000E+00  0.00000000000E+00 -0.28759903732E+03  0.28759903733E+03  0.25500000920E-02 0. -1.
    10030    2    1    2    0    0  0.00000000000E+00  0.00000000000E+00  0.41541890756E+03  0.99061698222E+03  0.89930480745E+03 0.  0.
        3    1    3    3  502    0 -0.33073100466E+03  0.60095644899E+02 -0.12126617702E+03  0.35735133954E+03  0.10100000352E+00 0. -1.
       -3    1    3    3    0  502  0.33073100466E+03 -0.60095644899E+02  0.53668508458E+03  0.63326564268E+03  0.10100000352E+00 0.  1.
</event>
<event>
 5   0  0.2450427E-04  0.9013717E+03  0.7818609E-02  0.9423868E-01
        1   -1    0    0  501    0  0.00000000000E+00  0.00000000000E+00  0.50367289512E+03  0.50367289515E+03  0.50400001928E-02 0. -1.
       -1   -1    0    0    0  501  0.00000000000E+00  0.00000000000E+00 -0.40327308774E+03  0.40327308778E+03  0.50400001928E-02 0.  1.
    10030    2    1    2    0    0  0.00000000000E+00  0.00000000000E+00  0.10039980738E+03  0.90694598292E+03  0.90137167396E+03 0.  0.
        3    1    3    3  502    0 -0.80274797727E+02  0.13976437168E+03 -0.37328246537E+03  0.40659307901E+03  0.10100000352E+00 0.  1.
       -3    1    3    3    0  502  0.80274797727E+02 -0.13976437168E+03  0.47368227275E+03  0.50035290392E+03  0.10100000352E+00 0. -1.
</event>
<event>
 5   0  0.4110039E-04  0.9000443E+03  0.7818609E-02  0.9425526E-01
       -2   -1    0    0    0  501  0.00000000000E+00  0.00000000000E+00  0.43540792722E+03  0.43540792723E+03  0.25500000920E-02 0. -1.
        2   -1    0    0  501    0  0.00000000000E+00  0.00000000000E+00 -0.46512683929E+03  0.46512683930E+03  0.25500000920E-02 0.  1.
    10030    2    1    2    0    0  0.00000000000E+00  0.00000000000E+00 -0.29718912071E+02  0.90053476653E+03  0.90004425002E+03 0.  0.
        3    1    3    3  502    0  0.18685980620E+01  0.23361595009E+03 -0.39969876671E+03  0.46296762101E+03  0.10100000352E+00 0.  1.
       -3    1    3    3    0  502 -0.18685980620E+01 -0.23361595009E+03  0.36997985464E+03  0.43756714552E+03  0.10100000352E+00 0. -1.
</event>
<event>
 5   0  0.2332791E-04  0.8999533E+03  0.7818609E-02  0.9425640E-01
       -1   -1    0    0    0  501  0.00000000000E+00  0.00000000000E+00  0.44381149275E+03  0.44381149277E+03  0.50400001928E-02 0.  1.
        1   -1    0    0  501    0  0.00000000000E+00  0.00000000000E+00 -0.45622741291E+03  0.45622741294E+03  0.50400001928E-02 0. -1.
    10030    2    1    2    0    0  0.00000000000E+00  0.00000000000E+00 -0.12415920162E+02  0.90003890571E+03  0.89995326363E+03 0.  0.
        2    1    3    3  502    0 -0.11745729326E+03 -0.42934786690E+03  0.59700986757E+02  0.44911024747E+03  0.25500000920E-02 0.  1.
       -2    1    3    3    0  502  0.11745729326E+03  0.42934786690E+03 -0.72116906919E+02  0.45092865824E+03  0.25500000920E-02 0. -1.
</event>
<event>
 5   0  0.2308362E-04  0.9001929E+03  0.7818609E-02  0.9425340E-01
        1   -1    0    0  501    0  0.00000000000E+00  0.00000000000E+00  0.85708485974E+03  0.85708485976E+03  0.50400001928E-02 0. -1.
       -1   -1    0    0    0  501  0.00000000000E+00  0.00000000000E+00 -0.23636726851E+03  0.23636726856E+03  0.50400001928E-02 0.  1.
    10030    2    1    2    0    0  0.00000000000E+00  0.00000000000E+00  0.62071759123E+03  0.10934521283E+04  0.90019288425E+03 0.  0.
        1    1    3    3  502    0 -0.72067781435E+02  0.42142890511E+03  0.13947731596E+03  0.44972214630E+03  0.50400001928E-02 0.  1.
       -1    1    3    3    0  502  0.72067781435E+02 -0.42142890511E+03  0.48124027527E+03  0.64372998202E+03  0.50400001928E-02 0. -1.
</event>
<event>
 5   0  0.4033144E-04  0.8981133E+03  0.7818609E-02  0.9427943E-01
        2   -1    0    0  501    0  0.00000000000E+00  0.00000000000E+00  0.26489612185E+03  0.26489612186E+03  0.25500000920E-02 0. -1.
       -2   -1    0    0    0  501  0.00000000000E+00  0.00000000000E+00 -0.76124880986E+03  0.76124880987E+03  0.25500000920E-02 0.  1.
    10030    2    1    2    0    0  0.00000000000E+00  0.00000000000E+00 -0.49635268801E+03  0.10261449317E+04  0.89811326124E+03 0.  0.
        4    1    3    3  502    0 -0.18655157301E+03  0.26196184635E+03 -0.60626293052E+03  0.68628117573E+03  0.12699999809E+01 0.  1.
       -4    1    3    3    0  502  0.18655157301E+03 -0.26196184635E+03  0.10991024250E+03  0.33986375600E+03  0.12699999809E+01 0. -1.
</event>
<event>
 5   0  0.4033144E-04  0.8983961E+03  0.7818609E-02  0.9427589E-01
        2   -1    0    0  501    0  0.00000000000E+00  0.00000000000E+00  0.29001132120E+03  0.29001132121E+03  0.25500000920E-02 0. -1.
       -2   -1    0    0    0  501  0.00000000000E+00  0.00000000000E+00 -0.69576203746E+03  0.69576203746E+03  0.25500000920E-02 0.  1.
    10030    2    1    2    0    0  0.00000000000E+00  0.00000000000E+00 -0.40575071626E+03  0.98577335868E+03  0.89839605461E+03 0.  0.
        4    1    3    3  502    0  0.40010448071E+03  0.20390217339E+03 -0.19097816137E+03  0.48798971589E+03  0.12699999809E+01 0. -1.
       -4    1    3    3    0  502 -0.40010448071E+03 -0.20390217339E+03 -0.21477255488E+03  0.49778364278E+03  0.12699999809E+01 0.  1.
</event>
<event>
 5   0  0.4033144E-04  0.9002333E+03  0.7818609E-02  0.9425290E-01
        2   -1    0    0  501    0  0.00000000000E+00  0.00000000000E+00  0.25384475038E+03  0.25384475039E+03  0.25500000920E-02 0. -1.
       -2   -1    0    0    0  501  0.00000000000E+00  0.00000000000E+00 -0.79814539273E+03  0.79814539274E+03  0.25500000920E-02 0.  1.
    10030    2    1    2    0    0  0.00000000000E+00  0.00000000000E+00 -0.54430064235E+03  0.10519901431E+04  0.90023334307E+03 0.  0.
        4    1    3    3  502    0  0.32315371022E+03  0.19446932367E+03 -0.55924130921E+03  0.67453620593E+03  0.12699999809E+01 0.  1.
       -4    1    3    3    0  502 -0.32315371022E+03 -0.19446932367E+03  0.14940666857E+02  0.37745393720E+03  0.12699999809E+01 0. -1.
</event>
<event>
 5   0  0.1596250E-04  0.9001302E+03  0.7818609E-02  0.9425419E-01
       -3   -1    0    0    0  501  0.00000000000E+00  0.00000000000E+00  0.21251997837E+03  0.21252000237E+03  0.10100000352E+00 0.  1.
        3   -1    0    0  501    0  0.00000000000E+00  0.00000000000E+00 -0.95312729667E+03  0.95312730203E+03  0.10100000352E+00 0. -1.
    10030    2    1    2    0    0  0.00000000000E+00  0.00000000000E+00 -0.74060731830E+03  0.11656473044E+04  0.90013023409E+03 0.  0.
        2    1    3    3  502    0  0.24235542794E+02  0.33986545884E+03  0.10478205365E+02  0.34088954874E+03  0.25500000920E-02 0.  1.
       -2    1    3    3    0  502 -0.24235542794E+02 -0.33986545884E+03 -0.75108552367E+03  0.82475775566E+03  0.25500000920E-02 0. -1.
</event>
<event>
 5   0  0.2308362E-04  0.8997534E+03  0.7818609E-02  0.9425890E-01
        1   -1    0    0  501    0  0.00000000000E+00  0.00000000000E+00  0.92557717897E+03  0.92557717899E+03  0.50400001928E-02 0. -1.
       -1   -1    0    0    0  501  0.00000000000E+00  0.00000000000E+00 -0.21866250503E+03  0.21866250508E+03  0.50400001928E-02 0.  1.
    10030    2    1    2    0    0  0.00000000000E+00  0.00000000000E+00  0.70691467395E+03  0.11442396841E+04  0.89975335418E+03 0.  0.
        1    1    3    3  502    0  0.28863689200E+03  0.88666069639E+02  0.77756620819E+03  0.83413556181E+03  0.50400001928E-02 0. -1.
       -1    1    3    3    0  502 -0.28863689200E+03 -0.88666069639E+02 -0.70651534246E+02  0.31010412226E+03  0.50400001928E-02 0.  1.
</event>
<event>
 5   0  0.1596250E-04  0.9002376E+03  0.7818609E-02  0.9425284E-01
        3   -1    0    0  501    0  0.00000000000E+00  0.00000000000E+00  0.67400868612E+03  0.67400869369E+03  0.10100000352E+00 0. -1.
       -3   -1    0    0    0  501  0.00000000000E+00  0.00000000000E+00 -0.30059988193E+03  0.30059989890E+03  0.10100000352E+00 0.  1.
    10030    2    1    2    0    0  0.00000000000E+00  0.00000000000E+00  0.37340880419E+03  0.97460859259E+03  0.90023762069E+03 0.  0.
        4    1    3    3  502    0  0.28849378985E+03 -0.30339628016E+03  0.36567097610E+03  0.55587304779E+03  0.12699999809E+01 0. -1.
       -4    1    3    3    0  502 -0.28849378985E+03  0.30339628016E+03  0.77378280981E+01  0.41873554480E+03  0.12699999809E+01 0.  1.
</event>
<event>
 5   0  0.4110039E-04  0.9000076E+03  0.7818609E-02  0.9425572E-01
       -2   -1    0    0    0  501  0.00000000000E+00  0.00000000000E+00  0.14255822853E+03  0.14255822856E+03  0.25500000920E-02 0. -1.
        2   -1    0    0  501    0  0.00000000000E+00  0.00000000000E+00 -0.14204962683E+04  0.14204962683E+04  0.25500000920E-02 0.  1.
    10030    2    1    2    0    0  0.00000000000E+00  0.00000000000E+00 -0.12779380398E+04  0.15630544969E+04  0.90000762591E+03 0.  0.
        3    1    3    3  502    0  0.15874980706E+03  0.35903875491E+03 -0.25691953378E+03  0.46916733242E+03  0.10100000352E+00 0. -1.
       -3    1    3    3    0  502 -0.15874980706E+03 -0.35903875491E+03 -0.10210185060E+04  0.10938871645E+04  0.10100000352E+00 0.  1.
</event>
<event>
 5   0  0.1596250E-04  0.9012425E+03  0.7818609E-02  0.9424030E-01
        3   -1    0    0  501    0  0.00000000000E+00  0.00000000000E+00  0.23382016102E+03  0.23382018284E+03  0.10100000352E+00 0.  1.
       -3   -1    0    0    0  501  0.00000000000E+00  0.00000000000E+00 -0.86844314430E+03  0.86844315018E+03  0.10100000352E+00 0. -1.
    10030    2    1    2    0    0  0.00000000000E+00  0.00000000000E+00 -0.63462298328E+03  0.11022633330E+04  0.90124254471E+03 0.  0.
        3    1    3    3  502    0 -0.40729963509E+03 -0.49557063598E+02 -0.54517506106E+03  0.68232305596E+03  0.10100000352E+00 0.  1.
       -3    1    3    3    0  502  0.40729963509E+03  0.49557063598E+02 -0.89447922221E+02  0.41994027705E+03  0.10100000352E+00 0. -1.
</event>
<event>
 5   0  0.4110039E-04  0.9011404E+03  0.7818609E-02  0.9424157E-01
       -2   -1    0    0    0  501  0.00000000000E+00  0.00000000000E+00  0.48418598466E+03  0.48418598467E+03  0.25500000920E-02 0.  1.
        2   -1    0    0  501    0  0.00000000000E+00  0.00000000000E+00 -0.41928823844E+03  0.41928823845E+03  0.25500000920E-02 0. -1.
    10030    2    1    2    0    0  0.00000000000E+00  0.00000000000E+00  0.64897746221E+02  0.90347422312E+03  0.90114036331E+03 0.  0.
        3    1    3    3  502    0  0.41867130356E+03  0.40013870563E+02 -0.12960733409E+03  0.44009640025E+03  0.10100000352E+00 0. -1.
       -3    1    3    3    0  502 -0.41867130356E+03 -0.40013870563E+02  0.19450508031E+03  0.46337782287E+03  0.10100000352E+00 0.  1.
</event>
<event>
 5   0  0.1596250E-04  0.9002685E+03  0.7818609E-02  0.9425246E-01
        4   -1    0    0  501    0  0.00000000000E+00  0.00000000000E+00  0.14876547455E+03  0.14877089540E+03  0.12699999809E+01 0.  1.
       -4   -1    0    0    0  501  0.00000000000E+00  0.00000000000E+00 -0.13619847388E+04  0.13619853309E+04  0.12699999809E+01 0. -1.
    10030    2    1    2    0    0  0.00000000000E+00  0.00000000000E+00 -0.12132192642E+04  0.15107562263E+04  0.90026851116E+03 0.  0.
        3    1    3    3  502    0 -0.26678833667E+03 -0.24947606234E+03 -0.16514509267E+03  0.40085812216E+03  0.10100000352E+00 0.  1.
       -3    1    3    3    0  502  0.26678833667E+03  0.24947606234E+03 -0.10480741716E+04  0.11098981041E+04  0.10100000352E+00 0. -1.
</event>
<event>
 5   0  0.2308362E-04  0.8999732E+03  0.7818609E-02  0.9425615E-01
       -1   -1    0    0    0  501  0.00000000000E+00  0.00000000000E+00  0.56829550572E+03  0.56829550575E+03  0.50400001928E-02 0. -1.
        1   -1    0    0  501    0  0.00000000000E+00  0.00000000000E+00 -0.35630747855E+03  0.35630747859E+03  0.50400001928E-02 0.  1.
    10030    2    1    2    0    0  0.00000000000E+00  0.00000000000E+00  0.21198802717E+03  0.92460298433E+03  0.89997319681E+03 0.  0.
        1    1    3    3  502    0 -0.42549949884E+02  0.39490835419E+03  0.32326416937E+03  0.51211603145E+03  0.50400001928E-02 0. -1.
       -1    1    3    3    0  502  0.42549949884E+02 -0.39490835419E+03 -0.11127614220E+03  0.41248695288E+03  0.50400001928E-02 0.  1.
</event>
<event>
 5   0  0.2332791E-04  0.9002937E+03  0.7818609E-02  0.9425214E-01
        1   -1    0    0  501    0  0.00000000000E+00  0.00000000000E+00  0.57090349765E+03  0.57090349767E+03  0.50400001928E-02 0. -1.
       -1   -1    0    0    0  501  0.00000000000E+00  0.00000000000E+00 -0.35493243196E+03  0.35493243200E+03  0.50400001928E-02 0.  1.
    10030    2    1    2    0    0  0.00000000000E+00  0.00000000000E+00  0.21597106569E+03  0.92583592967E+03  0.90029365624E+03 0.  0.
        2    1    3    3  502    0  0.67247988091E+02 -0.44508758290E+03  0.11069046292E+03  0.46354894773E+03  0.25500000920E-02 0. -1.
       -2    1    3    3    0  502 -0.67247988091E+02  0.44508758290E+03  0.10528060276E+03  0.46228698194E+03  0.25500000920E-02 0.  1.
</event>
<event>
 5   0  0.4110039E-04  0.9006240E+03  0.7818609E-02  0.9424802E-01
       -2   -1    0    0    0  501  0.00000000000E+00  0.00000000000E+00  0.16920488042E+03  0.16920488044E+03  0.25500000920E-02 0. -1.
        2   -1    0    0  501    0  0.00000000000E+00  0.00000000000E+00 -0.11984341373E+04  0.11984341373E+04  0.25500000920E-02 0.  1.
    10030    2    1    2    0    0  0.00000000000E+00  0.00000000000E+00 -0.10292292569E+04  0.13676390177E+04  0.90062401681E+03 0.  0.
        3    1    3    3  502    0 -0.33789385971E+03  0.17710360748E+03 -0.15129492708E+03  0.41039994319E+03  0.10100000352E+00 0. -1.
       -3    1    3    3    0  502  0.33789385971E+03 -0.17710360748E+03 -0.87793432980E+03  0.95723907456E+03  0.10100000352E+00 0.  1.
</event>
<event>
 5   0  0.2332791E-04  0.8999865E+03  0.7818609E-02  0.9425598E-01
       -1   -1    0    0    0  501  0.00000000000E+00  0.00000000000E+00  0.35250177597E+03  0.35250177601E+03  0.50400001928E-02 0. -1.
        1   -1    0    0  501    0  0.00000000000E+00  0.00000000000E+00 -0.57444799410E+03  0.57444799413E+03  0.50400001928E-02 0.  1.
    10030    2    1    2    0    0  0.00000000000E+00  0.00000000000E+00 -0.22194621813E+03  0.92694977013E+03  0.89998652913E+03 0.  0.
        2    1    3    3  502    0 -0.13025040167E+03 -0.39852734326E+03 -0.27928479450E+03  0.50377495661E+03  0.25500000920E-02 0.  1.
       -2    1    3    3    0  502  0.13025040167E+03  0.39852734326E+03  0.57338576367E+02  0.42317481353E+03  0.25500000920E-02 0. -1.
</event>
<event>
 5   0  0.4033144E-04  0.9000055E+03  0.7818609E-02  0.9425574E-01
       -2   -1    0    0    0  501  0.00000000000E+00  0.00000000000E+00  0.16202377281E+03  0.16202377283E+03  0.25500000920E-02 0. -1.
        2   -1    0    0  501    0  0.00000000000E+00  0.00000000000E+00 -0.12498320082E+04  0.12498320082E+04  0.25500000920E-02 0.  1.
    10030    2    1    2    0    0  0.00000000000E+00  0.00000000000E+00 -0.10878082354E+04  0.14118557810E+04  0.90000554967E+03 0.  0.
        4    1    3    3  502    0 -0.21097985485E+03 -0.16464795473E+03 -0.11114237071E+04  0.11431910242E+04  0.12699999809E+01 0.  1.
       -4    1    3    3    0  502  0.21097985485E+03  0.16464795473E+03  0.23615471755E+02  0.26866475682E+03  0.12699999809E+01 0. -1.
</event>
<event>
 5   0  0.2450427E-04  0.9013283E+03  0.7818609E-02  0.9423923E-01
        1   -1    0    0  501    0  0.00000000000E+00  0.00000000000E+00  0.21604316915E+04  0.21604316915E+04  0.50400001928E-02 0.  1.
       -1   -1    0    0    0  501  0.00000000000E+00  0.00000000000E+00 -0.94008142677E+02  0.94008142812E+02  0.50400001928E-02 0. -1.
    10030    2    1    2    0    0  0.00000000000E+00  0.00000000000E+00  0.20664235489E+04  0.22544398344E+04  0.90132828838E+03 0.  0.
        3    1    3    3  502    0  0.19685525987E+02 -0.32638256424E+03  0.25748378176E+03  0.41618626388E+03  0.10100000352E+00 0.  1.
       -3    1    3    3    0  502 -0.19685525987E+02  0.32638256424E+03  0.18089397671E+04  0.18382535705E+04  0.10100000352E+00 0. -1.
</event>
<event>
 5   0  0.2308362E-04  0.9005302E+03  0.7818609E-02  0.9424919E-01
        1   -1    0    0  501    0  0.00000000000E+00  0.00000000000E+00  0.93619288231E+03  0.93619288232E+03  0.50400001928E-02 0. -1.
       -1   -1    0    0    0  501  0.00000000000E+00  0.00000000000E+00 -0.21655652268E+03  0.21655652274E+03  0.50400001928E-02 0.  1.
    10030    2    1    2    0    0  0.00000000000E+00  0.00000000000E+00  0.71963635963E+03  0.11527494051E+04  0.90053023313E+03 0.  0.
        1    1    3    3  502    0 -0.26070888858E+03 -0.15640587594E+03  0.78496375022E+03  0.84178382723E+03  0.50400001928E-02 0. -1.
       -1    1    3    3    0  502  0.26070888858E+03  0.15640587594E+03 -0.65327390591E+02  0.31096557783E+03  0.50400001928E-02 0.  1.
</event>
<event>
 5   0  0.4033144E-04  0.9002029E+03  0.7818609E-02  0.9425328E-01
       -2   -1    0    0    0  501  0.00000000000E+00  0.00000000000E+00  0.21128770315E+03  0.21128770317E+03  0.25500000920E-02 0. -1.
        2   -1    0    0  501    0  0.00000000000E+00  0.00000000000E+00 -0.95884094978E+03  0.95884094978E+03  0.25500000920E-02 0.  1.
    10030    2    1    2    0    0  0.00000000000E+00  0.00000000000E+00 -0.74755324662E+03  0.11701286530E+04  0.90020287042E+03 0.  0.
        4    1    3    3  502    0  0.31184844162E+03  0.18709968779E+03 -0.29049297402E+02  0.36483039661E+03  0.12699999809E+01 0.  1.
       -4    1    3    3    0  502 -0.31184844162E+03 -0.18709968779E+03 -0.71850394922E+03  0.80529825634E+03  0.12699999809E+01 0. -1.
</event>
<event>
 5   0  0.3959804E-04  0.9015854E+03  0.7818609E-02  0.9423602E-01
       -2   -1    0    0    0  501  0.00000000000E+00  0.00000000000E+00  0.65300712287E+03  0.65300712288E+03  0.25500000920E-02 0. -1.
        2   -1    0    0  501    0  0.00000000000E+00  0.00000000000E+00 -0.31119727343E+03  0.31119727344E+03  0.25500000920E-02 0.  1.
    10030    2    1    2    0    0  0.00000000000E+00  0.00000000000E+00  0.34180984944E+03  0.96420439631E+03  0.90158535075E+03 0.  0.
        5    1    3    3  502    0  0.32529903294E+03 -0.30366790774E+03  0.94095410500E+02  0.45487327388E+03  0.46999998093E+01 0.  1.
       -5    1    3    3    0  502 -0.32529903294E+03  0.30366790774E+03  0.24771443894E+03  0.50933112243E+03  0.46999998093E+01 0. -1.
</event>
<event>
 5   0  0.2332791E-04  0.9000881E+03  0.7818609E-02  0.9425471E-01
        1   -1    0    0  501    0  0.00000000000E+00  0.00000000000E+00  0.37431038021E+03  0.37431038025E+03  0.50400001928E-02 0.  1.
       -1   -1    0    0    0  501  0.00000000000E+00  0.00000000000E+00 -0.54110078104E+03  0.54110078106E+03  0.50400001928E-02 0. -1.
    10030    2    1    2    0    0  0.00000000000E+00  0.00000000000E+00 -0.16679040083E+03  0.91541116131E+03  0.90008808260E+03 0.  0.
        2    1    3    3  502    0  0.21545581130E+03 -0.38162468873E+03  0.20724560477E+02  0.43873467732E+03  0.25500000920E-02 0.  1.
       -2    1    3    3    0  502 -0.21545581130E+03  0.38162468873E+03 -0.18751496130E+03  0.47667648399E+03  0.25500000920E-02 0. -1.
</event>
<event>
 5   0  0.2332791E-04  0.8998923E+03  0.7818609E-02  0.9425716E-01
       -1   -1    0    0    0  501  0.00000000000E+00  0.00000000000E+00  0.17434211904E+03  0.17434211911E+03  0.50400001928E-02 0. -1.
        1   -1    0    0  501    0  0.00000000000E+00  0.00000000000E+00 -0.11612313649E+04  0.11612313650E+04  0.50400001928E-02 0.  1.
    10030    2    1    2    0    0  0.00000000000E+00  0.00000000000E+00 -0.98688924591E+03  0.13355734841E+04  0.89989229781E+03 0.  0.
        2    1    3    3  502    0 -0.32732009663E+03 -0.27658711084E+03 -0.28987996840E+03  0.51736763682E+03  0.25500000920E-02 0.  1.
       -2    1    3    3    0  502  0.32732009663E+03  0.27658711084E+03 -0.69700927751E+03  0.81820584725E+03  0.25500000920E-02 0. -1.
</event>
<event>
 5   0  0.2308362E-04  0.9002752E+03  0.7818609E-02  0.9425237E-01
       -1   -1    0    0    0  501  0.00000000000E+00  0.00000000000E+00  0.53856333013E+03  0.53856333015E+03  0.50400001928E-02 0. -1.
        1   -1    0    0  501    0  0.00000000000E+00  0.00000000000E+00 -0.37623034919E+03  0.37623034923E+03  0.50400001928E-02 0.  1.
    10030    2    1    2    0    0  0.00000000000E+00  0.00000000000E+00  0.16233298093E+03  0.91479367938E+03  0.90027522410E+03 0.  0.
        1    1    3    3  502    0 -0.34399380162E+03  0.67845399123E+02 -0.20567859668E+03  0.40649528766E+03  0.50400001928E-02 0.  1.
       -1    1    3    3    0  502  0.34399380162E+03 -0.67845399123E+02  0.36801157762E+03  0.50829839171E+03  0.50400001928E-02 0. -1.
</event>
<event>
 5   0  0.2356918E-04  0.8953079E+03  0.7818609E-02  0.9431466E-01
       -1   -1    0    0    0  501  0.00000000000E+00  0.00000000000E+00  0.39212670671E+03  0.39212670674E+03  0.50400001928E-02 0.  1.
        1   -1    0    0  501    0  0.00000000000E+00  0.00000000000E+00 -0.51104409372E+03  0.51104409375E+03  0.50400001928E-02 0. -1.
    10030    2    1    2    0    0  0.00000000000E+00  0.00000000000E+00 -0.11891738701E+03  0.90317080049E+03  0.89530785204E+03 0.  0.
        5    1    3    3  502    0  0.33140442733E+03 -0.10875256138E+03 -0.34248631385E+03  0.48885067171E+03  0.46999998093E+01 0. -1.
       -5    1    3    3    0  502 -0.33140442733E+03  0.10875256138E+03  0.22356892684E+03  0.41432012877E+03  0.46999998093E+01 0.  1.
</event>
<event>
 5   0  0.2450427E-04  0.9001800E+03  0.7818609E-02  0.9425356E-01
       -1   -1    0    0    0  501  0.00000000000E+00  0.00000000000E+00  0.81836167970E+02  0.81836168125E+02  0.50400001928E-02 0.  1.
        1   -1    0    0  501    0  0.00000000000E+00  0.00000000000E+00 -0.24754457156E+04  0.24754457156E+04  0.50400001928E-02 0. -1.
    10030    2    1    2    0    0  0.00000000000E+00  0.00000000000E+00 -0.23936095476E+04  0.25572818837E+04  0.90017996331E+03 0.  0.
        3    1    3    3  502    0 -0.34421531650E+02  0.27667485660E+03 -0.22005849154E+04  0.22181766833E+04  0.10100000352E+00 0. -1.
       -3    1    3    3    0  502  0.34421531650E+02 -0.27667485660E+03 -0.19302463218E+03  0.33910520041E+03  0.10100000352E+00 0.  1.
</event>
<event>
 5   0  0.4243516E-04  0.9006732E+03  0.7818609E-02  0.9424740E-01
        2   -1    0    0  501    0  0.00000000000E+00  0.00000000000E+00  0.46056496217E+03  0.46056496218E+03  0.25500000920E-02 0.  1.
       -2   -1    0    0    0  501  0.00000000000E+00  0.00000000000E+00 -0.44033536641E+03  0.44033536642E+03  0.25500000920E-02 0. -1.
    10030    2    1    2    0    0  0.00000000000E+00  0.00000000000E+00  0.20229595756E+02  0.90090032860E+03  0.90067317354E+03 0.  0.
        1    1    3    3  502    0  0.75745822730E+02 -0.43994429757E+03 -0.49184441359E+02  0.44911860786E+03  0.50400001928E-02 0.  1.
       -1    1    3    3    0  502 -0.75745822730E+02  0.43994429757E+03  0.69414037115E+02  0.45178172074E+03  0.50400001928E-02 0. -1.
</event>
<event>
 5   0  0.2450427E-04  0.9001363E+03  0.7818609E-02  0.9425411E-01
       -1   -1    0    0    0  501  0.00000000000E+00  0.00000000000E+00  0.12396067961E+04  0.12396067961E+04  0.50400001928E-02 0.  1.
        1   -1    0    0  501    0  0.00000000000E+00  0.00000000000E+00 -0.16340773348E+03  0.16340773356E+03  0.50400001928E-02 0. -1.
    10030    2    1    2    0    0  0.00000000000E+00  0.00000000000E+00  0.10761990626E+04  0.14030145297E+04  0.90013629417E+03 0.  0.
        3    1    3    3  502    0 -0.33585353035E+03  0.25134260948E+03  0.28393311046E+03  0.50654587414E+03  0.10100000352E+00 0. -1.
       -3    1    3    3    0  502  0.33585353035E+03 -0.25134260948E+03  0.79226595215E+03  0.89646865552E+03  0.10100000352E+00 0.  1.
</event>
<event>
 5   0  0.2308362E-04  0.8998080E+03  0.7818609E-02  0.9425821E-01
        1   -1    0    0  501    0  0.00000000000E+00  0.00000000000E+00  0.80721390409E+03  0.80721390410E+03  0.50400001928E-02 0.  1.
       -1   -1    0    0    0  501  0.00000000000E+00  0.00000000000E+00 -0.25075585901E+03  0.25075585906E+03  0.50400001928E-02 0. -1.
    10030    2    1    2    0    0  0.00000000000E+00  0.00000000000E+00  0.55645804508E+03  0.10579697632E+04  0.89980801499E+03 0.  0.
        1    1    3    3  502    0  0.41361246051E+02 -0.37486070470E+03 -0.10212543202E+02  0.37727390138E+03  0.50400001928E-02 0. -1.
       -1    1    3    3    0  502 -0.41361246051E+02  0.37486070470E+03  0.56667058828E+03  0.68069586178E+03  0.50400001928E-02 0.  1.
</event>
<event>
 5   0  0.2308362E-04  0.8999346E+03  0.7818609E-02  0.9425663E-01
       -1   -1    0    0    0  501  0.00000000000E+00  0.00000000000E+00  0.21895155932E+03  0.21895155938E+03  0.50400001928E-02 0.  1.
        1   -1    0    0  501    0  0.00000000000E+00  0.00000000000E+00 -0.92472762908E+03  0.92472762909E+03  0.50400001928E-02 0. -1.
    10030    2    1    2    0    0  0.00000000000E+00  0.00000000000E+00 -0.70577606976E+03  0.11436791885E+04  0.89993456735E+03 0.  0.
        1    1    3    3  502    0 -0.15539355417E+03  0.24057279622E+03  0.88167538447E+02  0.29965971003E+03  0.50400001928E-02 0.  1.
       -1    1    3    3    0  502  0.15539355417E+03 -0.24057279622E+03 -0.79394360820E+03  0.84401947844E+03  0.50400001928E-02 0. -1.
</event>
<event>
 5   0  0.2332791E-04  0.8998036E+03  0.7818609E-02  0.9425827E-01
       -1   -1    0    0    0  501  0.00000000000E+00  0.00000000000E+00  0.73379517396E+03  0.73379517398E+03  0.50400001928E-02 0. -1.
        1   -1    0    0  501    0  0.00000000000E+00  0.00000000000E+00 -0.27584216694E+03  0.27584216698E+03  0.50400001928E-02 0.  1.
    10030    2    1    2    0    0  0.00000000000E+00  0.00000000000E+00  0.45795300702E+03  0.10096373410E+04  0.89980364726E+03 0.  0.
        2    1    3    3  502    0  0.21137885324E+03 -0.30403972809E+03 -0.57733317370E+02  0.37477234663E+03  0.25500000920E-02 0.  1.
       -2    1    3    3    0  502 -0.21137885324E+03  0.30403972809E+03  0.51568632439E+03  0.63486499433E+03  0.25500000920E-02 0. -1.
</event>
<event>
 5   0  0.2450427E-04  0.8997567E+03  0.7818609E-02  0.9425886E-01
        1   -1    0    0  501    0  0.00000000000E+00  0.00000000000E+00  0.13332753420E+04  0.13332753420E+04  0.50400001928E-02 0.  1.
       -1   -1    0    0    0  501  0.00000000000E+00  0.00000000000E+00 -0.15179949546E+03  0.15179949554E+03  0.50400001928E-02 0. -1.
    10030    2    1    2    0    0  0.00000000000E+00  0.00000000000E+00  0.11814758466E+04  0.14850748376E+04  0.89975668776E+03 0.  0.
        3    1    3    3  502    0 -0.36941287959E+02  0.25132603634E+02 -0.14812834206E+03  0.15472014233E+03  0.10100000352E+00 0. -1.
       -3    1    3    3    0  502  0.36941287959E+02 -0.25132603634E+02  0.13296041886E+04  0.13303546952E+04  0.10100000352E+00 0.  1.
</event>
<event>
 5   0  0.4243516E-04  0.9002254E+03  0.7818609E-02  0.9425300E-01
        2   -1    0    0  501    0  0.00000000000E+00  0.00000000000E+00  0.70371135822E+03  0.70371135822E+03  0.25500000920E-02 0.  1.
       -2   -1    0    0    0  501  0.00000000000E+00  0.00000000000E+00 -0.28790416911E+03  0.28790416912E+03  0.25500000920E-02 0. -1.
    10030    2    1    2    0    0  0.00000000000E+00  0.00000000000E+00  0.41580718911E+03  0.99161552734E+03  0.90022538042E+03 0.  0.
        1    1    3    3  502    0  0.24686552801E+03 -0.15827220524E+03 -0.16824344058E+03  0.33808066374E+03  0.50400001928E-02 0. -1.
       -1    1    3    3    0  502 -0.24686552801E+03  0.15827220524E+03  0.58405062969E+03  0.65353486360E+03  0.50400001928E-02 0.  1.
</event>
<event>
 5   0  0.3959804E-04  0.8998414E+03  0.7818609E-02  0.9425780E-01
        2   -1    0    0  501    0  0.00000000000E+00  0.00000000000E+00  0.87505139600E+03  0.87505139600E+03  0.25500000920E-02 0. -1.
       -2   -1    0    0    0  501  0.00000000000E+00  0.00000000000E+00 -0.23133340847E+03  0.23133340849E+03  0.25500000920E-02 0.  1.
    10030    2    1    2    0    0  0.00000000000E+00  0.00000000000E+00  0.64371798752E+03  0.11063848045E+04  0.89984136832E+03 0.  0.
        5    1    3    3  502    0 -0.37145435177E+03  0.82001337853E+02  0.26504814146E+02  0.38134911830E+03  0.46999998093E+01 0. -1.
       -5    1    3    3    0  502  0.37145435177E+03 -0.82001337853E+02  0.61721317338E+03  0.72503568619E+03  0.46999998093E+01 0.  1.
</event>
<event>
 5   0  0.2450427E-04  0.8999058E+03  0.7818609E-02  0.9425699E-01
       -1   -1    0    0    0  501  0.00000000000E+00  0.00000000000E+00  0.21983299740E+03  0.21983299746E+03  0.50400001928E-02 0. -1.
        1   -1    0    0  501    0  0.00000000000E+00  0.00000000000E+00 -0.92096087989E+03  0.92096087990E+03  0.50400001928E-02 0.  1.
    10030    2    1    2    0    0  0.00000000000E+00  0.00000000000E+00 -0.70112788249E+03  0.11407938774E+04  0.89990575230E+03 0.  0.
        3    1    3    3  502    0 -0.17616998567E+03 -0.38132867688E+03 -0.55501136375E+03  0.69604960150E+03  0.10100000352E+00 0.  1.
       -3    1    3    3    0  502  0.17616998567E+03  0.38132867688E+03 -0.14611651874E+03  0.44474427586E+03  0.10100000352E+00 0. -1.
</event>
<event>
 5   0  0.1596250E-04  0.8998743E+03  0.7818609E-02  0.9425739E-01
        4   -1    0    0  501    0  0.00000000000E+00  0.00000000000E+00  0.37149766520E+03  0.37149983600E+03  0.12699999809E+01 0. -1.
       -4   -1    0    0    0  501  0.00000000000E+00  0.00000000000E+00 -0.54493418790E+03  0.54493566781E+03  0.12699999809E+01 0.  1.
    10030    2    1    2    0    0  0.00000000000E+00  0.00000000000E+00 -0.17343652270E+03  0.91643550381E+03  0.89987432747E+03 0.  0.
        4    1    3    3  502    0 -0.34258324693E+03  0.24999357290E+03 -0.23975617693E+03  0.48718036172E+03  0.12699999809E+01 0.  1.
       -4    1    3    3    0  502  0.34258324693E+03 -0.24999357290E+03  0.66319654229E+02  0.42925514209E+03  0.12699999809E+01 0. -1.
</event>
<event>
 5   0  0.2351435E-04  0.9001243E+03  0.7818609E-02  0.9425426E-01
       -1   -1    0    0    0  501  0.00000000000E+00  0.00000000000E+00  0.50818147216E+03  0.50818147218E+03  0.50400001928E-02 0. -1.
        1   -1    0    0  501    0  0.00000000000E+00  0.00000000000E+00 -0.39858976057E+03  0.39858976060E+03  0.50400001928E-02 0.  1.
    10030    2    1    2    0    0  0.00000000000E+00  0.00000000000E+00  0.10959171159E+03  0.90677123279E+03  0.90012428329E+03 0.  0.
        4    1    3    3  502    0 -0.21049396362E+03  0.39778274550E+03  0.50830150108E+02  0.45290632409E+03  0.12699999809E+01 0.  1.
       -4    1    3    3    0  502  0.21049396362E+03 -0.39778274550E+03  0.58761561478E+02  0.45386490870E+03  0.12699999809E+01 0. -1.
</event>
<event>
 5   0  0.2332791E-04  0.9056871E+03  0.7818609E-02  0.9418500E-01
       -1   -1    0    0    0  501  0.00000000000E+00  0.00000000000E+00  0.46739098999E+03  0.46739099002E+03  0.50400001928E-02 0.  1.
        1   -1    0    0  501    0  0.00000000000E+00  0.00000000000E+00 -0.43874885505E+03  0.43874885508E+03  0.50400001928E-02 0. -1.
    10030    2    1    2    0    0  0.00000000000E+00  0.00000000000E+00  0.28642134940E+02  0.90613984510E+03  0.90568705797E+03 0.  0.
        2    1    3    3  502    0 -0.20251558086E+03  0.46552254774E+02 -0.38823265156E+03  0.44034561956E+03  0.25500000920E-02 0. -1.
       -2    1    3    3    0  502  0.20251558086E+03 -0.46552254774E+02  0.41687478650E+03  0.46579422554E+03  0.25500000920E-02 0.  1.
</event>
<event>
 5   0  0.2308362E-04  0.8997885E+03  0.7818609E-02  0.9425846E-01
        1   -1    0    0  501    0  0.00000000000E+00  0.00000000000E+00  0.55217265899E+03  0.55217265901E+03  0.50400001928E-02 0.  1.
       -1   -1    0    0    0  501  0.00000000000E+00  0.00000000000E+00 -0.36656080675E+03  0.36656080678E+03  0.50400001928E-02 0. -1.
    10030    2    1    2    0    0  0.00000000000E+00  0.00000000000E+00  0.18561185224E+03  0.91873346579E+03  0.89978854265E+03 0.  0.
        1    1    3    3  502    0  0.35388924607E+03  0.27655808449E+03  0.66123694337E+02  0.45397611783E+03  0.50400001928E-02 0.  1.
       -1    1    3    3    0  502 -0.35388924607E+03 -0.27655808449E+03  0.11948815790E+03  0.46475734796E+03  0.50400001928E-02 0. -1.
</event>
<event>
 5   0  0.2356918E-04  0.9021163E+03  0.7818609E-02  0.9422940E-01
       -1   -1    0    0    0  501  0.00000000000E+00  0.00000000000E+00  0.52060120243E+03  0.52060120245E+03  0.50400001928E-02 0. -1.
        1   -1    0    0  501    0  0.00000000000E+00  0.00000000000E+00 -0.39080482822E+03  0.39080482826E+03  0.50400001928E-02 0.  1.
    10030    2    1    2    0    0  0.00000000000E+00  0.00000000000E+00  0.12979637420E+03  0.91140603071E+03  0.90211631958E+03 0.  0.
        5    1    3    3  502    0  0.25734542639E+03  0.19099368453E+03 -0.25574381063E+03  0.41003931847E+03  0.46999998093E+01 0.  1.
       -5    1    3    3    0  502 -0.25734542639E+03 -0.19099368453E+03  0.38554018484E+03  0.50136671224E+03  0.46999998093E+01 0. -1.
</event>
<event>
 5   0  0.3959804E-04  0.8996547E+03  0.7818609E-02  0.9426013E-01
        2   -1    0    0  501    0  0.00000000000E+00  0.00000000000E+00  0.68947754556E+03  0.68947754557E+03  0.25500000920E-02 0. -1.
       -2   -1    0    0    0  501  0.00000000000E+00  0.00000000000E+00 -0.29347533406E+03  0.29347533407E+03  0.25500000920E-02 0.  1.
    10030    2    1    2    0    0  0.00000000000E+00  0.00000000000E+00  0.39600221150E+03  0.98295287964E+03  0.89965471825E+03 0.  0.
        5    1    3    3  502    0  0.41640300873E+03 -0.17351396513E+02  0.13130565058E+02  0.41699764793E+03  0.46999998093E+01 0.  1.
       -5    1    3    3    0  502 -0.41640300873E+03  0.17351396513E+02  0.38287164644E+03  0.56595523170E+03  0.46999998093E+01 0. -1.
</event>
<event>
 5   0  0.4033144E-04  0.9003220E+03  0.7818609E-02  0.9425179E-01
       -2   -1    0    0    0  501  0.00000000000E+00  0.00000000000E+00  0.96058002465E+02  0.96058002499E+02  0.25500000920E-02 0. -1.
        2   -1    0    0  501    0  0.00000000000E+00  0.00000000000E+00 -0.21096100502E+04  0.21096100502E+04  0.25500000920E-02 0.  1.
    10030    2    1    2    0    0  0.00000000000E+00  0.00000000000E+00 -0.20135520477E+04  0.22056680527E+04  0.90032200337E+03 0.  0.
        4    1    3    3  502    0 -0.10173419708E+03  0.28634479767E+03 -0.19313977289E+03  0.36006634775E+03  0.12699999809E+01 0. -1.
       -4    1    3    3    0  502  0.10173419708E+03 -0.28634479767E+03 -0.18204122748E+04  0.18456017049E+04  0.12699999809E+01 0.  1.
</event>
<event>
 5   0  0.2356918E-04  0.8999019E+03  0.7818609E-02  0.9425704E-01
       -1   -1    0    0    0  501  0.00000000000E+00  0.00000000000E+00  0.39897706297E+03  0.39897706300E+03  0.50400001928E-02 0. -1.
        1   -1    0    0  501    0  0.00000000000E+00  0.00000000000E+00 -0.50743736529E+03  0.50743736531E+03  0.50400001928E-02 0.  1.
    10030    2    1    2    0    0  0.00000000000E+00  0.00000000000E+00 -0.10846030232E+03  0.90641442831E+03  0.89990192725E+03 0.  0.
        5    1    3    3  502    0 -0.10109009109E+03  0.15736718858E+03 -0.46639826138E+03  0.50252668265E+03  0.46999998093E+01 0.  1.
       -5    1    3    3    0  502  0.10109009109E+03 -0.15736718858E+03  0.35793795906E+03  0.40388774566E+03  0.46999998093E+01 0. -1.
</event>
<event>
 5   0  0.2356918E-04  0.9000826E+03  0.7818609E-02  0.9425478E-01
        1   -1    0    0  501    0  0.00000000000E+00  0.00000000000E+00  0.24882953939E+03  0.24882953944E+03  0.50400001928E-02 0. -1.
       -1   -1    0    0    0  501  0.00000000000E+00  0.00000000000E+00 -0.81395949468E+03  0.81395949469E+03  0.50400001928E-02 0.  1.
    10030    2    1    2    0    0  0.00000000000E+00  0.00000000000E+00 -0.56512995528E+03  0.10627890341E+04  0.90008258772E+03 0.  0.
        5    1    3    3  502    0  0.40403171587E+03 -0.19182474455E+03 -0.34132782363E+03  0.56264121181E+03  0.46999998093E+01 0. -1.
       -5    1    3    3    0  502 -0.40403171587E+03  0.19182474455E+03 -0.22380213166E+03  0.50014782233E+03  0.46999998093E+01 0.  1.
</event>
<event>
 5   0  0.4110039E-04  0.8998834E+03  0.7818609E-02  0.9425727E-01
       -2   -1    0    0    0  501  0.00000000000E+00  0.00000000000E+00  0.23942764022E+03  0.23942764023E+03  0.25500000920E-02 0. -1.
        2   -1    0    0  501    0  0.00000000000E+00  0.00000000000E+00 -0.84554796411E+03  0.84554796411E+03  0.25500000920E-02 0.  1.
    10030    2    1    2    0    0  0.00000000000E+00  0.00000000000E+00 -0.60612032389E+03  0.10849756043E+04  0.89988344522E+03 0.  0.
        3    1    3    3  502    0 -0.22751337219E+03 -0.40834464335E+01  0.16493891106E+03  0.28104067970E+03  0.10100000352E+00 0. -1.
       -3    1    3    3    0  502  0.22751337219E+03  0.40834464335E+01 -0.77105923495E+03  0.80393492465E+03  0.10100000352E+00 0.  1.
</event>
<event>
 5   0  0.4033144E-04  0.8997345E+03  0.7818609E-02  0.9425913E-01
       -2   -1    0    0    0  501  0.00000000000E+00  0.00000000000E+00  0.14805487448E+03  0.14805487451E+03  0.25500000920E-02 0. -1.
        2   -1    0    0  501    0  0.00000000000E+00  0.00000000000E+00 -0.13669294282E+04  0.13669294282E+04  0.25500000920E-02 0.  1.
    10030    2    1    2    0    0  0.00000000000E+00  0.00000000000E+00 -0.12188745537E+04  0.15149843027E+04  0.89973454959E+03 0.  0.
        4    1    3    3  502    0  0.34493010399E+03 -0.88833293387E+02 -0.10721360336E+04  0.11297545831E+04  0.12699999809E+01 0.  1.
       -4    1    3    3    0  502 -0.34493010399E+03  0.88833293387E+02 -0.14673852009E+03  0.38522971955E+03  0.12699999809E+01 0. -1.
</event>
<event>
 5   0  0.4033144E-04  0.8998474E+03  0.7818609E-02  0.9425772E-01
       -2   -1    0    0    0  501  0.00000000000E+00  0.00000000000E+00  0.25404412164E+03  0.25404412165E+03  0.25500000920E-02 0. -1.
        2   -1    0    0  501    0  0.00000000000E+00  0.00000000000E+00 -0.79683534105E+03  0.79683534106E+03  0.25500000920E-02 0.  1.
    10030    2    1    2    0    0  0.00000000000E+00  0.00000000000E+00 -0.54279121942E+03  0.10508794627E+04  0.89984739666E+03 0.  0.
        4    1    3    3  502    0 -0.87730188688E+02 -0.39297799299E+03 -0.50584239465E+03  0.64653416778E+03  0.12699999809E+01 0.  1.
       -4    1    3    3    0  502  0.87730188688E+02  0.39297799299E+03 -0.36948824767E+02  0.40434529493E+03  0.12699999809E+01 0. -1.
</event>
<event>
 5   0  0.2351435E-04  0.9063723E+03  0.7818609E-02  0.9417651E-01
        1   -1    0    0  501    0  0.00000000000E+00  0.00000000000E+00  0.92671009106E+03  0.92671009107E+03  0.50400001928E-02 0.  1.
       -1   -1    0    0    0  501  0.00000000000E+00  0.00000000000E+00 -0.22162022940E+03  0.22162022945E+03  0.50400001928E-02 0. -1.
    10030    2    1    2    0    0  0.00000000000E+00  0.00000000000E+00  0.70508986166E+03  0.11483303205E+04  0.90637233631E+03 0.  0.
        4    1    3    3  502    0 -0.43048341357E+03 -0.13066869538E+03  0.28331538576E+03  0.53165731258E+03  0.12699999809E+01 0.  1.
       -4    1    3    3    0  502  0.43048341357E+03  0.13066869538E+03  0.42177447590E+03  0.61667300795E+03  0.12699999809E+01 0. -1.
</event>
<event>
 5   0  0.2450427E-04  0.8986641E+03  0.7818609E-02  0.9427253E-01
       -1   -1    0    0    0  501  0.00000000000E+00  0.00000000000E+00  0.48162719227E+03  0.48162719229E+03  0.50400001928E-02 0. -1.
        1   -1    0    0  501    0  0.00000000000E+00  0.00000000000E+00 -0.41920246246E+03  0.41920246249E+03  0.50400001928E-02 0.  1.
    10030    2    1    2    0    0  0.00000000000E+00  0.00000000000E+00  0.62424729806E+02  0.90082965479E+03  0.89866413084E+03 0.  0.
        3    1    3    3  502    0  0.38954871955E+03 -0.18544812326E+03 -0.94629319772E+02  0.44169438494E+03  0.10100000352E+00 0.  1.
       -3    1    3    3    0  502 -0.38954871955E+03  0.18544812326E+03  0.15705404958E+03  0.45913526985E+03  0.10100000352E+00 0. -1.
</event>
<event>
 5   0  0.2308362E-04  0.9007162E+03  0.7818609E-02  0.9424687E-01
        1   -1    0    0  501    0  0.00000000000E+00  0.00000000000E+00  0.19365795854E+04  0.19365795854E+04  0.50400001928E-02 0. -1.
       -1   -1    0    0    0  501  0.00000000000E+00  0.00000000000E+00 -0.10473230171E+03  0.10473230183E+03  0.50400001928E-02 0.  1.
    10030    2    1    2    0    0  0.00000000000E+00  0.00000000000E+00  0.18318472837E+04  0.20413118872E+04  0.90071624288E+03 0.  0.
        1    1    3    3  502    0 -0.17999783779E+03 -0.17407824170E+03  0.17642664959E+04  0.17819480140E+04  0.50400001928E-02 0. -1.
       -1    1    3    3    0  502  0.17999783779E+03  0.17407824170E+03  0.67580787746E+02  0.25936387324E+03  0.50400001928E-02 0.  1.
</event>
<event>
 5   0  0.4033144E-04  0.9046749E+03  0.7818609E-02  0.9419756E-01
       -2   -1    0    0    0  501  0.00000000000E+00  0.00000000000E+00  0.21365700205E+03  0.21365700206E+03  0.25500000920E-02 0.  1.
        2   -1    0    0  501    0  0.00000000000E+00  0.00000000000E+00 -0.95765259498E+03  0.95765259498E+03  0.25500000920E-02 0. -1.
    10030    2    1    2    0    0  0.00000000000E+00  0.00000000000E+00 -0.74399559293E+03  0.11713095970E+04  0.90467493048E+03 0.  0.
        4    1    3    3  502    0  0.22840750598E+03  0.21696257264E+03 -0.79226641903E+03  0.85260215712E+03  0.12699999809E+01 0. -1.
       -4    1    3    3    0  502 -0.22840750598E+03 -0.21696257264E+03  0.48270826095E+02  0.31870743992E+03  0.12699999809E+01 0.  1.
</event>
<event>
 5   0  0.2351435E-04  0.9008432E+03  0.7818609E-02  0.9424528E-01
       -1   -1    0    0    0  501  0.00000000000E+00  0.00000000000E+00  0.29080981844E+03  0.29080981848E+03  0.50400001928E-02 0.  1.
        1   -1    0    0  501    0  0.00000000000E+00  0.00000000000E+00 -0.69763669723E+03  0.69763669725E+03  0.50400001928E-02 0. -1.
    10030    2    1    2    0    0  0.00000000000E+00  0.00000000000E+00 -0.40682687879E+03  0.98844651573E+03  0.90084316346E+03 0.  0.
        4    1    3    3  502    0 -0.34500383062E+03 -0.16850323295E+03  0.54980424639E+02  0.38787297231E+03  0.12699999809E+01 0.  1.
       -4    1    3    3    0  502  0.34500383062E+03  0.16850323295E+03 -0.46180730343E+03  0.60057354342E+03  0.12699999809E+01 0. -1.
</event>
<event>
 5   0  0.4110039E-04  0.9019585E+03  0.7818609E-02  0.9423136E-01
       -2   -1    0    0    0  501  0.00000000000E+00  0.00000000000E+00  0.31189345206E+03  0.31189345207E+03  0.25500000920E-02 0.  1.
        2   -1    0    0  501    0  0.00000000000E+00  0.00000000000E+00 -0.65208900813E+03  0.65208900814E+03  0.25500000920E-02 0. -1.
    10030    2    1    2    0    0  0.00000000000E+00  0.00000000000E+00 -0.34019555607E+03  0.96398246021E+03  0.90195851747E+03 0.  0.
        3    1    3    3  502    0 -0.36235023821E+03 -0.23012970166E+03 -0.31790043208E+03  0.53415172903E+03  0.10100000352E+00 0. -1.
       -3    1    3    3    0  502  0.36235023821E+03  0.23012970166E+03 -0.22295123995E+02  0.42983073118E+03  0.10100000352E+00 0.  1.
</event>
<event>
 5   0  0.2356918E-04  0.8994406E+03  0.7818609E-02  0.9426281E-01
        1   -1    0    0  501    0  0.00000000000E+00  0.00000000000E+00  0.93947154246E+03  0.93947154248E+03  0.50400001928E-02 0.  1.
       -1   -1    0    0    0  501  0.00000000000E+00  0.00000000000E+00 -0.21527884157E+03  0.21527884163E+03  0.50400001928E-02 0. -1.
    10030    2    1    2    0    0  0.00000000000E+00  0.00000000000E+00  0.72419270089E+03  0.11547503841E+04  0.89944059368E+03 0.  0.
        5    1    3    3  502    0  0.91502165492E+02  0.41938601302E+03  0.18999774229E+03  0.46944489163E+03  0.46999998093E+01 0. -1.
       -5    1    3    3    0  502 -0.91502165492E+02 -0.41938601302E+03  0.53419495861E+03  0.68530549247E+03  0.46999998093E+01 0.  1.
</event>
<event>
 5   0  0.4110039E-04  0.9007156E+03  0.7818609E-02  0.9424687E-01
        2   -1    0    0  501    0  0.00000000000E+00  0.00000000000E+00  0.19206642067E+03  0.19206642069E+03  0.25500000920E-02 0. -1.
       -2   -1    0    0    0  501  0.00000000000E+00  0.00000000000E+00 -0.10560001470E+04  0.10560001470E+04  0.25500000920E-02 0.  1.
    10030    2    1    2    0    0  0.00000000000E+00  0.00000000000E+00 -0.86393372636E+03  0.12480665677E+04  0.90071564542E+03 0.  0.
        3    1    3    3  502    0 -0.28681046981E+03  0.88973823245E+02 -0.89702484711E+03  0.94595463599E+03  0.10100000352E+00 0.  1.
       -3    1    3    3    0  502  0.28681046981E+03 -0.88973823245E+02  0.33091120751E+02  0.30211193173E+03  0.10100000352E+00 0. -1.
</event>
<event>
 5   0  0.4243516E-04  0.9001416E+03  0.7818609E-02  0.9425404E-01
       -2   -1    0    0    0  501  0.00000000000E+00  0.00000000000E+00  0.79299094095E+02  0.79299094136E+02  0.25500000920E-02 0. -1.
        2   -1    0    0  501    0  0.00000000000E+00  0.00000000000E+00 -0.25544267595E+04  0.25544267595E+04  0.25500000920E-02 0.  1.
    10030    2    1    2    0    0  0.00000000000E+00  0.00000000000E+00 -0.24751276654E+04  0.26337258536E+04  0.90014160667E+03 0.  0.
        1    1    3    3  502    0  0.17896528836E+03  0.24609713701E+03 -0.26727839315E+03  0.40500631446E+03  0.50400001928E-02 0. -1.
       -1    1    3    3    0  502 -0.17896528836E+03 -0.24609713701E+03 -0.22078492723E+04  0.22287195392E+04  0.50400001928E-02 0.  1.
</event>
<event>
 5   0  0.2356918E-04  0.8999566E+03  0.7818609E-02  0.9425636E-01
        1   -1    0    0  501    0  0.00000000000E+00  0.00000000000E+00  0.13691066743E+04  0.13691066744E+04  0.50400001928E-02 0.  1.
       -1   -1    0    0    0  501  0.00000000000E+00  0.00000000000E+00 -0.14789240594E+03  0.14789240602E+03  0.50400001928E-02 0. -1.
    10030    2    1    2    0    0  0.00000000000E+00  0.00000000000E+00  0.12212142684E+04  0.15169990804E+04  0.89995662146E+03 0.  0.
        5    1    3    3  502    0 -0.35938981984E+03 -0.26998215710E+03  0.57660144824E+03  0.73112429030E+03  0.46999998093E+01 0.  1.
       -5    1    3    3    0  502  0.35938981984E+03  0.26998215710E+03  0.64461282017E+03  0.78587479008E+03  0.46999998093E+01 0. -1.
</event>
<event>
 5   0  0.2332791E-04  0.9002198E+03  0.7818609E-02  0.9425307E-01
        1   -1    0    0  501    0  0.00000000000E+00  0.00000000000E+00  0.42166953377E+03  0.42166953380E+03  0.50400001928E-02 0. -1.
       -1   -1    0    0    0  501  0.00000000000E+00  0.00000000000E+00 -0.48046844328E+03  0.48046844331E+03  0.50400001928E-02 0.  1.
    10030    2    1    2    0    0  0.00000000000E+00  0.00000000000E+00 -0.58798909507E+02  0.90213797711E+03  0.90021976094E+03 0.  0.
        2    1    3    3  502    0 -0.19119064979E+03  0.86252970711E+02 -0.42850108089E+03  0.47708135140E+03  0.25500000920E-02 0.  1.
       -2    1    3    3    0  502  0.19119064979E+03 -0.86252970711E+02  0.36970217139E+03  0.42505662571E+03  0.25500000920E-02 0. -1.
</event>
<event>
 5   0  0.4236284E-04  0.9000347E+03  0.7818609E-02  0.9425538E-01
       -2   -1    0    0    0  501  0.00000000000E+00  0.00000000000E+00  0.67606461916E+03  0.67606461917E+03  0.25500000920E-02 0.  1.
        2   -1    0    0  501    0  0.00000000000E+00  0.00000000000E+00 -0.29955068636E+03  0.29955068637E+03  0.25500000920E-02 0. -1.
    10030    2    1    2    0    0  0.00000000000E+00  0.00000000000E+00  0.37651393281E+03  0.97561530553E+03  0.90003471200E+03 0.  0.
        2    1    3    3  502    0  0.29097370368E+03  0.31550532698E+03  0.33491970448E+03  0.54440840923E+03  0.25500000920E-02 0.  1.
       -2    1    3    3    0  502 -0.29097370368E+03 -0.31550532698E+03  0.41594228322E+02  0.43120689630E+03  0.25500000920E-02 0. -1.
</event>
<event>
 5   0  0.4236284E-04  0.8989503E+03  0.7818609E-02  0.9426895E-01
       -2   -1    0    0    0  501  0.00000000000E+00  0.00000000000E+00  0.12279421899E+03  0.12279421902E+03  0.25500000920E-02 0.  1.
        2   -1    0    0  501    0  0.00000000000E+00  0.00000000000E+00 -0.16452557222E+04  0.16452557222E+04  0.25500000920E-02 0. -1.
    10030    2    1    2    0    0  0.00000000000E+00  0.00000000000E+00 -0.15224615032E+04  0.17680499413E+04  0.89895025776E+03 0.  0.
        2    1    3    3  502    0 -0.16154469877E+03  0.40635263275E+03 -0.55675284297E+03  0.70794977223E+03  0.25500000920E-02 0.  1.
       -2    1    3    3    0  502  0.16154469877E+03 -0.40635263275E+03 -0.96570866027E+03  0.10601001690E+04  0.25500000920E-02 0. -1.
</event>
<event>
 5   0  0.2308362E-04  0.9000242E+03  0.7818609E-02  0.9425551E-01
        1   -1    0    0  501    0  0.00000000000E+00  0.00000000000E+00  0.13499005541E+04  0.13499005541E+04  0.50400001928E-02 0.  1.
       -1   -1    0    0    0  501  0.00000000000E+00  0.00000000000E+00 -0.15001911695E+03  0.15001911703E+03  0.50400001928E-02 0. -1.
    10030    2    1    2    0    0  0.00000000000E+00  0.00000000000E+00  0.11998814372E+04  0.14999196712E+04  0.90002419783E+03 0.  0.
        1    1    3    3  502    0 -0.38555114884E+03  0.23148894428E+03  0.57235119980E+03  0.72788921934E+03  0.50400001928E-02 0. -1.
       -1    1    3    3    0  502  0.38555114884E+03 -0.23148894428E+03  0.62753023736E+03  0.77203045181E+03  0.50400001928E-02 0.  1.
</event>
<event>
 5   0  0.2332791E-04  0.9012568E+03  0.7818609E-02  0.9424012E-01
       -1   -1    0    0    0  501  0.00000000000E+00  0.00000000000E+00  0.30990106612E+03  0.30990106616E+03  0.50400001928E-02 0. -1.
        1   -1    0    0  501    0  0.00000000000E+00  0.00000000000E+00 -0.65526055484E+03  0.65526055486E+03  0.50400001928E-02 0.  1.
    10030    2    1    2    0    0  0.00000000000E+00  0.00000000000E+00 -0.34535948872E+03  0.96516162102E+03  0.90125677709E+03 0.  0.
        2    1    3    3  502    0 -0.14675271758E+03  0.56710309290E+02  0.27953388110E+03  0.32076722087E+03  0.25500000920E-02 0. -1.
       -2    1    3    3    0  502  0.14675271758E+03 -0.56710309290E+02 -0.62489336982E+03  0.64439440015E+03  0.25500000920E-02 0.  1.
</event>
<event>
 5   0  0.4243516E-04  0.9006609E+03  0.7818609E-02  0.9424756E-01
       -2   -1    0    0    0  501  0.00000000000E+00  0.00000000000E+00  0.55397217589E+03  0.55397217590E+03  0.25500000920E-02 0.  1.
        2   -1    0    0  501    0  0.00000000000E+00  0.00000000000E+00 -0.36607891598E+03  0.36607891599E+03  0.25500000920E-02 0. -1.
    10030    2    1    2    0    0  0.00000000000E+00  0.00000000000E+00  0.18789325991E+03  0.92005109189E+03  0.90066094318E+03 0.  0.
        1    1    3    3  502    0  0.66349433705E+02 -0.67916124585E+02 -0.35573805913E+03  0.36819073056E+03  0.50400001928E-02 0. -1.
       -1    1    3    3    0  502 -0.66349433705E+02  0.67916124585E+02  0.54363131904E+03  0.55186036133E+03  0.50400001928E-02 0.  1.
</event>
<event>
 5   0  0.2351435E-04  0.8998619E+03  0.7818609E-02  0.9425754E-01
       -1   -1    0    0    0  501  0.00000000000E+00  0.00000000000E+00  0.53857503430E+03  0.53857503432E+03  0.50400001928E-02 0. -1.
        1   -1    0    0  501    0  0.00000000000E+00  0.00000000000E+00 -0.37587677014E+03  0.37587677017E+03  0.50400001928E-02 0.  1.
    10030    2    1    2    0    0  0.00000000000E+00  0.00000000000E+00  0.16269826416E+03  0.91445180449E+03  0.89986186583E+03 0.  0.
        4    1    3    3  502    0  0.22481374069E+03 -0.36737259336E+03  0.21358343179E+03  0.48075288412E+03  0.12699999809E+01 0. -1.
       -4    1    3    3    0  502 -0.22481374069E+03  0.36737259336E+03 -0.50885167636E+02  0.43369892038E+03  0.12699999809E+01 0.  1.
</event>
<event>
 5   0  0.4243516E-04  0.9038251E+03  0.7818609E-02  0.9420812E-01
       -2   -1    0    0    0  501  0.00000000000E+00  0.00000000000E+00  0.30307456259E+03  0.30307456260E+03  0.25500000920E-02 0.  1.
        2   -1    0    0  501    0  0.00000000000E+00  0.00000000000E+00 -0.67384387934E+03  0.67384387934E+03  0.25500000920E-02 0. -1.
    10030    2    1    2    0    0  0.00000000000E+00  0.00000000000E+00 -0.37076931675E+03  0.97691844195E+03  0.90382506934E+03 0.  0.
        1    1    3    3  502    0  0.43199231353E+02 -0.44847172906E+03 -0.14744818102E+03  0.47406121068E+03  0.50400001928E-02 0. -1.
       -1    1    3    3    0  502 -0.43199231353E+02  0.44847172906E+03 -0.22332113572E+03  0.50285723127E+03  0.50400001928E-02 0.  1.
</event>
<event>
 5   0  0.2308362E-04  0.9000285E+03  0.7818609E-02  0.9425546E-01
       -1   -1    0    0    0  501  0.00000000000E+00  0.00000000000E+00  0.23780867585E+03  0.23780867590E+03  0.50400001928E-02 0. -1.
        1   -1    0    0  501    0  0.00000000000E+00  0.00000000000E+00 -0.85157879485E+03  0.85157879486E+03  0.50400001928E-02 0.  1.
    10030    2    1    2    0    0  0.00000000000E+00  0.00000000000E+00 -0.61377011899E+03  0.10893874708E+04  0.90002850093E+03 0.  0.
        1    1    3    3  502    0 -0.40037507522E+03 -0.48819542306E+02 -0.65323777729E+02  0.40859606524E+03  0.50400001928E-02 0. -1.
       -1    1    3    3    0  502  0.40037507522E+03  0.48819542306E+02 -0.54844634126E+03  0.68079140553E+03  0.50400001928E-02 0.  1.
</event>
<event>
 5   0  0.4033144E-04  0.9002504E+03  0.7818609E-02  0.9425268E-01
       -2   -1    0    0    0  501  0.00000000000E+00  0.00000000000E+00  0.50536559410E+03  0.50536559411E+03  0.25500000920E-02 0. -1.
        2   -1    0    0  501    0  0.00000000000E+00  0.00000000000E+00 -0.40092300109E+03  0.40092300110E+03  0.25500000920E-02 0.  1.
    10030    2    1    2    0    0  0.00000000000E+00  0.00000000000E+00  0.10444259301E+03  0.90628859521E+03  0.90025038882E+03 0.  0.
        4    1    3    3  502    0  0.33549460667E+03  0.15780209872E+03 -0.20474148249E+03  0.42353136957E+03  0.12699999809E+01 0. -1.
       -4    1    3    3    0  502 -0.33549460667E+03 -0.15780209872E+03  0.30918407550E+03  0.48275722564E+03  0.12699999809E+01 0.  1.
</event>
<event>
 5   0  0.2356918E-04  0.9000722E+03  0.7818609E-02  0.9425491E-01
        1   -1    0    0  501    0  0.00000000000E+00  0.00000000000E+00  0.50942592666E+03  0.50942592668E+03  0.50400001928E-02 0.  1.
       -1   -1    0    0    0  501  0.00000000000E+00  0.00000000000E+00 -0.39757003002E+03  0.39757003005E+03  0.50400001928E-02 0. -1.
    10030    2    1    2    0    0  0.00000000000E+00  0.00000000000E+00  0.11185589663E+03  0.90699595674E+03  0.90007217706E+03 0.  0.
        5    1    3    3  502    0  0.22660746148E+03  0.38852922611E+03  0.41517951674E+02  0.45172085568E+03  0.46999998093E+01 0.  1.
       -5    1    3    3    0  502 -0.22660746148E+03 -0.38852922611E+03  0.70337944961E+02  0.45527510106E+03  0.46999998093E+01 0. -1.
</event>
<event>
 5   0  0.4110039E-04  0.8973290E+03  0.7818609E-02  0.9428926E-01
       -2   -1    0    0    0  501  0.00000000000E+00  0.00000000000E+00  0.10243775028E+04  0.10243775028E+04  0.25500000920E-02 0.  1.
        2   -1    0    0  501    0  0.00000000000E+00  0.00000000000E+00 -0.19650942411E+03  0.19650942412E+03  0.25500000920E-02 0. -1.
    10030    2    1    2    0    0  0.00000000000E+00  0.00000000000E+00  0.82786807868E+03  0.12208869269E+04  0.89732899910E+03 0.  0.
        3    1    3    3  502    0 -0.23756260787E+03 -0.10187309543E+03 -0.85021442677E+02  0.27210802294E+03  0.10100000352E+00 0. -1.
       -3    1    3    3    0  502  0.23756260787E+03  0.10187309543E+03  0.91288952136E+03  0.94877890398E+03  0.10100000352E+00 0.  1.
</event>
<event>
 5   0  0.4236284E-04  0.8998205E+03  0.7818609E-02  0.9425806E-01
        2   -1    0    0  501    0  0.00000000000E+00  0.00000000000E+00  0.24031534189E+03  0.24031534191E+03  0.25500000920E-02 0.  1.
       -2   -1    0    0    0  501  0.00000000000E+00  0.00000000000E+00 -0.84230680542E+03  0.84230680542E+03  0.25500000920E-02 0. -1.
    10030    2    1    2    0    0  0.00000000000E+00  0.00000000000E+00 -0.60199146353E+03  0.10826221473E+04  0.89982053307E+03 0.  0.
        2    1    3    3  502    0  0.33178219343E+03  0.25027539937E+03 -0.93640876130E+02  0.42601151756E+03  0.25500000920E-02 0. -1.
       -2    1    3    3    0  502 -0.33178219343E+03 -0.25027539937E+03 -0.50835058740E+03  0.65661062977E+03  0.25500000920E-02 0.  1.
</event>
<event>
 5   0  0.4243516E-04  0.8998140E+03  0.7818609E-02  0.9425814E-01
       -2   -1    0    0    0  501  0.00000000000E+00  0.00000000000E+00  0.96652487093E+02  0.96652487127E+02  0.25500000920E-02 0.  1.
        2   -1    0    0  501    0  0.00000000000E+00  0.00000000000E+00 -0.20942690454E+04  0.20942690454E+04  0.25500000920E-02 0. -1.
    10030    2    1    2    0    0  0.00000000000E+00  0.00000000000E+00 -0.19976165583E+04  0.21909215326E+04  0.89981400728E+03 0.  0.
        1    1    3    3  502    0 -0.12901698135E+03  0.30877358897E+03 -0.26660804713E+03  0.42786254982E+03  0.50400001928E-02 0.  1.
       -1    1    3    3    0  502  0.12901698135E+03 -0.30877358897E+03 -0.17310085112E+04  0.17630589827E+04  0.50400001928E-02 0. -1.
</event>
<event>
 5   0  0.2332791E-04  0.9000468E+03  0.7818609E-02  0.9425523E-01
        1   -1    0    0  501    0  0.00000000000E+00  0.00000000000E+00  0.12536056523E+04  0.12536056523E+04  0.50400001928E-02 0.  1.
       -1   -1    0    0    0  501  0.00000000000E+00  0.00000000000E+00 -0.16155086093E+03  0.16155086101E+03  0.50400001928E-02 0. -1.
    10030    2    1    2    0    0  0.00000000000E+00  0.00000000000E+00  0.10920547914E+04  0.14151565133E+04  0.90004682645E+03 0.  0.
        2    1    3    3  502    0  0.15426796679E+03 -0.21540332949E+03  0.11179779309E+04  0.11489437993E+04  0.25500000920E-02 0.  1.
       -2    1    3    3    0  502 -0.15426796679E+03  0.21540332949E+03 -0.25923139544E+02  0.26621271401E+03  0.25500000920E-02 0. -1.
</event>
<event>
 5   0  0.4236284E-04  0.8969165E+03  0.7818609E-02  0.9429444E-01
        2   -1    0    0  501    0  0.00000000000E+00  0.00000000000E+00  0.19826392807E+04  0.19826392807E+04  0.25500000920E-02 0.  1.
       -2   -1    0    0    0  501  0.00000000000E+00  0.00000000000E+00 -0.10143792781E+03  0.10143792785E+03  0.25500000920E-02 0. -1.
    10030    2    1    2    0    0  0.00000000000E+00  0.00000000000E+00  0.18812013529E+04  0.20840772086E+04  0.89691654077E+03 0.  0.
        2    1    3    3  502    0 -0.31436190804E+03  0.36532552244E+02  0.20230636196E+03  0.37561403155E+03  0.25500000920E-02 0. -1.
       -2    1    3    3    0  502  0.31436190804E+03 -0.36532552244E+02  0.16788949910E+04  0.17084631770E+04  0.25500000920E-02 0.  1.
</event>
<event>
 5   0  0.2450427E-04  0.9001862E+03  0.7818609E-02  0.9425349E-01
        1   -1    0    0  501    0  0.00000000000E+00  0.00000000000E+00  0.54520361226E+03  0.54520361228E+03  0.50400001928E-02 0.  1.
       -1   -1    0    0    0  501  0.00000000000E+00  0.00000000000E+00 -0.37157460530E+03  0.37157460533E+03  0.50400001928E-02 0. -1.
    10030    2    1    2    0    0  0.00000000000E+00  0.00000000000E+00  0.17362900696E+03  0.91677821761E+03  0.90018624086E+03 0.  0.
        3    1    3    3  502    0 -0.19733374047E+03 -0.38243445393E+03 -0.47476020594E+02  0.43295577074E+03  0.10100000352E+00 0.  1.
       -3    1    3    3    0  502  0.19733374047E+03  0.38243445393E+03  0.22110502756E+03  0.48382244687E+03  0.10100000352E+00 0. -1.
</event>
<event>
 5   0  0.2351435E-04  0.9058957E+03  0.7818609E-02  0.9418241E-01
        1   -1    0    0  501    0  0.00000000000E+00  0.00000000000E+00  0.75152982919E+03  0.75152982920E+03  0.50400001928E-02 0. -1.
       -1   -1    0    0    0  501  0.00000000000E+00  0.00000000000E+00 -0.27299217336E+03  0.27299217340E+03  0.50400001928E-02 0.  1.
    10030    2    1    2    0    0  0.00000000000E+00  0.00000000000E+00  0.47853765583E+03  0.10245220026E+04  0.90589571463E+03 0.  0.
        4    1    3    3  502    0 -0.29885809486E+03 -0.29615095385E+03  0.42898062111E+03  0.60087231132E+03  0.12699999809E+01 0. -1.
       -4    1    3    3    0  502  0.29885809486E+03  0.29615095385E+03  0.49557034725E+02  0.42364969128E+03  0.12699999809E+01 0.  1.
</event>
<event>
 5   0  0.2332791E-04  0.9001859E+03  0.7818609E-02  0.9425349E-01
       -1   -1    0    0    0  501  0.00000000000E+00  0.00000000000E+00  0.28638023857E+03  0.28638023861E+03  0.50400001928E-02 0.  1.
        1   -1    0    0  501    0  0.00000000000E+00  0.00000000000E+00 -0.70739408130E+03  0.70739408132E+03  0.50400001928E-02 0. -1.
    10030    2    1    2    0    0  0.00000000000E+00  0.00000000000E+00 -0.42101384273E+03  0.99377431993E+03  0.90018594923E+03 0.  0.
        2    1    3    3  502    0  0.36031830373E+03 -0.20385545643E+03 -0.15515972301E+02  0.41427897910E+03  0.25500000920E-02 0.  1.
       -2    1    3    3    0  502 -0.36031830373E+03  0.20385545643E+03 -0.40549787043E+03  0.57949534083E+03  0.25500000920E-02 0. -1.
</event>
<event>
 5   0  0.2356918E-04  0.8995443E+03  0.7818609E-02  0.9426151E-01
        1   -1    0    0  501    0  0.00000000000E+00  0.00000000000E+00  0.46239943197E+03  0.46239943200E+03  0.50400001928E-02 0. -1.
       -1   -1    0    0    0  501  0.00000000000E+00  0.00000000000E+00 -0.43748971070E+03  0.43748971073E+03  0.50400001928E-02 0.  1.
    10030    2    1    2    0    0  0.00000000000E+00  0.00000000000E+00  0.24909721273E+02  0.89988914272E+03  0.89954431518E+03 0.  0.
        5    1    3    3  502    0 -0.14547652590E+03  0.11734476686E+03  0.42168341417E+03  0.46127237689E+03  0.46999998093E+01 0. -1.
       -5    1    3    3    0  502  0.14547652590E+03 -0.11734476686E+03 -0.39677369290E+03  0.43861676583E+03  0.46999998093E+01 0.  1.
</event>
<event>
 5   0  0.4110039E-04  0.8999530E+03  0.7818609E-02  0.9425640E-01
       -2   -1    0    0    0  501  0.00000000000E+00  0.00000000000E+00  0.11319270667E+04  0.11319270667E+04  0.25500000920E-02 0. -1.
        2   -1    0    0  501    0  0.00000000000E+00  0.00000000000E+00 -0.17887976592E+03  0.17887976594E+03  0.25500000920E-02 0.  1.
    10030    2    1    2    0    0  0.00000000000E+00  0.00000000000E+00  0.95304730083E+03  0.13108068327E+04  0.89995299599E+03 0.  0.
        3    1    3    3  502    0  0.27286314145E+03 -0.95590124953E+02 -0.25687309360E+02  0.29026128577E+03  0.10100000352E+00 0.  1.
       -3    1    3    3    0  502 -0.27286314145E+03  0.95590124953E+02  0.97873461019E+03  0.10205455469E+04  0.10100000352E+00 0. -1.
</event>
<event>
 5   0  0.4033144E-04  0.8988427E+03  0.7818609E-02  0.9427029E-01
        2   -1    0    0  501    0  0.00000000000E+00  0.00000000000E+00  0.14887951227E+04  0.14887951227E+04  0.25500000920E-02 0. -1.
       -2   -1    0    0    0  501  0.00000000000E+00  0.00000000000E+00 -0.13566646313E+03  0.13566646316E+03  0.25500000920E-02 0.  1.
    10030    2    1    2    0    0  0.00000000000E+00  0.00000000000E+00  0.13531286596E+04  0.16244615859E+04  0.89884274186E+03 0.  0.
        4    1    3    3  502    0 -0.23023116360E+03 -0.28288190829E+03  0.20200452171E+03  0.41693644890E+03  0.12699999809E+01 0.  1.
       -4    1    3    3    0  502  0.23023116360E+03  0.28288190829E+03  0.11511241379E+04  0.12075251370E+04  0.12699999809E+01 0. -1.
</event>
<event>
 5   0  0.3959804E-04  0.8998820E+03  0.7818609E-02  0.9425729E-01
       -2   -1    0    0    0  501  0.00000000000E+00  0.00000000000E+00  0.93029701822E+02  0.93029701857E+02  0.25500000920E-02 0.  1.
        2   -1    0    0  501    0  0.00000000000E+00  0.00000000000E+00 -0.21761532731E+04  0.21761532731E+04  0.25500000920E-02 0. -1.
    10030    2    1    2    0    0  0.00000000000E+00  0.00000000000E+00 -0.20831235713E+04  0.22691829750E+04  0.89988197039E+03 0.  0.
        5    1    3    3  502    0 -0.62067792040E+02 -0.42802805427E+03 -0.13541275464E+04  0.14215287293E+04  0.46999998093E+01 0. -1.
       -5    1    3    3    0  502  0.62067792040E+02  0.42802805427E+03 -0.72899602486E+03  0.84765424573E+03  0.46999998093E+01 0.  1.
</event>
<event>
 5   0  0.2332791E-04  0.8992823E+03  0.7818609E-02  0.9426479E-01
       -1   -1    0    0    0  501  0.00000000000E+00  0.00000000000E+00  0.36821431449E+03  0.36821431452E+03  0.50400001928E-02 0.  1.
        1   -1    0    0  501    0  0.00000000000E+00  0.00000000000E+00 -0.54907475100E+03  0.54907475102E+03  0.50400001928E-02 0. -1.
    10030    2    1    2    0    0  0.00000000000E+00  0.00000000000E+00 -0.18086043651E+03  0.91728906554E+03  0.89928234291E+03 0.  0.
        2    1    3    3  502    0 -0.22433411844E+03  0.70562975296E+02 -0.48134314197E+03  0.53572021662E+03  0.25500000920E-02 0. -1.
       -2    1    3    3    0  502  0.22433411844E+03 -0.70562975296E+02  0.30048270546E+03  0.38156884891E+03  0.25500000920E-02 0.  1.
</event>
<event>
 5   0  0.1596250E-04  0.9001735E+03  0.7818609E-02  0.9425365E-01
       -4   -1    0    0    0  501  0.00000000000E+00  0.00000000000E+00  0.46668630108E+03  0.46668802911E+03  0.12699999809E+01 0.  1.
        4   -1    0    0  501    0  0.00000000000E+00  0.00000000000E+00 -0.43407416740E+03  0.43407602526E+03  0.12699999809E+01 0. -1.
    10030    2    1    2    0    0  0.00000000000E+00  0.00000000000E+00  0.32612133675E+02  0.90076405437E+03  0.90017350016E+03 0.  0.
        3    1    3    3  502    0 -0.17206660672E+03  0.19998274415E+03  0.38120686660E+03  0.46359324893E+03  0.10100000352E+00 0.  1.
       -3    1    3    3    0  502  0.17206660672E+03 -0.19998274415E+03 -0.34859473293E+03  0.43717080544E+03  0.10100000352E+00 0. -1.
</event>
<event>
 5   0  0.2356918E-04  0.9025151E+03  0.7818609E-02  0.9422443E-01
       -1   -1    0    0    0  501  0.00000000000E+00  0.00000000000E+00  0.10017011990E+04  0.10017011991E+04  0.50400001928E-02 0.  1.
        1   -1    0    0  501    0  0.00000000000E+00  0.00000000000E+00 -0.20328756544E+03  0.20328756550E+03  0.50400001928E-02 0. -1.
    10030    2    1    2    0    0  0.00000000000E+00  0.00000000000E+00  0.79841363361E+03  0.12049887646E+04  0.90251514801E+03 0.  0.
        5    1    3    3  502    0 -0.32542244256E+03  0.54407293680E+02 -0.11773751876E+02  0.33018272359E+03  0.46999998093E+01 0. -1.
       -5    1    3    3    0  502  0.32542244256E+03 -0.54407293680E+02  0.81018738548E+03  0.87480604097E+03  0.46999998093E+01 0.  1.
</event>
<event>
 5   0  0.2356918E-04  0.8999608E+03  0.7818609E-02  0.9425630E-01
        1   -1    0    0  501    0  0.00000000000E+00  0.00000000000E+00  0.24265336756E+03  0.24265336761E+03  0.50400001928E-02 0.  1.
       -1   -1    0    0    0  501  0.00000000000E+00  0.00000000000E+00 -0.83445100085E+03  0.83445100086E+03  0.50400001928E-02 0. -1.
    10030    2    1    2    0    0  0.00000000000E+00  0.00000000000E+00 -0.59179763329E+03  0.10771043685E+04  0.89996076682E+03 0.  0.
        5    1    3    3  502    0 -0.36794972087E+01 -0.27506391092E+03  0.13025935682E+03  0.30440644512E+03  0.46999998093E+01 0.  1.
       -5    1    3    3    0  502  0.36794972087E+01  0.27506391092E+03 -0.72205699011E+03  0.77269792336E+03  0.46999998093E+01 0. -1.
</event>
<event>
 5   0  0.2351435E-04  0.9005501E+03  0.7818609E-02  0.9424894E-01
       -1   -1    0    0    0  501  0.00000000000E+00  0.00000000000E+00  0.30529031145E+03  0.30529031149E+03  0.50400001928E-02 0. -1.
        1   -1    0    0  501    0  0.00000000000E+00  0.00000000000E+00 -0.66411413032E+03  0.66411413033E+03  0.50400001928E-02 0.  1.
    10030    2    1    2    0    0  0.00000000000E+00  0.00000000000E+00 -0.35882381887E+03  0.96940444182E+03  0.90055007570E+03 0.  0.
        4    1    3    3  502    0  0.11730679494E+03  0.20117017633E+03 -0.59425444667E+03  0.63825565745E+03  0.12699999809E+01 0.  1.
       -4    1    3    3    0  502 -0.11730679494E+03 -0.20117017633E+03  0.23543062780E+03  0.33114878437E+03  0.12699999809E+01 0. -1.
</event>
<event>
 5   0  0.2308362E-04  0.9000944E+03  0.7818609E-02  0.9425463E-01
       -1   -1    0    0    0  501  0.00000000000E+00  0.00000000000E+00  0.19506882468E+03  0.19506882474E+03  0.50400001928E-02 0. -1.
        1   -1    0    0  501    0  0.00000000000E+00  0.00000000000E+00 -0.10383129887E+04  0.10383129887E+04  0.50400001928E-02 0.  1.
    10030    2    1    2    0    0  0.00000000000E+00  0.00000000000E+00 -0.84324416401E+03  0.12333818134E+04  0.90009442704E+03 0.  0.
        1    1    3    3  502    0  0.24999208481E+03  0.20149462546E+03 -0.85374164713E+03  0.91212440304E+03  0.50400001928E-02 0.  1.
       -1    1    3    3    0  502 -0.24999208481E+03 -0.20149462546E+03  0.10497483125E+02  0.32125741039E+03  0.50400001928E-02 0. -1.
</event>
<event>
 5   0  0.4033144E-04  0.9000458E+03  0.7818609E-02  0.9425524E-01
        2   -1    0    0  501    0  0.00000000000E+00  0.00000000000E+00  0.43449137174E+03  0.43449137175E+03  0.25500000920E-02 0.  1.
       -2   -1    0    0    0  501  0.00000000000E+00  0.00000000000E+00 -0.46610958543E+03  0.46610958543E+03  0.25500000920E-02 0. -1.
    10030    2    1    2    0    0  0.00000000000E+00  0.00000000000E+00 -0.31618213689E+02  0.90060095718E+03  0.90004576141E+03 0.  0.
        4    1    3    3  502    0  0.19153909848E+03 -0.40392060324E+03 -0.67608793274E+02  0.45211905711E+03  0.12699999809E+01 0. -1.
       -4    1    3    3    0  502 -0.19153909848E+03  0.40392060324E+03  0.35990579585E+02  0.44848190007E+03  0.12699999809E+01 0.  1.
</event>
<event>
 5   0  0.3959804E-04  0.8999594E+03  0.7818609E-02  0.9425632E-01
        2   -1    0    0  501    0  0.00000000000E+00  0.00000000000E+00  0.47364505267E+03  0.47364505268E+03  0.25500000920E-02 0.  1.
       -2   -1    0    0    0  501  0.00000000000E+00  0.00000000000E+00 -0.42749674086E+03  0.42749674087E+03  0.25500000920E-02 0. -1.
    10030    2    1    2    0    0  0.00000000000E+00  0.00000000000E+00  0.46148311807E+02  0.90114179354E+03  0.89995936874E+03 0.  0.
        5    1    3    3  502    0  0.34121529224E+03 -0.12467163231E+03  0.28892012970E+03  0.46418511706E+03  0.46999998093E+01 0.  1.
       -5    1    3    3    0  502 -0.34121529224E+03  0.12467163231E+03 -0.24277181789E+03  0.43695667648E+03  0.46999998093E+01 0. -1.
</event>
<event>
 5   0  0.2356918E-04  0.9000635E+03  0.7818609E-02  0.9425502E-01
       -1   -1    0    0    0  501  0.00000000000E+00  0.00000000000E+00  0.18147675977E+03  0.18147675984E+03  0.50400001928E-02 0.  1.
        1   -1    0    0  501    0  0.00000000000E+00  0.00000000000E+00 -0.11160027025E+04  0.11160027025E+04  0.50400001928E-02 0. -1.
    10030    2    1    2    0    0  0.00000000000E+00  0.00000000000E+00 -0.93452594272E+03  0.12974794623E+04  0.90006345198E+03 0.  0.
        5    1    3    3  502    0 -0.28050723794E+03  0.31415107949E+03 -0.69578835003E+03  0.81333801665E+03  0.46999998093E+01 0.  1.
       -5    1    3    3    0  502  0.28050723794E+03 -0.31415107949E+03 -0.23873759269E+03  0.48414144570E+03  0.46999998093E+01 0. -1.
</event>
<event>
 5   0  0.4243516E-04  0.9000439E+03  0.7818609E-02  0.9425527E-01
        2   -1    0    0  501    0  0.00000000000E+00  0.00000000000E+00  0.17413363607E+04  0.17413363607E+04  0.25500000920E-02 0. -1.
       -2   -1    0    0    0  501  0.00000000000E+00  0.00000000000E+00 -0.11630134174E+03  0.11630134177E+03  0.25500000920E-02 0.  1.
    10030    2    1    2    0    0  0.00000000000E+00  0.00000000000E+00  0.16250350190E+04  0.18576377025E+04  0.90004389937E+03 0.  0.
        1    1    3    3  502    0 -0.13454262970E+03  0.24948832997E+03  0.15339339349E+04  0.15599036709E+04  0.50400001928E-02 0. -1.
       -1    1    3    3    0  502  0.13454262970E+03 -0.24948832997E+03  0.91101084114E+02  0.29773403157E+03  0.50400001928E-02 0.  1.
</event>
<event>
 5   0  0.4236284E-04  0.8999911E+03  0.7818609E-02  0.9425593E-01
       -2   -1    0    0    0  501  0.00000000000E+00  0.00000000000E+00  0.11232423320E+03  0.11232423323E+03  0.25500000920E-02 0.  1.
        2   -1    0    0  501    0  0.00000000000E+00  0.00000000000E+00 -0.18027810515E+04  0.18027810515E+04  0.25500000920E-02 0. -1.
    10030    2    1    2    0    0  0.00000000000E+00  0.00000000000E+00 -0.16904568183E+04  0.19151052847E+04  0.89999110944E+03 0.  0.
        2    1    3    3  502    0  0.15876541796E+03 -0.34262958108E+03 -0.32445602160E+03  0.49786865510E+03  0.25500000920E-02 0.  1.
       -2    1    3    3    0  502 -0.15876541796E+03  0.34262958108E+03 -0.13660007967E+04  0.14172366296E+04  0.25500000920E-02 0. -1.
</event>
<event>
 5   0  0.4236284E-04  0.9001226E+03  0.7818609E-02  0.9425428E-01
        2   -1    0    0  501    0  0.00000000000E+00  0.00000000000E+00  0.22809623852E+03  0.22809623853E+03  0.25500000920E-02 0. -1.
       -2   -1    0    0    0  501  0.00000000000E+00  0.00000000000E+00 -0.88802506043E+03  0.88802506043E+03  0.25500000920E-02 0.  1.
    10030    2    1    2    0    0  0.00000000000E+00  0.00000000000E+00 -0.65992882191E+03  0.11161212990E+04  0.90012260499E+03 0.  0.
        2    1    3    3  502    0 -0.38515031529E+03 -0.17717689004E+03 -0.51728857864E+03  0.66881977343E+03  0.25500000920E-02 0.  1.
       -2    1    3    3    0  502  0.38515031529E+03  0.17717689004E+03 -0.14264024327E+03  0.44730152553E+03  0.25500000920E-02 0. -1.
</event>
<event>
 5   0  0.2351435E-04  0.8999861E+03  0.7818609E-02  0.9425599E-01
        1   -1    0    0  501    0  0.00000000000E+00  0.00000000000E+00  0.18258871187E+03  0.18258871194E+03  0.50400001928E-02 0. -1.
       -1   -1    0    0    0  501  0.00000000000E+00  0.00000000000E+00 -0.11090155766E+04  0.11090155766E+04  0.50400001928E-02 0.  1.
    10030    2    1    2    0    0  0.00000000000E+00  0.00000000000E+00 -0.92642686471E+03  0.12916042885E+04  0.89998605683E+03 0.  0.
        4    1    3    3  502    0  0.18970179849E+03 -0.27773579420E+03 -0.34185935752E+02  0.33807430371E+03  0.12699999809E+01 0. -1.
       -4    1    3    3    0  502 -0.18970179849E+03  0.27773579420E+03 -0.89224092896E+03  0.95352998481E+03  0.12699999809E+01 0.  1.
</event>
<event>
 5   0  0.2308362E-04  0.8993853E+03  0.7818609E-02  0.9426350E-01
        1   -1    0    0  501    0  0.00000000000E+00  0.00000000000E+00  0.14862889924E+03  0.14862889933E+03  0.50400001928E-02 0.  1.
       -1   -1    0    0    0  501  0.00000000000E+00  0.00000000000E+00 -0.13605931808E+04  0.13605931808E+04  0.50400001928E-02 0. -1.
    10030    2    1    2    0    0  0.00000000000E+00  0.00000000000E+00 -0.12119642815E+04  0.15092220801E+04  0.89938527194E+03 0.  0.
        1    1    3    3  502    0 -0.14178952733E+03 -0.32646356001E+02  0.10803844992E+03  0.18122461562E+03  0.50400001928E-02 0.  1.
       -1    1    3    3    0  502  0.14178952733E+03  0.32646356001E+02 -0.13200027315E+04  0.13279974645E+04  0.50400001928E-02 0. -1.
</event>
<event>
 5   0  0.3959804E-04  0.8994412E+03  0.7818609E-02  0.9426280E-01
       -2   -1    0    0    0  501  0.00000000000E+00  0.00000000000E+00  0.38392679542E+03  0.38392679543E+03  0.25500000920E-02 0.  1.
        2   -1    0    0  501    0  0.00000000000E+00  0.00000000000E+00 -0.52678952285E+03  0.52678952285E+03  0.25500000920E-02 0. -1.
    10030    2    1    2    0    0  0.00000000000E+00  0.00000000000E+00 -0.14286272742E+03  0.91071631829E+03  0.89944118958E+03 0.  0.
        5    1    3    3  502    0 -0.27671739203E+03 -0.27195124276E+03  0.15878757229E+03  0.41924405375E+03  0.46999998093E+01 0. -1.
       -5    1    3    3    0  502  0.27671739203E+03  0.27195124276E+03 -0.30165029972E+03  0.49147226454E+03  0.46999998093E+01 0.  1.
</event>
<event>
 5   0  0.2356918E-04  0.8997313E+03  0.7818609E-02  0.9425917E-01
        1   -1    0    0  501    0  0.00000000000E+00  0.00000000000E+00  0.49885825985E+03  0.49885825988E+03  0.50400001928E-02 0.  1.
       -1   -1    0    0    0  501  0.00000000000E+00  0.00000000000E+00 -0.40568461504E+03  0.40568461507E+03  0.50400001928E-02 0. -1.
    10030    2    1    2    0    0  0.00000000000E+00  0.00000000000E+00  0.93173644812E+02  0.90454287495E+03  0.89973134020E+03 0.  0.
        5    1    3    3  502    0  0.10440768792E+03 -0.30970381460E+03 -0.26416096685E+03  0.42026244714E+03  0.46999998093E+01 0. -1.
       -5    1    3    3    0  502 -0.10440768792E+03  0.30970381460E+03  0.35733461166E+03  0.48428042781E+03  0.46999998093E+01 0.  1.
</event>
<event>
 5   0  0.4236284E-04  0.8998016E+03  0.7818609E-02  0.9425830E-01
       -2   -1    0    0    0  501  0.00000000000E+00  0.00000000000E+00  0.21779003238E+03  0.21779003240E+03  0.25500000920E-02 0.  1.
        2   -1    0    0  501    0  0.00000000000E+00  0.00000000000E+00 -0.92938467210E+03  0.92938467211E+03  0.25500000920E-02 0. -1.
    10030    2    1    2    0    0  0.00000000000E+00  0.00000000000E+00 -0.71159463972E+03  0.11471747045E+04  0.89980157333E+03 0.  0.
        2    1    3    3  502    0  0.14979534106E+03  0.36170369999E+03 -0.73171738814E+02  0.39827416959E+03  0.25500000920E-02 0. -1.
       -2    1    3    3    0  502 -0.14979534106E+03 -0.36170369999E+03 -0.63842290091E+03  0.74890053492E+03  0.25500000920E-02 0.  1.
</event>
<event>
 5   0  0.4033144E-04  0.8993813E+03  0.7818609E-02  0.9426355E-01
        2   -1    0    0  501    0  0.00000000000E+00  0.00000000000E+00  0.10538157045E+04  0.10538157045E+04  0.25500000920E-02 0.  1.
       -2   -1    0    0    0  501  0.00000000000E+00  0.00000000000E+00 -0.19189471293E+03  0.19189471295E+03  0.25500000920E-02 0. -1.
    10030    2    1    2    0    0  0.00000000000E+00  0.00000000000E+00  0.86192099152E+03  0.12457104174E+04  0.89938125865E+03 0.  0.
        4    1    3    3  502    0 -0.30322150633E+03 -0.23970980519E+03  0.74927462774E+03  0.84310032218E+03  0.12699999809E+01 0.  1.
       -4    1    3    3    0  502  0.30322150633E+03  0.23970980519E+03  0.11264636379E+03  0.40261009522E+03  0.12699999809E+01 0. -1.
</event>
<event>
 5   0  0.2351435E-04  0.8998928E+03  0.7818609E-02  0.9425715E-01
       -1   -1    0    0    0  501  0.00000000000E+00  0.00000000000E+00  0.41005404037E+03  0.41005404040E+03  0.50400001928E-02 0. -1.
        1   -1    0    0  501    0  0.00000000000E+00  0.00000000000E+00 -0.49371968690E+03  0.49371968692E+03  0.50400001928E-02 0.  1.
    10030    2    1    2    0    0  0.00000000000E+00  0.00000000000E+00 -0.83665646527E+02  0.90377372733E+03  0.89989277683E+03 0.  0.
        4    1    3    3  502    0  0.37513034872E+03  0.70780924505E+02  0.19734845724E+03  0.42974497586E+03  0.12699999809E+01 0. -1.
       -4    1    3    3    0  502 -0.37513034872E+03 -0.70780924505E+02 -0.28101410377E+03  0.47402875147E+03  0.12699999809E+01 0.  1.
</event>
<event>
 5   0  0.3959804E-04  0.8998531E+03  0.7818609E-02  0.9425765E-01
       -2   -1    0    0    0  501  0.00000000000E+00  0.00000000000E+00  0.37683206244E+03  0.37683206245E+03  0.25500000920E-02 0. -1.
        2   -1    0    0  501    0  0.00000000000E+00  0.00000000000E+00 -0.53719927347E+03  0.53719927347E+03  0.25500000920E-02 0.  1.
    10030    2    1    2    0    0  0.00000000000E+00  0.00000000000E+00 -0.16036721103E+03  0.91403133592E+03  0.89985312172E+03 0.  0.
        5    1    3    3  502    0  0.30475867332E+01 -0.39919259239E+03  0.13056512688E+03  0.42003970760E+03  0.46999998093E+01 0.  1.
       -5    1    3    3    0  502 -0.30475867332E+01  0.39919259239E+03 -0.29093233791E+03  0.49399162832E+03  0.46999998093E+01 0. -1.
</event>
<event>
 5   0  0.4110039E-04  0.9000185E+03  0.7818609E-02  0.9425558E-01
        2   -1    0    0  501    0  0.00000000000E+00  0.00000000000E+00  0.69724124177E+03  0.69724124178E+03  0.25500000920E-02 0. -1.
       -2   -1    0    0    0  501  0.00000000000E+00  0.00000000000E+00 -0.29044229472E+03  0.29044229473E+03  0.25500000920E-02 0.  1.
    10030    2    1    2    0    0  0.00000000000E+00  0.00000000000E+00  0.40679894706E+03  0.98768353650E+03  0.90001854701E+03 0.  0.
        3    1    3    3  502    0  0.77628846098E+02  0.38814355785E+03 -0.31523526258E+02  0.39708362111E+03  0.10100000352E+00 0.  1.
       -3    1    3    3    0  502 -0.77628846098E+02 -0.38814355785E+03  0.43832247331E+03  0.59059991539E+03  0.10100000352E+00 0. -1.
</event>
<event>
 5   0  0.4033144E-04  0.9003834E+03  0.7818609E-02  0.9425102E-01
        2   -1    0    0  501    0  0.00000000000E+00  0.00000000000E+00  0.79228663403E+03  0.79228663404E+03  0.25500000920E-02 0.  1.
       -2   -1    0    0    0  501  0.00000000000E+00  0.00000000000E+00 -0.25580709820E+03  0.25580709821E+03  0.25500000920E-02 0. -1.
    10030    2    1    2    0    0  0.00000000000E+00  0.00000000000E+00  0.53647953584E+03  0.10480937322E+04  0.90038335125E+03 0.  0.
        4    1    3    3  502    0 -0.11681426465E+03 -0.37359012495E+03  0.93700877920E+01  0.39154126900E+03  0.12699999809E+01 0. -1.
       -4    1    3    3    0  502  0.11681426465E+03  0.37359012495E+03  0.52710944805E+03  0.65655246325E+03  0.12699999809E+01 0.  1.
</event>
<event>
 5   0  0.2332791E-04  0.8982752E+03  0.7818609E-02  0.9427740E-01
       -1   -1    0    0    0  501  0.00000000000E+00  0.00000000000E+00  0.38134262849E+03  0.38134262852E+03  0.50400001928E-02 0. -1.
        1   -1    0    0  501    0  0.00000000000E+00  0.00000000000E+00 -0.52898511898E+03  0.52898511900E+03  0.50400001928E-02 0.  1.
    10030    2    1    2    0    0  0.00000000000E+00  0.00000000000E+00 -0.14764249049E+03  0.91032774753E+03  0.89827518218E+03 0.  0.
        2    1    3    3  502    0 -0.30074545321E+03  0.13339810136E+03  0.23602887422E+03  0.40491049695E+03  0.25500000920E-02 0. -1.
       -2    1    3    3    0  502  0.30074545321E+03 -0.13339810136E+03 -0.38367136471E+03  0.50541725057E+03  0.25500000920E-02 0.  1.
</event>
<event>
 5   0  0.3959804E-04  0.8998644E+03  0.7818609E-02  0.9425751E-01
        2   -1    0    0  501    0  0.00000000000E+00  0.00000000000E+00  0.78387610770E+03  0.78387610770E+03  0.25500000920E-02 0. -1.
       -2   -1    0    0    0  501  0.00000000000E+00  0.00000000000E+00 -0.25825381441E+03  0.25825381443E+03  0.25500000920E-02 0.  1.
    10030    2    1    2    0    0  0.00000000000E+00  0.00000000000E+00  0.52562229329E+03  0.10421299221E+04  0.89986442279E+03 0.  0.
        5    1    3    3  502    0 -0.37260323602E+03  0.22440530543E+03  0.39599725093E+03  0.58824044857E+03  0.46999998093E+01 0.  1.
       -5    1    3    3    0  502  0.37260323602E+03 -0.22440530543E+03  0.12962504236E+03  0.45388947355E+03  0.46999998093E+01 0. -1.
</event>
<event>
 5   0  0.2450427E-04  0.9000593E+03  0.7818609E-02  0.9425507E-01
        1   -1    0    0  501    0  0.00000000000E+00  0.00000000000E+00  0.32039410893E+03  0.32039410897E+03  0.50400001928E-02 0.  1.
       -1   -1    0    0    0  501  0.00000000000E+00  0.00000000000E+00 -0.63211744532E+03  0.63211744534E+03  0.50400001928E-02 0. -1.
    10030    2    1    2    0    0  0.00000000000E+00  0.00000000000E+00 -0.31172333639E+03  0.95251155430E+03  0.90005934395E+03 0.  0.
        3    1    3    3  502    0 -0.68918149552E+02 -0.34159770537E+03  0.14549262304E+03  0.37763317811E+03  0.10100000352E+00 0.  1.
       -3    1    3    3    0  502  0.68918149552E+02  0.34159770537E+03 -0.45721595943E+03  0.57487837619E+03  0.10100000352E+00 0. -1.
</event>
<event>
 5   0  0.4033144E-04  0.8998209E+03  0.7818609E-02  0.9425805E-01
        2   -1    0    0  501    0  0.00000000000E+00  0.00000000000E+00  0.77541863839E+03  0.77541863839E+03  0.25500000920E-02 0.  1.
       -2   -1    0    0    0  501  0.00000000000E+00  0.00000000000E+00 -0.26104533714E+03  0.26104533715E+03  0.25500000920E-02 0. -1.
    10030    2    1    2    0    0  0.00000000000E+00  0.00000000000E+00  0.51437330125E+03  0.10364639755E+04  0.89982091527E+03 0.  0.
        4    1    3    3  502    0 -0.75153493756E+02  0.31872689129E+03 -0.98180809871E+02  0.34187126697E+03  0.12699999809E+01 0. -1.
       -4    1    3    3    0  502  0.75153493756E+02 -0.31872689129E+03  0.61255411112E+03  0.69459270857E+03  0.12699999809E+01 0.  1.
</event>
<event>
 5   0  0.2308362E-04  0.8996245E+03  0.7818609E-02  0.9426051E-01
       -1   -1    0    0    0  501  0.00000000000E+00  0.00000000000E+00  0.35568447822E+03  0.35568447826E+03  0.50400001928E-02 0.  1.
        1   -1    0    0  501    0  0.00000000000E+00  0.00000000000E+00 -0.56884979221E+03  0.56884979224E+03  0.50400001928E-02 0. -1.
    10030    2    1    2    0    0  0.00000000000E+00  0.00000000000E+00 -0.21316531399E+03  0.92453427049E+03  0.89962445844E+03 0.  0.
        1    1    3    3  502    0  0.14928987141E+03 -0.28676666762E+03 -0.42798568012E+03  0.53637144758E+03  0.50400001928E-02 0. -1.
       -1    1    3    3    0  502 -0.14928987141E+03  0.28676666762E+03  0.21482036613E+03  0.38816282291E+03  0.50400001928E-02 0.  1.
</event>
<event>
 5   0  0.3959804E-04  0.8997472E+03  0.7818609E-02  0.9425897E-01
        2   -1    0    0  501    0  0.00000000000E+00  0.00000000000E+00  0.19048920636E+04  0.19048920636E+04  0.25500000920E-02 0.  1.
       -2   -1    0    0    0  501  0.00000000000E+00  0.00000000000E+00 -0.10624553349E+03  0.10624553352E+03  0.25500000920E-02 0. -1.
    10030    2    1    2    0    0  0.00000000000E+00  0.00000000000E+00  0.17986465301E+04  0.20111375971E+04  0.89974723910E+03 0.  0.
        5    1    3    3  502    0 -0.43776402330E+03 -0.14457822046E+02  0.11285598992E+04  0.12105849433E+04  0.46999998093E+01 0.  1.
       -5    1    3    3    0  502  0.43776402330E+03  0.14457822046E+02  0.67008663088E+03  0.80055265385E+03  0.46999998093E+01 0. -1.
</event>
<event>
 5   0  0.2356918E-04  0.9001728E+03  0.7818609E-02  0.9425365E-01
        1   -1    0    0  501    0  0.00000000000E+00  0.00000000000E+00  0.60048233367E+03  0.60048233370E+03  0.50400001928E-02 0. -1.
       -1   -1    0    0    0  501  0.00000000000E+00  0.00000000000E+00 -0.33735842101E+03  0.33735842105E+03  0.50400001928E-02 0.  1.
    10030    2    1    2    0    0  0.00000000000E+00  0.00000000000E+00  0.26312391266E+03  0.93784075474E+03  0.90017280999E+03 0.  0.
        5    1    3    3  502    0 -0.37299859660E+03  0.13784289874E+03 -0.88035354875E+02  0.40730938058E+03  0.46999998093E+01 0.  1.
       -5    1    3    3    0  502  0.37299859660E+03 -0.13784289874E+03  0.35115926754E+03  0.53053137417E+03  0.46999998093E+01 0. -1.
</event>
<event>
 5   0  0.2356918E-04  0.9004390E+03  0.7818609E-02  0.9425033E-01
       -1   -1    0    0    0  501  0.00000000000E+00  0.00000000000E+00  0.39200019852E+03  0.39200019855E+03  0.50400001928E-02 0. -1.
        1   -1    0    0  501    0  0.00000000000E+00  0.00000000000E+00 -0.51708547318E+03  0.51708547320E+03  0.50400001928E-02 0.  1.
    10030    2    1    2    0    0  0.00000000000E+00  0.00000000000E+00 -0.12508527466E+03  0.90908567176E+03  0.90043902218E+03 0.  0.
        5    1    3    3  502    0  0.24731442907E+03  0.31162696319E+03  0.15019319940E+03  0.42527153462E+03  0.46999998093E+01 0. -1.
       -5    1    3    3    0  502 -0.24731442907E+03 -0.31162696319E+03 -0.27527847406E+03  0.48381413714E+03  0.46999998093E+01 0.  1.
</event>
<event>
 5   0  0.3959804E-04  0.9001156E+03  0.7818609E-02  0.9425437E-01
       -2   -1    0    0    0  501  0.00000000000E+00  0.00000000000E+00  0.10400334290E+03  0.10400334293E+03  0.25500000920E-02 0. -1.
        2   -1    0    0  501    0  0.00000000000E+00  0.00000000000E+00 -0.19475529142E+04  0.19475529142E+04  0.25500000920E-02 0.  1.
    10030    2    1    2    0    0  0.00000000000E+00  0.00000000000E+00 -0.18435495713E+04  0.20515562571E+04  0.90011557830E+03 0.  0.
        5    1    3    3  502    0  0.43498835331E+03  0.30405886269E+02 -0.66806907846E+03  0.79779556844E+03  0.46999998093E+01 0. -1.
       -5    1    3    3    0  502 -0.43498835331E+03 -0.30405886269E+02 -0.11754804928E+04  0.12537606886E+04  0.46999998093E+01 0.  1.
</event>
<event>
 5   0  0.2351435E-04  0.8999204E+03  0.7818609E-02  0.9425681E-01
       -1   -1    0    0    0  501  0.00000000000E+00  0.00000000000E+00  0.54479307004E+03  0.54479307006E+03  0.50400001928E-02 0.  1.
        1   -1    0    0  501    0  0.00000000000E+00  0.00000000000E+00 -0.37163505373E+03  0.37163505376E+03  0.50400001928E-02 0. -1.
    10030    2    1    2    0    0  0.00000000000E+00  0.00000000000E+00  0.17315801631E+03  0.91642812383E+03  0.89992044511E+03 0.  0.
        4    1    3    3  502    0 -0.59286445971E+02 -0.31817260786E+02 -0.36648127459E+03  0.37260885427E+03  0.12699999809E+01 0. -1.
       -4    1    3    3    0  502  0.59286445971E+02  0.31817260786E+02  0.53963929090E+03  0.54381926956E+03  0.12699999809E+01 0.  1.
</event>
<event>
 5   0  0.2351435E-04  0.9000183E+03  0.7818609E-02  0.9425559E-01
        1   -1    0    0  501    0  0.00000000000E+00  0.00000000000E+00  0.52979651932E+03  0.52979651935E+03  0.50400001928E-02 0.  1.
       -1   -1    0    0    0  501  0.00000000000E+00  0.00000000000E+00 -0.38223774991E+03  0.38223774995E+03  0.50400001928E-02 0. -1.
    10030    2    1    2    0    0  0.00000000000E+00  0.00000000000E+00  0.14755876941E+03  0.91203426929E+03  0.90001828755E+03 0.  0.
        4    1    3    3  502    0 -0.68073003509E+02 -0.10799281020E+03 -0.36350261259E+03  0.38526892312E+03  0.12699999809E+01 0. -1.
       -4    1    3    3    0  502  0.68073003509E+02  0.10799281020E+03  0.51106138200E+03  0.52676534617E+03  0.12699999809E+01 0.  1.
</event>
<event>
 5   0  0.2356918E-04  0.9002498E+03  0.7818609E-02  0.9425269E-01
        1   -1    0    0  501    0  0.00000000000E+00  0.00000000000E+00  0.60071388805E+03  0.60071388807E+03  0.50400001928E-02 0.  1.
       -1   -1    0    0    0  501  0.00000000000E+00  0.00000000000E+00 -0.33728603861E+03  0.33728603865E+03  0.50400001928E-02 0. -1.
    10030    2    1    2    0    0  0.00000000000E+00  0.00000000000E+00  0.26342784943E+03  0.93799992672E+03  0.90024976016E+03 0.  0.
        5    1    3    3  502    0  0.20648602333E+03 -0.30764115920E+03 -0.13456215166E+03  0.39421900426E+03  0.46999998093E+01 0. -1.
       -5    1    3    3    0  502 -0.20648602333E+03  0.30764115920E+03  0.39799000110E+03  0.54378092246E+03  0.46999998093E+01 0.  1.
</event>
<event>
 5   0  0.2332791E-04  0.9005673E+03  0.7818609E-02  0.9424873E-01
       -1   -1    0    0    0  501  0.00000000000E+00  0.00000000000E+00  0.31338831179E+03  0.31338831183E+03  0.50400001928E-02 0.  1.
        1   -1    0    0  501    0  0.00000000000E+00  0.00000000000E+00 -0.64697811326E+03  0.64697811328E+03  0.50400001928E-02 0. -1.
    10030    2    1    2    0    0  0.00000000000E+00  0.00000000000E+00 -0.33358980146E+03  0.96036642511E+03  0.90056732943E+03 0.  0.
        2    1    3    3  502    0  0.44143024407E+02 -0.44489935996E+03 -0.10965197709E+03  0.46033422986E+03  0.25500000920E-02 0.  1.
       -2    1    3    3    0  502 -0.44143024407E+02  0.44489935996E+03 -0.22393782437E+03  0.50003219525E+03  0.25500000920E-02 0. -1.
</event>
<event>
 5   0  0.2351435E-04  0.9000835E+03  0.7818609E-02  0.9425477E-01
        1   -1    0    0  501    0  0.00000000000E+00  0.00000000000E+00  0.11201663626E+04  0.11201663626E+04  0.50400001928E-02 0.  1.
       -1   -1    0    0    0  501  0.00000000000E+00  0.00000000000E+00 -0.18081027660E+03  0.18081027667E+03  0.50400001928E-02 0. -1.
    10030    2    1    2    0    0  0.00000000000E+00  0.00000000000E+00  0.93935608603E+03  0.13009766393E+04  0.90008352928E+03 0.  0.
        4    1    3    3  502    0 -0.28319950642E+03 -0.17537059571E+02  0.97458773175E+03  0.10150528896E+04  0.12699999809E+01 0.  1.
       -4    1    3    3    0  502  0.28319950642E+03  0.17537059571E+02 -0.35231645723E+02  0.28592374972E+03  0.12699999809E+01 0. -1.
</event>
<event>
 5   0  0.2351435E-04  0.8999144E+03  0.7818609E-02  0.9425688E-01
       -1   -1    0    0    0  501  0.00000000000E+00  0.00000000000E+00  0.46587484808E+03  0.46587484811E+03  0.50400001928E-02 0.  1.
        1   -1    0    0  501    0  0.00000000000E+00  0.00000000000E+00 -0.43458339738E+03  0.43458339741E+03  0.50400001928E-02 0. -1.
    10030    2    1    2    0    0  0.00000000000E+00  0.00000000000E+00  0.31291450704E+02  0.90045824552E+03  0.89991438317E+03 0.  0.
        4    1    3    3  502    0 -0.33693518546E+03 -0.28816107951E+03  0.92488845711E+02  0.45289946614E+03  0.12699999809E+01 0.  1.
       -4    1    3    3    0  502  0.33693518546E+03  0.28816107951E+03 -0.61197395007E+02  0.44755877938E+03  0.12699999809E+01 0. -1.
</event>
<event>
 5   0  0.2308362E-04  0.9001638E+03  0.7818609E-02  0.9425377E-01
       -1   -1    0    0    0  501  0.00000000000E+00  0.00000000000E+00  0.10131469585E+04  0.10131469585E+04  0.50400001928E-02 0.  1.
        1   -1    0    0  501    0  0.00000000000E+00  0.00000000000E+00 -0.19994503002E+03  0.19994503009E+03  0.50400001928E-02 0. -1.
    10030    2    1    2    0    0  0.00000000000E+00  0.00000000000E+00  0.81320192843E+03  0.12130919886E+04  0.90016376082E+03 0.  0.
        1    1    3    3  502    0  0.63046391184E+02 -0.63648016481E+01 -0.19390355113E+03  0.20399496392E+03  0.50400001928E-02 0. -1.
       -1    1    3    3    0  502 -0.63046391184E+02  0.63648016481E+01  0.10071054796E+04  0.10090970246E+04  0.50400001928E-02 0.  1.
</event>
<event>
 5   0  0.4236284E-04  0.8985812E+03  0.7818609E-02  0.9427357E-01
       -2   -1    0    0    0  501  0.00000000000E+00  0.00000000000E+00  0.76663141841E+02  0.76663141883E+02  0.25500000920E-02 0. -1.
        2   -1    0    0  501    0  0.00000000000E+00  0.00000000000E+00 -0.26331043616E+04  0.26331043616E+04  0.25500000920E-02 0.  1.
    10030    2    1    2    0    0  0.00000000000E+00  0.00000000000E+00 -0.25564412198E+04  0.27097675035E+04  0.89858122218E+03 0.  0.
        2    1    3    3  502    0  0.19936425374E+03 -0.38620568955E+03 -0.16215380284E+04  0.16787753029E+04  0.25500000920E-02 0.  1.
       -2    1    3    3    0  502 -0.19936425374E+03  0.38620568955E+03 -0.93490319141E+03  0.10309922006E+04  0.25500000920E-02 0. -1.
</event>
<event>
 5   0  0.2308362E-04  0.9001191E+03  0.7818609E-02  0.9425433E-01
        1   -1    0    0  501    0  0.00000000000E+00  0.00000000000E+00  0.16377951550E+03  0.16377951557E+03  0.50400001928E-02 0. -1.
       -1   -1    0    0    0  501  0.00000000000E+00  0.00000000000E+00 -0.12367456595E+04  0.12367456595E+04  0.50400001928E-02 0.  1.
    10030    2    1    2    0    0  0.00000000000E+00  0.00000000000E+00 -0.10729661440E+04  0.14005251751E+04  0.90011911425E+03 0.  0.
        1    1    3    3  502    0  0.37981546045E+03  0.23131262438E+03 -0.42881642408E+03  0.61777733836E+03  0.50400001928E-02 0.  1.
       -1    1    3    3    0  502 -0.37981546045E+03 -0.23131262438E+03 -0.64414971989E+03  0.78274783670E+03  0.50400001928E-02 0. -1.
</event>
<event>
 5   0  0.2351435E-04  0.9001221E+03  0.7818609E-02  0.9425429E-01
       -1   -1    0    0    0  501  0.00000000000E+00  0.00000000000E+00  0.38415962248E+03  0.38415962251E+03  0.50400001928E-02 0. -1.
        1   -1    0    0  501    0  0.00000000000E+00  0.00000000000E+00 -0.52726768322E+03  0.52726768325E+03  0.50400001928E-02 0.  1.
    10030    2    1    2    0    0  0.00000000000E+00  0.00000000000E+00 -0.14310806075E+03  0.91142730575E+03  0.90012211206E+03 0.  0.
        4    1    3    3  502    0  0.11669578301E+03  0.83399704841E+02 -0.50350290373E+03  0.52353624851E+03  0.12699999809E+01 0.  1.
       -4    1    3    3    0  502 -0.11669578301E+03 -0.83399704841E+02  0.36039484298E+03  0.38789105724E+03  0.12699999809E+01 0. -1.
</event>
<event>
 5   0  0.3959804E-04  0.9000472E+03  0.7818609E-02  0.9425522E-01
       -2   -1    0    0    0  501  0.00000000000E+00  0.00000000000E+00  0.20093119597E+03  0.20093119599E+03  0.25500000920E-02 0. -1.
        2   -1    0    0  501    0  0.00000000000E+00  0.00000000000E+00 -0.10079132931E+04  0.10079132931E+04  0.25500000920E-02 0.  1.
    10030    2    1    2    0    0  0.00000000000E+00  0.00000000000E+00 -0.80698209715E+03  0.12088444891E+04  0.90004716195E+03 0.  0.
        5    1    3    3  502    0 -0.39233748165E+02  0.33947282207E+03 -0.10265879098E+02  0.34191894097E+03  0.46999998093E+01 0. -1.
       -5    1    3    3    0  502  0.39233748165E+02 -0.33947282207E+03 -0.79671621805E+03  0.86692554815E+03  0.46999998093E+01 0.  1.
</event>
<event>
 5   0  0.1596250E-04  0.8987221E+03  0.7818609E-02  0.9427180E-01
       -4   -1    0    0    0  501  0.00000000000E+00  0.00000000000E+00  0.53879579569E+03  0.53879729245E+03  0.12699999809E+01 0. -1.
        4   -1    0    0  501    0  0.00000000000E+00  0.00000000000E+00 -0.37476852965E+03  0.37477068150E+03  0.12699999809E+01 0.  1.
    10030    2    1    2    0    0  0.00000000000E+00  0.00000000000E+00  0.16402726604E+03  0.91356797395E+03  0.89872214784E+03 0.  0.
        4    1    3    3  502    0  0.28710678480E+03  0.34536323282E+03  0.67015470895E+02  0.45409113040E+03  0.12699999809E+01 0. -1.
       -4    1    3    3    0  502 -0.28710678480E+03 -0.34536323282E+03  0.97011795144E+02  0.45947684355E+03  0.12699999809E+01 0.  1.
</event>
<event>
 5   0  0.2450427E-04  0.9013749E+03  0.7818609E-02  0.9423864E-01
       -1   -1    0    0    0  501  0.00000000000E+00  0.00000000000E+00  0.17643213264E+03  0.17643213271E+03  0.50400001928E-02 0. -1.
        1   -1    0    0  501    0  0.00000000000E+00  0.00000000000E+00 -0.11512594929E+04  0.11512594929E+04  0.50400001928E-02 0.  1.
    10030    2    1    2    0    0  0.00000000000E+00  0.00000000000E+00 -0.97482736024E+03  0.13276916256E+04  0.90137487786E+03 0.  0.
        3    1    3    3  502    0  0.19001326694E+03 -0.29874243748E+02  0.11293682201E+03  0.22305211951E+03  0.10100000352E+00 0. -1.
       -3    1    3    3    0  502 -0.19001326694E+03  0.29874243748E+02 -0.10877641822E+04  0.11046395061E+04  0.10100000352E+00 0.  1.
</event>
<event>
 5   0  0.2351435E-04  0.9001209E+03  0.7818609E-02  0.9425430E-01
       -1   -1    0    0    0  501  0.00000000000E+00  0.00000000000E+00  0.48329842591E+03  0.48329842593E+03  0.50400001928E-02 0. -1.
        1   -1    0    0  501    0  0.00000000000E+00  0.00000000000E+00 -0.41910830939E+03  0.41910830942E+03  0.50400001928E-02 0.  1.
    10030    2    1    2    0    0  0.00000000000E+00  0.00000000000E+00  0.64190116513E+02  0.90240673536E+03  0.90012085020E+03 0.  0.
        4    1    3    3  502    0 -0.18703956564E+03 -0.18181825740E+03 -0.33559387725E+03  0.42504886917E+03  0.12699999809E+01 0.  1.
       -4    1    3    3    0  502  0.18703956564E+03  0.18181825740E+03  0.39978399376E+03  0.47735786618E+03  0.12699999809E+01 0. -1.
</event>
<event>
 5   0  0.2351435E-04  0.9000511E+03  0.7818609E-02  0.9425518E-01
       -1   -1    0    0    0  501  0.00000000000E+00  0.00000000000E+00  0.37671023774E+03  0.37671023777E+03  0.50400001928E-02 0.  1.
        1   -1    0    0  501    0  0.00000000000E+00  0.00000000000E+00 -0.53760952770E+03  0.53760952772E+03  0.50400001928E-02 0. -1.
    10030    2    1    2    0    0  0.00000000000E+00  0.00000000000E+00 -0.16089928996E+03  0.91431976549E+03  0.90005113858E+03 0.  0.
        4    1    3    3  502    0  0.42812499188E+03 -0.13720885630E+03 -0.10087110252E+03  0.46075359049E+03  0.12699999809E+01 0.  1.
       -4    1    3    3    0  502 -0.42812499188E+03  0.13720885630E+03 -0.60028187441E+02  0.45356617501E+03  0.12699999809E+01 0. -1.
</event>
<event>
 5   0  0.4033144E-04  0.8999922E+03  0.7818609E-02  0.9425591E-01
       -2   -1    0    0    0  501  0.00000000000E+00  0.00000000000E+00  0.92383773416E+03  0.92383773416E+03  0.25500000920E-02 0.  1.
        2   -1    0    0  501    0  0.00000000000E+00  0.00000000000E+00 -0.21919054755E+03  0.21919054757E+03  0.25500000920E-02 0. -1.
    10030    2    1    2    0    0  0.00000000000E+00  0.00000000000E+00  0.70464718661E+03  0.11430282817E+04  0.89999221954E+03 0.  0.
        4    1    3    3  502    0 -0.39748740629E+03  0.21086808861E+03  0.34499500214E+03  0.56699625515E+03  0.12699999809E+01 0.  1.
       -4    1    3    3    0  502  0.39748740629E+03 -0.21086808861E+03  0.35965218446E+03  0.57603202658E+03  0.12699999809E+01 0. -1.
</event>
<event>
 5   0  0.2356918E-04  0.9000681E+03  0.7818609E-02  0.9425496E-01
       -1   -1    0    0    0  501  0.00000000000E+00  0.00000000000E+00  0.29423030345E+03  0.29423030349E+03  0.50400001928E-02 0. -1.
        1   -1    0    0  501    0  0.00000000000E+00  0.00000000000E+00 -0.68834055421E+03  0.68834055423E+03  0.50400001928E-02 0.  1.
    10030    2    1    2    0    0  0.00000000000E+00  0.00000000000E+00 -0.39411025077E+03  0.98257085772E+03  0.90006810891E+03 0.  0.
        5    1    3    3  502    0 -0.12789828894E+03  0.26782416460E+03 -0.56632255547E+03  0.63939900085E+03  0.46999998093E+01 0.  1.
       -5    1    3    3    0  502  0.12789828894E+03 -0.26782416460E+03  0.17221230471E+03  0.34317185687E+03  0.46999998093E+01 0. -1.
</event>
<event>
 5   0  0.2450427E-04  0.8999910E+03  0.7818609E-02  0.9425593E-01
        1   -1    0    0  501    0  0.00000000000E+00  0.00000000000E+00  0.10909817129E+04  0.10909817129E+04  0.50400001928E-02 0.  1.
       -1   -1    0    0    0  501  0.00000000000E+00  0.00000000000E+00 -0.18560892912E+03  0.18560892919E+03  0.50400001928E-02 0. -1.
    10030    2    1    2    0    0  0.00000000000E+00  0.00000000000E+00  0.90537278374E+03  0.12765906421E+04  0.89999099432E+03 0.  0.
        3    1    3    3  502    0  0.34857857781E+02 -0.15364710265E+03 -0.14520836093E+03  0.21426147737E+03  0.10100000352E+00 0. -1.
       -3    1    3    3    0  502 -0.34857857781E+02  0.15364710265E+03  0.10505811447E+04  0.10623291647E+04  0.10100000352E+00 0.  1.
</event>
<event>
 5   0  0.4236284E-04  0.8996932E+03  0.7818609E-02  0.9425965E-01
       -2   -1    0    0    0  501  0.00000000000E+00  0.00000000000E+00  0.13478395387E+03  0.13478395389E+03  0.25500000920E-02 0.  1.
        2   -1    0    0  501    0  0.00000000000E+00  0.00000000000E+00 -0.15013801361E+04  0.15013801361E+04  0.25500000920E-02 0. -1.
    10030    2    1    2    0    0  0.00000000000E+00  0.00000000000E+00 -0.13665961823E+04  0.16361640900E+04  0.89969317220E+03 0.  0.
        2    1    3    3  502    0 -0.13846970938E+03 -0.30202097791E+03 -0.13178112527E+03  0.35743082758E+03  0.25500000920E-02 0.  1.
       -2    1    3    3    0  502  0.13846970938E+03  0.30202097791E+03 -0.12348150570E+04  0.12787332624E+04  0.25500000920E-02 0. -1.
</event>
<event>
 5   0  0.3959804E-04  0.8997419E+03  0.7818609E-02  0.9425904E-01
       -2   -1    0    0    0  501  0.00000000000E+00  0.00000000000E+00  0.15135485696E+03  0.15135485698E+03  0.25500000920E-02 0. -1.
        2   -1    0    0  501    0  0.00000000000E+00  0.00000000000E+00 -0.13371481279E+04  0.13371481279E+04  0.25500000920E-02 0.  1.
    10030    2    1    2    0    0  0.00000000000E+00  0.00000000000E+00 -0.11857932710E+04  0.14885029849E+04  0.89974188221E+03 0.  0.
        5    1    3    3  502    0 -0.29428140763E+03 -0.85327781219E+02 -0.48010944578E+02  0.31017659151E+03  0.46999998093E+01 0. -1.
       -5    1    3    3    0  502  0.29428140763E+03  0.85327781219E+02 -0.11377823264E+04  0.11783263934E+04  0.46999998093E+01 0.  1.
</event>
<event>
 5   0  0.4110039E-04  0.8996806E+03  0.7818609E-02  0.9425981E-01
        2   -1    0    0  501    0  0.00000000000E+00  0.00000000000E+00  0.10496767190E+04  0.10496767191E+04  0.25500000920E-02 0. -1.
       -2   -1    0    0    0  501  0.00000000000E+00  0.00000000000E+00 -0.19277962357E+03  0.19277962359E+03  0.25500000920E-02 0.  1.
    10030    2    1    2    0    0  0.00000000000E+00  0.00000000000E+00  0.85689709548E+03  0.12424563426E+04  0.89968057171E+03 0.  0.
        3    1    3    3  502    0 -0.15025639449E+03  0.20517933672E+03 -0.83975346476E+02  0.26781974034E+03  0.10100000352E+00 0.  1.
       -3    1    3    3    0  502  0.15025639449E+03 -0.20517933672E+03  0.94087244196E+03  0.97463660229E+03  0.10100000352E+00 0. -1.
</event>
<event>
 5   0  0.2332791E-04  0.9002282E+03  0.7818609E-02  0.9425296E-01
        1   -1    0    0  501    0  0.00000000000E+00  0.00000000000E+00  0.10561168402E+04  0.10561168402E+04  0.50400001928E-02 0. -1.
       -1   -1    0    0    0  501  0.00000000000E+00  0.00000000000E+00 -0.19183739252E+03  0.19183739259E+03  0.50400001928E-02 0.  1.
    10030    2    1    2    0    0  0.00000000000E+00  0.00000000000E+00  0.86427944768E+03  0.12479542328E+04  0.90022819524E+03 0.  0.
        2    1    3    3  502    0 -0.76491869326E+02 -0.59883500263E+02 -0.17713198157E+03  0.20202172798E+03  0.25500000920E-02 0.  1.
       -2    1    3    3    0  502  0.76491869326E+02  0.59883500263E+02  0.10414114292E+04  0.10459325048E+04  0.25500000920E-02 0. -1.
</event>
<event>
 5   0  0.4110039E-04  0.9001734E+03  0.7818609E-02  0.9425365E-01
        2   -1    0    0  501    0  0.00000000000E+00  0.00000000000E+00  0.15475938439E+04  0.15475938440E+04  0.25500000920E-02 0. -1.
       -2   -1    0    0    0  501  0.00000000000E+00  0.00000000000E+00 -0.13089870307E+03  0.13089870310E+03  0.25500000920E-02 0.  1.
    10030    2    1    2    0    0  0.00000000000E+00  0.00000000000E+00  0.14166951409E+04  0.16784925470E+04  0.90017337681E+03 0.  0.
        3    1    3    3  502    0  0.20581406689E+01 -0.29881388560E+03  0.80755247418E+02  0.30954061827E+03  0.10100000352E+00 0.  1.
       -3    1    3    3    0  502 -0.20581406689E+01  0.29881388560E+03  0.13359398935E+04  0.13689519288E+04  0.10100000352E+00 0. -1.
</event>
<event>
 5   0  0.2356918E-04  0.8995425E+03  0.7818609E-02  0.9426153E-01
        1   -1    0    0  501    0  0.00000000000E+00  0.00000000000E+00  0.53424717082E+03  0.53424717085E+03  0.50400001928E-02 0. -1.
       -1   -1    0    0    0  501  0.00000000000E+00  0.00000000000E+00 -0.37865281624E+03  0.37865281628E+03  0.50400001928E-02 0.  1.
    10030    2    1    2    0    0  0.00000000000E+00  0.00000000000E+00  0.15559435458E+03  0.91289998713E+03  0.89954254114E+03 0.  0.
        5    1    3    3  502    0  0.20932807055E+03 -0.34115208636E+03 -0.13035607511E+03  0.42097242601E+03  0.46999998093E+01 0. -1.
       -5    1    3    3    0  502 -0.20932807055E+03  0.34115208636E+03  0.28595042969E+03  0.49192756112E+03  0.46999998093E+01 0.  1.
</event>
<event>
 5   0  0.2450427E-04  0.8999287E+03  0.7818609E-02  0.9425671E-01
       -1   -1    0    0    0  501  0.00000000000E+00  0.00000000000E+00  0.28637724675E+03  0.28637724680E+03  0.50400001928E-02 0.  1.
        1   -1    0    0  501    0  0.00000000000E+00  0.00000000000E+00 -0.70699720278E+03  0.70699720280E+03  0.50400001928E-02 0. -1.
    10030    2    1    2    0    0  0.00000000000E+00  0.00000000000E+00 -0.42061995603E+03  0.99337444959E+03  0.89992869145E+03 0.  0.
        3    1    3    3  502    0  0.38282773045E+03  0.17172089746E+03 -0.38973954678E+03  0.57266225854E+03  0.10100000352E+00 0. -1.
       -3    1    3    3    0  502 -0.38282773045E+03 -0.17172089746E+03 -0.30880409248E+02  0.42071219106E+03  0.10100000352E+00 0.  1.
</event>
<event>
 5   0  0.1596250E-04  0.8933674E+03  0.7818609E-02  0.9433911E-01
       -3   -1    0    0    0  501  0.00000000000E+00  0.00000000000E+00  0.93965687101E+03  0.93965687644E+03  0.10100000352E+00 0.  1.
        3   -1    0    0  501    0  0.00000000000E+00  0.00000000000E+00 -0.21233956312E+03  0.21233958715E+03  0.10100000352E+00 0. -1.
    10030    2    1    2    0    0  0.00000000000E+00  0.00000000000E+00  0.72731730789E+03  0.11519964636E+04  0.89336744163E+03 0.  0.
        1    1    3    3  502    0 -0.20029070007E+03 -0.36213764517E+03  0.58045680163E+03  0.71287455921E+03  0.50400001928E-02 0.  1.
       -1    1    3    3    0  502  0.20029070007E+03  0.36213764517E+03  0.14686050626E+03  0.43912190438E+03  0.50400001928E-02 0. -1.
</event>
<event>
 5   0  0.2351435E-04  0.9005178E+03  0.7818609E-02  0.9424934E-01
       -1   -1    0    0    0  501  0.00000000000E+00  0.00000000000E+00  0.15411695204E+03  0.15411695212E+03  0.50400001928E-02 0.  1.
        1   -1    0    0  501    0  0.00000000000E+00  0.00000000000E+00 -0.13154495667E+04  0.13154495667E+04  0.50400001928E-02 0. -1.
    10030    2    1    2    0    0  0.00000000000E+00  0.00000000000E+00 -0.11613326147E+04  0.14695665189E+04  0.90051780184E+03 0.  0.
        4    1    3    3  502    0  0.60604857415E+02 -0.32658697797E+03 -0.84609210041E+02  0.34277154819E+03  0.12699999809E+01 0.  1.
       -4    1    3    3    0  502 -0.60604857415E+02  0.32658697797E+03 -0.10767234046E+04  0.11267949707E+04  0.12699999809E+01 0. -1.
</event>
<event>
 5   0  0.4033144E-04  0.8997260E+03  0.7818609E-02  0.9425924E-01
       -2   -1    0    0    0  501  0.00000000000E+00  0.00000000000E+00  0.26904574259E+03  0.26904574260E+03  0.25500000920E-02 0.  1.
        2   -1    0    0  501    0  0.00000000000E+00  0.00000000000E+00 -0.75220187381E+03  0.75220187381E+03  0.25500000920E-02 0. -1.
    10030    2    1    2    0    0  0.00000000000E+00  0.00000000000E+00 -0.48315613122E+03  0.10212476164E+04  0.89972598433E+03 0.  0.
        4    1    3    3  502    0  0.35989708688E+03 -0.10483315322E+02 -0.54770765495E+03  0.65545488116E+03  0.12699999809E+01 0. -1.
       -4    1    3    3    0  502 -0.35989708688E+03  0.10483315322E+02  0.64551523726E+02  0.36579273525E+03  0.12699999809E+01 0.  1.
</event>
<event>
 5   0  0.2351435E-04  0.9000036E+03  0.7818609E-02  0.9425577E-01
       -1   -1    0    0    0  501  0.00000000000E+00  0.00000000000E+00  0.33736950058E+03  0.33736950062E+03  0.50400001928E-02 0. -1.
        1   -1    0    0  501    0  0.00000000000E+00  0.00000000000E+00 -0.60023686783E+03  0.60023686785E+03  0.50400001928E-02 0.  1.
    10030    2    1    2    0    0  0.00000000000E+00  0.00000000000E+00 -0.26286736725E+03  0.93760636847E+03  0.90000358301E+03 0.  0.
        4    1    3    3  502    0  0.18776621444E+02  0.26441331146E+03  0.24739800435E+03  0.36259391369E+03  0.12699999809E+01 0. -1.
       -4    1    3    3    0  502 -0.18776621444E+02 -0.26441331146E+03 -0.51026537160E+03  0.57501245477E+03  0.12699999809E+01 0.  1.
</event>
<event>
 5   0  0.1596250E-04  0.8998860E+03  0.7818609E-02  0.9425724E-01
       -4   -1    0    0    0  501  0.00000000000E+00  0.00000000000E+00  0.31327687256E+03  0.31327944679E+03  0.12699999809E+01 0. -1.
        4   -1    0    0  501    0  0.00000000000E+00  0.00000000000E+00 -0.64622347097E+03  0.64622471891E+03  0.12699999809E+01 0.  1.
    10030    2    1    2    0    0  0.00000000000E+00  0.00000000000E+00 -0.33294659841E+03  0.95950416570E+03  0.89988599645E+03 0.  0.
        2    1    3    3  502    0 -0.11697339833E+03 -0.24946337103E+03  0.21280929047E+03  0.34814155673E+03  0.25500000920E-02 0. -1.
       -2    1    3    3    0  502  0.11697339833E+03  0.24946337103E+03 -0.54575588887E+03  0.61136260897E+03  0.25500000920E-02 0.  1.
</event>
<event>
 5   0  0.2450427E-04  0.8993139E+03  0.7818609E-02  0.9426440E-01
        1   -1    0    0  501    0  0.00000000000E+00  0.00000000000E+00  0.40201547961E+03  0.40201547964E+03  0.50400001928E-02 0.  1.
       -1   -1    0    0    0  501  0.00000000000E+00  0.00000000000E+00 -0.50294422547E+03  0.50294422550E+03  0.50400001928E-02 0. -1.
    10030    2    1    2    0    0  0.00000000000E+00  0.00000000000E+00 -0.10092874586E+03  0.90495970514E+03  0.89931388080E+03 0.  0.
        3    1    3    3  502    0  0.41529359229E+03  0.51092383947E+02 -0.21615576983E+03  0.47095915590E+03  0.10100000352E+00 0. -1.
       -3    1    3    3    0  502 -0.41529359229E+03 -0.51092383947E+02  0.11522702397E+03  0.43400054925E+03  0.10100000352E+00 0.  1.
</event>
<event>
 5   0  0.4236284E-04  0.9002659E+03  0.7818609E-02  0.9425249E-01
        2   -1    0    0  501    0  0.00000000000E+00  0.00000000000E+00  0.12397143651E+04  0.12397143651E+04  0.25500000920E-02 0.  1.
       -2   -1    0    0    0  501  0.00000000000E+00  0.00000000000E+00 -0.16344059780E+03  0.16344059782E+03  0.25500000920E-02 0. -1.
    10030    2    1    2    0    0  0.00000000000E+00  0.00000000000E+00  0.10762737673E+04  0.14031549630E+04  0.90026586507E+03 0.  0.
        2    1    3    3  502    0 -0.39561141003E+01 -0.39696510852E+03  0.20742434337E+03  0.44790825674E+03  0.25500000920E-02 0. -1.
       -2    1    3    3    0  502  0.39561141003E+01  0.39696510852E+03  0.86884942396E+03  0.95524670622E+03  0.25500000920E-02 0.  1.
</event>
<event>
 5   0  0.4033144E-04  0.9000696E+03  0.7818609E-02  0.9425494E-01
        2   -1    0    0  501    0  0.00000000000E+00  0.00000000000E+00  0.79810156953E+03  0.79810156953E+03  0.25500000920E-02 0.  1.
       -2   -1    0    0    0  501  0.00000000000E+00  0.00000000000E+00 -0.25376632526E+03  0.25376632528E+03  0.25500000920E-02 0. -1.
    10030    2    1    2    0    0  0.00000000000E+00  0.00000000000E+00  0.54433524426E+03  0.10518678948E+04  0.90006955841E+03 0.  0.
        4    1    3    3  502    0  0.50658877673E+02  0.97868397476E+02  0.78208716311E+03  0.78981421152E+03  0.12699999809E+01 0.  1.
       -4    1    3    3    0  502 -0.50658877673E+02 -0.97868397476E+02 -0.23775191885E+03  0.26205368329E+03  0.12699999809E+01 0. -1.
</event>
<event>
 5   0  0.4236284E-04  0.8970642E+03  0.7818609E-02  0.9429259E-01
        2   -1    0    0  501    0  0.00000000000E+00  0.00000000000E+00  0.62449690323E+03  0.62449690324E+03  0.25500000920E-02 0.  1.
       -2   -1    0    0    0  501  0.00000000000E+00  0.00000000000E+00 -0.32214899688E+03  0.32214899689E+03  0.25500000920E-02 0. -1.
    10030    2    1    2    0    0  0.00000000000E+00  0.00000000000E+00  0.30234790635E+03  0.94664590013E+03  0.89706421384E+03 0.  0.
        2    1    3    3  502    0 -0.10087794284E+03 -0.20012681614E+03  0.56117622756E+03  0.60427300144E+03  0.25500000920E-02 0.  1.
       -2    1    3    3    0  502  0.10087794284E+03  0.20012681614E+03 -0.25882832121E+03  0.34237289868E+03  0.25500000920E-02 0. -1.
</event>
<event>
 5   0  0.2351435E-04  0.9000379E+03  0.7818609E-02  0.9425534E-01
       -1   -1    0    0    0  501  0.00000000000E+00  0.00000000000E+00  0.13399712267E+04  0.13399712268E+04  0.50400001928E-02 0.  1.
        1   -1    0    0  501    0  0.00000000000E+00  0.00000000000E+00 -0.15113537327E+03  0.15113537336E+03  0.50400001928E-02 0. -1.
    10030    2    1    2    0    0  0.00000000000E+00  0.00000000000E+00  0.11888358535E+04  0.14911066001E+04  0.90003789165E+03 0.  0.
        4    1    3    3  502    0 -0.43475918477E+02 -0.39541326033E+03  0.24582345320E+03  0.46762440588E+03  0.12699999809E+01 0. -1.
       -4    1    3    3    0  502  0.43475918477E+02  0.39541326033E+03  0.94301240028E+03  0.10234821942E+04  0.12699999809E+01 0.  1.
</event>
<event>
 5   0  0.3959804E-04  0.8987728E+03  0.7818609E-02  0.9427117E-01
       -2   -1    0    0    0  501  0.00000000000E+00  0.00000000000E+00  0.22645517683E+03  0.22645517685E+03  0.25500000920E-02 0. -1.
        2   -1    0    0  501    0  0.00000000000E+00  0.00000000000E+00 -0.89177966289E+03  0.89177966290E+03  0.25500000920E-02 0.  1.
    10030    2    1    2    0    0  0.00000000000E+00  0.00000000000E+00 -0.66532448606E+03  0.11182348397E+04  0.89877276609E+03 0.  0.
        5    1    3    3  502    0 -0.38782687266E+02  0.18563507666E+02  0.22385939788E+03  0.22799960672E+03  0.46999998093E+01 0. -1.
       -5    1    3    3    0  502  0.38782687266E+02 -0.18563507666E+02 -0.88918388394E+03  0.89023523302E+03  0.46999998093E+01 0.  1.
</event>
<event>
 5   0  0.2332791E-04  0.9002255E+03  0.7818609E-02  0.9425300E-01
       -1   -1    0    0    0  501  0.00000000000E+00  0.00000000000E+00  0.21743094378E+03  0.21743094384E+03  0.50400001928E-02 0.  1.
        1   -1    0    0  501    0  0.00000000000E+00  0.00000000000E+00 -0.93179699115E+03  0.93179699117E+03  0.50400001928E-02 0. -1.
    10030    2    1    2    0    0  0.00000000000E+00  0.00000000000E+00 -0.71436604737E+03  0.11492279350E+04  0.90022552561E+03 0.  0.
        2    1    3    3  502    0 -0.78128534521E+02 -0.27390614102E+03  0.87749829420E+02  0.29804139740E+03  0.25500000920E-02 0.  1.
       -2    1    3    3    0  502  0.78128534521E+02  0.27390614102E+03 -0.80211587679E+03  0.85118653761E+03  0.25500000920E-02 0. -1.
</event>
<event>
 5   0  0.2308362E-04  0.9012860E+03  0.7818609E-02  0.9423975E-01
        1   -1    0    0  501    0  0.00000000000E+00  0.00000000000E+00  0.50798049072E+03  0.50798049074E+03  0.50400001928E-02 0. -1.
       -1   -1    0    0    0  501  0.00000000000E+00  0.00000000000E+00 -0.39977740658E+03  0.39977740662E+03  0.50400001928E-02 0.  1.
    10030    2    1    2    0    0  0.00000000000E+00  0.00000000000E+00  0.10820308413E+03  0.90775789736E+03  0.90128602164E+03 0.  0.
        1    1    3    3  502    0 -0.28974804386E+03 -0.29340202930E+03 -0.12897400233E+03  0.43205667802E+03  0.50400001928E-02 0.  1.
       -1    1    3    3    0  502  0.28974804386E+03  0.29340202930E+03  0.23717708646E+03  0.47570121934E+03  0.50400001928E-02 0. -1.
</event>
<event>
 5   0  0.2356918E-04  0.9000143E+03  0.7818609E-02  0.9425564E-01
       -1   -1    0    0    0  501  0.00000000000E+00  0.00000000000E+00  0.16582335530E+03  0.16582335537E+03  0.50400001928E-02 0. -1.
        1   -1    0    0  501    0  0.00000000000E+00  0.00000000000E+00 -0.12212177209E+04  0.12212177209E+04  0.50400001928E-02 0.  1.
    10030    2    1    2    0    0  0.00000000000E+00  0.00000000000E+00 -0.10553943656E+04  0.13870410763E+04  0.90001426674E+03 0.  0.
        5    1    3    3  502    0 -0.24411366703E+03  0.37798910405E+03 -0.53406727694E+03  0.69836751894E+03  0.46999998093E+01 0.  1.
       -5    1    3    3    0  502  0.24411366703E+03 -0.37798910405E+03 -0.52132708863E+03  0.68867355731E+03  0.46999998093E+01 0. -1.
</event>
<event>
 5   0  0.2351435E-04  0.9008294E+03  0.7818609E-02  0.9424545E-01
       -1   -1    0    0    0  501  0.00000000000E+00  0.00000000000E+00  0.23354478598E+03  0.23354478603E+03  0.50400001928E-02 0. -1.
        1   -1    0    0  501    0  0.00000000000E+00  0.00000000000E+00 -0.86867020006E+03  0.86867020008E+03  0.50400001928E-02 0.  1.
    10030    2    1    2    0    0  0.00000000000E+00  0.00000000000E+00 -0.63512541409E+03  0.11022149861E+04  0.90082938672E+03 0.  0.
        4    1    3    3  502    0 -0.21522866113E+03 -0.34009853245E+03 -0.70170156283E+02  0.40855336503E+03  0.12699999809E+01 0. -1.
       -4    1    3    3    0  502  0.21522866113E+03  0.34009853245E+03 -0.56495525780E+03  0.69366162108E+03  0.12699999809E+01 0.  1.
</event>
<event>
 5   0  0.4243516E-04  0.8998457E+03  0.7818609E-02  0.9425774E-01
        2   -1    0    0  501    0  0.00000000000E+00  0.00000000000E+00  0.83201079907E+03  0.83201079907E+03  0.25500000920E-02 0.  1.
       -2   -1    0    0    0  501  0.00000000000E+00  0.00000000000E+00 -0.24330282136E+03  0.24330282138E+03  0.25500000920E-02 0. -1.
    10030    2    1    2    0    0  0.00000000000E+00  0.00000000000E+00  0.58870797771E+03  0.10753136205E+04  0.89984570862E+03 0.  0.
        1    1    3    3  502    0  0.10855491342E+03 -0.33284813574E+03 -0.43343426599E+02  0.35277571252E+03  0.50400001928E-02 0. -1.
       -1    1    3    3    0  502 -0.10855491342E+03  0.33284813574E+03  0.63205140430E+03  0.72253790793E+03  0.50400001928E-02 0.  1.
</event>
<event>
 5   0  0.2308362E-04  0.8988296E+03  0.7818609E-02  0.9427046E-01
       -1   -1    0    0    0  501  0.00000000000E+00  0.00000000000E+00  0.41247844730E+03  0.41247844733E+03  0.50400001928E-02 0. -1.
        1   -1    0    0  501    0  0.00000000000E+00  0.00000000000E+00 -0.48965866044E+03  0.48965866046E+03  0.50400001928E-02 0.  1.
    10030    2    1    2    0    0  0.00000000000E+00  0.00000000000E+00 -0.77180213141E+02  0.90213710779E+03  0.89882955890E+03 0.  0.
        1    1    3    3  502    0  0.12105453910E+03 -0.29411742147E+03 -0.35727131351E+03  0.47833257315E+03  0.50400001928E-02 0.  1.
       -1    1    3    3    0  502 -0.12105453910E+03  0.29411742147E+03  0.28009110037E+03  0.42380453464E+03  0.50400001928E-02 0. -1.
</event>
<event>
 5   0  0.4110039E-04  0.8994365E+03  0.7818609E-02  0.9426286E-01
        2   -1    0    0  501    0  0.00000000000E+00  0.00000000000E+00  0.69999097027E+03  0.69999097027E+03  0.25500000920E-02 0. -1.
       -2   -1    0    0    0  501  0.00000000000E+00  0.00000000000E+00 -0.28892733328E+03  0.28892733329E+03  0.25500000920E-02 0.  1.
    10030    2    1    2    0    0  0.00000000000E+00  0.00000000000E+00  0.41106363698E+03  0.98891830356E+03  0.89943654444E+03 0.  0.
        3    1    3    3  502    0 -0.37300888651E+02 -0.39625595910E+03 -0.24669173945E+02  0.39877151323E+03  0.10100000352E+00 0.  1.
       -3    1    3    3    0  502  0.37300888651E+02  0.39625595910E+03  0.43573281093E+03  0.59014679033E+03  0.10100000352E+00 0. -1.
</event>
<event>
 5   0  0.4243516E-04  0.8994868E+03  0.7818609E-02  0.9426223E-01
       -2   -1    0    0    0  501  0.00000000000E+00  0.00000000000E+00  0.34729139969E+03  0.34729139970E+03  0.25500000920E-02 0. -1.
        2   -1    0    0  501    0  0.00000000000E+00  0.00000000000E+00 -0.58241903302E+03  0.58241903303E+03  0.25500000920E-02 0.  1.
    10030    2    1    2    0    0  0.00000000000E+00  0.00000000000E+00 -0.23512763334E+03  0.92971043273E+03  0.89948678966E+03 0.  0.
        1    1    3    3  502    0  0.33177899759E+03 -0.12524347703E+03 -0.40345472801E+03  0.53715821632E+03  0.50400001928E-02 0.  1.
       -1    1    3    3    0  502 -0.33177899759E+03  0.12524347703E+03  0.16832709467E+03  0.39255221641E+03  0.50400001928E-02 0. -1.
</event>
<event>
 5   0  0.4243516E-04  0.9001957E+03  0.7818609E-02  0.9425337E-01
       -2   -1    0    0    0  501  0.00000000000E+00  0.00000000000E+00  0.19580455957E+03  0.19580455959E+03  0.25500000920E-02 0.  1.
        2   -1    0    0  501    0  0.00000000000E+00  0.00000000000E+00 -0.10346442310E+04  0.10346442310E+04  0.25500000920E-02 0. -1.
    10030    2    1    2    0    0  0.00000000000E+00  0.00000000000E+00 -0.83883967141E+03  0.12304487906E+04  0.90019566312E+03 0.  0.
        1    1    3    3  502    0  0.11821845294E+03  0.20011195304E+03  0.10743233203E+03  0.25605097609E+03  0.50400001928E-02 0.  1.
       -1    1    3    3    0  502 -0.11821845294E+03 -0.20011195304E+03 -0.94627200344E+03  0.97439781449E+03  0.50400001928E-02 0. -1.
</event>
<event>
 5   0  0.3959804E-04  0.9000881E+03  0.7818609E-02  0.9425471E-01
        2   -1    0    0  501    0  0.00000000000E+00  0.00000000000E+00  0.14016239558E+04  0.14016239558E+04  0.25500000920E-02 0.  1.
       -2   -1    0    0    0  501  0.00000000000E+00  0.00000000000E+00 -0.14450356407E+03  0.14450356409E+03  0.25500000920E-02 0. -1.
    10030    2    1    2    0    0  0.00000000000E+00  0.00000000000E+00  0.12571203917E+04  0.15461275199E+04  0.90008812261E+03 0.  0.
        5    1    3    3  502    0 -0.19887360742E+03  0.19317455989E+02  0.13212074627E+04  0.13362391722E+04  0.46999998093E+01 0.  1.
       -5    1    3    3    0  502  0.19887360742E+03 -0.19317455989E+02 -0.64087070968E+02  0.20988834769E+03  0.46999998093E+01 0. -1.
</event>
<event>
 5   0  0.2356918E-04  0.8998781E+03  0.7818609E-02  0.9425734E-01
       -1   -1    0    0    0  501  0.00000000000E+00  0.00000000000E+00  0.22132608012E+03  0.22132608017E+03  0.50400001928E-02 0.  1.
        1   -1    0    0  501    0  0.00000000000E+00  0.00000000000E+00 -0.91469183216E+03  0.91469183217E+03  0.50400001928E-02 0. -1.
    10030    2    1    2    0    0  0.00000000000E+00  0.00000000000E+00 -0.69336575204E+03  0.11360179123E+04  0.89987812012E+03 0.  0.
        5    1    3    3  502    0 -0.40471912503E+03 -0.56039926750E+01 -0.59468871488E+03  0.71937871285E+03  0.46999998093E+01 0. -1.
       -5    1    3    3    0  502  0.40471912503E+03  0.56039926750E+01 -0.98677037160E+02  0.41663919950E+03  0.46999998093E+01 0.  1.
</event>
<event>
 5   0  0.4110039E-04  0.8994258E+03  0.7818609E-02  0.9426300E-01
        2   -1    0    0  501    0  0.00000000000E+00  0.00000000000E+00  0.45760038432E+03  0.45760038433E+03  0.25500000920E-02 0.  1.
       -2   -1    0    0    0  501  0.00000000000E+00  0.00000000000E+00 -0.44196133431E+03  0.44196133432E+03  0.25500000920E-02 0. -1.
    10030    2    1    2    0    0  0.00000000000E+00  0.00000000000E+00  0.15639050011E+02  0.89956171864E+03  0.89942576445E+03 0.  0.
        3    1    3    3  502    0 -0.40211764304E+03  0.46500970432E+02  0.20375913566E+03  0.45318730638E+03  0.10100000352E+00 0. -1.
       -3    1    3    3    0  502  0.40211764304E+03 -0.46500970432E+02 -0.18812008565E+03  0.44637441226E+03  0.10100000352E+00 0.  1.
</event>
<event>
 5   0  0.2332791E-04  0.8998894E+03  0.7818609E-02  0.9425720E-01
       -1   -1    0    0    0  501  0.00000000000E+00  0.00000000000E+00  0.17233665825E+03  0.17233665832E+03  0.50400001928E-02 0. -1.
        1   -1    0    0  501    0  0.00000000000E+00  0.00000000000E+00 -0.11747370030E+04  0.11747370030E+04  0.50400001928E-02 0.  1.
    10030    2    1    2    0    0  0.00000000000E+00  0.00000000000E+00 -0.10024003447E+04  0.13470736613E+04  0.89988943648E+03 0.  0.
        2    1    3    3  502    0 -0.36922284877E+02  0.40667474397E+03 -0.78404770759E+03  0.88401267542E+03  0.25500000920E-02 0.  1.
       -2    1    3    3    0  502  0.36922284877E+02 -0.40667474397E+03 -0.21835263714E+03  0.46306098589E+03  0.25500000920E-02 0. -1.
</event>
<event>
 5   0  0.2308362E-04  0.8999846E+03  0.7818609E-02  0.9425601E-01
       -1   -1    0    0    0  501  0.00000000000E+00  0.00000000000E+00  0.77712703828E+02  0.77712703992E+02  0.50400001928E-02 0. -1.
        1   -1    0    0  501    0  0.00000000000E+00  0.00000000000E+00 -0.26056623939E+04  0.26056623939E+04  0.50400001928E-02 0.  1.
    10030    2    1    2    0    0  0.00000000000E+00  0.00000000000E+00 -0.25279496901E+04  0.26833750979E+04  0.89998460013E+03 0.  0.
        1    1    3    3  502    0 -0.36607567148E+03 -0.25475379265E+03 -0.14424262152E+04  0.15098027283E+04  0.50400001928E-02 0.  1.
       -1    1    3    3    0  502  0.36607567148E+03  0.25475379265E+03 -0.10855234749E+04  0.11735723696E+04  0.50400001928E-02 0. -1.
</event>
<event>
 5   0  0.2450427E-04  0.9000934E+03  0.7818609E-02  0.9425465E-01
       -1   -1    0    0    0  501  0.00000000000E+00  0.00000000000E+00  0.26875651852E+03  0.26875651856E+03  0.50400001928E-02 0. -1.
        1   -1    0    0  501    0  0.00000000000E+00  0.00000000000E+00 -0.75362650751E+03  0.75362650752E+03  0.50400001928E-02 0.  1.
    10030    2    1    2    0    0  0.00000000000E+00  0.00000000000E+00 -0.48486998899E+03  0.10223830261E+04  0.90009340949E+03 0.  0.
        3    1    3    3  502    0  0.99707864779E+02  0.43864269756E+03 -0.22665704728E+03  0.50370874690E+03  0.10100000352E+00 0. -1.
       -3    1    3    3    0  502 -0.99707864779E+02 -0.43864269756E+03 -0.25821294171E+03  0.51867427919E+03  0.10100000352E+00 0.  1.
</event>
<event>
 5   0  0.2450427E-04  0.9001179E+03  0.7818609E-02  0.9425434E-01
        1   -1    0    0  501    0  0.00000000000E+00  0.00000000000E+00  0.67464704880E+03  0.67464704882E+03  0.50400001928E-02 0.  1.
       -1   -1    0    0    0  501  0.00000000000E+00  0.00000000000E+00 -0.30023557978E+03  0.30023557982E+03  0.50400001928E-02 0. -1.
    10030    2    1    2    0    0  0.00000000000E+00  0.00000000000E+00  0.37441146902E+03  0.97488262864E+03  0.90011787645E+03 0.  0.
        3    1    3    3  502    0 -0.39676815211E+03  0.87334543469E+02 -0.22530233050E+02  0.40689053886E+03  0.10100000352E+00 0. -1.
       -3    1    3    3    0  502  0.39676815211E+03 -0.87334543469E+02  0.39694170207E+03  0.56799208978E+03  0.10100000352E+00 0.  1.
</event>
<event>
 5   0  0.4236284E-04  0.9000767E+03  0.7818609E-02  0.9425486E-01
        2   -1    0    0  501    0  0.00000000000E+00  0.00000000000E+00  0.17484777383E+04  0.17484777383E+04  0.25500000920E-02 0.  1.
       -2   -1    0    0    0  501  0.00000000000E+00  0.00000000000E+00 -0.11583477129E+03  0.11583477132E+03  0.25500000920E-02 0. -1.
    10030    2    1    2    0    0  0.00000000000E+00  0.00000000000E+00  0.16326429670E+04  0.18643125096E+04  0.90007670550E+03 0.  0.
        2    1    3    3  502    0 -0.12002145129E+03 -0.41095193796E+03  0.52895865827E+03  0.68050268644E+03  0.25500000920E-02 0.  1.
       -2    1    3    3    0  502  0.12002145129E+03  0.41095193796E+03  0.11036843088E+04  0.11838098232E+04  0.25500000920E-02 0. -1.
</event>
<event>
 5   0  0.2356918E-04  0.9002360E+03  0.7818609E-02  0.9425286E-01
       -1   -1    0    0    0  501  0.00000000000E+00  0.00000000000E+00  0.26703710579E+03  0.26703710584E+03  0.50400001928E-02 0. -1.
        1   -1    0    0  501    0  0.00000000000E+00  0.00000000000E+00 -0.75871929391E+03  0.75871929393E+03  0.50400001928E-02 0.  1.
    10030    2    1    2    0    0  0.00000000000E+00  0.00000000000E+00 -0.49168218813E+03  0.10257563998E+04  0.90023597881E+03 0.  0.
        5    1    3    3  502    0 -0.26251627295E+03  0.98086435158E+01  0.17059406604E+03  0.31326574728E+03  0.46999998093E+01 0. -1.
       -5    1    3    3    0  502  0.26251627295E+03 -0.98086435158E+01 -0.66227625417E+03  0.71249065249E+03  0.46999998093E+01 0.  1.
</event>
<event>
 5   0  0.3959804E-04  0.9028441E+03  0.7818609E-02  0.9422033E-01
       -2   -1    0    0    0  501  0.00000000000E+00  0.00000000000E+00  0.35972477602E+03  0.35972477602E+03  0.25500000920E-02 0. -1.
        2   -1    0    0  501    0  0.00000000000E+00  0.00000000000E+00 -0.56649384367E+03  0.56649384367E+03  0.25500000920E-02 0.  1.
    10030    2    1    2    0    0  0.00000000000E+00  0.00000000000E+00 -0.20676906765E+03  0.92621861970E+03  0.90284410844E+03 0.  0.
        5    1    3    3  502    0 -0.19851162759E+03  0.37511058860E+03 -0.26113477816E+03  0.49832547831E+03  0.46999998093E+01 0. -1.
       -5    1    3    3    0  502  0.19851162759E+03 -0.37511058860E+03  0.54365710508E+02  0.42789314139E+03  0.46999998093E+01 0.  1.
</event>
<event>
 5   0  0.2332791E-04  0.9001232E+03  0.7818609E-02  0.9425427E-01
       -1   -1    0    0    0  501  0.00000000000E+00  0.00000000000E+00  0.15375368760E+03  0.15375368768E+03  0.50400001928E-02 0. -1.
        1   -1    0    0  501    0  0.00000000000E+00  0.00000000000E+00 -0.13174023028E+04  0.13174023028E+04  0.50400001928E-02 0.  1.
    10030    2    1    2    0    0  0.00000000000E+00  0.00000000000E+00 -0.11636486152E+04  0.14711559904E+04  0.90012324082E+03 0.  0.
        2    1    3    3  502    0  0.38757066479E+02 -0.44807438867E+03 -0.60930420979E+03  0.75731392966E+03  0.25500000920E-02 0.  1.
       -2    1    3    3    0  502 -0.38757066479E+02  0.44807438867E+03 -0.55434440537E+03  0.71384206079E+03  0.25500000920E-02 0. -1.
</event>
<event>
 5   0  0.1596250E-04  0.9011884E+03  0.7818609E-02  0.9424097E-01
       -4   -1    0    0    0  501  0.00000000000E+00  0.00000000000E+00  0.56189823763E+03  0.56189967286E+03  0.12699999809E+01 0.  1.
        4   -1    0    0  501    0  0.00000000000E+00  0.00000000000E+00 -0.36133486281E+03  0.36133709467E+03  0.12699999809E+01 0. -1.
    10030    2    1    2    0    0  0.00000000000E+00  0.00000000000E+00  0.20056337482E+03  0.92323676753E+03  0.90118836077E+03 0.  0.
        1    1    3    3  502    0 -0.32972854891E+03  0.10340427731E+02  0.41472309995E+03  0.52992743849E+03  0.50400001928E-02 0.  1.
       -1    1    3    3    0  502  0.32972854891E+03 -0.10340427731E+02 -0.21415972513E+03  0.39330932903E+03  0.50400001928E-02 0. -1.
</event>
<event>
 5   0  0.2308362E-04  0.8998805E+03  0.7818609E-02  0.9425731E-01
        1   -1    0    0  501    0  0.00000000000E+00  0.00000000000E+00  0.41103210734E+03  0.41103210737E+03  0.50400001928E-02 0.  1.
       -1   -1    0    0    0  501  0.00000000000E+00  0.00000000000E+00 -0.49253137358E+03  0.49253137360E+03  0.50400001928E-02 0. -1.
    10030    2    1    2    0    0  0.00000000000E+00  0.00000000000E+00 -0.81499266242E+02  0.90356348097E+03  0.89988045525E+03 0.  0.
        1    1    3    3  502    0 -0.98802620062E+02  0.19706737627E+03  0.35309122206E+03  0.41625823673E+03  0.50400001928E-02 0.  1.
       -1    1    3    3    0  502  0.98802620062E+02 -0.19706737627E+03 -0.43459048830E+03  0.48730524425E+03  0.50400001928E-02 0. -1.
</event>
<event>
 5   0  0.2332791E-04  0.8963282E+03  0.7818609E-02  0.9430183E-01
       -1   -1    0    0    0  501  0.00000000000E+00  0.00000000000E+00  0.21451092955E+03  0.21451092961E+03  0.50400001928E-02 0.  1.
        1   -1    0    0  501    0  0.00000000000E+00  0.00000000000E+00 -0.93632089237E+03  0.93632089238E+03  0.50400001928E-02 0. -1.
    10030    2    1    2    0    0  0.00000000000E+00  0.00000000000E+00 -0.72180996282E+03  0.11508318220E+04  0.89632821003E+03 0.  0.
        2    1    3    3  502    0  0.31953775203E+03  0.81785681267E+02  0.28655662524E+02  0.33108068448E+03  0.25500000920E-02 0.  1.
       -2    1    3    3    0  502 -0.31953775203E+03 -0.81785681267E+02 -0.75046562534E+03  0.81975113752E+03  0.25500000920E-02 0. -1.
</event>
<event>
 5   0  0.4243516E-04  0.8998211E+03  0.7818609E-02  0.9425805E-01
        2   -1    0    0  501    0  0.00000000000E+00  0.00000000000E+00  0.48572095332E+03  0.48572095333E+03  0.25500000920E-02 0. -1.
       -2   -1    0    0    0  501  0.00000000000E+00  0.00000000000E+00 -0.41674032653E+03  0.41674032653E+03  0.25500000920E-02 0.  1.
    10030    2    1    2    0    0  0.00000000000E+00  0.00000000000E+00  0.68980626795E+02  0.90246127986E+03  0.89982111265E+03 0.  0.
        1    1    3    3  502    0  0.33205503265E+03  0.22896229340E+03 -0.16543154312E+03  0.43594939155E+03  0.50400001928E-02 0.  1.
       -1    1    3    3    0  502 -0.33205503265E+03 -0.22896229340E+03  0.23441216992E+03  0.46651188831E+03  0.50400001928E-02 0. -1.
</event>
<event>
 5   0  0.4243516E-04  0.8999154E+03  0.7818609E-02  0.9425687E-01
        2   -1    0    0  501    0  0.00000000000E+00  0.00000000000E+00  0.10945317029E+04  0.10945317029E+04  0.25500000920E-02 0.  1.
       -2   -1    0    0    0  501  0.00000000000E+00  0.00000000000E+00 -0.18497584290E+03  0.18497584292E+03  0.25500000920E-02 0. -1.
    10030    2    1    2    0    0  0.00000000000E+00  0.00000000000E+00  0.90955586004E+03  0.12795075459E+04  0.89991538347E+03 0.  0.
        1    1    3    3  502    0 -0.24701750814E+03  0.32816796831E+02 -0.77911647462E+02  0.26108392582E+03  0.50400001928E-02 0. -1.
       -1    1    3    3    0  502  0.24701750814E+03 -0.32816796831E+02  0.98746750750E+03  0.10184236200E+04  0.50400001928E-02 0.  1.
</event>
<event>
 5   0  0.2356918E-04  0.9002262E+03  0.7818609E-02  0.9425299E-01
        1   -1    0    0  501    0  0.00000000000E+00  0.00000000000E+00  0.28288860507E+03  0.28288860512E+03  0.50400001928E-02 0. -1.
       -1   -1    0    0    0  501  0.00000000000E+00  0.00000000000E+00 -0.71618929500E+03  0.71618929502E+03  0.50400001928E-02 0.  1.
    10030    2    1    2    0    0  0.00000000000E+00  0.00000000000E+00 -0.43330068992E+03  0.99907790013E+03  0.90022617305E+03 0.  0.
        5    1    3    3  502    0  0.11687868752E+03  0.30228580495E+03 -0.56326295450E+03  0.64986504859E+03  0.46999998093E+01 0.  1.
       -5    1    3    3    0  502 -0.11687868752E+03 -0.30228580495E+03  0.12996226457E+03  0.34921285154E+03  0.46999998093E+01 0. -1.
</event>
<event>
 5   0  0.2351435E-04  0.8999608E+03  0.7818609E-02  0.9425630E-01
        1   -1    0    0  501    0  0.00000000000E+00  0.00000000000E+00  0.73972238041E+03  0.73972238042E+03  0.50400001928E-02 0. -1.
       -1   -1    0    0    0  501  0.00000000000E+00  0.00000000000E+00 -0.27372749930E+03  0.27372749935E+03  0.50400001928E-02 0.  1.
    10030    2    1    2    0    0  0.00000000000E+00  0.00000000000E+00  0.46599488110E+03  0.10134498798E+04  0.89996079337E+03 0.  0.
        4    1    3    3  502    0  0.41855862647E+03  0.14985630523E+03  0.31127999674E+03  0.54272008004E+03  0.12699999809E+01 0. -1.
       -4    1    3    3    0  502 -0.41855862647E+03 -0.14985630523E+03  0.15471488436E+03  0.47072979973E+03  0.12699999809E+01 0.  1.
</event>
<event>
 5   0  0.3959804E-04  0.8999340E+03  0.7818609E-02  0.9425664E-01
        2   -1    0    0  501    0  0.00000000000E+00  0.00000000000E+00  0.14113410663E+04  0.14113410663E+04  0.25500000920E-02 0.  1.
       -2   -1    0    0    0  501  0.00000000000E+00  0.00000000000E+00 -0.14345950251E+03  0.14345950253E+03  0.25500000920E-02 0. -1.
    10030    2    1    2    0    0  0.00000000000E+00  0.00000000000E+00  0.12678815638E+04  0.15548005688E+04  0.89993396925E+03 0.  0.
        5    1    3    3  502    0  0.35208401738E+03 -0.17829071111E+03  0.26059547622E+03  0.47295118690E+03  0.46999998093E+01 0. -1.
       -5    1    3    3    0  502 -0.35208401738E+03  0.17829071111E+03  0.10072860875E+04  0.10818493819E+04  0.46999998093E+01 0.  1.
</event>
<event>
 5   0  0.2356918E-04  0.9000391E+03  0.7818609E-02  0.9425533E-01
        1   -1    0    0  501    0  0.00000000000E+00  0.00000000000E+00  0.13855736435E+04  0.13855736435E+04  0.50400001928E-02 0. -1.
       -1   -1    0    0    0  501  0.00000000000E+00  0.00000000000E+00 -0.14616156217E+03  0.14616156226E+03  0.50400001928E-02 0.  1.
    10030    2    1    2    0    0  0.00000000000E+00  0.00000000000E+00  0.12394120813E+04  0.15317352057E+04  0.90003912872E+03 0.  0.
        5    1    3    3  502    0 -0.31840082860E+03 -0.23958018873E+03  0.97554317950E+03  0.10537952076E+04  0.46999998093E+01 0. -1.
       -5    1    3    3    0  502  0.31840082860E+03  0.23958018873E+03  0.26386890178E+03  0.47793999812E+03  0.46999998093E+01 0.  1.
</event>
<event>
 5   0  0.2332791E-04  0.8994634E+03  0.7818609E-02  0.9426252E-01
       -1   -1    0    0    0  501  0.00000000000E+00  0.00000000000E+00  0.82420179552E+02  0.82420179706E+02  0.50400001928E-02 0.  1.
        1   -1    0    0  501    0  0.00000000000E+00  0.00000000000E+00 -0.24539937120E+04  0.24539937120E+04  0.50400001928E-02 0. -1.
    10030    2    1    2    0    0  0.00000000000E+00  0.00000000000E+00 -0.23715735324E+04  0.25364138917E+04  0.89946340128E+03 0.  0.
        2    1    3    3  502    0  0.10401226590E+03  0.86618646853E+02 -0.23951909983E+04  0.23990125593E+04  0.25500000920E-02 0. -1.
       -2    1    3    3    0  502 -0.10401226590E+03 -0.86618646853E+02  0.23617465861E+02  0.13740133238E+03  0.25500000920E-02 0.  1.
</event>
<event>
 5   0  0.3959804E-04  0.8998901E+03  0.7818609E-02  0.9425719E-01
        2   -1    0    0  501    0  0.00000000000E+00  0.00000000000E+00  0.85423344529E+03  0.85423344530E+03  0.25500000920E-02 0.  1.
       -2   -1    0    0    0  501  0.00000000000E+00  0.00000000000E+00 -0.23699676082E+03  0.23699676083E+03  0.25500000920E-02 0. -1.
    10030    2    1    2    0    0  0.00000000000E+00  0.00000000000E+00  0.61723668448E+03  0.10912302061E+04  0.89989012557E+03 0.  0.
        5    1    3    3  502    0  0.17802661767E+03 -0.26133369059E+03  0.69673388155E+03  0.76514636909E+03  0.46999998093E+01 0.  1.
       -5    1    3    3    0  502 -0.17802661767E+03  0.26133369059E+03 -0.79497197069E+02  0.32608383704E+03  0.46999998093E+01 0. -1.
</event>
<event>
 5   0  0.4243516E-04  0.9000423E+03  0.7818609E-02  0.9425529E-01
       -2   -1    0    0    0  501  0.00000000000E+00  0.00000000000E+00  0.24959983641E+03  0.24959983642E+03  0.25500000920E-02 0.  1.
        2   -1    0    0  501    0  0.00000000000E+00  0.00000000000E+00 -0.81137483490E+03  0.81137483490E+03  0.25500000920E-02 0. -1.
    10030    2    1    2    0    0  0.00000000000E+00  0.00000000000E+00 -0.56177499849E+03  0.10609746713E+04  0.90004227915E+03 0.  0.
        1    1    3    3  502    0 -0.50678197501E+02  0.42520909602E+03 -0.44400609945E+03  0.61685692945E+03  0.50400001928E-02 0. -1.
       -1    1    3    3    0  502  0.50678197501E+02 -0.42520909602E+03 -0.11776889903E+03  0.44411774187E+03  0.50400001928E-02 0.  1.
</event>
<event>
 5   0  0.2332791E-04  0.8976784E+03  0.7818609E-02  0.9428488E-01
       -1   -1    0    0    0  501  0.00000000000E+00  0.00000000000E+00  0.27391529031E+03  0.27391529035E+03  0.50400001928E-02 0. -1.
        1   -1    0    0  501    0  0.00000000000E+00  0.00000000000E+00 -0.73547048705E+03  0.73547048707E+03  0.50400001928E-02 0.  1.
    10030    2    1    2    0    0  0.00000000000E+00  0.00000000000E+00 -0.46155519674E+03  0.10093857774E+04  0.89767836557E+03 0.  0.
        2    1    3    3  502    0 -0.28882448934E+03  0.99884537131E+02  0.13885402211E+03  0.33567386830E+03  0.25500000920E-02 0. -1.
       -2    1    3    3    0  502  0.28882448934E+03 -0.99884537131E+02 -0.60040921885E+03  0.67371190912E+03  0.25500000920E-02 0.  1.
</event>
<event>
 5   0  0.2356918E-04  0.8999198E+03  0.7818609E-02  0.9425682E-01
        1   -1    0    0  501    0  0.00000000000E+00  0.00000000000E+00  0.35203103895E+03  0.35203103899E+03  0.50400001928E-02 0. -1.
       -1   -1    0    0    0  501  0.00000000000E+00  0.00000000000E+00 -0.57513078973E+03  0.57513078975E+03  0.50400001928E-02 0.  1.
    10030    2    1    2    0    0  0.00000000000E+00  0.00000000000E+00 -0.22309975078E+03  0.92716182874E+03  0.89991975079E+03 0.  0.
        5    1    3    3  502    0 -0.44868388809E+03 -0.18667582793E+02 -0.82848174626E+02  0.45667452318E+03  0.46999998093E+01 0. -1.
       -5    1    3    3    0  502  0.44868388809E+03  0.18667582793E+02 -0.14025157615E+03  0.47048730556E+03  0.46999998093E+01 0.  1.
</event>
<event>
 5   0  0.2450427E-04  0.9005211E+03  0.7818609E-02  0.9424930E-01
        1   -1    0    0  501    0  0.00000000000E+00  0.00000000000E+00  0.43411042997E+03  0.43411043000E+03  0.50400001928E-02 0.  1.
       -1   -1    0    0    0  501  0.00000000000E+00  0.00000000000E+00 -0.46701148064E+03  0.46701148067E+03  0.50400001928E-02 0. -1.
    10030    2    1    2    0    0  0.00000000000E+00  0.00000000000E+00 -0.32901050672E+02  0.90112191067E+03  0.90052108180E+03 0.  0.
        3    1    3    3  502    0 -0.40581551162E+03 -0.11751835888E+03  0.13933812654E+03  0.44487292326E+03  0.10100000352E+00 0.  1.
       -3    1    3    3    0  502  0.40581551162E+03  0.11751835888E+03 -0.17223917721E+03  0.45624898741E+03  0.10100000352E+00 0. -1.
</event>
<event>
 5   0  0.2450427E-04  0.9021246E+03  0.7818609E-02  0.9422929E-01
        1   -1    0    0  501    0  0.00000000000E+00  0.00000000000E+00  0.11772617939E+04  0.11772617939E+04  0.50400001928E-02 0.  1.
       -1   -1    0    0    0  501  0.00000000000E+00  0.00000000000E+00 -0.17282240659E+03  0.17282240666E+03  0.50400001928E-02 0. -1.
    10030    2    1    2    0    0  0.00000000000E+00  0.00000000000E+00  0.10044393873E+04  0.13500842006E+04  0.90212463987E+03 0.  0.
        3    1    3    3  502    0  0.93528738651E+02 -0.43985642922E+03  0.44960748906E+03  0.63589952642E+03  0.10100000352E+00 0.  1.
       -3    1    3    3    0  502 -0.93528738651E+02  0.43985642922E+03  0.55483189827E+03  0.71418467417E+03  0.10100000352E+00 0. -1.
</event>
<event>
 5   0  0.2356918E-04  0.8994917E+03  0.7818609E-02  0.9426217E-01
        1   -1    0    0  501    0  0.00000000000E+00  0.00000000000E+00  0.11011707732E+04  0.11011707732E+04  0.50400001928E-02 0. -1.
       -1   -1    0    0    0  501  0.00000000000E+00  0.00000000000E+00 -0.18368753718E+03  0.18368753725E+03  0.50400001928E-02 0.  1.
    10030    2    1    2    0    0  0.00000000000E+00  0.00000000000E+00  0.91748323597E+03  0.12848583104E+04  0.89949173958E+03 0.  0.
        5    1    3    3  502    0 -0.22913351441E+03 -0.53849097086E+02 -0.88641169783E+02  0.25155762692E+03  0.46999998093E+01 0.  1.
       -5    1    3    3    0  502  0.22913351441E+03  0.53849097086E+02  0.10061244058E+04  0.10333006835E+04  0.46999998093E+01 0. -1.
</event>
<event>
 5   0  0.2351435E-04  0.9002692E+03  0.7818609E-02  0.9425245E-01
       -1   -1    0    0    0  501  0.00000000000E+00  0.00000000000E+00  0.21013039940E+03  0.21013039946E+03  0.50400001928E-02 0. -1.
        1   -1    0    0  501    0  0.00000000000E+00  0.00000000000E+00 -0.96426390667E+03  0.96426390669E+03  0.50400001928E-02 0.  1.
    10030    2    1    2    0    0  0.00000000000E+00  0.00000000000E+00 -0.75413350728E+03  0.11743943061E+04  0.90026920391E+03 0.  0.
        4    1    3    3  502    0 -0.28947326596E+03 -0.33217281644E+03 -0.25689761840E+03  0.51003093134E+03  0.12699999809E+01 0. -1.
       -4    1    3    3    0  502  0.28947326596E+03  0.33217281644E+03 -0.49723588888E+03  0.66436337480E+03  0.12699999809E+01 0.  1.
</event>
<event>
 5   0  0.2450427E-04  0.9002212E+03  0.7818609E-02  0.9425305E-01
       -1   -1    0    0    0  501  0.00000000000E+00  0.00000000000E+00  0.71548701993E+03  0.71548701995E+03  0.50400001928E-02 0.  1.
        1   -1    0    0  501    0  0.00000000000E+00  0.00000000000E+00 -0.28316313865E+03  0.28316313869E+03  0.50400001928E-02 0. -1.
    10030    2    1    2    0    0  0.00000000000E+00  0.00000000000E+00  0.43232388128E+03  0.99865015864E+03  0.90022119561E+03 0.  0.
        3    1    3    3  502    0  0.33821122286E+03  0.13341038531E+03  0.51053279917E+03  0.62676064922E+03  0.10100000352E+00 0.  1.
       -3    1    3    3    0  502 -0.33821122286E+03 -0.13341038531E+03 -0.78208917891E+02  0.37188950942E+03  0.10100000352E+00 0. -1.
</event>
<event>
 5   0  0.4033144E-04  0.9001062E+03  0.7818609E-02  0.9425449E-01
       -2   -1    0    0    0  501  0.00000000000E+00  0.00000000000E+00  0.27302149261E+03  0.27302149262E+03  0.25500000920E-02 0.  1.
        2   -1    0    0  501    0  0.00000000000E+00  0.00000000000E+00 -0.74187489030E+03  0.74187489030E+03  0.25500000920E-02 0. -1.
    10030    2    1    2    0    0  0.00000000000E+00  0.00000000000E+00 -0.46885339769E+03  0.10148963829E+04  0.90010619349E+03 0.  0.
        4    1    3    3  502    0 -0.11564422418E+03 -0.27681043981E+03 -0.61269325623E+03  0.68219663243E+03  0.12699999809E+01 0. -1.
       -4    1    3    3    0  502  0.11564422418E+03  0.27681043981E+03  0.14383985854E+03  0.33269975050E+03  0.12699999809E+01 0.  1.
</event>
<event>
 5   0  0.2450427E-04  0.8998824E+03  0.7818609E-02  0.9425728E-01
       -1   -1    0    0    0  501  0.00000000000E+00  0.00000000000E+00  0.11954539504E+04  0.11954539504E+04  0.50400001928E-02 0.  1.
        1   -1    0    0  501    0  0.00000000000E+00  0.00000000000E+00 -0.16934745837E+03  0.16934745844E+03  0.50400001928E-02 0. -1.
    10030    2    1    2    0    0  0.00000000000E+00  0.00000000000E+00  0.10261064921E+04  0.13648014089E+04  0.89988241045E+03 0.  0.
        3    1    3    3  502    0  0.51377720054E+02 -0.26542191685E+03 -0.32429949333E+02  0.27228693666E+03  0.10100000352E+00 0. -1.
       -3    1    3    3    0  502 -0.51377720054E+02  0.26542191685E+03  0.10585364414E+04  0.10925144722E+04  0.10100000352E+00 0.  1.
</event>
<event>
 5   0  0.4110039E-04  0.9000969E+03  0.7818609E-02  0.9425460E-01
        2   -1    0    0  501    0  0.00000000000E+00  0.00000000000E+00  0.10058876766E+04  0.10058876766E+04  0.25500000920E-02 0.  1.
       -2   -1    0    0    0  501  0.00000000000E+00  0.00000000000E+00 -0.20135808660E+03  0.20135808661E+03  0.25500000920E-02 0. -1.
    10030    2    1    2    0    0  0.00000000000E+00  0.00000000000E+00  0.80452959003E+03  0.12072457632E+04  0.90009692347E+03 0.  0.
        3    1    3    3  502    0 -0.85268493519E+02 -0.51192771406E+02  0.99096391948E+03  0.99594222511E+03  0.10100000352E+00 0.  1.
       -3    1    3    3    0  502  0.85268493519E+02  0.51192771406E+02 -0.18643432945E+03  0.21130353814E+03  0.10100000352E+00 0. -1.
</event>
<event>
 5   0  0.4110039E-04  0.8997526E+03  0.7818609E-02  0.9425891E-01
       -2   -1    0    0    0  501  0.00000000000E+00  0.00000000000E+00  0.17369829683E+03  0.17369829685E+03  0.25500000920E-02 0. -1.
        2   -1    0    0  501    0  0.00000000000E+00  0.00000000000E+00 -0.11651737309E+04  0.11651737309E+04  0.25500000920E-02 0.  1.
    10030    2    1    2    0    0  0.00000000000E+00  0.00000000000E+00 -0.99147543408E+03  0.13388720278E+04  0.89975261618E+03 0.  0.
        3    1    3    3  502    0 -0.27808022863E+02 -0.20904784800E+03 -0.10870634903E+04  0.11073307235E+04  0.10100000352E+00 0.  1.
       -3    1    3    3    0  502  0.27808022863E+02  0.20904784800E+03  0.95588056266E+02  0.23154130429E+03  0.10100000352E+00 0. -1.
</event>
<event>
 5   0  0.1596250E-04  0.9002245E+03  0.7818609E-02  0.9425301E-01
        4   -1    0    0  501    0  0.00000000000E+00  0.00000000000E+00  0.34001844142E+03  0.34002081319E+03  0.12699999809E+01 0.  1.
       -4   -1    0    0    0  501  0.00000000000E+00  0.00000000000E+00 -0.59584793777E+03  0.59584929122E+03  0.12699999809E+01 0. -1.
    10030    2    1    2    0    0  0.00000000000E+00  0.00000000000E+00 -0.25582949636E+03  0.93587010441E+03  0.90022448374E+03 0.  0.
        1    1    3    3  502    0  0.20760908089E+02 -0.39284116143E+03  0.99483351653E+02  0.40577349680E+03  0.50400001928E-02 0.  1.
       -1    1    3    3    0  502 -0.20760908089E+02  0.39284116143E+03 -0.35531284801E+03  0.53009660762E+03  0.50400001928E-02 0. -1.
</event>
<event>
 5   0  0.3959804E-04  0.9005268E+03  0.7818609E-02  0.9424923E-01
       -2   -1    0    0    0  501  0.00000000000E+00  0.00000000000E+00  0.26698141837E+03  0.26698141838E+03  0.25500000920E-02 0.  1.
        2   -1    0    0  501    0  0.00000000000E+00  0.00000000000E+00 -0.75936794653E+03  0.75936794653E+03  0.25500000920E-02 0. -1.
    10030    2    1    2    0    0  0.00000000000E+00  0.00000000000E+00 -0.49238652816E+03  0.10263493649E+04  0.90052680457E+03 0.  0.
        5    1    3    3  502    0 -0.57720781912E+02 -0.19685730034E+03  0.21059259944E+03  0.29403370266E+03  0.46999998093E+01 0.  1.
       -5    1    3    3    0  502  0.57720781912E+02  0.19685730034E+03 -0.70297912759E+03  0.73231566226E+03  0.46999998093E+01 0. -1.
</event>
<event>
 5   0  0.2356918E-04  0.9000565E+03  0.7818609E-02  0.9425511E-01
        1   -1    0    0  501    0  0.00000000000E+00  0.00000000000E+00  0.13819223414E+04  0.13819223414E+04  0.50400001928E-02 0.  1.
       -1   -1    0    0    0  501  0.00000000000E+00  0.00000000000E+00 -0.14655339653E+03  0.14655339662E+03  0.50400001928E-02 0. -1.
    10030    2    1    2    0    0  0.00000000000E+00  0.00000000000E+00  0.12353689449E+04  0.15284757380E+04  0.90005647144E+03 0.  0.
        5    1    3    3  502    0  0.12806914166E+03 -0.73954051777E+02 -0.10406526757E+03  0.18089382724E+03  0.46999998093E+01 0. -1.
       -5    1    3    3    0  502 -0.12806914166E+03  0.73954051777E+02  0.13394342124E+04  0.13475819108E+04  0.46999998093E+01 0.  1.
</event>
<event>
 5   0  0.2332791E-04  0.9000130E+03  0.7818609E-02  0.9425565E-01
        1   -1    0    0  501    0  0.00000000000E+00  0.00000000000E+00  0.39220212882E+03  0.39220212885E+03  0.50400001928E-02 0.  1.
       -1   -1    0    0    0  501  0.00000000000E+00  0.00000000000E+00 -0.51633027716E+03  0.51633027718E+03  0.50400001928E-02 0. -1.
    10030    2    1    2    0    0  0.00000000000E+00  0.00000000000E+00 -0.12412814834E+03  0.90853240603E+03  0.90001296413E+03 0.  0.
        2    1    3    3  502    0 -0.18592026456E+03  0.53327852508E+01 -0.47571242456E+03  0.51078086717E+03  0.25500000920E-02 0. -1.
       -2    1    3    3    0  502  0.18592026456E+03 -0.53327852508E+01  0.35158427623E+03  0.39775153887E+03  0.25500000920E-02 0.  1.
</event>
<event>
 5   0  0.3959804E-04  0.9006048E+03  0.7818609E-02  0.9424826E-01
        2   -1    0    0  501    0  0.00000000000E+00  0.00000000000E+00  0.47495043731E+03  0.47495043732E+03  0.25500000920E-02 0. -1.
       -2   -1    0    0    0  501  0.00000000000E+00  0.00000000000E+00 -0.42693354309E+03  0.42693354310E+03  0.25500000920E-02 0.  1.
    10030    2    1    2    0    0  0.00000000000E+00  0.00000000000E+00  0.48016894222E+02  0.90188398042E+03  0.90060484787E+03 0.  0.
        5    1    3    3  502    0  0.42334390523E+03  0.12650709232E+03 -0.62867730964E+02  0.44631664555E+03  0.46999998093E+01 0.  1.
       -5    1    3    3    0  502 -0.42334390523E+03 -0.12650709232E+03  0.11088462519E+03  0.45556733487E+03  0.46999998093E+01 0. -1.
</event>
<event>
 5   0  0.4243516E-04  0.9007184E+03  0.7818609E-02  0.9424684E-01
        2   -1    0    0  501    0  0.00000000000E+00  0.00000000000E+00  0.32149745705E+03  0.32149745706E+03  0.25500000920E-02 0.  1.
       -2   -1    0    0    0  501  0.00000000000E+00  0.00000000000E+00 -0.63087094400E+03  0.63087094400E+03  0.25500000920E-02 0. -1.
    10030    2    1    2    0    0  0.00000000000E+00  0.00000000000E+00 -0.30937348695E+03  0.95236840106E+03  0.90071838935E+03 0.  0.
        1    1    3    3  502    0  0.13720603114E+03 -0.18268576232E+03 -0.56504462469E+03  0.60948749836E+03  0.50400001928E-02 0. -1.
       -1    1    3    3    0  502 -0.13720603114E+03  0.18268576232E+03  0.25567113775E+03  0.34288090270E+03  0.50400001928E-02 0.  1.
</event>
<event>
 5   0  0.2332791E-04  0.9001455E+03  0.7818609E-02  0.9425400E-01
        1   -1    0    0  501    0  0.00000000000E+00  0.00000000000E+00  0.49581149564E+03  0.49581149566E+03  0.50400001928E-02 0.  1.
       -1   -1    0    0    0  501  0.00000000000E+00  0.00000000000E+00 -0.40855343111E+03  0.40855343114E+03  0.50400001928E-02 0. -1.
    10030    2    1    2    0    0  0.00000000000E+00  0.00000000000E+00  0.87258064524E+02  0.90436492681E+03  0.90014551658E+03 0.  0.
        2    1    3    3  502    0  0.13049799964E+03  0.40760939009E+03 -0.96272913903E+02  0.43868396000E+03  0.25500000920E-02 0. -1.
       -2    1    3    3    0  502 -0.13049799964E+03 -0.40760939009E+03  0.18353097843E+03  0.46568096681E+03  0.25500000920E-02 0.  1.
</event>
<event>
 5   0  0.4243516E-04  0.9001564E+03  0.7818609E-02  0.9425386E-01
       -2   -1    0    0    0  501  0.00000000000E+00  0.00000000000E+00  0.13803182650E+03  0.13803182652E+03  0.25500000920E-02 0.  1.
        2   -1    0    0  501    0  0.00000000000E+00  0.00000000000E+00 -0.14675628942E+04  0.14675628942E+04  0.25500000920E-02 0. -1.
    10030    2    1    2    0    0  0.00000000000E+00  0.00000000000E+00 -0.13295310677E+04  0.16055947208E+04  0.90015640155E+03 0.  0.
        1    1    3    3  502    0 -0.29241770662E+03 -0.66318243716E+02 -0.66063335416E+02  0.30703515907E+03  0.50400001928E-02 0.  1.
       -1    1    3    3    0  502  0.29241770662E+03  0.66318243716E+02 -0.12634677323E+04  0.12985595617E+04  0.50400001928E-02 0. -1.
</event>
<event>
 5   0  0.2351435E-04  0.8997748E+03  0.7818609E-02  0.9425863E-01
       -1   -1    0    0    0  501  0.00000000000E+00  0.00000000000E+00  0.42074992556E+03  0.42074992559E+03  0.50400001928E-02 0. -1.
        1   -1    0    0  501    0  0.00000000000E+00  0.00000000000E+00 -0.48104270623E+03  0.48104270625E+03  0.50400001928E-02 0.  1.
    10030    2    1    2    0    0  0.00000000000E+00  0.00000000000E+00 -0.60292780662E+02  0.90179263185E+03  0.89977482264E+03 0.  0.
        4    1    3    3  502    0 -0.93537948400E+02 -0.28404595698E+03 -0.36700370659E+03  0.47341819464E+03  0.12699999809E+01 0.  1.
       -4    1    3    3    0  502  0.93537948400E+02  0.28404595698E+03  0.30671092593E+03  0.42837443721E+03  0.12699999809E+01 0. -1.
</event>
<event>
 5   0  0.1596250E-04  0.9004998E+03  0.7818609E-02  0.9424957E-01
       -3   -1    0    0    0  501  0.00000000000E+00  0.00000000000E+00  0.47180950629E+03  0.47180951710E+03  0.10100000352E+00 0. -1.
        3   -1    0    0  501    0  0.00000000000E+00  0.00000000000E+00 -0.42967540970E+03  0.42967542157E+03  0.10100000352E+00 0.  1.
    10030    2    1    2    0    0  0.00000000000E+00  0.00000000000E+00  0.42134096593E+02  0.90148493867E+03  0.90049975711E+03 0.  0.
        1    1    3    3  502    0 -0.10627905993E+03 -0.29200942338E+03  0.34724587197E+03  0.46598759377E+03  0.50400001928E-02 0. -1.
       -1    1    3    3    0  502  0.10627905993E+03  0.29200942338E+03 -0.30511177537E+03  0.43549734491E+03  0.50400001928E-02 0.  1.
</event>
<event>
 5   0  0.4110039E-04  0.9035688E+03  0.7818609E-02  0.9421131E-01
        2   -1    0    0  501    0  0.00000000000E+00  0.00000000000E+00  0.16906769103E+04  0.16906769103E+04  0.25500000920E-02 0.  1.
       -2   -1    0    0    0  501  0.00000000000E+00  0.00000000000E+00 -0.12072628163E+03  0.12072628166E+03  0.25500000920E-02 0. -1.
    10030    2    1    2    0    0  0.00000000000E+00  0.00000000000E+00  0.15699506287E+04  0.18114031920E+04  0.90356878399E+03 0.  0.
        3    1    3    3  502    0 -0.24064649209E+02 -0.27473119658E+03  0.67596691832E+02  0.28394658065E+03  0.10100000352E+00 0. -1.
       -3    1    3    3    0  502  0.24064649209E+02  0.27473119658E+03  0.15023539369E+04  0.15274566113E+04  0.10100000352E+00 0.  1.
</event>
<event>
 5   0  0.2351435E-04  0.9006737E+03  0.7818609E-02  0.9424740E-01
        1   -1    0    0  501    0  0.00000000000E+00  0.00000000000E+00  0.67558723490E+03  0.67558723492E+03  0.50400001928E-02 0.  1.
       -1   -1    0    0    0  501  0.00000000000E+00  0.00000000000E+00 -0.30018817482E+03  0.30018817487E+03  0.50400001928E-02 0. -1.
    10030    2    1    2    0    0  0.00000000000E+00  0.00000000000E+00  0.37539906008E+03  0.97577540979E+03  0.90067374561E+03 0.  0.
        4    1    3    3  502    0  0.12136911758E+03 -0.77008696037E+02  0.65006573807E+03  0.66576863750E+03  0.12699999809E+01 0.  1.
       -4    1    3    3    0  502 -0.12136911758E+03  0.77008696037E+02 -0.27466667799E+03  0.31000677229E+03  0.12699999809E+01 0. -1.
</event>
<event>
 5   0  0.4110039E-04  0.9010792E+03  0.7818609E-02  0.9424233E-01
        2   -1    0    0  501    0  0.00000000000E+00  0.00000000000E+00  0.11165251342E+04  0.11165251342E+04  0.25500000920E-02 0.  1.
       -2   -1    0    0    0  501  0.00000000000E+00  0.00000000000E+00 -0.18180149360E+03  0.18180149362E+03  0.25500000920E-02 0. -1.
    10030    2    1    2    0    0  0.00000000000E+00  0.00000000000E+00  0.93472364059E+03  0.12983266278E+04  0.90107921305E+03 0.  0.
        3    1    3    3  502    0  0.95948547403E+02  0.27528122088E+03 -0.27589051451E+02  0.29282595561E+03  0.10100000352E+00 0. -1.
       -3    1    3    3    0  502 -0.95948547403E+02 -0.27528122088E+03  0.96231269204E+03  0.10055006722E+04  0.10100000352E+00 0.  1.
</event>
<event>
 5   0  0.4033144E-04  0.8999762E+03  0.7818609E-02  0.9425611E-01
       -2   -1    0    0    0  501  0.00000000000E+00  0.00000000000E+00  0.19247286903E+03  0.19247286904E+03  0.25500000920E-02 0.  1.
        2   -1    0    0  501    0  0.00000000000E+00  0.00000000000E+00 -0.10520406402E+04  0.10520406402E+04  0.25500000920E-02 0. -1.
    10030    2    1    2    0    0  0.00000000000E+00  0.00000000000E+00 -0.85956777121E+03  0.12445135093E+04  0.89997617829E+03 0.  0.
        4    1    3    3  502    0 -0.26089223415E+03  0.15829808085E+03  0.27522261960E+02  0.30640190607E+03  0.12699999809E+01 0.  1.
       -4    1    3    3    0  502  0.26089223415E+03 -0.15829808085E+03 -0.88709003317E+03  0.93811160321E+03  0.12699999809E+01 0. -1.
</event>
<event>
 5   0  0.4236284E-04  0.9001399E+03  0.7818609E-02  0.9425407E-01
       -2   -1    0    0    0  501  0.00000000000E+00  0.00000000000E+00  0.15275338303E+03  0.15275338305E+03  0.25500000920E-02 0. -1.
        2   -1    0    0  501    0  0.00000000000E+00  0.00000000000E+00 -0.13260783975E+04  0.13260783975E+04  0.25500000920E-02 0.  1.
    10030    2    1    2    0    0  0.00000000000E+00  0.00000000000E+00 -0.11733250145E+04  0.14788317806E+04  0.90013990335E+03 0.  0.
        2    1    3    3  502    0  0.12061135734E+03  0.39800078869E+02 -0.12960259042E+04  0.13022343453E+04  0.25500000920E-02 0.  1.
       -2    1    3    3    0  502 -0.12061135734E+03 -0.39800078869E+02  0.12270088970E+03  0.17659743525E+03  0.25500000920E-02 0. -1.
</event>
<event>
 5   0  0.4236284E-04  0.9004780E+03  0.7818609E-02  0.9424984E-01
        2   -1    0    0  501    0  0.00000000000E+00  0.00000000000E+00  0.44037451311E+03  0.44037451312E+03  0.25500000920E-02 0. -1.
       -2   -1    0    0    0  501  0.00000000000E+00  0.00000000000E+00 -0.46032447947E+03  0.46032447948E+03  0.25500000920E-02 0.  1.
    10030    2    1    2    0    0  0.00000000000E+00  0.00000000000E+00 -0.19949966360E+02  0.90069899260E+03  0.90047802533E+03 0.  0.
        2    1    3    3  502    0  0.41418624181E+02  0.37400215599E+03 -0.25726439749E+03  0.45582681507E+03  0.25500000920E-02 0.  1.
       -2    1    3    3    0  502 -0.41418624181E+02 -0.37400215599E+03  0.23731443113E+03  0.44487217753E+03  0.25500000920E-02 0. -1.
</event>
<event>
 5   0  0.2332791E-04  0.8997911E+03  0.7818609E-02  0.9425843E-01
       -1   -1    0    0    0  501  0.00000000000E+00  0.00000000000E+00  0.20098434280E+03  0.20098434286E+03  0.50400001928E-02 0. -1.
        1   -1    0    0  501    0  0.00000000000E+00  0.00000000000E+00 -0.10070734479E+04  0.10070734479E+04  0.50400001928E-02 0.  1.
    10030    2    1    2    0    0  0.00000000000E+00  0.00000000000E+00 -0.80608910513E+03  0.12080577908E+04  0.89979107603E+03 0.  0.
        2    1    3    3  502    0  0.15110229893E+03 -0.36194681381E+03 -0.69893012970E+03  0.80146161916E+03  0.25500000920E-02 0.  1.
       -2    1    3    3    0  502 -0.15110229893E+03  0.36194681381E+03 -0.10715897543E+03  0.40659617164E+03  0.25500000920E-02 0. -1.
</event>
<event>
 5   0  0.4236284E-04  0.8998475E+03  0.7818609E-02  0.9425772E-01
        2   -1    0    0  501    0  0.00000000000E+00  0.00000000000E+00  0.43032778743E+03  0.43032778744E+03  0.25500000920E-02 0.  1.
       -2   -1    0    0    0  501  0.00000000000E+00  0.00000000000E+00 -0.47041209589E+03  0.47041209590E+03  0.25500000920E-02 0. -1.
    10030    2    1    2    0    0  0.00000000000E+00  0.00000000000E+00 -0.40084308461E+02  0.90073988334E+03  0.89984753467E+03 0.  0.
        2    1    3    3  502    0  0.17501580374E+03 -0.26887062921E+03 -0.33580616078E+03  0.46442192501E+03  0.25500000920E-02 0. -1.
       -2    1    3    3    0  502 -0.17501580374E+03  0.26887062921E+03  0.29572185232E+03  0.43631795832E+03  0.25500000920E-02 0.  1.
</event>
<event>
 5   0  0.3959804E-04  0.9000007E+03  0.7818609E-02  0.9425581E-01
       -2   -1    0    0    0  501  0.00000000000E+00  0.00000000000E+00  0.29293003456E+03  0.29293003457E+03  0.25500000920E-02 0. -1.
        2   -1    0    0  501    0  0.00000000000E+00  0.00000000000E+00 -0.69129242856E+03  0.69129242856E+03  0.25500000920E-02 0.  1.
    10030    2    1    2    0    0  0.00000000000E+00  0.00000000000E+00 -0.39836239400E+03  0.98422246314E+03  0.90000069999E+03 0.  0.
        5    1    3    3  502    0 -0.48477459754E+02 -0.34171624045E+03 -0.51491749783E+03  0.61990497067E+03  0.46999998093E+01 0.  1.
       -5    1    3    3    0  502  0.48477459754E+02  0.34171624045E+03  0.11655510383E+03  0.36431749247E+03  0.46999998093E+01 0. -1.
</event>
<event>
 5   0  0.3959804E-04  0.9000127E+03  0.7818609E-02  0.9425565E-01
        2   -1    0    0  501    0  0.00000000000E+00  0.00000000000E+00  0.79769236723E+03  0.79769236723E+03  0.25500000920E-02 0. -1.
       -2   -1    0    0    0  501  0.00000000000E+00  0.00000000000E+00 -0.25386444861E+03  0.25386444862E+03  0.25500000920E-02 0.  1.
    10030    2    1    2    0    0  0.00000000000E+00  0.00000000000E+00  0.54382791862E+03  0.10515568159E+04  0.90001273986E+03 0.  0.
        5    1    3    3  502    0 -0.26140182143E+03 -0.30812252510E+03  0.40547473156E+02  0.40612386078E+03  0.46999998093E+01 0. -1.
       -5    1    3    3    0  502  0.26140182143E+03  0.30812252510E+03  0.50328044546E+03  0.64543295508E+03  0.46999998093E+01 0.  1.
</event>
<event>
 5   0  0.4110039E-04  0.8994540E+03  0.7818609E-02  0.9426264E-01
        2   -1    0    0  501    0  0.00000000000E+00  0.00000000000E+00  0.98364122569E+03  0.98364122569E+03  0.25500000920E-02 0.  1.
       -2   -1    0    0    0  501  0.00000000000E+00  0.00000000000E+00 -0.20561804060E+03  0.20561804062E+03  0.25500000920E-02 0. -1.
    10030    2    1    2    0    0  0.00000000000E+00  0.00000000000E+00  0.77802318509E+03  0.11892592663E+04  0.89945401548E+03 0.  0.
        3    1    3    3  502    0  0.85150228183E+02  0.17978513795E+03  0.92230491772E+03  0.94351450897E+03  0.10100000352E+00 0.  1.
       -3    1    3    3    0  502 -0.85150228183E+02 -0.17978513795E+03 -0.14428173263E+03  0.24574475734E+03  0.10100000352E+00 0. -1.
</event>
<event>
 5   0  0.2356918E-04  0.9029974E+03  0.7818609E-02  0.9421842E-01
       -1   -1    0    0    0  501  0.00000000000E+00  0.00000000000E+00  0.18163606943E+03  0.18163606950E+03  0.50400001928E-02 0.  1.
        1   -1    0    0  501    0  0.00000000000E+00  0.00000000000E+00 -0.11223049800E+04  0.11223049800E+04  0.50400001928E-02 0. -1.
    10030    2    1    2    0    0  0.00000000000E+00  0.00000000000E+00 -0.94066891056E+03  0.13039410495E+04  0.90299737613E+03 0.  0.
        5    1    3    3  502    0  0.65721146677E+02 -0.93085288340E+02 -0.11011634913E+04  0.11070534154E+04  0.46999998093E+01 0. -1.
       -5    1    3    3    0  502 -0.65721146677E+02  0.93085288340E+02  0.16049458072E+03  0.19688763411E+03  0.46999998093E+01 0.  1.
</event>
<event>
 5   0  0.2308362E-04  0.8994054E+03  0.7818609E-02  0.9426325E-01
       -1   -1    0    0    0  501  0.00000000000E+00  0.00000000000E+00  0.49374768258E+03  0.49374768261E+03  0.50400001928E-02 0.  1.
        1   -1    0    0  501    0  0.00000000000E+00  0.00000000000E+00 -0.40958680656E+03  0.40958680659E+03  0.50400001928E-02 0. -1.
    10030    2    1    2    0    0  0.00000000000E+00  0.00000000000E+00  0.84160876030E+02  0.90333448920E+03  0.89940544045E+03 0.  0.
        1    1    3    3  502    0 -0.80262043820E+01 -0.24509366842E+03  0.42068501291E+03  0.48694066001E+03  0.50400001928E-02 0.  1.
       -1    1    3    3    0  502  0.80262043820E+01  0.24509366842E+03 -0.33652413688E+03  0.41639382919E+03  0.50400001928E-02 0. -1.
</event>
<event>
 5   0  0.4110039E-04  0.9012086E+03  0.7818609E-02  0.9424072E-01
        2   -1    0    0  501    0  0.00000000000E+00  0.00000000000E+00  0.23351320211E+03  0.23351320213E+03  0.25500000920E-02 0. -1.
       -2   -1    0    0    0  501  0.00000000000E+00  0.00000000000E+00 -0.86951938897E+03  0.86951938898E+03  0.25500000920E-02 0.  1.
    10030    2    1    2    0    0  0.00000000000E+00  0.00000000000E+00 -0.63600618686E+03  0.11030325911E+04  0.90120864805E+03 0.  0.
        3    1    3    3  502    0 -0.17858227259E+03 -0.33087348038E+03 -0.14041413958E+02  0.37625265396E+03  0.10100000352E+00 0.  1.
       -3    1    3    3    0  502  0.17858227259E+03  0.33087348038E+03 -0.62196477290E+03  0.72677993715E+03  0.10100000352E+00 0. -1.
</event>
<event>
 5   0  0.1596250E-04  0.9004009E+03  0.7818609E-02  0.9425080E-01
        4   -1    0    0  501    0  0.00000000000E+00  0.00000000000E+00  0.27911714429E+03  0.27912003356E+03  0.12699999809E+01 0.  1.
       -4   -1    0    0    0  501  0.00000000000E+00  0.00000000000E+00 -0.72614114171E+03  0.72614225231E+03  0.12699999809E+01 0. -1.
    10030    2    1    2    0    0  0.00000000000E+00  0.00000000000E+00 -0.44702399742E+03  0.10052622859E+04  0.90040091577E+03 0.  0.
        5    1    3    3  502    0  0.17095791509E+03 -0.15052543145E+03  0.21000533907E+03  0.30985294364E+03  0.46999998093E+01 0.  1.
       -5    1    3    3    0  502 -0.17095791509E+03  0.15052543145E+03 -0.65702933649E+03  0.69540934223E+03  0.46999998093E+01 0. -1.
</event>
<event>
 5   0  0.4033144E-04  0.9001446E+03  0.7818609E-02  0.9425401E-01
        2   -1    0    0  501    0  0.00000000000E+00  0.00000000000E+00  0.28248347836E+03  0.28248347837E+03  0.25500000920E-02 0.  1.
       -2   -1    0    0    0  501  0.00000000000E+00  0.00000000000E+00 -0.71708642559E+03  0.71708642560E+03  0.25500000920E-02 0. -1.
    10030    2    1    2    0    0  0.00000000000E+00  0.00000000000E+00 -0.43460294724E+03  0.99956990397E+03  0.90014458348E+03 0.  0.
        4    1    3    3  502    0 -0.44844211700E+03  0.37815117319E+02 -0.22369401921E+03  0.50256436655E+03  0.12699999809E+01 0.  1.
       -4    1    3    3    0  502  0.44844211700E+03 -0.37815117319E+02 -0.21090892803E+03  0.49700553741E+03  0.12699999809E+01 0. -1.
</event>
<event>
 5   0  0.1596250E-04  0.9000544E+03  0.7818609E-02  0.9425513E-01
       -3   -1    0    0    0  501  0.00000000000E+00  0.00000000000E+00  0.36944422512E+03  0.36944423893E+03  0.10100000352E+00 0.  1.
        3   -1    0    0  501    0  0.00000000000E+00  0.00000000000E+00 -0.54818686882E+03  0.54818687812E+03  0.10100000352E+00 0. -1.
    10030    2    1    2    0    0  0.00000000000E+00  0.00000000000E+00 -0.17874264370E+03  0.91763111705E+03  0.90005440630E+03 0.  0.
        4    1    3    3  502    0 -0.18871881255E+03 -0.36151083156E+03  0.10465542260E+03  0.42102166443E+03  0.12699999809E+01 0.  1.
       -4    1    3    3    0  502  0.18871881255E+03  0.36151083156E+03 -0.28339806630E+03  0.49660945262E+03  0.12699999809E+01 0. -1.
</event>
<event>
 5   0  0.2351435E-04  0.8999502E+03  0.7818609E-02  0.9425644E-01
        1   -1    0    0  501    0  0.00000000000E+00  0.00000000000E+00  0.29615427241E+03  0.29615427245E+03  0.50400001928E-02 0. -1.
       -1   -1    0    0    0  501  0.00000000000E+00  0.00000000000E+00 -0.68368963913E+03  0.68368963915E+03  0.50400001928E-02 0.  1.
    10030    2    1    2    0    0  0.00000000000E+00  0.00000000000E+00 -0.38753536672E+03  0.97984391160E+03  0.89995023786E+03 0.  0.
        4    1    3    3  502    0  0.42411815133E+03  0.28104994343E+02 -0.35455997216E+03  0.55351647108E+03  0.12699999809E+01 0.  1.
       -4    1    3    3    0  502 -0.42411815133E+03 -0.28104994343E+02 -0.32975394557E+02  0.42632744052E+03  0.12699999809E+01 0. -1.
</event>
<event>
 5   0  0.4033144E-04  0.9003532E+03  0.7818609E-02  0.9425140E-01
        2   -1    0    0  501    0  0.00000000000E+00  0.00000000000E+00  0.12741685106E+04  0.12741685106E+04  0.25500000920E-02 0.  1.
       -2   -1    0    0    0  501  0.00000000000E+00  0.00000000000E+00 -0.15905194304E+03  0.15905194306E+03  0.25500000920E-02 0. -1.
    10030    2    1    2    0    0  0.00000000000E+00  0.00000000000E+00  0.11151165676E+04  0.14332204537E+04  0.90035321376E+03 0.  0.
        4    1    3    3  502    0  0.12560385015E+03 -0.41720466423E+03  0.37731204885E+03  0.57636972000E+03  0.12699999809E+01 0. -1.
       -4    1    3    3    0  502 -0.12560385015E+03  0.41720466423E+03  0.73780451872E+03  0.85685073366E+03  0.12699999809E+01 0.  1.
</event>
<event>
 5   0  0.4243516E-04  0.9002616E+03  0.7818609E-02  0.9425255E-01
       -2   -1    0    0    0  501  0.00000000000E+00  0.00000000000E+00  0.22042486669E+03  0.22042486670E+03  0.25500000920E-02 0. -1.
        2   -1    0    0  501    0  0.00000000000E+00  0.00000000000E+00 -0.91921444133E+03  0.91921444133E+03  0.25500000920E-02 0.  1.
    10030    2    1    2    0    0  0.00000000000E+00  0.00000000000E+00 -0.69878957464E+03  0.11396393080E+04  0.90026156355E+03 0.  0.
        1    1    3    3  502    0  0.26860317903E+03  0.94291632359E+02  0.92001064242E+02  0.29917014484E+03  0.50400001928E-02 0. -1.
       -1    1    3    3    0  502 -0.26860317903E+03 -0.94291632359E+02 -0.79079063888E+03  0.84046916320E+03  0.50400001928E-02 0.  1.
</event>
<event>
 5   0  0.4236284E-04  0.8998908E+03  0.7818609E-02  0.9425718E-01
        2   -1    0    0  501    0  0.00000000000E+00  0.00000000000E+00  0.73207607218E+03  0.73207607218E+03  0.25500000920E-02 0. -1.
       -2   -1    0    0    0  501  0.00000000000E+00  0.00000000000E+00 -0.27654349236E+03  0.27654349237E+03  0.25500000920E-02 0.  1.
    10030    2    1    2    0    0  0.00000000000E+00  0.00000000000E+00  0.45553257982E+03  0.10086195646E+04  0.89989082379E+03 0.  0.
        2    1    3    3  502    0  0.17128011858E+03  0.23712315855E+03  0.61096137675E+03  0.67737587441E+03  0.25500000920E-02 0. -1.
       -2    1    3    3    0  502 -0.17128011858E+03 -0.23712315855E+03 -0.15542879693E+03  0.33124369015E+03  0.25500000920E-02 0.  1.
</event>
<event>
 5   0  0.2450427E-04  0.8993253E+03  0.7818609E-02  0.9426425E-01
       -1   -1    0    0    0  501  0.00000000000E+00  0.00000000000E+00  0.17497178528E+03  0.17497178536E+03  0.50400001928E-02 0. -1.
        1   -1    0    0  501    0  0.00000000000E+00  0.00000000000E+00 -0.11555947532E+04  0.11555947533E+04  0.50400001928E-02 0.  1.
    10030    2    1    2    0    0  0.00000000000E+00  0.00000000000E+00 -0.98062296796E+03  0.13305665386E+04  0.89932525172E+03 0.  0.
        3    1    3    3  502    0 -0.92238887386E+02 -0.43112749668E+03 -0.62112564461E+03  0.76169285629E+03  0.10100000352E+00 0.  1.
       -3    1    3    3    0  502  0.92238887386E+02  0.43112749668E+03 -0.35949732335E+03  0.56887368232E+03  0.10100000352E+00 0. -1.
</event>
<event>
 5   0  0.1596250E-04  0.9005603E+03  0.7818609E-02  0.9424881E-01
        3   -1    0    0  501    0  0.00000000000E+00  0.00000000000E+00  0.49778154619E+03  0.49778155644E+03  0.10100000352E+00 0. -1.
       -3   -1    0    0    0  501  0.00000000000E+00  0.00000000000E+00 -0.40731161803E+03  0.40731163055E+03  0.10100000352E+00 0.  1.
    10030    2    1    2    0    0  0.00000000000E+00  0.00000000000E+00  0.90469928161E+02  0.90509318699E+03  0.90056030850E+03 0.  0.
        4    1    3    3  502    0 -0.94145402778E+02 -0.36905345745E+03  0.28662464027E+03  0.47667505560E+03  0.12699999809E+01 0. -1.
       -4    1    3    3    0  502  0.94145402778E+02  0.36905345745E+03 -0.19615471211E+03  0.42841813139E+03  0.12699999809E+01 0.  1.
</event>
<event>
 5   0  0.2308362E-04  0.9011534E+03  0.7818609E-02  0.9424141E-01
        1   -1    0    0  501    0  0.00000000000E+00  0.00000000000E+00  0.36020071015E+03  0.36020071018E+03  0.50400001928E-02 0. -1.
       -1   -1    0    0    0  501  0.00000000000E+00  0.00000000000E+00 -0.56362843565E+03  0.56362843567E+03  0.50400001928E-02 0.  1.
    10030    2    1    2    0    0  0.00000000000E+00  0.00000000000E+00 -0.20342772550E+03  0.92382914585E+03  0.90115340050E+03 0.  0.
        1    1    3    3  502    0 -0.20952739839E+03  0.24164232798E+03 -0.42707453652E+03  0.53355918614E+03  0.50400001928E-02 0.  1.
       -1    1    3    3    0  502  0.20952739839E+03 -0.24164232798E+03  0.22364681102E+03  0.39026995971E+03  0.50400001928E-02 0. -1.
</event>
<event>
 5   0  0.2332791E-04  0.8999384E+03  0.7818609E-02  0.9425658E-01
        1   -1    0    0  501    0  0.00000000000E+00  0.00000000000E+00  0.68349069798E+03  0.68349069800E+03  0.50400001928E-02 0. -1.
       -1   -1    0    0    0  501  0.00000000000E+00  0.00000000000E+00 -0.29623269706E+03  0.29623269711E+03  0.50400001928E-02 0.  1.
    10030    2    1    2    0    0  0.00000000000E+00  0.00000000000E+00  0.38725800091E+03  0.97972339510E+03  0.89993842658E+03 0.  0.
        2    1    3    3  502    0  0.24788861563E+03  0.22269897285E+02  0.60173357649E+03  0.65117433239E+03  0.25500000920E-02 0. -1.
       -2    1    3    3    0  502 -0.24788861563E+03 -0.22269897285E+02 -0.21447557557E+03  0.32854906271E+03  0.25500000920E-02 0.  1.
</event>
<event>
 5   0  0.4236284E-04  0.8999569E+03  0.7818609E-02  0.9425635E-01
        2   -1    0    0  501    0  0.00000000000E+00  0.00000000000E+00  0.15273086028E+04  0.15273086028E+04  0.25500000920E-02 0.  1.
       -2   -1    0    0    0  501  0.00000000000E+00  0.00000000000E+00 -0.13257347160E+03  0.13257347162E+03  0.25500000920E-02 0. -1.
    10030    2    1    2    0    0  0.00000000000E+00  0.00000000000E+00  0.13947351312E+04  0.16598820745E+04  0.89995689609E+03 0.  0.
        2    1    3    3  502    0  0.27106974062E+03 -0.83300670119E+02  0.13417551821E+04  0.13713951927E+04  0.25500000920E-02 0.  1.
       -2    1    3    3    0  502 -0.27106974062E+03  0.83300670119E+02  0.52979949146E+02  0.28848688175E+03  0.25500000920E-02 0. -1.
</event>
<event>
 5   0  0.3959804E-04  0.9001461E+03  0.7818609E-02  0.9425399E-01
       -2   -1    0    0    0  501  0.00000000000E+00  0.00000000000E+00  0.22042419588E+03  0.22042419590E+03  0.25500000920E-02 0.  1.
        2   -1    0    0  501    0  0.00000000000E+00  0.00000000000E+00 -0.91898141722E+03  0.91898141723E+03  0.25500000920E-02 0. -1.
    10030    2    1    2    0    0  0.00000000000E+00  0.00000000000E+00 -0.69855722134E+03  0.11394056131E+04  0.90014607689E+03 0.  0.
        5    1    3    3  502    0 -0.20552233736E+03 -0.59028927123E+02 -0.85054180309E+03  0.87702183222E+03  0.46999998093E+01 0. -1.
       -5    1    3    3    0  502  0.20552233736E+03  0.59028927123E+02  0.15198458175E+03  0.26238378090E+03  0.46999998093E+01 0.  1.
</event>
<event>
 5   0  0.2308362E-04  0.8994727E+03  0.7818609E-02  0.9426241E-01
        1   -1    0    0  501    0  0.00000000000E+00  0.00000000000E+00  0.79892244509E+03  0.79892244511E+03  0.50400001928E-02 0. -1.
       -1   -1    0    0    0  501  0.00000000000E+00  0.00000000000E+00 -0.25316948226E+03  0.25316948231E+03  0.50400001928E-02 0.  1.
    10030    2    1    2    0    0  0.00000000000E+00  0.00000000000E+00  0.54575296284E+03  0.10520919274E+04  0.89947269402E+03 0.  0.
        1    1    3    3  502    0  0.18745776649E+03 -0.36611724338E+03  0.60135114597E+02  0.41569036812E+03  0.50400001928E-02 0. -1.
       -1    1    3    3    0  502 -0.18745776649E+03  0.36611724338E+03  0.48561784824E+03  0.63640155929E+03  0.50400001928E-02 0.  1.
</event>
<event>
 5   0  0.4243516E-04  0.9000274E+03  0.7818609E-02  0.9425547E-01
        2   -1    0    0  501    0  0.00000000000E+00  0.00000000000E+00  0.49064432370E+03  0.49064432371E+03  0.25500000920E-02 0.  1.
       -2   -1    0    0    0  501  0.00000000000E+00  0.00000000000E+00 -0.41274772504E+03  0.41274772505E+03  0.25500000920E-02 0. -1.
    10030    2    1    2    0    0  0.00000000000E+00  0.00000000000E+00  0.77896598658E+02  0.90339204876E+03  0.90002739607E+03 0.  0.
        1    1    3    3  502    0  0.36874492875E+03  0.25794141018E+03  0.41352003092E+02  0.45190328805E+03  0.50400001928E-02 0. -1.
       -1    1    3    3    0  502 -0.36874492875E+03 -0.25794141018E+03  0.36544595566E+02  0.45148876072E+03  0.50400001928E-02 0.  1.
</event>
<event>
 5   0  0.2351435E-04  0.8998430E+03  0.7818609E-02  0.9425778E-01
       -1   -1    0    0    0  501  0.00000000000E+00  0.00000000000E+00  0.19181058115E+03  0.19181058121E+03  0.50400001928E-02 0. -1.
        1   -1    0    0  501    0  0.00000000000E+00  0.00000000000E+00 -0.10553608217E+04  0.10553608217E+04  0.50400001928E-02 0.  1.
    10030    2    1    2    0    0  0.00000000000E+00  0.00000000000E+00 -0.86355024057E+03  0.12471714029E+04  0.89984303650E+03 0.  0.
        4    1    3    3  502    0  0.33434400895E+03  0.28236322772E+03 -0.28698847800E+03  0.52333441325E+03  0.12699999809E+01 0. -1.
       -4    1    3    3    0  502 -0.33434400895E+03 -0.28236322772E+03 -0.57656176258E+03  0.72383698970E+03  0.12699999809E+01 0.  1.
</event>
<event>
 5   0  0.3959804E-04  0.9003066E+03  0.7818609E-02  0.9425198E-01
        2   -1    0    0  501    0  0.00000000000E+00  0.00000000000E+00  0.34760245299E+03  0.34760245300E+03  0.25500000920E-02 0.  1.
       -2   -1    0    0    0  501  0.00000000000E+00  0.00000000000E+00 -0.58295905426E+03  0.58295905426E+03  0.25500000920E-02 0. -1.
    10030    2    1    2    0    0  0.00000000000E+00  0.00000000000E+00 -0.23535660126E+03  0.93056150726E+03  0.90030660835E+03 0.  0.
        5    1    3    3  502    0 -0.58612917327E+02  0.22272595566E+03  0.28206582739E+03  0.36417790485E+03  0.46999998093E+01 0.  1.
       -5    1    3    3    0  502  0.58612917327E+02 -0.22272595566E+03 -0.51742242866E+03  0.56638360241E+03  0.46999998093E+01 0. -1.
</event>
<event>
 5   0  0.4243516E-04  0.8963178E+03  0.7818609E-02  0.9430196E-01
       -2   -1    0    0    0  501  0.00000000000E+00  0.00000000000E+00  0.86118881638E+03  0.86118881638E+03  0.25500000920E-02 0. -1.
        2   -1    0    0  501    0  0.00000000000E+00  0.00000000000E+00 -0.23321994693E+03  0.23321994694E+03  0.25500000920E-02 0.  1.
    10030    2    1    2    0    0  0.00000000000E+00  0.00000000000E+00  0.62796886945E+03  0.10944087633E+04  0.89631782324E+03 0.  0.
        1    1    3    3  502    0 -0.76095705633E+02  0.10322674692E+03  0.83830645401E+03  0.84805897705E+03  0.50400001928E-02 0. -1.
       -1    1    3    3    0  502  0.76095705633E+02 -0.10322674692E+03 -0.21033758456E+03  0.24634978628E+03  0.50400001928E-02 0.  1.
</event>
<event>
 5   0  0.3959804E-04  0.8998429E+03  0.7818609E-02  0.9425778E-01
       -2   -1    0    0    0  501  0.00000000000E+00  0.00000000000E+00  0.14297653979E+03  0.14297653981E+03  0.25500000920E-02 0. -1.
        2   -1    0    0  501    0  0.00000000000E+00  0.00000000000E+00 -0.14158219364E+04  0.14158219364E+04  0.25500000920E-02 0.  1.
    10030    2    1    2    0    0  0.00000000000E+00  0.00000000000E+00 -0.12728453967E+04  0.15587984763E+04  0.89984292285E+03 0.  0.
        5    1    3    3  502    0 -0.15795114851E+03  0.36032479055E+03 -0.10144641707E+04  0.10880910640E+04  0.46999998093E+01 0.  1.
       -5    1    3    3    0  502  0.15795114851E+03 -0.36032479055E+03 -0.25838122594E+03  0.47070741221E+03  0.46999998093E+01 0. -1.
</event>
<event>
 5   0  0.3959804E-04  0.8999836E+03  0.7818609E-02  0.9425602E-01
       -2   -1    0    0    0  501  0.00000000000E+00  0.00000000000E+00  0.16005528779E+03  0.16005528781E+03  0.25500000920E-02 0. -1.
        2   -1    0    0  501    0  0.00000000000E+00  0.00000000000E+00 -0.12651418463E+04  0.12651418463E+04  0.25500000920E-02 0.  1.
    10030    2    1    2    0    0  0.00000000000E+00  0.00000000000E+00 -0.11050865585E+04  0.14251971341E+04  0.89998364945E+03 0.  0.
        5    1    3    3  502    0  0.15509441523E+03  0.33687349589E+03 -0.14901733898E+03  0.39970775222E+03  0.46999998093E+01 0. -1.
       -5    1    3    3    0  502 -0.15509441523E+03 -0.33687349589E+03 -0.95606921949E+03  0.10254893819E+04  0.46999998093E+01 0.  1.
</event>
<event>
 5   0  0.1596250E-04  0.9000654E+03  0.7818609E-02  0.9425500E-01
       -4   -1    0    0    0  501  0.00000000000E+00  0.00000000000E+00  0.38414730319E+03  0.38414940251E+03  0.12699999809E+01 0.  1.
        4   -1    0    0  501    0  0.00000000000E+00  0.00000000000E+00 -0.52721379528E+03  0.52721532492E+03  0.12699999809E+01 0. -1.
    10030    2    1    2    0    0  0.00000000000E+00  0.00000000000E+00 -0.14306649208E+03  0.91136472743E+03  0.90006535610E+03 0.  0.
        1    1    3    3  502    0  0.32917858700E+03  0.84177570276E+02 -0.37033962375E+03  0.50258913878E+03  0.50400001928E-02 0. -1.
       -1    1    3    3    0  502 -0.32917858700E+03 -0.84177570276E+02  0.22727313167E+03  0.40877558865E+03  0.50400001928E-02 0.  1.
</event>
<event>
 5   0  0.4110039E-04  0.8989742E+03  0.7818609E-02  0.9426865E-01
       -2   -1    0    0    0  501  0.00000000000E+00  0.00000000000E+00  0.43366199728E+03  0.43366199728E+03  0.25500000920E-02 0. -1.
        2   -1    0    0  501    0  0.00000000000E+00  0.00000000000E+00 -0.46588973684E+03  0.46588973685E+03  0.25500000920E-02 0.  1.
    10030    2    1    2    0    0  0.00000000000E+00  0.00000000000E+00 -0.32227739565E+02  0.89955173413E+03  0.89897424612E+03 0.  0.
        3    1    3    3  502    0 -0.10882533463E+03 -0.56579369391E+02  0.41659250566E+03  0.43427353646E+03  0.10100000352E+00 0. -1.
       -3    1    3    3    0  502  0.10882533463E+03  0.56579369391E+02 -0.44882024523E+03  0.46527819767E+03  0.10100000352E+00 0.  1.
</event>
<event>
 5   0  0.2332791E-04  0.9002163E+03  0.7818609E-02  0.9425311E-01
        1   -1    0    0  501    0  0.00000000000E+00  0.00000000000E+00  0.43934022743E+03  0.43934022745E+03  0.50400001928E-02 0. -1.
       -1   -1    0    0    0  501  0.00000000000E+00  0.00000000000E+00 -0.46113997026E+03  0.46113997029E+03  0.50400001928E-02 0.  1.
    10030    2    1    2    0    0  0.00000000000E+00  0.00000000000E+00 -0.21799742835E+02  0.90048019774E+03  0.90021628387E+03 0.  0.
        2    1    3    3  502    0 -0.23361888413E+02 -0.20481520160E+03  0.38934528100E+03  0.44055055610E+03  0.25500000920E-02 0. -1.
       -2    1    3    3    0  502  0.23361888413E+02  0.20481520160E+03 -0.41114502383E+03  0.45992964165E+03  0.25500000920E-02 0.  1.
</event>
<event>
 5   0  0.4033144E-04  0.9001570E+03  0.7818609E-02  0.9425385E-01
       -2   -1    0    0    0  501  0.00000000000E+00  0.00000000000E+00  0.30159145036E+03  0.30159145037E+03  0.25500000920E-02 0. -1.
        2   -1    0    0  501    0  0.00000000000E+00  0.00000000000E+00 -0.67167236199E+03  0.67167236200E+03  0.25500000920E-02 0.  1.
    10030    2    1    2    0    0  0.00000000000E+00  0.00000000000E+00 -0.37008091163E+03  0.97326381236E+03  0.90015696815E+03 0.  0.
        4    1    3    3  502    0  0.23331689685E+03 -0.84684109951E+02 -0.59098021754E+03  0.64098939403E+03  0.12699999809E+01 0.  1.
       -4    1    3    3    0  502 -0.23331689685E+03  0.84684109951E+02  0.22089930591E+03  0.33227441834E+03  0.12699999809E+01 0. -1.
</event>
<event>
 5   0  0.2450427E-04  0.8999056E+03  0.7818609E-02  0.9425699E-01
        1   -1    0    0  501    0  0.00000000000E+00  0.00000000000E+00  0.50649195236E+03  0.50649195239E+03  0.50400001928E-02 0.  1.
       -1   -1    0    0    0  501  0.00000000000E+00  0.00000000000E+00 -0.39972502212E+03  0.39972502215E+03  0.50400001928E-02 0. -1.
    10030    2    1    2    0    0  0.00000000000E+00  0.00000000000E+00  0.10676693025E+03  0.90621697454E+03  0.89990556590E+03 0.  0.
        3    1    3    3  502    0 -0.22002068970E+03  0.45691674917E+02  0.44593876543E+03  0.49935781336E+03  0.10100000352E+00 0.  1.
       -3    1    3    3    0  502  0.22002068970E+03 -0.45691674917E+02 -0.33917183518E+03  0.40685916118E+03  0.10100000352E+00 0. -1.
</event>
<event>
 5   0  0.4110039E-04  0.9002005E+03  0.7818609E-02  0.9425331E-01
       -2   -1    0    0    0  501  0.00000000000E+00  0.00000000000E+00  0.17660172272E+03  0.17660172274E+03  0.25500000920E-02 0.  1.
        2   -1    0    0  501    0  0.00000000000E+00  0.00000000000E+00 -0.11471590026E+04  0.11471590026E+04  0.25500000920E-02 0. -1.
    10030    2    1    2    0    0  0.00000000000E+00  0.00000000000E+00 -0.97055727988E+03  0.13237607253E+04  0.90020054679E+03 0.  0.
        3    1    3    3  502    0 -0.40320134153E+02  0.17840053429E+03 -0.10900490515E+04  0.11052870255E+04  0.10100000352E+00 0. -1.
       -3    1    3    3    0  502  0.40320134153E+02 -0.17840053429E+03  0.11949177160E+03  0.21847369987E+03  0.10100000352E+00 0.  1.
</event>
<event>
 5   0  0.2351435E-04  0.8995746E+03  0.7818609E-02  0.9426113E-01
       -1   -1    0    0    0  501  0.00000000000E+00  0.00000000000E+00  0.18097511489E+03  0.18097511497E+03  0.50400001928E-02 0. -1.
        1   -1    0    0  501    0  0.00000000000E+00  0.00000000000E+00 -0.11178808955E+04  0.11178808955E+04  0.50400001928E-02 0.  1.
    10030    2    1    2    0    0  0.00000000000E+00  0.00000000000E+00 -0.93690578056E+03  0.12988560104E+04  0.89957461847E+03 0.  0.
        4    1    3    3  502    0 -0.23707247694E+03 -0.87759997313E+02  0.68696068167E+02  0.26196553043E+03  0.12699999809E+01 0. -1.
       -4    1    3    3    0  502  0.23707247694E+03  0.87759997313E+02 -0.10056018487E+04  0.10368904800E+04  0.12699999809E+01 0.  1.
</event>
<event>
 5   0  0.4243516E-04  0.8999203E+03  0.7818609E-02  0.9425681E-01
       -2   -1    0    0    0  501  0.00000000000E+00  0.00000000000E+00  0.18865437184E+03  0.18865437185E+03  0.25500000920E-02 0.  1.
        2   -1    0    0  501    0  0.00000000000E+00  0.00000000000E+00 -0.10732014981E+04  0.10732014981E+04  0.25500000920E-02 0. -1.
    10030    2    1    2    0    0  0.00000000000E+00  0.00000000000E+00 -0.88454712628E+03  0.12618558700E+04  0.89992033979E+03 0.  0.
        1    1    3    3  502    0 -0.33146256576E+03  0.18200051722E+03 -0.10032254187E+03  0.39122401920E+03  0.50400001928E-02 0.  1.
       -1    1    3    3    0  502  0.33146256576E+03 -0.18200051722E+03 -0.78422458440E+03  0.87063185077E+03  0.50400001928E-02 0. -1.
</event>
<event>
 5   0  0.2356918E-04  0.8998071E+03  0.7818609E-02  0.9425823E-01
       -1   -1    0    0    0  501  0.00000000000E+00  0.00000000000E+00  0.38817253016E+03  0.38817253020E+03  0.50400001928E-02 0. -1.
        1   -1    0    0  501    0  0.00000000000E+00  0.00000000000E+00 -0.52145170061E+03  0.52145170063E+03  0.50400001928E-02 0.  1.
    10030    2    1    2    0    0  0.00000000000E+00  0.00000000000E+00 -0.13327917044E+03  0.90962423083E+03  0.89980714824E+03 0.  0.
        5    1    3    3  502    0 -0.11545710542E+03  0.42728563529E+03  0.14785944974E+02  0.44288155469E+03  0.46999998093E+01 0. -1.
       -5    1    3    3    0  502  0.11545710542E+03 -0.42728563529E+03 -0.14806511542E+03  0.46674267613E+03  0.46999998093E+01 0.  1.
</event>
<event>
 5   0  0.2351435E-04  0.8989928E+03  0.7818609E-02  0.9426841E-01
        1   -1    0    0  501    0  0.00000000000E+00  0.00000000000E+00  0.94212840516E+03  0.94212840517E+03  0.50400001928E-02 0.  1.
       -1   -1    0    0    0  501  0.00000000000E+00  0.00000000000E+00 -0.21445802320E+03  0.21445802326E+03  0.50400001928E-02 0. -1.
    10030    2    1    2    0    0  0.00000000000E+00  0.00000000000E+00  0.72767038196E+03  0.11565864284E+04  0.89899275952E+03 0.  0.
        4    1    3    3  502    0 -0.23038288678E+03 -0.36577182180E+03  0.20532435292E+03  0.47856556807E+03  0.12699999809E+01 0. -1.
       -4    1    3    3    0  502  0.23038288678E+03  0.36577182180E+03  0.52234602904E+03  0.67802086037E+03  0.12699999809E+01 0.  1.
</event>
<event>
 5   0  0.4110039E-04  0.8990545E+03  0.7818609E-02  0.9426764E-01
       -2   -1    0    0    0  501  0.00000000000E+00  0.00000000000E+00  0.20057605379E+03  0.20057605381E+03  0.25500000920E-02 0.  1.
        2   -1    0    0  501    0  0.00000000000E+00  0.00000000000E+00 -0.10074720525E+04  0.10074720525E+04  0.25500000920E-02 0. -1.
    10030    2    1    2    0    0  0.00000000000E+00  0.00000000000E+00 -0.80689599870E+03  0.12080481063E+04  0.89905454474E+03 0.  0.
        3    1    3    3  502    0 -0.39998180726E+03 -0.20386194860E+03 -0.43437085764E+03  0.62467847121E+03  0.10100000352E+00 0. -1.
       -3    1    3    3    0  502  0.39998180726E+03  0.20386194860E+03 -0.37252514106E+03  0.58336963509E+03  0.10100000352E+00 0.  1.
</event>
<event>
 5   0  0.2356918E-04  0.9002145E+03  0.7818609E-02  0.9425313E-01
       -1   -1    0    0    0  501  0.00000000000E+00  0.00000000000E+00  0.23496281205E+03  0.23496281210E+03  0.50400001928E-02 0.  1.
        1   -1    0    0  501    0  0.00000000000E+00  0.00000000000E+00 -0.86224943487E+03  0.86224943488E+03  0.50400001928E-02 0. -1.
    10030    2    1    2    0    0  0.00000000000E+00  0.00000000000E+00 -0.62728662282E+03  0.10972122470E+04  0.90021453430E+03 0.  0.
        5    1    3    3  502    0 -0.23654369807E+03 -0.11817308690E+03  0.13028123455E+03  0.29481026040E+03  0.46999998093E+01 0.  1.
       -5    1    3    3    0  502  0.23654369807E+03  0.11817308690E+03 -0.75756785736E+03  0.80240198658E+03  0.46999998093E+01 0. -1.
</event>
<event>
 5   0  0.2450427E-04  0.9001256E+03  0.7818609E-02  0.9425424E-01
        1   -1    0    0  501    0  0.00000000000E+00  0.00000000000E+00  0.60966642410E+03  0.60966642412E+03  0.50400001928E-02 0. -1.
       -1   -1    0    0    0  501  0.00000000000E+00  0.00000000000E+00 -0.33224153871E+03  0.33224153875E+03  0.50400001928E-02 0.  1.
    10030    2    1    2    0    0  0.00000000000E+00  0.00000000000E+00  0.27742488538E+03  0.94190796287E+03  0.90012557095E+03 0.  0.
        3    1    3    3  502    0 -0.14769372506E+03  0.41202029436E+03  0.29051282362E+02  0.43865492884E+03  0.10100000352E+00 0.  1.
       -3    1    3    3    0  502  0.14769372506E+03 -0.41202029436E+03  0.24837360302E+03  0.50325303403E+03  0.10100000352E+00 0. -1.
</event>
<event>
 5   0  0.2332791E-04  0.9001838E+03  0.7818609E-02  0.9425352E-01
       -1   -1    0    0    0  501  0.00000000000E+00  0.00000000000E+00  0.20477666849E+03  0.20477666855E+03  0.50400001928E-02 0. -1.
        1   -1    0    0  501    0  0.00000000000E+00  0.00000000000E+00 -0.98928622607E+03  0.98928622608E+03  0.50400001928E-02 0.  1.
    10030    2    1    2    0    0  0.00000000000E+00  0.00000000000E+00 -0.78450955758E+03  0.11940628946E+04  0.90018384256E+03 0.  0.
        2    1    3    3  502    0 -0.25111901856E+03 -0.18619634047E+03 -0.82177756729E+03  0.87923160133E+03  0.25500000920E-02 0.  1.
       -2    1    3    3    0  502  0.25111901856E+03  0.18619634047E+03  0.37268009708E+02  0.31483129330E+03  0.25500000920E-02 0. -1.
</event>
<event>
 5   0  0.4236284E-04  0.8998860E+03  0.7818609E-02  0.9425724E-01
       -2   -1    0    0    0  501  0.00000000000E+00  0.00000000000E+00  0.30425349643E+03  0.30425349644E+03  0.25500000920E-02 0.  1.
        2   -1    0    0  501    0  0.00000000000E+00  0.00000000000E+00 -0.66539484045E+03  0.66539484045E+03  0.25500000920E-02 0. -1.
    10030    2    1    2    0    0  0.00000000000E+00  0.00000000000E+00 -0.36114134402E+03  0.96964833689E+03  0.89988600771E+03 0.  0.
        2    1    3    3  502    0  0.30336858639E+03  0.24626400189E+03 -0.42095805202E+03  0.57435541209E+03  0.25500000920E-02 0. -1.
       -2    1    3    3    0  502 -0.30336858639E+03 -0.24626400189E+03  0.59816708005E+02  0.39529292480E+03  0.25500000920E-02 0.  1.
</event>
<event>
 5   0  0.2332791E-04  0.8991135E+03  0.7818609E-02  0.9426690E-01
       -1   -1    0    0    0  501  0.00000000000E+00  0.00000000000E+00  0.26856773014E+03  0.26856773018E+03  0.50400001928E-02 0.  1.
        1   -1    0    0  501    0  0.00000000000E+00  0.00000000000E+00 -0.75251509687E+03  0.75251509688E+03  0.50400001928E-02 0. -1.
    10030    2    1    2    0    0  0.00000000000E+00  0.00000000000E+00 -0.48394736673E+03  0.10210828271E+04  0.89911350005E+03 0.  0.
        2    1    3    3  502    0  0.28706157564E+03 -0.29599133851E+03 -0.44539880622E+03  0.60695577868E+03  0.25500000920E-02 0. -1.
       -2    1    3    3    0  502 -0.28706157564E+03  0.29599133851E+03 -0.38548560507E+02  0.41412704839E+03  0.25500000920E-02 0.  1.
</event>
<event>
 5   0  0.2332791E-04  0.9014798E+03  0.7818609E-02  0.9423733E-01
       -1   -1    0    0    0  501  0.00000000000E+00  0.00000000000E+00  0.18775769289E+03  0.18775769295E+03  0.50400001928E-02 0.  1.
        1   -1    0    0  501    0  0.00000000000E+00  0.00000000000E+00 -0.10820672878E+04  0.10820672878E+04  0.50400001928E-02 0. -1.
    10030    2    1    2    0    0  0.00000000000E+00  0.00000000000E+00 -0.89430959488E+03  0.12698249807E+04  0.90147980022E+03 0.  0.
        2    1    3    3  502    0  0.19401642616E+03 -0.18527536500E+03 -0.95736603824E+03  0.99424296109E+03  0.25500000920E-02 0. -1.
       -2    1    3    3    0  502 -0.19401642616E+03  0.18527536500E+03  0.63056443358E+02  0.27558201964E+03  0.25500000920E-02 0.  1.
</event>
<event>
 5   0  0.2450427E-04  0.8998987E+03  0.7818609E-02  0.9425708E-01
        1   -1    0    0  501    0  0.00000000000E+00  0.00000000000E+00  0.11356883694E+04  0.11356883694E+04  0.50400001928E-02 0.  1.
       -1   -1    0    0    0  501  0.00000000000E+00  0.00000000000E+00 -0.17826583676E+03  0.17826583684E+03  0.50400001928E-02 0. -1.
    10030    2    1    2    0    0  0.00000000000E+00  0.00000000000E+00  0.95742253267E+03  0.13139542063E+04  0.89989874438E+03 0.  0.
        3    1    3    3  502    0  0.33061841055E+03 -0.19962594388E+03  0.81578999780E+03  0.90259203496E+03  0.10100000352E+00 0.  1.
       -3    1    3    3    0  502 -0.33061841055E+03  0.19962594388E+03  0.14163253488E+03  0.41136217133E+03  0.10100000352E+00 0. -1.
</event>
<event>
 5   0  0.4243516E-04  0.8999202E+03  0.7818609E-02  0.9425681E-01
        2   -1    0    0  501    0  0.00000000000E+00  0.00000000000E+00  0.11572637542E+04  0.11572637542E+04  0.25500000920E-02 0. -1.
       -2   -1    0    0    0  501  0.00000000000E+00  0.00000000000E+00 -0.17495068438E+03  0.17495068440E+03  0.25500000920E-02 0.  1.
    10030    2    1    2    0    0  0.00000000000E+00  0.00000000000E+00  0.98231306986E+03  0.13322144386E+04  0.89992018720E+03 0.  0.
        1    1    3    3  502    0  0.22209828554E+03  0.33925939739E+03  0.77988362534E+03  0.87900116966E+03  0.50400001928E-02 0. -1.
       -1    1    3    3    0  502 -0.22209828554E+03 -0.33925939739E+03  0.20242944452E+03  0.45321326899E+03  0.50400001928E-02 0.  1.
</event>
<event>
 5   0  0.1596250E-04  0.8994774E+03  0.7818609E-02  0.9426235E-01
       -3   -1    0    0    0  501  0.00000000000E+00  0.00000000000E+00  0.97103568982E+03  0.97103569508E+03  0.10100000352E+00 0. -1.
        3   -1    0    0  501    0  0.00000000000E+00  0.00000000000E+00 -0.20829810772E+03  0.20829813221E+03  0.10100000352E+00 0.  1.
    10030    2    1    2    0    0  0.00000000000E+00  0.00000000000E+00  0.76273758210E+03  0.11793338273E+04  0.89947743553E+03 0.  0.
        3    1    3    3  502    0  0.62905112423E+02  0.36925643921E+03  0.55011333521E+02  0.37859427899E+03  0.10100000352E+00 0.  1.
       -3    1    3    3    0  502 -0.62905112423E+02 -0.36925643921E+03  0.70772624858E+03  0.80073954829E+03  0.10100000352E+00 0. -1.
</event>
<event>
 5   0  0.4033144E-04  0.9002527E+03  0.7818609E-02  0.9425266E-01
       -2   -1    0    0    0  501  0.00000000000E+00  0.00000000000E+00  0.38771936086E+03  0.38771936087E+03  0.25500000920E-02 0.  1.
        2   -1    0    0  501    0  0.00000000000E+00  0.00000000000E+00 -0.52257835178E+03  0.52257835179E+03  0.25500000920E-02 0. -1.
    10030    2    1    2    0    0  0.00000000000E+00  0.00000000000E+00 -0.13485899092E+03  0.91029771266E+03  0.90025273020E+03 0.  0.
        4    1    3    3  502    0 -0.41706054824E+03  0.25521704977E+02  0.10183385672E+03  0.43007279104E+03  0.12699999809E+01 0.  1.
       -4    1    3    3    0  502  0.41706054824E+03 -0.25521704977E+02 -0.23669284764E+03  0.48022492162E+03  0.12699999809E+01 0. -1.
</event>
<event>
 5   0  0.2308362E-04  0.9006810E+03  0.7818609E-02  0.9424730E-01
        1   -1    0    0  501    0  0.00000000000E+00  0.00000000000E+00  0.23303120448E+03  0.23303120453E+03  0.50400001928E-02 0. -1.
       -1   -1    0    0    0  501  0.00000000000E+00  0.00000000000E+00 -0.87029797704E+03  0.87029797706E+03  0.50400001928E-02 0.  1.
    10030    2    1    2    0    0  0.00000000000E+00  0.00000000000E+00 -0.63726677256E+03  0.11033291816E+04  0.90068104429E+03 0.  0.
        1    1    3    3  502    0  0.31906830788E+03 -0.30730153270E+03 -0.21935767457E+03  0.49432439400E+03  0.50400001928E-02 0. -1.
       -1    1    3    3    0  502 -0.31906830788E+03  0.30730153270E+03 -0.41790909800E+03  0.60900478759E+03  0.50400001928E-02 0.  1.
</event>
<event>
 5   0  0.4243516E-04  0.9006975E+03  0.7818609E-02  0.9424710E-01
        2   -1    0    0  501    0  0.00000000000E+00  0.00000000000E+00  0.48715902419E+03  0.48715902419E+03  0.25500000920E-02 0. -1.
       -2   -1    0    0    0  501  0.00000000000E+00  0.00000000000E+00 -0.41631992157E+03  0.41631992158E+03  0.25500000920E-02 0.  1.
    10030    2    1    2    0    0  0.00000000000E+00  0.00000000000E+00  0.70839102615E+02  0.90347894577E+03  0.90069752247E+03 0.  0.
        1    1    3    3  502    0 -0.13121687174E+03 -0.36292700086E+03 -0.19741819723E+03  0.43348335608E+03  0.50400001928E-02 0. -1.
       -1    1    3    3    0  502  0.13121687174E+03  0.36292700086E+03  0.26825729984E+03  0.46999558969E+03  0.50400001928E-02 0.  1.
</event>
<event>
 5   0  0.4033144E-04  0.8994700E+03  0.7818609E-02  0.9426244E-01
       -2   -1    0    0    0  501  0.00000000000E+00  0.00000000000E+00  0.46555367381E+03  0.46555367382E+03  0.25500000920E-02 0.  1.
        2   -1    0    0  501    0  0.00000000000E+00  0.00000000000E+00 -0.43445383059E+03  0.43445383060E+03  0.25500000920E-02 0. -1.
    10030    2    1    2    0    0  0.00000000000E+00  0.00000000000E+00  0.31099843215E+02  0.90000750442E+03  0.89947001493E+03 0.  0.
        4    1    3    3  502    0 -0.32470360869E+03  0.26872424470E+03 -0.14143491018E+03  0.44457912671E+03  0.12699999809E+01 0. -1.
       -4    1    3    3    0  502  0.32470360869E+03 -0.26872424470E+03  0.17253475340E+03  0.45542837771E+03  0.12699999809E+01 0.  1.
</event>
<event>
 5   0  0.3959804E-04  0.9001043E+03  0.7818609E-02  0.9425451E-01
       -2   -1    0    0    0  501  0.00000000000E+00  0.00000000000E+00  0.30613658711E+03  0.30613658712E+03  0.25500000920E-02 0. -1.
        2   -1    0    0  501    0  0.00000000000E+00  0.00000000000E+00 -0.66162274683E+03  0.66162274684E+03  0.25500000920E-02 0.  1.
    10030    2    1    2    0    0  0.00000000000E+00  0.00000000000E+00 -0.35548615973E+03  0.96775933395E+03  0.90010428212E+03 0.  0.
        5    1    3    3  502    0  0.32259052545E+02  0.33169360597E+03  0.14741799902E+03  0.36443854234E+03  0.46999998093E+01 0. -1.
       -5    1    3    3    0  502 -0.32259052545E+02 -0.33169360597E+03 -0.50290415874E+03  0.60332079161E+03  0.46999998093E+01 0.  1.
</event>
<event>
 5   0  0.4243516E-04  0.9002032E+03  0.7818609E-02  0.9425327E-01
        2   -1    0    0  501    0  0.00000000000E+00  0.00000000000E+00  0.70697492866E+03  0.70697492867E+03  0.25500000920E-02 0. -1.
       -2   -1    0    0    0  501  0.00000000000E+00  0.00000000000E+00 -0.28656103062E+03  0.28656103063E+03  0.25500000920E-02 0.  1.
    10030    2    1    2    0    0  0.00000000000E+00  0.00000000000E+00  0.42041389804E+03  0.99353595929E+03  0.90020323080E+03 0.  0.
        1    1    3    3  502    0  0.30214283533E+03 -0.33013484060E+03  0.26327728046E+03  0.51922464536E+03  0.50400001928E-02 0. -1.
       -1    1    3    3    0  502 -0.30214283533E+03  0.33013484060E+03  0.15713661758E+03  0.47431131393E+03  0.50400001928E-02 0.  1.
</event>
<event>
 5   0  0.3959804E-04  0.8999844E+03  0.7818609E-02  0.9425601E-01
       -2   -1    0    0    0  501  0.00000000000E+00  0.00000000000E+00  0.32677890150E+03  0.32677890151E+03  0.25500000920E-02 0. -1.
        2   -1    0    0  501    0  0.00000000000E+00  0.00000000000E+00 -0.61966352411E+03  0.61966352412E+03  0.25500000920E-02 0.  1.
    10030    2    1    2    0    0  0.00000000000E+00  0.00000000000E+00 -0.29288462262E+03  0.94644242563E+03  0.89998436812E+03 0.  0.
        5    1    3    3  502    0 -0.18015537412E+03  0.21066046142E+03 -0.51919274952E+03  0.58857199219E+03  0.46999998093E+01 0.  1.
       -5    1    3    3    0  502  0.18015537412E+03 -0.21066046142E+03  0.22630812690E+03  0.35787043344E+03  0.46999998093E+01 0. -1.
</event>
<event>
 5   0  0.4243516E-04  0.9004161E+03  0.7818609E-02  0.9425061E-01
       -2   -1    0    0    0  501  0.00000000000E+00  0.00000000000E+00  0.20352586646E+03  0.20352586648E+03  0.25500000920E-02 0. -1.
        2   -1    0    0  501    0  0.00000000000E+00  0.00000000000E+00 -0.99587965787E+03  0.99587965787E+03  0.25500000920E-02 0.  1.
    10030    2    1    2    0    0  0.00000000000E+00  0.00000000000E+00 -0.79235379141E+03  0.11994055243E+04  0.90041605998E+03 0.  0.
        1    1    3    3  502    0 -0.10975754438E+03 -0.42650102927E+03 -0.52068984240E+03  0.68195876599E+03  0.50400001928E-02 0.  1.
       -1    1    3    3    0  502  0.10975754438E+03  0.42650102927E+03 -0.27166394901E+03  0.51744675835E+03  0.50400001928E-02 0. -1.
</event>
<event>
 5   0  0.2351435E-04  0.8995716E+03  0.7818609E-02  0.9426117E-01
        1   -1    0    0  501    0  0.00000000000E+00  0.00000000000E+00  0.11566430268E+04  0.11566430268E+04  0.50400001928E-02 0.  1.
       -1   -1    0    0    0  501  0.00000000000E+00  0.00000000000E+00 -0.17490898442E+03  0.17490898449E+03  0.50400001928E-02 0. -1.
    10030    2    1    2    0    0  0.00000000000E+00  0.00000000000E+00  0.98173404237E+03  0.13315520113E+04  0.89957158072E+03 0.  0.
        4    1    3    3  502    0 -0.18101436361E+02  0.21047740826E+03 -0.96902303704E+02  0.23242218213E+03  0.12699999809E+01 0. -1.
       -4    1    3    3    0  502  0.18101436361E+02 -0.21047740826E+03  0.10786363461E+04  0.10991298292E+04  0.12699999809E+01 0.  1.
</event>
<event>
 5   0  0.2450427E-04  0.8998108E+03  0.7818609E-02  0.9425818E-01
        1   -1    0    0  501    0  0.00000000000E+00  0.00000000000E+00  0.23558203582E+04  0.23558203582E+04  0.50400001928E-02 0.  1.
       -1   -1    0    0    0  501  0.00000000000E+00  0.00000000000E+00 -0.85921174381E+02  0.85921174529E+02  0.50400001928E-02 0. -1.
    10030    2    1    2    0    0  0.00000000000E+00  0.00000000000E+00  0.22698991838E+04  0.24417415327E+04  0.89981076231E+03 0.  0.
        3    1    3    3  502    0 -0.25444024753E+03 -0.33712896259E+03  0.15555082265E+04  0.16118317623E+04  0.10100000352E+00 0.  1.
       -3    1    3    3    0  502  0.25444024753E+03  0.33712896259E+03  0.71439095726E+03  0.82990977039E+03  0.10100000352E+00 0. -1.
</event>
<event>
 5   0  0.4243516E-04  0.9034511E+03  0.7818609E-02  0.9421278E-01
        2   -1    0    0  501    0  0.00000000000E+00  0.00000000000E+00  0.98738213268E+03  0.98738213268E+03  0.25500000920E-02 0. -1.
       -2   -1    0    0    0  501  0.00000000000E+00  0.00000000000E+00 -0.20666361479E+03  0.20666361481E+03  0.25500000920E-02 0.  1.
    10030    2    1    2    0    0  0.00000000000E+00  0.00000000000E+00  0.78071851789E+03  0.11940457475E+04  0.90345107390E+03 0.  0.
        1    1    3    3  502    0 -0.32902252222E+03 -0.30948763440E+03  0.38482334039E+03  0.59340325186E+03  0.50400001928E-02 0. -1.
       -1    1    3    3    0  502  0.32902252222E+03  0.30948763440E+03  0.39589517749E+03  0.60064249564E+03  0.50400001928E-02 0.  1.
</event>
<event>
 5   0  0.2332791E-04  0.8999943E+03  0.7818609E-02  0.9425589E-01
        1   -1    0    0  501    0  0.00000000000E+00  0.00000000000E+00  0.19777534307E+04  0.19777534307E+04  0.50400001928E-02 0. -1.
       -1   -1    0    0    0  501  0.00000000000E+00  0.00000000000E+00 -0.10238760079E+03  0.10238760092E+03  0.50400001928E-02 0.  1.
    10030    2    1    2    0    0  0.00000000000E+00  0.00000000000E+00  0.18753658299E+04  0.20801410316E+04  0.89999428635E+03 0.  0.
        2    1    3    3  502    0 -0.37995647277E+03 -0.16190697034E+03  0.52476700670E+03  0.66780326413E+03  0.25500000920E-02 0.  1.
       -2    1    3    3    0  502  0.37995647277E+03  0.16190697034E+03  0.13505988232E+04  0.14123377675E+04  0.25500000920E-02 0. -1.
</event>
<event>
 5   0  0.4236284E-04  0.8999280E+03  0.7818609E-02  0.9425671E-01
       -2   -1    0    0    0  501  0.00000000000E+00  0.00000000000E+00  0.15238084087E+03  0.15238084089E+03  0.25500000920E-02 0.  1.
        2   -1    0    0  501    0  0.00000000000E+00  0.00000000000E+00 -0.13286946794E+04  0.13286946794E+04  0.25500000920E-02 0. -1.
    10030    2    1    2    0    0  0.00000000000E+00  0.00000000000E+00 -0.11763138385E+04  0.14810755203E+04  0.89992802496E+03 0.  0.
        2    1    3    3  502    0 -0.23702455808E+03 -0.23800761919E+03 -0.10808979907E+04  0.11318872445E+04  0.25500000920E-02 0. -1.
       -2    1    3    3    0  502  0.23702455808E+03  0.23800761919E+03 -0.95415847803E+02  0.34918827579E+03  0.25500000920E-02 0.  1.
</event>
<event>
 5   0  0.2351435E-04  0.9001477E+03  0.7818609E-02  0.9425397E-01
       -1   -1    0    0    0  501  0.00000000000E+00  0.00000000000E+00  0.14836460875E+03  0.14836460883E+03  0.50400001928E-02 0.  1.
        1   -1    0    0  501    0  0.00000000000E+00  0.00000000000E+00 -0.13653286832E+04  0.13653286832E+04  0.50400001928E-02 0. -1.
    10030    2    1    2    0    0  0.00000000000E+00  0.00000000000E+00 -0.12169640745E+04  0.15136932921E+04  0.90014766781E+03 0.  0.
        4    1    3    3  502    0  0.19288081452E+03  0.14192677005E+03 -0.12493009016E+04  0.12720458217E+04  0.12699999809E+01 0. -1.
       -4    1    3    3    0  502 -0.19288081452E+03 -0.14192677005E+03  0.32336827152E+02  0.24164747041E+03  0.12699999809E+01 0.  1.
</event>
<event>
 5   0  0.3959804E-04  0.9001612E+03  0.7818609E-02  0.9425380E-01
       -2   -1    0    0    0  501  0.00000000000E+00  0.00000000000E+00  0.22209515357E+03  0.22209515358E+03  0.25500000920E-02 0. -1.
        2   -1    0    0  501    0  0.00000000000E+00  0.00000000000E+00 -0.91209795985E+03  0.91209795985E+03  0.25500000920E-02 0.  1.
    10030    2    1    2    0    0  0.00000000000E+00  0.00000000000E+00 -0.69000280628E+03  0.11341931134E+04  0.90016117773E+03 0.  0.
        5    1    3    3  502    0 -0.84592446158E+01  0.34487182878E+03  0.19181845375E+02  0.34554040327E+03  0.46999998093E+01 0. -1.
       -5    1    3    3    0  502  0.84592446158E+01 -0.34487182878E+03 -0.70918465165E+03  0.78865271016E+03  0.46999998093E+01 0.  1.
</event>
<event>
 5   0  0.2351435E-04  0.9010661E+03  0.7818609E-02  0.9424250E-01
        1   -1    0    0  501    0  0.00000000000E+00  0.00000000000E+00  0.52739777050E+03  0.52739777052E+03  0.50400001928E-02 0. -1.
       -1   -1    0    0    0  501  0.00000000000E+00  0.00000000000E+00 -0.38487086486E+03  0.38487086489E+03  0.50400001928E-02 0.  1.
    10030    2    1    2    0    0  0.00000000000E+00  0.00000000000E+00  0.14252690564E+03  0.91226863541E+03  0.90106611540E+03 0.  0.
        4    1    3    3  502    0  0.28647621177E+03  0.43352390609E+02  0.42056055568E+03  0.51070622042E+03  0.12699999809E+01 0. -1.
       -4    1    3    3    0  502 -0.28647621177E+03 -0.43352390609E+02 -0.27803365004E+03  0.40156241499E+03  0.12699999809E+01 0.  1.
</event>
<event>
 5   0  0.4243516E-04  0.9001059E+03  0.7818609E-02  0.9425449E-01
        2   -1    0    0  501    0  0.00000000000E+00  0.00000000000E+00  0.70190298549E+03  0.70190298549E+03  0.25500000920E-02 0. -1.
       -2   -1    0    0    0  501  0.00000000000E+00  0.00000000000E+00 -0.28856929190E+03  0.28856929191E+03  0.25500000920E-02 0.  1.
    10030    2    1    2    0    0  0.00000000000E+00  0.00000000000E+00  0.41333369359E+03  0.99047227741E+03  0.90010587714E+03 0.  0.
        1    1    3    3  502    0 -0.17957251182E+03 -0.17683771129E+03  0.61696791878E+03  0.66645875789E+03  0.50400001928E-02 0. -1.
       -1    1    3    3    0  502  0.17957251182E+03  0.17683771129E+03 -0.20363422519E+03  0.32401351952E+03  0.50400001928E-02 0.  1.
</event>
<event>
 5   0  0.2332791E-04  0.8997979E+03  0.7818609E-02  0.9425834E-01
        1   -1    0    0  501    0  0.00000000000E+00  0.00000000000E+00  0.12298346401E+04  0.12298346401E+04  0.50400001928E-02 0.  1.
       -1   -1    0    0    0  501  0.00000000000E+00  0.00000000000E+00 -0.16458233446E+03  0.16458233454E+03  0.50400001928E-02 0. -1.
    10030    2    1    2    0    0  0.00000000000E+00  0.00000000000E+00  0.10652523056E+04  0.13944169746E+04  0.89979787980E+03 0.  0.
        2    1    3    3  502    0  0.27335699165E+03 -0.27716055592E+03  0.18311107323E+03  0.43019958600E+03  0.25500000920E-02 0. -1.
       -2    1    3    3    0  502 -0.27335699165E+03  0.27716055592E+03  0.88214123238E+03  0.96421738862E+03  0.25500000920E-02 0.  1.
</event>
<event>
 5   0  0.2332791E-04  0.9001853E+03  0.7818609E-02  0.9425350E-01
        1   -1    0    0  501    0  0.00000000000E+00  0.00000000000E+00  0.91559067125E+03  0.91559067127E+03  0.50400001928E-02 0. -1.
       -1   -1    0    0    0  501  0.00000000000E+00  0.00000000000E+00 -0.22125980777E+03  0.22125980783E+03  0.50400001928E-02 0.  1.
    10030    2    1    2    0    0  0.00000000000E+00  0.00000000000E+00  0.69433086348E+03  0.11368504791E+04  0.90018534971E+03 0.  0.
        2    1    3    3  502    0 -0.33016294649E+03  0.25291430954E+03  0.12984925540E+03  0.43569949316E+03  0.25500000920E-02 0.  1.
       -2    1    3    3    0  502  0.33016294649E+03 -0.25291430954E+03  0.56448160808E+03  0.70115098594E+03  0.25500000920E-02 0. -1.
</event>
<event>
 5   0  0.2450427E-04  0.8999817E+03  0.7818609E-02  0.9425604E-01
       -1   -1    0    0    0  501  0.00000000000E+00  0.00000000000E+00  0.41497198621E+03  0.41497198624E+03  0.50400001928E-02 0. -1.
        1   -1    0    0  501    0  0.00000000000E+00  0.00000000000E+00 -0.48796490694E+03  0.48796490697E+03  0.50400001928E-02 0.  1.
    10030    2    1    2    0    0  0.00000000000E+00  0.00000000000E+00 -0.72992920734E+02  0.90293689320E+03  0.89998170350E+03 0.  0.
        3    1    3    3  502    0 -0.18539147936E+03 -0.71648831901E+02  0.36854716412E+03  0.41872494326E+03  0.10100000352E+00 0. -1.
       -3    1    3    3    0  502  0.18539147936E+03  0.71648831901E+02 -0.44154008485E+03  0.48421194994E+03  0.10100000352E+00 0.  1.
</event>
<event>
 5   0  0.2356918E-04  0.9013666E+03  0.7818609E-02  0.9423875E-01
       -1   -1    0    0    0  501  0.00000000000E+00  0.00000000000E+00  0.61002968233E+03  0.61002968235E+03  0.50400001928E-02 0.  1.
        1   -1    0    0  501    0  0.00000000000E+00  0.00000000000E+00 -0.33295992128E+03  0.33295992132E+03  0.50400001928E-02 0. -1.
    10030    2    1    2    0    0  0.00000000000E+00  0.00000000000E+00  0.27706976105E+03  0.94298960367E+03  0.90136659587E+03 0.  0.
        5    1    3    3  502    0  0.38857337256E+02 -0.26946572373E+03 -0.23717500084E+03  0.36110350309E+03  0.46999998093E+01 0. -1.
       -5    1    3    3    0  502 -0.38857337256E+02  0.26946572373E+03  0.51424476189E+03  0.58188610058E+03  0.46999998093E+01 0.  1.
</event>
<event>
 5   0  0.2351435E-04  0.8986195E+03  0.7818609E-02  0.9427309E-01
        1   -1    0    0  501    0  0.00000000000E+00  0.00000000000E+00  0.97061975312E+03  0.97061975314E+03  0.50400001928E-02 0.  1.
       -1   -1    0    0    0  501  0.00000000000E+00  0.00000000000E+00 -0.20799006398E+03  0.20799006404E+03  0.50400001928E-02 0. -1.
    10030    2    1    2    0    0  0.00000000000E+00  0.00000000000E+00  0.76262968914E+03  0.11786098172E+04  0.89861952927E+03 0.  0.
        4    1    3    3  502    0  0.10376695572E+03 -0.79444196365E+02 -0.18250926924E+03  0.22447763295E+03  0.12699999809E+01 0. -1.
       -4    1    3    3    0  502 -0.10376695572E+03  0.79444196365E+02  0.94513895838E+03  0.95413218423E+03  0.12699999809E+01 0.  1.
</event>
<event>
 5   0  0.4033144E-04  0.9053173E+03  0.7818609E-02  0.9418959E-01
       -2   -1    0    0    0  501  0.00000000000E+00  0.00000000000E+00  0.12963994187E+04  0.12963994187E+04  0.25500000920E-02 0.  1.
        2   -1    0    0  501    0  0.00000000000E+00  0.00000000000E+00 -0.15805302798E+03  0.15805302800E+03  0.25500000920E-02 0. -1.
    10030    2    1    2    0    0  0.00000000000E+00  0.00000000000E+00  0.11383463907E+04  0.14544524467E+04  0.90531730042E+03 0.  0.
        4    1    3    3  502    0 -0.66604967692E+02  0.24066115452E+03  0.11757328566E+04  0.12019581423E+04  0.12699999809E+01 0.  1.
       -4    1    3    3    0  502  0.66604967692E+02 -0.24066115452E+03 -0.37386465825E+02  0.25249430438E+03  0.12699999809E+01 0. -1.
</event>
<event>
 5   0  0.4243516E-04  0.8996359E+03  0.7818609E-02  0.9426037E-01
        2   -1    0    0  501    0  0.00000000000E+00  0.00000000000E+00  0.15559418291E+04  0.15559418291E+04  0.25500000920E-02 0.  1.
       -2   -1    0    0    0  501  0.00000000000E+00  0.00000000000E+00 -0.13004098385E+03  0.13004098388E+03  0.25500000920E-02 0. -1.
    10030    2    1    2    0    0  0.00000000000E+00  0.00000000000E+00  0.14259008453E+04  0.16859828130E+04  0.89963594036E+03 0.  0.
        1    1    3    3  502    0 -0.18320069404E+03 -0.26493269960E+03  0.12452640178E+03  0.34533846351E+03  0.50400001928E-02 0. -1.
       -1    1    3    3    0  502  0.18320069404E+03  0.26493269960E+03  0.13013744435E+04  0.13406443495E+04  0.50400001928E-02 0.  1.
</event>
<event>
 5   0  0.3959804E-04  0.9003906E+03  0.7818609E-02  0.9425093E-01
       -2   -1    0    0    0  501  0.00000000000E+00  0.00000000000E+00  0.26681144177E+03  0.26681144178E+03  0.25500000920E-02 0.  1.
        2   -1    0    0  501    0  0.00000000000E+00  0.00000000000E+00 -0.75962179914E+03  0.75962179914E+03  0.25500000920E-02 0. -1.
    10030    2    1    2    0    0  0.00000000000E+00  0.00000000000E+00 -0.49281035737E+03  0.10264332409E+04  0.90039055401E+03 0.  0.
        5    1    3    3  502    0  0.10844904669E+03  0.24642833531E+03 -0.65769489653E+03  0.71068473115E+03  0.46999998093E+01 0. -1.
       -5    1    3    3    0  502 -0.10844904669E+03 -0.24642833531E+03  0.16488453917E+03  0.31574850977E+03  0.46999998093E+01 0.  1.
</event>
<event>
 5   0  0.4236284E-04  0.8990578E+03  0.7818609E-02  0.9426760E-01
        2   -1    0    0  501    0  0.00000000000E+00  0.00000000000E+00  0.76714715798E+03  0.76714715799E+03  0.25500000920E-02 0. -1.
       -2   -1    0    0    0  501  0.00000000000E+00  0.00000000000E+00 -0.26341263014E+03  0.26341263015E+03  0.25500000920E-02 0.  1.
    10030    2    1    2    0    0  0.00000000000E+00  0.00000000000E+00  0.50373452785E+03  0.10305597881E+04  0.89905784151E+03 0.  0.
        2    1    3    3  502    0  0.88380951047E+01 -0.40040610806E+03  0.17868589524E+02  0.40090204513E+03  0.25500000920E-02 0.  1.
       -2    1    3    3    0  502 -0.88380951047E+01  0.40040610806E+03  0.48586593832E+03  0.62965774300E+03  0.25500000920E-02 0. -1.
</event>
<event>
 5   0  0.2332791E-04  0.8999096E+03  0.7818609E-02  0.9425694E-01
       -1   -1    0    0    0  501  0.00000000000E+00  0.00000000000E+00  0.28632789374E+03  0.28632789378E+03  0.50400001928E-02 0. -1.
        1   -1    0    0  501    0  0.00000000000E+00  0.00000000000E+00 -0.70708904055E+03  0.70708904056E+03  0.50400001928E-02 0.  1.
    10030    2    1    2    0    0  0.00000000000E+00  0.00000000000E+00 -0.42076114681E+03  0.99341693435E+03  0.89990958589E+03 0.  0.
        2    1    3    3  502    0 -0.24585610548E+02  0.24284818917E+03  0.20689006369E+03  0.31997373906E+03  0.25500000920E-02 0. -1.
       -2    1    3    3    0  502  0.24585610548E+02 -0.24284818917E+03 -0.62765121050E+03  0.67344319529E+03  0.25500000920E-02 0.  1.
</event>
<event>
 5   0  0.2308362E-04  0.9002196E+03  0.7818609E-02  0.9425307E-01
        1   -1    0    0  501    0  0.00000000000E+00  0.00000000000E+00  0.68385285285E+03  0.68385285287E+03  0.50400001928E-02 0.  1.
       -1   -1    0    0    0  501  0.00000000000E+00  0.00000000000E+00 -0.29626085963E+03  0.29626085967E+03  0.50400001928E-02 0. -1.
    10030    2    1    2    0    0  0.00000000000E+00  0.00000000000E+00  0.38759199322E+03  0.98011371254E+03  0.90021960448E+03 0.  0.
        1    1    3    3  502    0  0.35078394298E+03 -0.15553534274E+03 -0.62368562435E+02  0.38875500653E+03  0.50400001928E-02 0. -1.
       -1    1    3    3    0  502 -0.35078394298E+03  0.15553534274E+03  0.44996055566E+03  0.59135870601E+03  0.50400001928E-02 0.  1.
</event>
<event>
 5   0  0.3959804E-04  0.9004068E+03  0.7818609E-02  0.9425073E-01
        2   -1    0    0  501    0  0.00000000000E+00  0.00000000000E+00  0.11171601811E+04  0.11171601811E+04  0.25500000920E-02 0. -1.
       -2   -1    0    0    0  501  0.00000000000E+00  0.00000000000E+00 -0.18142707977E+03  0.18142707979E+03  0.25500000920E-02 0.  1.
    10030    2    1    2    0    0  0.00000000000E+00  0.00000000000E+00  0.93573310128E+03  0.12985872608E+04  0.90040681761E+03 0.  0.
        5    1    3    3  502    0 -0.20852116060E+03  0.36810787880E+03  0.24594911219E+03  0.48938485943E+03  0.46999998093E+01 0.  1.
       -5    1    3    3    0  502  0.20852116060E+03 -0.36810787880E+03  0.68978398909E+03  0.80920240142E+03  0.46999998093E+01 0. -1.
</event>
<event>
 5   0  0.4243516E-04  0.9006515E+03  0.7818609E-02  0.9424767E-01
        2   -1    0    0  501    0  0.00000000000E+00  0.00000000000E+00  0.22208359645E+04  0.22208359645E+04  0.25500000920E-02 0.  1.
       -2   -1    0    0    0  501  0.00000000000E+00  0.00000000000E+00 -0.91313933565E+02  0.91313933601E+02  0.25500000920E-02 0. -1.
    10030    2    1    2    0    0  0.00000000000E+00  0.00000000000E+00  0.21295220310E+04  0.23121498981E+04  0.90065147037E+03 0.  0.
        1    1    3    3  502    0 -0.25113494560E+03 -0.37241964358E+03  0.11470762584E+04  0.12318884262E+04  0.50400001928E-02 0.  1.
       -1    1    3    3    0  502  0.25113494560E+03  0.37241964358E+03  0.98244577256E+03  0.10802614720E+04  0.50400001928E-02 0. -1.
</event>
<event>
 5   0  0.2356918E-04  0.9000729E+03  0.7818609E-02  0.9425490E-01
       -1   -1    0    0    0  501  0.00000000000E+00  0.00000000000E+00  0.23759977097E+03  0.23759977103E+03  0.50400001928E-02 0.  1.
        1   -1    0    0  501    0  0.00000000000E+00  0.00000000000E+00 -0.85241166607E+03  0.85241166608E+03  0.50400001928E-02 0. -1.
    10030    2    1    2    0    0  0.00000000000E+00  0.00000000000E+00 -0.61481189509E+03  0.10900114371E+04  0.90007292298E+03 0.  0.
        5    1    3    3  502    0  0.43409594399E+03 -0.55865887405E+01 -0.16390973455E+03  0.46406787180E+03  0.46999998093E+01 0.  1.
       -5    1    3    3    0  502 -0.43409594399E+03  0.55865887405E+01 -0.45090216054E+03  0.62594356530E+03  0.46999998093E+01 0. -1.
</event>
<event>
 5   0  0.2450427E-04  0.8997571E+03  0.7818609E-02  0.9425885E-01
        1   -1    0    0  501    0  0.00000000000E+00  0.00000000000E+00  0.82635458493E+03  0.82635458495E+03  0.50400001928E-02 0. -1.
       -1   -1    0    0    0  501  0.00000000000E+00  0.00000000000E+00 -0.24491993971E+03  0.24491993976E+03  0.50400001928E-02 0.  1.
    10030    2    1    2    0    0  0.00000000000E+00  0.00000000000E+00  0.58143464523E+03  0.10712745247E+04  0.89975711201E+03 0.  0.
        3    1    3    3  502    0  0.87444161338E+02 -0.31410144171E+02 -0.23337149342E+03  0.25118786326E+03  0.10100000352E+00 0.  1.
       -3    1    3    3    0  502 -0.87444161338E+02  0.31410144171E+02  0.81480613864E+03  0.82008666145E+03  0.10100000352E+00 0. -1.
</event>
<event>
 5   0  0.3959804E-04  0.8984129E+03  0.7818609E-02  0.9427568E-01
        2   -1    0    0  501    0  0.00000000000E+00  0.00000000000E+00  0.24385674008E+03  0.24385674009E+03  0.25500000920E-02 0.  1.
       -2   -1    0    0    0  501  0.00000000000E+00  0.00000000000E+00 -0.82747944613E+03  0.82747944613E+03  0.25500000920E-02 0. -1.
    10030    2    1    2    0    0  0.00000000000E+00  0.00000000000E+00 -0.58362270605E+03  0.10713361862E+04  0.89841291225E+03 0.  0.
        5    1    3    3  502    0  0.25372106310E+03  0.32697495794E+03 -0.83631649853E+02  0.42225980608E+03  0.46999998093E+01 0.  1.
       -5    1    3    3    0  502 -0.25372106310E+03 -0.32697495794E+03 -0.49999105620E+03  0.64907638014E+03  0.46999998093E+01 0. -1.
</event>
<event>
 5   0  0.2450427E-04  0.8992358E+03  0.7818609E-02  0.9426537E-01
       -1   -1    0    0    0  501  0.00000000000E+00  0.00000000000E+00  0.40942950762E+03  0.40942950765E+03  0.50400001928E-02 0.  1.
        1   -1    0    0  501    0  0.00000000000E+00  0.00000000000E+00 -0.49375110649E+03  0.49375110652E+03  0.50400001928E-02 0. -1.
    10030    2    1    2    0    0  0.00000000000E+00  0.00000000000E+00 -0.84321598868E+02  0.90318061417E+03  0.89923583657E+03 0.  0.
        3    1    3    3  502    0  0.60952453608E+02  0.11836373148E+03  0.38917754288E+03  0.41132024581E+03  0.10100000352E+00 0.  1.
       -3    1    3    3    0  502 -0.60952453608E+02 -0.11836373148E+03 -0.47349914175E+03  0.49186036836E+03  0.10100000352E+00 0. -1.
</event>
<event>
 5   0  0.3959804E-04  0.9019504E+03  0.7818609E-02  0.9423147E-01
        2   -1    0    0  501    0  0.00000000000E+00  0.00000000000E+00  0.12719842713E+04  0.12719842713E+04  0.25500000920E-02 0. -1.
       -2   -1    0    0    0  501  0.00000000000E+00  0.00000000000E+00 -0.15989082051E+03  0.15989082053E+03  0.25500000920E-02 0.  1.
    10030    2    1    2    0    0  0.00000000000E+00  0.00000000000E+00  0.11120934508E+04  0.14318750919E+04  0.90195035081E+03 0.  0.
        5    1    3    3  502    0 -0.37858359851E+03  0.13541957458E+03  0.88020085427E+03  0.96769811206E+03  0.46999998093E+01 0. -1.
       -5    1    3    3    0  502  0.37858359851E+03 -0.13541957458E+03  0.23189259654E+03  0.46417697979E+03  0.46999998093E+01 0.  1.
</event>
<event>
 5   0  0.2332791E-04  0.9005415E+03  0.7818609E-02  0.9424905E-01
       -1   -1    0    0    0  501  0.00000000000E+00  0.00000000000E+00  0.81776013611E+02  0.81776013766E+02  0.50400001928E-02 0. -1.
        1   -1    0    0  501    0  0.00000000000E+00  0.00000000000E+00 -0.24792569955E+04  0.24792569955E+04  0.50400001928E-02 0.  1.
    10030    2    1    2    0    0  0.00000000000E+00  0.00000000000E+00 -0.23974809819E+04  0.25610330093E+04  0.90054151268E+03 0.  0.
        2    1    3    3  502    0  0.12951177529E+03 -0.42518627834E+03 -0.99392017676E+03  0.10887763724E+04  0.25500000920E-02 0.  1.
       -2    1    3    3    0  502 -0.12951177529E+03  0.42518627834E+03 -0.14035608051E+04  0.14722566369E+04  0.25500000920E-02 0. -1.
</event>
<event>
 5   0  0.4243516E-04  0.9001297E+03  0.7818609E-02  0.9425419E-01
       -2   -1    0    0    0  501  0.00000000000E+00  0.00000000000E+00  0.32159315761E+03  0.32159315762E+03  0.25500000920E-02 0.  1.
        2   -1    0    0  501    0  0.00000000000E+00  0.00000000000E+00 -0.62985910507E+03  0.62985910508E+03  0.25500000920E-02 0. -1.
    10030    2    1    2    0    0  0.00000000000E+00  0.00000000000E+00 -0.30826594747E+03  0.95145226269E+03  0.90012972055E+03 0.  0.
        1    1    3    3  502    0 -0.13088916396E+02 -0.12141466256E+03  0.30374633993E+03  0.32737544053E+03  0.50400001928E-02 0.  1.
       -1    1    3    3    0  502  0.13088916396E+02  0.12141466256E+03 -0.61201228739E+03  0.62407682216E+03  0.50400001928E-02 0. -1.
</event>
<event>
 5   0  0.2332791E-04  0.9000745E+03  0.7818609E-02  0.9425488E-01
        1   -1    0    0  501    0  0.00000000000E+00  0.00000000000E+00  0.93487784216E+03  0.93487784217E+03  0.50400001928E-02 0. -1.
       -1   -1    0    0    0  501  0.00000000000E+00  0.00000000000E+00 -0.21664169281E+03  0.21664169287E+03  0.50400001928E-02 0.  1.
    10030    2    1    2    0    0  0.00000000000E+00  0.00000000000E+00  0.71823614935E+03  0.11515195350E+04  0.90007448212E+03 0.  0.
        2    1    3    3  502    0 -0.22749952928E+03 -0.38676559018E+03  0.40324878650E+03  0.60328537310E+03  0.25500000920E-02 0.  1.
       -2    1    3    3    0  502  0.22749952928E+03  0.38676559018E+03  0.31498736284E+03  0.54823416195E+03  0.25500000920E-02 0. -1.
</event>
<event>
 5   0  0.4033144E-04  0.8998310E+03  0.7818609E-02  0.9425793E-01
       -2   -1    0    0    0  501  0.00000000000E+00  0.00000000000E+00  0.50743457406E+03  0.50743457407E+03  0.25500000920E-02 0.  1.
        2   -1    0    0  501    0  0.00000000000E+00  0.00000000000E+00 -0.39891637209E+03  0.39891637210E+03  0.25500000920E-02 0. -1.
    10030    2    1    2    0    0  0.00000000000E+00  0.00000000000E+00  0.10851820198E+03  0.90635094617E+03  0.89983100494E+03 0.  0.
        4    1    3    3  502    0 -0.44608856877E+03  0.24185183967E+02  0.55852241324E+00  0.44674585522E+03  0.12699999809E+01 0.  1.
       -4    1    3    3    0  502  0.44608856877E+03 -0.24185183967E+02  0.10795967956E+03  0.45960509094E+03  0.12699999809E+01 0. -1.
</event>
<event>
 5   0  0.2351435E-04  0.9004911E+03  0.7818609E-02  0.9424968E-01
       -1   -1    0    0    0  501  0.00000000000E+00  0.00000000000E+00  0.35649859833E+03  0.35649859836E+03  0.50400001928E-02 0.  1.
        1   -1    0    0  501    0  0.00000000000E+00  0.00000000000E+00 -0.56864478500E+03  0.56864478503E+03  0.50400001928E-02 0. -1.
    10030    2    1    2    0    0  0.00000000000E+00  0.00000000000E+00 -0.21214618668E+03  0.92514338339E+03  0.90049113006E+03 0.  0.
        4    1    3    3  502    0 -0.25407638301E+02 -0.19875567297E+02 -0.56745420074E+03  0.56837177014E+03  0.12699999809E+01 0. -1.
       -4    1    3    3    0  502  0.25407638301E+02  0.19875567297E+02  0.35530801407E+03  0.35677161325E+03  0.12699999809E+01 0.  1.
</event>
<event>
 5   0  0.1596250E-04  0.8996587E+03  0.7818609E-02  0.9426008E-01
       -4   -1    0    0    0  501  0.00000000000E+00  0.00000000000E+00  0.35758326254E+03  0.35758551781E+03  0.12699999809E+01 0. -1.
        4   -1    0    0  501    0  0.00000000000E+00  0.00000000000E+00 -0.56586747556E+03  0.56586890071E+03  0.12699999809E+01 0.  1.
    10030    2    1    2    0    0  0.00000000000E+00  0.00000000000E+00 -0.20828421302E+03  0.92345441852E+03  0.89965868511E+03 0.  0.
        3    1    3    3  502    0 -0.25464465133E+03 -0.29726478111E+03 -0.33167195412E+03  0.51304633698E+03  0.10100000352E+00 0.  1.
       -3    1    3    3    0  502  0.25464465133E+03  0.29726478111E+03  0.12338774111E+03  0.41040808154E+03  0.10100000352E+00 0. -1.
</event>
<event>
 5   0  0.2450427E-04  0.9002381E+03  0.7818609E-02  0.9425284E-01
       -1   -1    0    0    0  501  0.00000000000E+00  0.00000000000E+00  0.92034655649E+03  0.92034655651E+03  0.50400001928E-02 0. -1.
        1   -1    0    0  501    0  0.00000000000E+00  0.00000000000E+00 -0.22014224228E+03  0.22014224234E+03  0.50400001928E-02 0.  1.
    10030    2    1    2    0    0  0.00000000000E+00  0.00000000000E+00  0.70020431421E+03  0.11404887988E+04  0.90023808999E+03 0.  0.
        3    1    3    3  502    0  0.13619631604E+03  0.14596344892E+03  0.86119207436E+03  0.88402859912E+03  0.10100000352E+00 0. -1.
       -3    1    3    3    0  502 -0.13619631604E+03 -0.14596344892E+03 -0.16098776015E+03  0.25646019972E+03  0.10100000352E+00 0.  1.
</event>
<event>
 5   0  0.2332791E-04  0.8991687E+03  0.7818609E-02  0.9426621E-01
       -1   -1    0    0    0  501  0.00000000000E+00  0.00000000000E+00  0.18598938904E+03  0.18598938911E+03  0.50400001928E-02 0. -1.
        1   -1    0    0  501    0  0.00000000000E+00  0.00000000000E+00 -0.10867613012E+04  0.10867613012E+04  0.50400001928E-02 0.  1.
    10030    2    1    2    0    0  0.00000000000E+00  0.00000000000E+00 -0.90077191216E+03  0.12727506903E+04  0.89916866159E+03 0.  0.
        2    1    3    3  502    0 -0.18579766955E+03  0.22578347749E+03 -0.93378072969E+03  0.97849139182E+03  0.25500000920E-02 0.  1.
       -2    1    3    3    0  502  0.18579766955E+03 -0.22578347749E+03  0.33008817525E+02  0.29425929851E+03  0.25500000920E-02 0. -1.
</event>
<event>
 5   0  0.2450427E-04  0.8999227E+03  0.7818609E-02  0.9425678E-01
        1   -1    0    0  501    0  0.00000000000E+00  0.00000000000E+00  0.60609493068E+03  0.60609493070E+03  0.50400001928E-02 0.  1.
       -1   -1    0    0    0  501  0.00000000000E+00  0.00000000000E+00 -0.33404870213E+03  0.33404870217E+03  0.50400001928E-02 0. -1.
    10030    2    1    2    0    0  0.00000000000E+00  0.00000000000E+00  0.27204622855E+03  0.94014363287E+03  0.89992271888E+03 0.  0.
        3    1    3    3  502    0 -0.33826620283E+03 -0.27963088335E+03  0.23969421715E+03  0.50007077783E+03  0.10100000352E+00 0.  1.
       -3    1    3    3    0  502  0.33826620283E+03  0.27963088335E+03  0.32352011402E+02  0.44007285504E+03  0.10100000352E+00 0. -1.
</event>
<event>
 5   0  0.2356918E-04  0.8999527E+03  0.7818609E-02  0.9425641E-01
        1   -1    0    0  501    0  0.00000000000E+00  0.00000000000E+00  0.38718934934E+03  0.38718934937E+03  0.50400001928E-02 0.  1.
       -1   -1    0    0    0  501  0.00000000000E+00  0.00000000000E+00 -0.52294493663E+03  0.52294493666E+03  0.50400001928E-02 0. -1.
    10030    2    1    2    0    0  0.00000000000E+00  0.00000000000E+00 -0.13575558729E+03  0.91013428603E+03  0.89995268716E+03 0.  0.
        5    1    3    3  502    0  0.18072228288E+03 -0.32622991984E+01 -0.48458979773E+03  0.51722388594E+03  0.46999998093E+01 0. -1.
       -5    1    3    3    0  502 -0.18072228288E+03  0.32622991984E+01  0.34883421044E+03  0.39291040009E+03  0.46999998093E+01 0.  1.
</event>
<event>
 5   0  0.2356918E-04  0.8987414E+03  0.7818609E-02  0.9427156E-01
       -1   -1    0    0    0  501  0.00000000000E+00  0.00000000000E+00  0.28222040846E+03  0.28222040850E+03  0.50400001928E-02 0. -1.
        1   -1    0    0  501    0  0.00000000000E+00  0.00000000000E+00 -0.71551884962E+03  0.71551884964E+03  0.50400001928E-02 0.  1.
    10030    2    1    2    0    0  0.00000000000E+00  0.00000000000E+00 -0.43329844116E+03  0.99773925814E+03  0.89874139112E+03 0.  0.
        5    1    3    3  502    0  0.21745923976E+02 -0.31212825194E+02 -0.71370071837E+03  0.71472927117E+03  0.46999998093E+01 0.  1.
       -5    1    3    3    0  502 -0.21745923976E+02  0.31212825194E+02  0.28040227720E+03  0.28300998697E+03  0.46999998093E+01 0. -1.
</event>
<event>
 5   0  0.2356918E-04  0.9002186E+03  0.7818609E-02  0.9425308E-01
       -1   -1    0    0    0  501  0.00000000000E+00  0.00000000000E+00  0.34920041527E+03  0.34920041531E+03  0.50400001928E-02 0.  1.
        1   -1    0    0  501    0  0.00000000000E+00  0.00000000000E+00 -0.58017789936E+03  0.58017789939E+03  0.50400001928E-02 0. -1.
    10030    2    1    2    0    0  0.00000000000E+00  0.00000000000E+00 -0.23097748409E+03  0.92937831469E+03  0.90021855883E+03 0.  0.
        5    1    3    3  502    0  0.36149598489E+03 -0.26334440340E+03 -0.63389748476E+02  0.45174104540E+03  0.46999998093E+01 0. -1.
       -5    1    3    3    0  502 -0.36149598489E+03  0.26334440340E+03 -0.16758773562E+03  0.47763726929E+03  0.46999998093E+01 0.  1.
</event>
<event>
 5   0  0.4033144E-04  0.8998056E+03  0.7818609E-02  0.9425824E-01
       -2   -1    0    0    0  501  0.00000000000E+00  0.00000000000E+00  0.22805343320E+03  0.22805343321E+03  0.25500000920E-02 0. -1.
        2   -1    0    0  501    0  0.00000000000E+00  0.00000000000E+00 -0.88756619694E+03  0.88756619695E+03  0.25500000920E-02 0.  1.
    10030    2    1    2    0    0  0.00000000000E+00  0.00000000000E+00 -0.65951276375E+03  0.11156196302E+04  0.89980557547E+03 0.  0.
        4    1    3    3  502    0  0.18423980147E+03 -0.37996784649E+03 -0.52219632158E+03  0.67157313822E+03  0.12699999809E+01 0.  1.
       -4    1    3    3    0  502 -0.18423980147E+03  0.37996784649E+03 -0.13731644217E+03  0.44404649194E+03  0.12699999809E+01 0. -1.
</event>
<event>
 5   0  0.2351435E-04  0.9001789E+03  0.7818609E-02  0.9425358E-01
        1   -1    0    0  501    0  0.00000000000E+00  0.00000000000E+00  0.82412386502E+03  0.82412386504E+03  0.50400001928E-02 0. -1.
       -1   -1    0    0    0  501  0.00000000000E+00  0.00000000000E+00 -0.24581318459E+03  0.24581318464E+03  0.50400001928E-02 0.  1.
    10030    2    1    2    0    0  0.00000000000E+00  0.00000000000E+00  0.57831068043E+03  0.10699370497E+04  0.90017889732E+03 0.  0.
        4    1    3    3  502    0  0.39961019110E+03  0.64905622597E+02  0.52291016568E+03  0.66131512832E+03  0.12699999809E+01 0. -1.
       -4    1    3    3    0  502 -0.39961019110E+03 -0.64905622597E+02  0.55400514755E+02  0.40862192136E+03  0.12699999809E+01 0.  1.
</event>
<event>
 5   0  0.4110039E-04  0.9000783E+03  0.7818609E-02  0.9425484E-01
       -2   -1    0    0    0  501  0.00000000000E+00  0.00000000000E+00  0.17430874943E+03  0.17430874945E+03  0.25500000920E-02 0.  1.
        2   -1    0    0  501    0  0.00000000000E+00  0.00000000000E+00 -0.11619337664E+04  0.11619337664E+04  0.25500000920E-02 0. -1.
    10030    2    1    2    0    0  0.00000000000E+00  0.00000000000E+00 -0.98762501698E+03  0.13362425159E+04  0.90007826717E+03 0.  0.
        3    1    3    3  502    0  0.89594781143E+02 -0.38416285776E+03 -0.81541238682E+03  0.90581769516E+03  0.10100000352E+00 0. -1.
       -3    1    3    3    0  502 -0.89594781143E+02  0.38416285776E+03 -0.17221263016E+03  0.43042482070E+03  0.10100000352E+00 0.  1.
</event>
<event>
 5   0  0.4243516E-04  0.8998362E+03  0.7818609E-02  0.9425786E-01
       -2   -1    0    0    0  501  0.00000000000E+00  0.00000000000E+00  0.12755975368E+03  0.12755975371E+03  0.25500000920E-02 0.  1.
        2   -1    0    0  501    0  0.00000000000E+00  0.00000000000E+00 -0.15869134767E+04  0.15869134767E+04  0.25500000920E-02 0. -1.
    10030    2    1    2    0    0  0.00000000000E+00  0.00000000000E+00 -0.14593537230E+04  0.17144732304E+04  0.89983619004E+03 0.  0.
        1    1    3    3  502    0  0.44405972740E+03 -0.39524187982E+02 -0.61417175134E+03  0.75891906229E+03  0.50400001928E-02 0. -1.
       -1    1    3    3    0  502 -0.44405972740E+03  0.39524187982E+02 -0.84518197168E+03  0.95555416812E+03  0.50400001928E-02 0.  1.
</event>
<event>
 5   0  0.2351435E-04  0.8998691E+03  0.7818609E-02  0.9425745E-01
       -1   -1    0    0    0  501  0.00000000000E+00  0.00000000000E+00  0.97344863742E+03  0.97344863743E+03  0.50400001928E-02 0. -1.
        1   -1    0    0  501    0  0.00000000000E+00  0.00000000000E+00 -0.20796277638E+03  0.20796277644E+03  0.50400001928E-02 0.  1.
    10030    2    1    2    0    0  0.00000000000E+00  0.00000000000E+00  0.76548586104E+03  0.11814114139E+04  0.89986906012E+03 0.  0.
        4    1    3    3  502    0 -0.18617758997E+03 -0.67245154235E+01  0.92043051068E+03  0.93909597593E+03  0.12699999809E+01 0. -1.
       -4    1    3    3    0  502  0.18617758997E+03  0.67245154235E+01 -0.15494464964E+03  0.24231543794E+03  0.12699999809E+01 0.  1.
</event>
<event>
 5   0  0.4243516E-04  0.9001976E+03  0.7818609E-02  0.9425334E-01
        2   -1    0    0  501    0  0.00000000000E+00  0.00000000000E+00  0.10242675778E+04  0.10242675778E+04  0.25500000920E-02 0.  1.
       -2   -1    0    0    0  501  0.00000000000E+00  0.00000000000E+00 -0.19778905734E+03  0.19778905735E+03  0.25500000920E-02 0. -1.
    10030    2    1    2    0    0  0.00000000000E+00  0.00000000000E+00  0.82647852046E+03  0.12220566352E+04  0.90019757539E+03 0.  0.
        1    1    3    3  502    0 -0.12449958774E+03 -0.77678939869E+02 -0.16440233727E+03  0.22036854034E+03  0.50400001928E-02 0. -1.
       -1    1    3    3    0  502  0.12449958774E+03  0.77678939869E+02  0.99088085773E+03  0.10016880948E+04  0.50400001928E-02 0.  1.
</event>
<event>
 5   0  0.4110039E-04  0.8999218E+03  0.7818609E-02  0.9425679E-01
        2   -1    0    0  501    0  0.00000000000E+00  0.00000000000E+00  0.68346698178E+03  0.68346698178E+03  0.25500000920E-02 0.  1.
       -2   -1    0    0    0  501  0.00000000000E+00  0.00000000000E+00 -0.29623203052E+03  0.29623203053E+03  0.25500000920E-02 0. -1.
    10030    2    1    2    0    0  0.00000000000E+00  0.00000000000E+00  0.38723495126E+03  0.97969901231E+03  0.89992180063E+03 0.  0.
        3    1    3    3  502    0 -0.44429563132E+03 -0.64034360460E+02  0.22744967349E+03  0.50322199028E+03  0.10100000352E+00 0.  1.
       -3    1    3    3    0  502  0.44429563132E+03  0.64034360460E+02  0.15978527776E+03  0.47647702203E+03  0.10100000352E+00 0. -1.
</event>
<event>
 5   0  0.2332791E-04  0.8998429E+03  0.7818609E-02  0.9425778E-01
       -1   -1    0    0    0  501  0.00000000000E+00  0.00000000000E+00  0.12548862946E+04  0.12548862946E+04  0.50400001928E-02 0. -1.
        1   -1    0    0  501    0  0.00000000000E+00  0.00000000000E+00 -0.16131288307E+03  0.16131288315E+03  0.50400001928E-02 0.  1.
    10030    2    1    2    0    0  0.00000000000E+00  0.00000000000E+00  0.10935734115E+04  0.14161991778E+04  0.89984293335E+03 0.  0.
        2    1    3    3  502    0  0.33847162993E+03  0.26297934739E+03  0.76205149002E+03  0.87432468504E+03  0.25500000920E-02 0.  1.
       -2    1    3    3    0  502 -0.33847162993E+03 -0.26297934739E+03  0.33152192153E+03  0.54187449274E+03  0.25500000920E-02 0. -1.
</event>
<event>
 5   0  0.4110039E-04  0.8960849E+03  0.7818609E-02  0.9430489E-01
        2   -1    0    0  501    0  0.00000000000E+00  0.00000000000E+00  0.11839247887E+04  0.11839247887E+04  0.25500000920E-02 0.  1.
       -2   -1    0    0    0  501  0.00000000000E+00  0.00000000000E+00 -0.16955641653E+03  0.16955641655E+03  0.25500000920E-02 0. -1.
    10030    2    1    2    0    0  0.00000000000E+00  0.00000000000E+00  0.10143683722E+04  0.13534812053E+04  0.89608491704E+03 0.  0.
        3    1    3    3  502    0  0.22488573052E+02 -0.39936223787E+03  0.20229214100E+03  0.44823883529E+03  0.10100000352E+00 0. -1.
       -3    1    3    3    0  502 -0.22488573052E+02  0.39936223787E+03  0.81207623118E+03  0.90524236998E+03  0.10100000352E+00 0.  1.
</event>
<event>
 5   0  0.2351435E-04  0.8996826E+03  0.7818609E-02  0.9425978E-01
       -1   -1    0    0    0  501  0.00000000000E+00  0.00000000000E+00  0.66788758925E+03  0.66788758927E+03  0.50400001928E-02 0.  1.
        1   -1    0    0  501    0  0.00000000000E+00  0.00000000000E+00 -0.30298091615E+03  0.30298091620E+03  0.50400001928E-02 0. -1.
    10030    2    1    2    0    0  0.00000000000E+00  0.00000000000E+00  0.36490667310E+03  0.97086850547E+03  0.89968259672E+03 0.  0.
        4    1    3    3  502    0  0.68957701616E+02  0.13707929945E+03  0.63877029448E+03  0.65694368172E+03  0.12699999809E+01 0.  1.
       -4    1    3    3    0  502 -0.68957701616E+02 -0.13707929945E+03 -0.27386362138E+03  0.31392482375E+03  0.12699999809E+01 0. -1.
</event>
<event>
 5   0  0.1596250E-04  0.8998408E+03  0.7818609E-02  0.9425780E-01
        4   -1    0    0  501    0  0.00000000000E+00  0.00000000000E+00  0.29837603009E+03  0.29837873287E+03  0.12699999809E+01 0.  1.
       -4   -1    0    0    0  501  0.00000000000E+00  0.00000000000E+00 -0.67842742686E+03  0.67842861556E+03  0.12699999809E+01 0. -1.
    10030    2    1    2    0    0  0.00000000000E+00  0.00000000000E+00 -0.38005139677E+03  0.97680734843E+03  0.89984083691E+03 0.  0.
        5    1    3    3  502    0  0.19670571292E+03  0.23331761401E+03  0.16881831605E+03  0.34878641077E+03  0.46999998093E+01 0.  1.
       -5    1    3    3    0  502 -0.19670571292E+03 -0.23331761401E+03 -0.54886971282E+03  0.62802093767E+03  0.46999998093E+01 0. -1.
</event>
<event>
 5   0  0.2351435E-04  0.8999681E+03  0.7818609E-02  0.9425621E-01
       -1   -1    0    0    0  501  0.00000000000E+00  0.00000000000E+00  0.41604656225E+03  0.41604656228E+03  0.50400001928E-02 0. -1.
        1   -1    0    0  501    0  0.00000000000E+00  0.00000000000E+00 -0.48668989701E+03  0.48668989704E+03  0.50400001928E-02 0.  1.
    10030    2    1    2    0    0  0.00000000000E+00  0.00000000000E+00 -0.70643334765E+02  0.90273645932E+03  0.89996812957E+03 0.  0.
        4    1    3    3  502    0 -0.42858467396E+03 -0.67135445454E+02 -0.15523878752E+03  0.46075230313E+03  0.12699999809E+01 0.  1.
       -4    1    3    3    0  502  0.42858467396E+03  0.67135445454E+02  0.84595452753E+02  0.44198415619E+03  0.12699999809E+01 0. -1.
</event>
<event>
 5   0  0.4243516E-04  0.9001132E+03  0.7818609E-02  0.9425440E-01
        2   -1    0    0  501    0  0.00000000000E+00  0.00000000000E+00  0.81165497619E+03  0.81165497620E+03  0.25500000920E-02 0. -1.
       -2   -1    0    0    0  501  0.00000000000E+00  0.00000000000E+00 -0.24955298545E+03  0.24955298546E+03  0.25500000920E-02 0.  1.
    10030    2    1    2    0    0  0.00000000000E+00  0.00000000000E+00  0.56210199074E+03  0.10612079617E+04  0.90011315394E+03 0.  0.
        1    1    3    3  502    0 -0.40182944405E+03 -0.20219229887E+03  0.26428244379E+03  0.52172199298E+03  0.50400001928E-02 0. -1.
       -1    1    3    3    0  502  0.40182944405E+03  0.20219229887E+03  0.29781954695E+03  0.53948596868E+03  0.50400001928E-02 0.  1.
</event>
<event>
 5   0  0.2308362E-04  0.8991754E+03  0.7818609E-02  0.9426613E-01
        1   -1    0    0  501    0  0.00000000000E+00  0.00000000000E+00  0.84015095352E+03  0.84015095354E+03  0.50400001928E-02 0. -1.
       -1   -1    0    0    0  501  0.00000000000E+00  0.00000000000E+00 -0.24058665021E+03  0.24058665026E+03  0.50400001928E-02 0.  1.
    10030    2    1    2    0    0  0.00000000000E+00  0.00000000000E+00  0.59956430331E+03  0.10807376038E+04  0.89917540806E+03 0.  0.
        1    1    3    3  502    0  0.19430842180E+03 -0.26593678642E+03 -0.68034997411E+02  0.33631368996E+03  0.50400001928E-02 0.  1.
       -1    1    3    3    0  502 -0.19430842180E+03  0.26593678642E+03  0.66759930072E+03  0.74442391385E+03  0.50400001928E-02 0. -1.
</event>
<event>
 5   0  0.2332791E-04  0.8999979E+03  0.7818609E-02  0.9425584E-01
        1   -1    0    0  501    0  0.00000000000E+00  0.00000000000E+00  0.10079753397E+04  0.10079753397E+04  0.50400001928E-02 0.  1.
       -1   -1    0    0    0  501  0.00000000000E+00  0.00000000000E+00 -0.20089685393E+03  0.20089685400E+03  0.50400001928E-02 0. -1.
    10030    2    1    2    0    0  0.00000000000E+00  0.00000000000E+00  0.80707848580E+03  0.12088721937E+04  0.89999794364E+03 0.  0.
        2    1    3    3  502    0  0.40690932188E+03 -0.19529062796E+02  0.66030550792E+03  0.77586077638E+03  0.25500000920E-02 0.  1.
       -2    1    3    3    0  502 -0.40690932188E+03  0.19529062796E+02  0.14677297788E+03  0.43301141736E+03  0.25500000920E-02 0. -1.
</event>
<event>
 5   0  0.4236284E-04  0.8998270E+03  0.7818609E-02  0.9425798E-01
       -2   -1    0    0    0  501  0.00000000000E+00  0.00000000000E+00  0.35710797333E+03  0.35710797334E+03  0.25500000920E-02 0. -1.
        2   -1    0    0  501    0  0.00000000000E+00  0.00000000000E+00 -0.56683737869E+03  0.56683737869E+03  0.25500000920E-02 0.  1.
    10030    2    1    2    0    0  0.00000000000E+00  0.00000000000E+00 -0.20972940536E+03  0.92394535203E+03  0.89982697785E+03 0.  0.
        2    1    3    3  502    0  0.17538808914E+03  0.36849803834E+03 -0.29933583896E+03  0.50611632118E+03  0.25500000920E-02 0. -1.
       -2    1    3    3    0  502 -0.17538808914E+03 -0.36849803834E+03  0.89606433609E+02  0.41782903085E+03  0.25500000920E-02 0.  1.
</event>
<event>
 5   0  0.4236284E-04  0.9001380E+03  0.7818609E-02  0.9425409E-01
        2   -1    0    0  501    0  0.00000000000E+00  0.00000000000E+00  0.16718696418E+04  0.16718696418E+04  0.25500000920E-02 0.  1.
       -2   -1    0    0    0  501  0.00000000000E+00  0.00000000000E+00 -0.12115903045E+03  0.12115903048E+03  0.25500000920E-02 0. -1.
    10030    2    1    2    0    0  0.00000000000E+00  0.00000000000E+00  0.15507106114E+04  0.17930286723E+04  0.90013800026E+03 0.  0.
        2    1    3    3  502    0  0.26812303589E+03  0.36130125590E+03  0.79837459584E+03  0.91642269460E+03  0.25500000920E-02 0.  1.
       -2    1    3    3    0  502 -0.26812303589E+03 -0.36130125590E+03  0.75233601555E+03  0.87660597772E+03  0.25500000920E-02 0. -1.
</event>
<event>
 5   0  0.1596250E-04  0.8997782E+03  0.7818609E-02  0.9425859E-01
        4   -1    0    0  501    0  0.00000000000E+00  0.00000000000E+00  0.86125899866E+03  0.86125993502E+03  0.12699999809E+01 0. -1.
       -4   -1    0    0    0  501  0.00000000000E+00  0.00000000000E+00 -0.23500223540E+03  0.23500566704E+03  0.12699999809E+01 0.  1.
    10030    2    1    2    0    0  0.00000000000E+00  0.00000000000E+00  0.62625676326E+03  0.10962656021E+04  0.89977815973E+03 0.  0.
        2    1    3    3  502    0 -0.92047818668E+02 -0.23764435594E+03 -0.13857852400E+03  0.29008903487E+03  0.25500000920E-02 0.  1.
       -2    1    3    3    0  502  0.92047818668E+02  0.23764435594E+03  0.76483528727E+03  0.80617656719E+03  0.25500000920E-02 0. -1.
</event>
<event>
 5   0  0.4243516E-04  0.8999688E+03  0.7818609E-02  0.9425620E-01
        2   -1    0    0  501    0  0.00000000000E+00  0.00000000000E+00  0.47186344950E+03  0.47186344951E+03  0.25500000920E-02 0.  1.
       -2   -1    0    0    0  501  0.00000000000E+00  0.00000000000E+00 -0.42911980813E+03  0.42911980814E+03  0.25500000920E-02 0. -1.
    10030    2    1    2    0    0  0.00000000000E+00  0.00000000000E+00  0.42743641371E+02  0.90098325764E+03  0.89996878372E+03 0.  0.
        1    1    3    3  502    0  0.38374879214E+03 -0.16332788278E+03  0.19052031817E+03  0.45851622046E+03  0.50400001928E-02 0.  1.
       -1    1    3    3    0  502 -0.38374879214E+03  0.16332788278E+03 -0.14777667679E+03  0.44246703718E+03  0.50400001928E-02 0. -1.
</event>
<event>
 5   0  0.2450427E-04  0.9021914E+03  0.7818609E-02  0.9422846E-01
        1   -1    0    0  501    0  0.00000000000E+00  0.00000000000E+00  0.13861984617E+04  0.13861984617E+04  0.50400001928E-02 0.  1.
       -1   -1    0    0    0  501  0.00000000000E+00  0.00000000000E+00 -0.14679523988E+03  0.14679523997E+03  0.50400001928E-02 0. -1.
    10030    2    1    2    0    0  0.00000000000E+00  0.00000000000E+00  0.12394032219E+04  0.15329937017E+04  0.90219141159E+03 0.  0.
        3    1    3    3  502    0 -0.63029520794E+02 -0.21039601028E+02  0.13778368903E+04  0.13794382522E+04  0.10100000352E+00 0.  1.
       -3    1    3    3    0  502  0.63029520794E+02  0.21039601028E+02 -0.13843366844E+03  0.15355544947E+03  0.10100000352E+00 0. -1.
</event>
<event>
 5   0  0.4033144E-04  0.9007897E+03  0.7818609E-02  0.9424595E-01
       -2   -1    0    0    0  501  0.00000000000E+00  0.00000000000E+00  0.12034276580E+03  0.12034276583E+03  0.25500000920E-02 0. -1.
        2   -1    0    0  501    0  0.00000000000E+00  0.00000000000E+00 -0.16856479243E+04  0.16856479243E+04  0.25500000920E-02 0.  1.
    10030    2    1    2    0    0  0.00000000000E+00  0.00000000000E+00 -0.15653051585E+04  0.18059906901E+04  0.90078972775E+03 0.  0.
        4    1    3    3  502    0 -0.35046348918E+03 -0.28274881389E+03 -0.76445638447E+03  0.88722416878E+03  0.12699999809E+01 0.  1.
       -4    1    3    3    0  502  0.35046348918E+03  0.28274881389E+03 -0.80084877404E+03  0.91876652136E+03  0.12699999809E+01 0. -1.
</event>
<event>
 5   0  0.3959804E-04  0.8958824E+03  0.7818609E-02  0.9430743E-01
        2   -1    0    0  501    0  0.00000000000E+00  0.00000000000E+00  0.30176598877E+03  0.30176598878E+03  0.25500000920E-02 0.  1.
       -2   -1    0    0    0  501  0.00000000000E+00  0.00000000000E+00 -0.66492359845E+03  0.66492359845E+03  0.25500000920E-02 0. -1.
    10030    2    1    2    0    0  0.00000000000E+00  0.00000000000E+00 -0.36315760968E+03  0.96668958723E+03  0.89588241896E+03 0.  0.
        5    1    3    3  502    0  0.22051088747E+03 -0.35619257521E+03 -0.35263594791E+03  0.54760606633E+03  0.46999998093E+01 0. -1.
       -5    1    3    3    0  502 -0.22051088747E+03  0.35619257521E+03 -0.10521661771E+02  0.41908352090E+03  0.46999998093E+01 0.  1.
</event>
<event>
 5   0  0.4110039E-04  0.8999152E+03  0.7818609E-02  0.9425687E-01
       -2   -1    0    0    0  501  0.00000000000E+00  0.00000000000E+00  0.15734894849E+03  0.15734894851E+03  0.25500000920E-02 0. -1.
        2   -1    0    0  501    0  0.00000000000E+00  0.00000000000E+00 -0.12867061502E+04  0.12867061502E+04  0.25500000920E-02 0.  1.
    10030    2    1    2    0    0  0.00000000000E+00  0.00000000000E+00 -0.11293572017E+04  0.14440550987E+04  0.89991523993E+03 0.  0.
        3    1    3    3  502    0 -0.30602289047E+03 -0.57591671890E+02 -0.10858711242E+04  0.11296384018E+04  0.10100000352E+00 0.  1.
       -3    1    3    3    0  502  0.30602289047E+03  0.57591671890E+02 -0.43486077469E+02  0.31441669691E+03  0.10100000352E+00 0. -1.
</event>
<event>
 5   0  0.2308362E-04  0.8995843E+03  0.7818609E-02  0.9426101E-01
       -1   -1    0    0    0  501  0.00000000000E+00  0.00000000000E+00  0.48105689406E+03  0.48105689409E+03  0.50400001928E-02 0. -1.
        1   -1    0    0  501    0  0.00000000000E+00  0.00000000000E+00 -0.42055938266E+03  0.42055938269E+03  0.50400001928E-02 0.  1.
    10030    2    1    2    0    0  0.00000000000E+00  0.00000000000E+00  0.60497511404E+02  0.90161627677E+03  0.89958432715E+03 0.  0.
        1    1    3    3  502    0 -0.13519153325E+03  0.40207738491E+03  0.18015268369E+03  0.46086653554E+03  0.50400001928E-02 0. -1.
       -1    1    3    3    0  502  0.13519153325E+03 -0.40207738491E+03 -0.11965517228E+03  0.44074974123E+03  0.50400001928E-02 0.  1.
</event>
<event>
 5   0  0.1596250E-04  0.9021394E+03  0.7818609E-02  0.9422911E-01
       -4   -1    0    0    0  501  0.00000000000E+00  0.00000000000E+00  0.40030653598E+03  0.40030855055E+03  0.12699999809E+01 0.  1.
        4   -1    0    0  501    0  0.00000000000E+00  0.00000000000E+00 -0.50826611047E+03  0.50826769713E+03  0.12699999809E+01 0. -1.
    10030    2    1    2    0    0  0.00000000000E+00  0.00000000000E+00 -0.10795957449E+03  0.90857624768E+03  0.90213941724E+03 0.  0.
        3    1    3    3  502    0  0.29662459973E+03 -0.25553985458E+03  0.17162094504E+03  0.42748161297E+03  0.10100000352E+00 0.  1.
       -3    1    3    3    0  502 -0.29662459973E+03  0.25553985458E+03 -0.27958051953E+03  0.48109463471E+03  0.10100000352E+00 0. -1.
</event>
<event>
 5   0  0.2332791E-04  0.8998782E+03  0.7818609E-02  0.9425734E-01
       -1   -1    0    0    0  501  0.00000000000E+00  0.00000000000E+00  0.26304001893E+03  0.26304001898E+03  0.50400001928E-02 0.  1.
        1   -1    0    0  501    0  0.00000000000E+00  0.00000000000E+00 -0.76963655381E+03  0.76963655382E+03  0.50400001928E-02 0. -1.
    10030    2    1    2    0    0  0.00000000000E+00  0.00000000000E+00 -0.50659653487E+03  0.10326765728E+04  0.89987824447E+03 0.  0.
        2    1    3    3  502    0  0.99494468246E+02  0.43567472890E+03 -0.31329777226E+03  0.54577203366E+03  0.25500000920E-02 0. -1.
       -2    1    3    3    0  502 -0.99494468246E+02 -0.43567472890E+03 -0.19329876261E+03  0.48690453915E+03  0.25500000920E-02 0.  1.
</event>
<event>
 5   0  0.4236284E-04  0.9008789E+03  0.7818609E-02  0.9424483E-01
       -2   -1    0    0    0  501  0.00000000000E+00  0.00000000000E+00  0.82398856482E+03  0.82398856482E+03  0.25500000920E-02 0. -1.
        2   -1    0    0  501    0  0.00000000000E+00  0.00000000000E+00 -0.24623603426E+03  0.24623603427E+03  0.25500000920E-02 0.  1.
    10030    2    1    2    0    0  0.00000000000E+00  0.00000000000E+00  0.57775253056E+03  0.10702245991E+04  0.90087885197E+03 0.  0.
        2    1    3    3  502    0  0.86223303272E+02  0.43464981218E+03  0.19279856082E+03  0.48324548866E+03  0.25500000920E-02 0.  1.
       -2    1    3    3    0  502 -0.86223303272E+02 -0.43464981218E+03  0.38495396974E+03  0.58697911043E+03  0.25500000920E-02 0. -1.
</event>
<event>
 5   0  0.4033144E-04  0.9016250E+03  0.7818609E-02  0.9423552E-01
        2   -1    0    0  501    0  0.00000000000E+00  0.00000000000E+00  0.19792483392E+04  0.19792483392E+04  0.25500000920E-02 0. -1.
       -2   -1    0    0    0  501  0.00000000000E+00  0.00000000000E+00 -0.10268135711E+03  0.10268135714E+03  0.25500000920E-02 0.  1.
    10030    2    1    2    0    0  0.00000000000E+00  0.00000000000E+00  0.18765669820E+04  0.20819296963E+04  0.90162498980E+03 0.  0.
        4    1    3    3  502    0 -0.39674977725E+03  0.15088170913E+03  0.12888892725E+04  0.13569866785E+04  0.12699999809E+01 0. -1.
       -4    1    3    3    0  502  0.39674977725E+03 -0.15088170913E+03  0.58767770956E+03  0.72494301783E+03  0.12699999809E+01 0.  1.
</event>
<event>
 5   0  0.3959804E-04  0.9004253E+03  0.7818609E-02  0.9425050E-01
        2   -1    0    0  501    0  0.00000000000E+00  0.00000000000E+00  0.18621164808E+04  0.18621164808E+04  0.25500000920E-02 0. -1.
       -2   -1    0    0    0  501  0.00000000000E+00  0.00000000000E+00 -0.10885003109E+03  0.10885003112E+03  0.25500000920E-02 0.  1.
    10030    2    1    2    0    0  0.00000000000E+00  0.00000000000E+00  0.17532664497E+04  0.19709665119E+04  0.90042531473E+03 0.  0.
        5    1    3    3  502    0 -0.14941683560E+03 -0.38874849290E+01 -0.52898352373E+02  0.15862165357E+03  0.46999998093E+01 0.  1.
       -5    1    3    3    0  502  0.14941683560E+03  0.38874849290E+01  0.18061648020E+04  0.18123448583E+04  0.46999998093E+01 0. -1.
</event>
<event>
 5   0  0.2351435E-04  0.8998533E+03  0.7818609E-02  0.9425765E-01
        1   -1    0    0  501    0  0.00000000000E+00  0.00000000000E+00  0.40959900541E+03  0.40959900544E+03  0.50400001928E-02 0.  1.
       -1   -1    0    0    0  501  0.00000000000E+00  0.00000000000E+00 -0.49422484781E+03  0.49422484784E+03  0.50400001928E-02 0. -1.
    10030    2    1    2    0    0  0.00000000000E+00  0.00000000000E+00 -0.84625842404E+02  0.90382385328E+03  0.89985333503E+03 0.  0.
        4    1    3    3  502    0 -0.21160011470E+03  0.22365445810E+03  0.28721467290E+03  0.42105796085E+03  0.12699999809E+01 0.  1.
       -4    1    3    3    0  502  0.21160011470E+03 -0.22365445810E+03 -0.37184051530E+03  0.48276589243E+03  0.12699999809E+01 0. -1.
</event>
<event>
 5   0  0.2351435E-04  0.8999903E+03  0.7818609E-02  0.9425594E-01
        1   -1    0    0  501    0  0.00000000000E+00  0.00000000000E+00  0.85754260576E+03  0.85754260577E+03  0.50400001928E-02 0.  1.
       -1   -1    0    0    0  501  0.00000000000E+00  0.00000000000E+00 -0.23613477706E+03  0.23613477711E+03  0.50400001928E-02 0. -1.
    10030    2    1    2    0    0  0.00000000000E+00  0.00000000000E+00  0.62140782870E+03  0.10936773829E+04  0.89999029342E+03 0.  0.
        4    1    3    3  502    0  0.90786025448E+02 -0.37661275652E+03  0.58891738765E+03  0.70491458573E+03  0.12699999809E+01 0.  1.
       -4    1    3    3    0  502 -0.90786025448E+02  0.37661275652E+03  0.32490441049E+02  0.38876279715E+03  0.12699999809E+01 0. -1.
</event>
<event>
 5   0  0.4236284E-04  0.9013117E+03  0.7818609E-02  0.9423943E-01
        2   -1    0    0  501    0  0.00000000000E+00  0.00000000000E+00  0.11829883430E+03  0.11829883432E+03  0.25500000920E-02 0.  1.
       -2   -1    0    0    0  501  0.00000000000E+00  0.00000000000E+00 -0.17167599854E+04  0.17167599854E+04  0.25500000920E-02 0. -1.
    10030    2    1    2    0    0  0.00000000000E+00  0.00000000000E+00 -0.15984611511E+04  0.18350588197E+04  0.90131172202E+03 0.  0.
        2    1    3    3  502    0  0.29455942842E+03  0.16315235205E+03 -0.14090307599E+04  0.14487068818E+04  0.25500000920E-02 0. -1.
       -2    1    3    3    0  502 -0.29455942842E+03 -0.16315235205E+03 -0.18943039117E+03  0.38635193795E+03  0.25500000920E-02 0.  1.
</event>
<event>
 5   0  0.4243516E-04  0.9001000E+03  0.7818609E-02  0.9425456E-01
        2   -1    0    0  501    0  0.00000000000E+00  0.00000000000E+00  0.10965375029E+04  0.10965375029E+04  0.25500000920E-02 0.  1.
       -2   -1    0    0    0  501  0.00000000000E+00  0.00000000000E+00 -0.18471326708E+03  0.18471326710E+03  0.25500000920E-02 0. -1.
    10030    2    1    2    0    0  0.00000000000E+00  0.00000000000E+00  0.91182423579E+03  0.12812507700E+04  0.90010004920E+03 0.  0.
        1    1    3    3  502    0  0.34787682724E+03 -0.20792993709E+03  0.73445796804E+03  0.83885734932E+03  0.50400001928E-02 0.  1.
       -1    1    3    3    0  502 -0.34787682724E+03  0.20792993709E+03  0.17736626775E+03  0.44239342064E+03  0.50400001928E-02 0. -1.
</event>
<event>
 5   0  0.4243516E-04  0.9017396E+03  0.7818609E-02  0.9423409E-01
       -2   -1    0    0    0  501  0.00000000000E+00  0.00000000000E+00  0.23028254127E+03  0.23028254129E+03  0.25500000920E-02 0. -1.
        2   -1    0    0  501    0  0.00000000000E+00  0.00000000000E+00 -0.88275723524E+03  0.88275723525E+03  0.25500000920E-02 0.  1.
    10030    2    1    2    0    0  0.00000000000E+00  0.00000000000E+00 -0.65247469397E+03  0.11130397765E+04  0.90173960647E+03 0.  0.
        1    1    3    3  502    0  0.41897056926E+02 -0.44762552974E+03 -0.36826971578E+03  0.58115966983E+03  0.50400001928E-02 0.  1.
       -1    1    3    3    0  502 -0.41897056926E+02  0.44762552974E+03 -0.28420497819E+03  0.53188010670E+03  0.50400001928E-02 0. -1.
</event>
<event>
 5   0  0.2332791E-04  0.8995874E+03  0.7818609E-02  0.9426097E-01
        1   -1    0    0  501    0  0.00000000000E+00  0.00000000000E+00  0.94665942735E+03  0.94665942736E+03  0.50400001928E-02 0. -1.
       -1   -1    0    0    0  501  0.00000000000E+00  0.00000000000E+00 -0.21371401347E+03  0.21371401353E+03  0.50400001928E-02 0.  1.
    10030    2    1    2    0    0  0.00000000000E+00  0.00000000000E+00  0.73294541388E+03  0.11603734409E+04  0.89958742909E+03 0.  0.
        2    1    3    3  502    0 -0.28577065657E+03  0.25687339562E+03  0.66805883853E+03  0.77068243867E+03  0.25500000920E-02 0. -1.
       -2    1    3    3    0  502  0.28577065657E+03 -0.25687339562E+03  0.64886575350E+02  0.38969100221E+03  0.25500000920E-02 0.  1.
</event>
<event>
 5   0  0.3959804E-04  0.8998241E+03  0.7818609E-02  0.9425801E-01
        2   -1    0    0  501    0  0.00000000000E+00  0.00000000000E+00  0.11009257122E+04  0.11009257122E+04  0.25500000920E-02 0. -1.
       -2   -1    0    0    0  501  0.00000000000E+00  0.00000000000E+00 -0.18386422057E+03  0.18386422059E+03  0.25500000920E-02 0.  1.
    10030    2    1    2    0    0  0.00000000000E+00  0.00000000000E+00  0.91706149162E+03  0.12847899328E+04  0.89982408945E+03 0.  0.
        5    1    3    3  502    0  0.37025528899E+03 -0.24364006657E+03  0.56866117505E+03  0.72100421848E+03  0.46999998093E+01 0. -1.
       -5    1    3    3    0  502 -0.37025528899E+03  0.24364006657E+03  0.34840031658E+03  0.56378571430E+03  0.46999998093E+01 0.  1.
</event>
<event>
 5   0  0.2351435E-04  0.8992486E+03  0.7818609E-02  0.9426521E-01
        1   -1    0    0  501    0  0.00000000000E+00  0.00000000000E+00  0.42438899758E+03  0.42438899761E+03  0.50400001928E-02 0. -1.
       -1   -1    0    0    0  501  0.00000000000E+00  0.00000000000E+00 -0.47636013225E+03  0.47636013227E+03  0.50400001928E-02 0.  1.
    10030    2    1    2    0    0  0.00000000000E+00  0.00000000000E+00 -0.51971134670E+02  0.90074912988E+03  0.89924857305E+03 0.  0.
        4    1    3    3  502    0  0.25572842180E+03 -0.10870700375E+03 -0.38005263101E+03  0.47080341293E+03  0.12699999809E+01 0.  1.
       -4    1    3    3    0  502 -0.25572842180E+03  0.10870700375E+03  0.32808149634E+03  0.42994571695E+03  0.12699999809E+01 0. -1.
</event>
<event>
 5   0  0.2308362E-04  0.9000841E+03  0.7818609E-02  0.9425476E-01
        1   -1    0    0  501    0  0.00000000000E+00  0.00000000000E+00  0.18751195917E+04  0.18751195917E+04  0.50400001928E-02 0.  1.
       -1   -1    0    0    0  501  0.00000000000E+00  0.00000000000E+00 -0.10801328521E+03  0.10801328533E+03  0.50400001928E-02 0. -1.
    10030    2    1    2    0    0  0.00000000000E+00  0.00000000000E+00  0.17671063065E+04  0.19831328770E+04  0.90008405693E+03 0.  0.
        1    1    3    3  502    0 -0.27150188990E+03 -0.15199834581E+03  0.16716319863E+03  0.35321425276E+03  0.50400001928E-02 0. -1.
       -1    1    3    3    0  502  0.27150188990E+03  0.15199834581E+03  0.15999431079E+04  0.16299186243E+04  0.50400001928E-02 0.  1.
</event>
<event>
 5   0  0.2308362E-04  0.9000296E+03  0.7818609E-02  0.9425544E-01
       -1   -1    0    0    0  501  0.00000000000E+00  0.00000000000E+00  0.32018012707E+03  0.32018012711E+03  0.50400001928E-02 0. -1.
        1   -1    0    0  501    0  0.00000000000E+00  0.00000000000E+00 -0.63249804447E+03  0.63249804449E+03  0.50400001928E-02 0.  1.
    10030    2    1    2    0    0  0.00000000000E+00  0.00000000000E+00 -0.31231791740E+03  0.95267817161E+03  0.90002956458E+03 0.  0.
        1    1    3    3  502    0 -0.13836013524E+03 -0.37886858176E+03 -0.36740361542E+03  0.54559173923E+03  0.50400001928E-02 0.  1.
       -1    1    3    3    0  502  0.13836013524E+03  0.37886858176E+03  0.55085698023E+02  0.40708643237E+03  0.50400001928E-02 0. -1.
</event>
<event>
 5   0  0.2332791E-04  0.9000003E+03  0.7818609E-02  0.9425581E-01
        1   -1    0    0  501    0  0.00000000000E+00  0.00000000000E+00  0.21170617617E+04  0.21170617617E+04  0.50400001928E-02 0. -1.
       -1   -1    0    0    0  501  0.00000000000E+00  0.00000000000E+00 -0.95651503270E+02  0.95651503403E+02  0.50400001928E-02 0.  1.
    10030    2    1    2    0    0  0.00000000000E+00  0.00000000000E+00  0.20214102585E+04  0.22127132652E+04  0.90000031151E+03 0.  0.
        2    1    3    3  502    0 -0.18346369729E+03 -0.87657942454E+02  0.23727140941E+02  0.20470911148E+03  0.25500000920E-02 0.  1.
       -2    1    3    3    0  502  0.18346369729E+03  0.87657942454E+02  0.19976831175E+04  0.20080041537E+04  0.25500000920E-02 0. -1.
</event>
<event>
 5   0  0.1596250E-04  0.9000056E+03  0.7818609E-02  0.9425574E-01
       -3   -1    0    0    0  501  0.00000000000E+00  0.00000000000E+00  0.46214981441E+03  0.46214982544E+03  0.10100000352E+00 0. -1.
        3   -1    0    0  501    0  0.00000000000E+00  0.00000000000E+00 -0.43817500736E+03  0.43817501901E+03  0.10100000352E+00 0.  1.
    10030    2    1    2    0    0  0.00000000000E+00  0.00000000000E+00  0.23974807043E+02  0.90032484445E+03  0.90000557452E+03 0.  0.
        3    1    3    3  502    0  0.81828993337E+02 -0.96285044890E+02  0.44403840972E+03  0.46166753571E+03  0.10100000352E+00 0. -1.
       -3    1    3    3    0  502 -0.81828993337E+02  0.96285044890E+02 -0.42006360267E+03  0.43865730874E+03  0.10100000352E+00 0.  1.
</event>
<event>
 5   0  0.2308362E-04  0.8999882E+03  0.7818609E-02  0.9425596E-01
       -1   -1    0    0    0  501  0.00000000000E+00  0.00000000000E+00  0.46316692243E+03  0.46316692246E+03  0.50400001928E-02 0. -1.
        1   -1    0    0  501    0  0.00000000000E+00  0.00000000000E+00 -0.43719592090E+03  0.43719592093E+03  0.50400001928E-02 0.  1.
    10030    2    1    2    0    0  0.00000000000E+00  0.00000000000E+00  0.25971001531E+02  0.90036284339E+03  0.89998819817E+03 0.  0.
        1    1    3    3  502    0  0.35170310354E+03 -0.11969405416E+03  0.26700644095E+03  0.45750866568E+03  0.50400001928E-02 0. -1.
       -1    1    3    3    0  502 -0.35170310354E+03  0.11969405416E+03 -0.24103543941E+03  0.44285417771E+03  0.50400001928E-02 0.  1.
</event>
<event>
 5   0  0.4110039E-04  0.8996594E+03  0.7818609E-02  0.9426007E-01
        2   -1    0    0  501    0  0.00000000000E+00  0.00000000000E+00  0.50211437884E+03  0.50211437885E+03  0.25500000920E-02 0.  1.
       -2   -1    0    0    0  501  0.00000000000E+00  0.00000000000E+00 -0.40298936077E+03  0.40298936078E+03  0.25500000920E-02 0. -1.
    10030    2    1    2    0    0  0.00000000000E+00  0.00000000000E+00  0.99125018070E+02  0.90510373962E+03  0.89965938570E+03 0.  0.
        3    1    3    3  502    0  0.10479800516E+03 -0.38206373052E+03  0.26390444991E+03  0.47602613893E+03  0.10100000352E+00 0.  1.
       -3    1    3    3    0  502 -0.10479800516E+03  0.38206373052E+03 -0.16477943184E+03  0.42907760070E+03  0.10100000352E+00 0. -1.
</event>
<event>
 5   0  0.2308362E-04  0.9024627E+03  0.7818609E-02  0.9422508E-01
        1   -1    0    0  501    0  0.00000000000E+00  0.00000000000E+00  0.42372490186E+03  0.42372490189E+03  0.50400001928E-02 0. -1.
       -1   -1    0    0    0  501  0.00000000000E+00  0.00000000000E+00 -0.48052345294E+03  0.48052345297E+03  0.50400001928E-02 0.  1.
    10030    2    1    2    0    0  0.00000000000E+00  0.00000000000E+00 -0.56798551076E+02  0.90424835486E+03  0.90246274818E+03 0.  0.
        1    1    3    3  502    0  0.28610803471E+03  0.29565519763E+03  0.15727779237E+03  0.44046124393E+03  0.50400001928E-02 0. -1.
       -1    1    3    3    0  502 -0.28610803471E+03 -0.29565519763E+03 -0.21407634344E+03  0.46378711092E+03  0.50400001928E-02 0.  1.
</event>
<event>
 5   0  0.4033144E-04  0.8996996E+03  0.7818609E-02  0.9425957E-01
        2   -1    0    0  501    0  0.00000000000E+00  0.00000000000E+00  0.72004354236E+03  0.72004354237E+03  0.25500000920E-02 0.  1.
       -2   -1    0    0    0  501  0.00000000000E+00  0.00000000000E+00 -0.28104529196E+03  0.28104529197E+03  0.25500000920E-02 0. -1.
    10030    2    1    2    0    0  0.00000000000E+00  0.00000000000E+00  0.43899825040E+03  0.10010888343E+04  0.89969961119E+03 0.  0.
        4    1    3    3  502    0  0.41083476757E+03  0.12301832139E+03  0.68383707507E+02  0.43427716725E+03  0.12699999809E+01 0.  1.
       -4    1    3    3    0  502 -0.41083476757E+03 -0.12301832139E+03  0.37061454290E+03  0.56681166709E+03  0.12699999809E+01 0. -1.
</event>
<event>
 5   0  0.4110039E-04  0.9003075E+03  0.7818609E-02  0.9425197E-01
       -2   -1    0    0    0  501  0.00000000000E+00  0.00000000000E+00  0.69241665258E+03  0.69241665259E+03  0.25500000920E-02 0. -1.
        2   -1    0    0  501    0  0.00000000000E+00  0.00000000000E+00 -0.29265387245E+03  0.29265387246E+03  0.25500000920E-02 0.  1.
    10030    2    1    2    0    0  0.00000000000E+00  0.00000000000E+00  0.39976278013E+03  0.98507052505E+03  0.90030753576E+03 0.  0.
        3    1    3    3  502    0  0.70085983620E+02 -0.29268587982E+03  0.56615390926E+03  0.64117651900E+03  0.10100000352E+00 0. -1.
       -3    1    3    3    0  502 -0.70085983620E+02  0.29268587982E+03 -0.16639112913E+03  0.34389400605E+03  0.10100000352E+00 0.  1.
</event>
<event>
 5   0  0.4236284E-04  0.8999961E+03  0.7818609E-02  0.9425586E-01
       -2   -1    0    0    0  501  0.00000000000E+00  0.00000000000E+00  0.23252826832E+03  0.23252826833E+03  0.25500000920E-02 0.  1.
        2   -1    0    0  501    0  0.00000000000E+00  0.00000000000E+00 -0.87085431908E+03  0.87085431909E+03  0.25500000920E-02 0. -1.
    10030    2    1    2    0    0  0.00000000000E+00  0.00000000000E+00 -0.63832605077E+03  0.11033825874E+04  0.89999610396E+03 0.  0.
        2    1    3    3  502    0  0.20964966707E+02 -0.19067794102E+03  0.17989103018E+03  0.26297982768E+03  0.25500000920E-02 0.  1.
       -2    1    3    3    0  502 -0.20964966707E+02  0.19067794102E+03 -0.81821708094E+03  0.84040275974E+03  0.25500000920E-02 0. -1.
</event>
<event>
 5   0  0.2356918E-04  0.9003836E+03  0.7818609E-02  0.9425102E-01
        1   -1    0    0  501    0  0.00000000000E+00  0.00000000000E+00  0.12381477293E+04  0.12381477293E+04  0.50400001928E-02 0.  1.
       -1   -1    0    0    0  501  0.00000000000E+00  0.00000000000E+00 -0.16369022146E+03  0.16369022153E+03  0.50400001928E-02 0. -1.
    10030    2    1    2    0    0  0.00000000000E+00  0.00000000000E+00  0.10744575078E+04  0.14018379508E+04  0.90038364281E+03 0.  0.
        5    1    3    3  502    0  0.26255048983E+03  0.35751530578E+03  0.65682553732E+03  0.79258553485E+03  0.46999998093E+01 0.  1.
       -5    1    3    3    0  502 -0.26255048983E+03 -0.35751530578E+03  0.41763197049E+03  0.60925241596E+03  0.46999998093E+01 0. -1.
</event>
<event>
 5   0  0.2308362E-04  0.8998572E+03  0.7818609E-02  0.9425760E-01
       -1   -1    0    0    0  501  0.00000000000E+00  0.00000000000E+00  0.29103871005E+03  0.29103871010E+03  0.50400001928E-02 0. -1.
        1   -1    0    0  501    0  0.00000000000E+00  0.00000000000E+00 -0.69556291550E+03  0.69556291552E+03  0.50400001928E-02 0.  1.
    10030    2    1    2    0    0  0.00000000000E+00  0.00000000000E+00 -0.40452420545E+03  0.98660162561E+03  0.89985717470E+03 0.  0.
        1    1    3    3  502    0  0.18729567567E+03 -0.25568389630E+03  0.14786811848E+03  0.34974119780E+03  0.50400001928E-02 0. -1.
       -1    1    3    3    0  502 -0.18729567567E+03  0.25568389630E+03 -0.55239232392E+03  0.63686042781E+03  0.50400001928E-02 0.  1.
</event>
<event>
 5   0  0.4243516E-04  0.8998479E+03  0.7818609E-02  0.9425772E-01
       -2   -1    0    0    0  501  0.00000000000E+00  0.00000000000E+00  0.22218780600E+03  0.22218780602E+03  0.25500000920E-02 0. -1.
        2   -1    0    0  501    0  0.00000000000E+00  0.00000000000E+00 -0.91108322645E+03  0.91108322645E+03  0.25500000920E-02 0.  1.
    10030    2    1    2    0    0  0.00000000000E+00  0.00000000000E+00 -0.68889542044E+03  0.11332710325E+04  0.89984794978E+03 0.  0.
        1    1    3    3  502    0  0.38424994309E+03  0.14588494305E+03 -0.57496022025E+03  0.70675999481E+03  0.50400001928E-02 0.  1.
       -1    1    3    3    0  502 -0.38424994309E+03 -0.14588494305E+03 -0.11393520019E+03  0.42651103765E+03  0.50400001928E-02 0. -1.
</event>
<event>
 5   0  0.4033144E-04  0.8999235E+03  0.7818609E-02  0.9425677E-01
       -2   -1    0    0    0  501  0.00000000000E+00  0.00000000000E+00  0.92610159209E+03  0.92610159209E+03  0.25500000920E-02 0.  1.
        2   -1    0    0  501    0  0.00000000000E+00  0.00000000000E+00 -0.21862136772E+03  0.21862136774E+03  0.25500000920E-02 0. -1.
    10030    2    1    2    0    0  0.00000000000E+00  0.00000000000E+00  0.70748022437E+03  0.11447229598E+04  0.89992354503E+03 0.  0.
        4    1    3    3  502    0  0.30441324171E+03 -0.29235234982E+03  0.55213755591E+03  0.69497828147E+03  0.12699999809E+01 0.  1.
       -4    1    3    3    0  502 -0.30441324171E+03  0.29235234982E+03  0.15534266846E+03  0.44974467836E+03  0.12699999809E+01 0. -1.
</event>
<event>
 5   0  0.3959804E-04  0.8999601E+03  0.7818609E-02  0.9425631E-01
        2   -1    0    0  501    0  0.00000000000E+00  0.00000000000E+00  0.15016957366E+04  0.15016957366E+04  0.25500000920E-02 0.  1.
       -2   -1    0    0    0  501  0.00000000000E+00  0.00000000000E+00 -0.13483561211E+03  0.13483561214E+03  0.25500000920E-02 0. -1.
    10030    2    1    2    0    0  0.00000000000E+00  0.00000000000E+00  0.13668601245E+04  0.16365313488E+04  0.89996014107E+03 0.  0.
        5    1    3    3  502    0  0.48234344081E+02  0.91614495460E+02 -0.11283497834E+03  0.15321093324E+03  0.46999998093E+01 0. -1.
       -5    1    3    3    0  502 -0.48234344081E+02 -0.91614495460E+02  0.14796951028E+04  0.14833204155E+04  0.46999998093E+01 0.  1.
</event>
<event>
 5   0  0.4110039E-04  0.8996843E+03  0.7818609E-02  0.9425976E-01
        2   -1    0    0  501    0  0.00000000000E+00  0.00000000000E+00  0.52572300012E+03  0.52572300013E+03  0.25500000920E-02 0. -1.
       -2   -1    0    0    0  501  0.00000000000E+00  0.00000000000E+00 -0.38491364167E+03  0.38491364168E+03  0.25500000920E-02 0.  1.
    10030    2    1    2    0    0  0.00000000000E+00  0.00000000000E+00  0.14080935845E+03  0.91063664181E+03  0.89968428795E+03 0.  0.
        3    1    3    3  502    0 -0.66831130988E+02 -0.41365911741E+03 -0.95226254145E+02  0.42970724356E+03  0.10100000352E+00 0.  1.
       -3    1    3    3    0  502  0.66831130988E+02  0.41365911741E+03  0.23603561259E+03  0.48092939825E+03  0.10100000352E+00 0. -1.
</event>
<event>
 5   0  0.1596250E-04  0.8999359E+03  0.7818609E-02  0.9425662E-01
        3   -1    0    0  501    0  0.00000000000E+00  0.00000000000E+00  0.70849470335E+03  0.70849471055E+03  0.10100000352E+00 0.  1.
       -3   -1    0    0    0  501  0.00000000000E+00  0.00000000000E+00 -0.28577649539E+03  0.28577651324E+03  0.10100000352E+00 0. -1.
    10030    2    1    2    0    0  0.00000000000E+00  0.00000000000E+00  0.42271820795E+03  0.99427122379E+03  0.89993587722E+03 0.  0.
        5    1    3    3  502    0 -0.39827576482E+02  0.44293854813E+03  0.13587231723E+03  0.46504211622E+03  0.46999998093E+01 0. -1.
       -5    1    3    3    0  502  0.39827576482E+02 -0.44293854813E+03  0.28684589072E+03  0.52922910756E+03  0.46999998093E+01 0.  1.
</event>
<event>
 5   0  0.4033144E-04  0.8999379E+03  0.7818609E-02  0.9425659E-01
       -2   -1    0    0    0  501  0.00000000000E+00  0.00000000000E+00  0.10363424847E+03  0.10363424850E+03  0.25500000920E-02 0. -1.
        2   -1    0    0  501    0  0.00000000000E+00  0.00000000000E+00 -0.19537177871E+04  0.19537177871E+04  0.25500000920E-02 0.  1.
    10030    2    1    2    0    0  0.00000000000E+00  0.00000000000E+00 -0.18500835387E+04  0.20573520356E+04  0.89993794147E+03 0.  0.
        4    1    3    3  502    0 -0.39542703148E+02 -0.30292594388E+03 -0.16802964280E+04  0.17078423381E+04  0.12699999809E+01 0.  1.
       -4    1    3    3    0  502  0.39542703148E+02  0.30292594388E+03 -0.16978711067E+03  0.34950969757E+03  0.12699999809E+01 0. -1.
</event>
<event>
 5   0  0.1596250E-04  0.8996830E+03  0.7818609E-02  0.9425978E-01
        3   -1    0    0  501    0  0.00000000000E+00  0.00000000000E+00  0.23906200525E+03  0.23906202659E+03  0.10100000352E+00 0. -1.
       -3   -1    0    0    0  501  0.00000000000E+00  0.00000000000E+00 -0.84646387190E+03  0.84646387793E+03  0.10100000352E+00 0.  1.
    10030    2    1    2    0    0  0.00000000000E+00  0.00000000000E+00 -0.60740186665E+03  0.10855259045E+04  0.89968297848E+03 0.  0.
        3    1    3    3  502    0 -0.60767623877E+01 -0.29873751934E+03 -0.70943037763E+03  0.76978731050E+03  0.10100000352E+00 0.  1.
       -3    1    3    3    0  502  0.60767623877E+01  0.29873751934E+03  0.10202851098E+03  0.31573859402E+03  0.10100000352E+00 0. -1.
</event>
<event>
 5   0  0.2356918E-04  0.8999680E+03  0.7818609E-02  0.9425621E-01
       -1   -1    0    0    0  501  0.00000000000E+00  0.00000000000E+00  0.23356562768E+03  0.23356562774E+03  0.50400001928E-02 0. -1.
        1   -1    0    0  501    0  0.00000000000E+00  0.00000000000E+00 -0.86693229284E+03  0.86693229285E+03  0.50400001928E-02 0.  1.
    10030    2    1    2    0    0  0.00000000000E+00  0.00000000000E+00 -0.63336666515E+03  0.11004979206E+04  0.89996796648E+03 0.  0.
        5    1    3    3  502    0  0.27003815443E+03 -0.35991717975E+03 -0.31474446258E+03  0.54913308756E+03  0.46999998093E+01 0. -1.
       -5    1    3    3    0  502 -0.27003815443E+03  0.35991717975E+03 -0.31862220258E+03  0.55136483303E+03  0.46999998093E+01 0.  1.
</event>
<event>
 5   0  0.2332791E-04  0.8998687E+03  0.7818609E-02  0.9425746E-01
       -1   -1    0    0    0  501  0.00000000000E+00  0.00000000000E+00  0.10717993616E+03  0.10717993628E+03  0.50400001928E-02 0. -1.
        1   -1    0    0  501    0  0.00000000000E+00  0.00000000000E+00 -0.18887950011E+04  0.18887950011E+04  0.50400001928E-02 0.  1.
    10030    2    1    2    0    0  0.00000000000E+00  0.00000000000E+00 -0.17816150649E+04  0.19959749374E+04  0.89986871880E+03 0.  0.
        2    1    3    3  502    0  0.19534595585E+03  0.12491519518E+03 -0.17460670958E+04  0.17613955125E+04  0.25500000920E-02 0.  1.
       -2    1    3    3    0  502 -0.19534595585E+03 -0.12491519518E+03 -0.35547969118E+02  0.23457942486E+03  0.25500000920E-02 0. -1.
</event>
<event>
 5   0  0.1596250E-04  0.9001574E+03  0.7818609E-02  0.9425385E-01
        3   -1    0    0  501    0  0.00000000000E+00  0.00000000000E+00  0.45593703238E+03  0.45593704357E+03  0.10100000352E+00 0. -1.
       -3   -1    0    0    0  501  0.00000000000E+00  0.00000000000E+00 -0.44429563041E+03  0.44429564189E+03  0.10100000352E+00 0.  1.
    10030    2    1    2    0    0  0.00000000000E+00  0.00000000000E+00  0.11641401973E+02  0.90023268546E+03  0.90015741164E+03 0.  0.
        1    1    3    3  502    0 -0.20705995610E+03  0.20994168149E+03  0.34588076097E+03  0.45451384564E+03  0.50400001928E-02 0. -1.
       -1    1    3    3    0  502  0.20705995610E+03 -0.20994168149E+03 -0.33423935899E+03  0.44571883982E+03  0.50400001928E-02 0.  1.
</event>
<event>
 5   0  0.4033144E-04  0.8982115E+03  0.7818609E-02  0.9427820E-01
        2   -1    0    0  501    0  0.00000000000E+00  0.00000000000E+00  0.63392670973E+03  0.63392670974E+03  0.25500000920E-02 0.  1.
       -2   -1    0    0    0  501  0.00000000000E+00  0.00000000000E+00 -0.31816924231E+03  0.31816924232E+03  0.25500000920E-02 0. -1.
    10030    2    1    2    0    0  0.00000000000E+00  0.00000000000E+00  0.31575746742E+03  0.95209595206E+03  0.89821151390E+03 0.  0.
        4    1    3    3  502    0 -0.14497811794E+03  0.76363600407E+02 -0.28534994926E+03  0.32905358316E+03  0.12699999809E+01 0. -1.
       -4    1    3    3    0  502  0.14497811794E+03 -0.76363600407E+02  0.60110741668E+03  0.62304236890E+03  0.12699999809E+01 0.  1.
</event>
<event>
 5   0  0.4110039E-04  0.8996547E+03  0.7818609E-02  0.9426013E-01
        2   -1    0    0  501    0  0.00000000000E+00  0.00000000000E+00  0.56792220362E+03  0.56792220363E+03  0.25500000920E-02 0.  1.
       -2   -1    0    0    0  501  0.00000000000E+00  0.00000000000E+00 -0.35628939676E+03  0.35628939677E+03  0.25500000920E-02 0. -1.
    10030    2    1    2    0    0  0.00000000000E+00  0.00000000000E+00  0.21163280686E+03  0.92421160040E+03  0.89965473232E+03 0.  0.
        3    1    3    3  502    0  0.40098586865E+03 -0.20327788456E+03  0.90132588331E+02  0.45851440424E+03  0.10100000352E+00 0.  1.
       -3    1    3    3    0  502 -0.40098586865E+03  0.20327788456E+03  0.12150021853E+03  0.46569719616E+03  0.10100000352E+00 0. -1.
</event>
<event>
 5   0  0.2356918E-04  0.8998518E+03  0.7818609E-02  0.9425767E-01
       -1   -1    0    0    0  501  0.00000000000E+00  0.00000000000E+00  0.42148983765E+03  0.42148983768E+03  0.50400001928E-02 0.  1.
        1   -1    0    0  501    0  0.00000000000E+00  0.00000000000E+00 -0.48028038628E+03  0.48028038631E+03  0.50400001928E-02 0. -1.
    10030    2    1    2    0    0  0.00000000000E+00  0.00000000000E+00 -0.58790548631E+02  0.90177022399E+03  0.89985177016E+03 0.  0.
        5    1    3    3  502    0  0.12267759692E+02  0.44351470432E+03  0.45298329075E+02  0.44601549243E+03  0.46999998093E+01 0.  1.
       -5    1    3    3    0  502 -0.12267759692E+02 -0.44351470432E+03 -0.10408887771E+03  0.45575473156E+03  0.46999998093E+01 0. -1.
</event>
<event>
 5   0  0.4236284E-04  0.9000440E+03  0.7818609E-02  0.9425526E-01
        2   -1    0    0  501    0  0.00000000000E+00  0.00000000000E+00  0.14926940926E+04  0.14926940926E+04  0.25500000920E-02 0. -1.
       -2   -1    0    0    0  501  0.00000000000E+00  0.00000000000E+00 -0.13567401250E+03  0.13567401253E+03  0.25500000920E-02 0.  1.
    10030    2    1    2    0    0  0.00000000000E+00  0.00000000000E+00  0.13570200801E+04  0.16283681052E+04  0.90004399228E+03 0.  0.
        2    1    3    3  502    0 -0.11540105254E+03 -0.15578396059E+03  0.14132668481E+04  0.14265024463E+04  0.25500000920E-02 0. -1.
       -2    1    3    3    0  502  0.11540105254E+03  0.15578396059E+03 -0.56246768001E+02  0.20186565885E+03  0.25500000920E-02 0.  1.
</event>
<event>
 5   0  0.1596250E-04  0.9000968E+03  0.7818609E-02  0.9425460E-01
       -3   -1    0    0    0  501  0.00000000000E+00  0.00000000000E+00  0.56772995588E+03  0.56772996486E+03  0.10100000352E+00 0. -1.
        3   -1    0    0  501    0  0.00000000000E+00  0.00000000000E+00 -0.35676037349E+03  0.35676038779E+03  0.10100000352E+00 0.  1.
    10030    2    1    2    0    0  0.00000000000E+00  0.00000000000E+00  0.21096958238E+03  0.92449035265E+03  0.90009679893E+03 0.  0.
        5    1    3    3  502    0  0.18862947071E+03 -0.21882338896E+03  0.45988186020E+03  0.54311892631E+03  0.46999998093E+01 0. -1.
       -5    1    3    3    0  502 -0.18862947071E+03  0.21882338896E+03 -0.24891227782E+03  0.38137142633E+03  0.46999998093E+01 0.  1.
</event>
<event>
 5   0  0.4033144E-04  0.9037519E+03  0.7818609E-02  0.9420903E-01
       -2   -1    0    0    0  501  0.00000000000E+00  0.00000000000E+00  0.12403304325E+03  0.12403304328E+03  0.25500000920E-02 0.  1.
        2   -1    0    0  501    0  0.00000000000E+00  0.00000000000E+00 -0.16462701111E+04  0.16462701111E+04  0.25500000920E-02 0. -1.
    10030    2    1    2    0    0  0.00000000000E+00  0.00000000000E+00 -0.15222370679E+04  0.17703031544E+04  0.90375193926E+03 0.  0.
        4    1    3    3  502    0 -0.33220860882E+03  0.27795810987E+03 -0.10132461673E+04  0.11019494903E+04  0.12699999809E+01 0. -1.
       -4    1    3    3    0  502  0.33220860882E+03 -0.27795810987E+03 -0.50899090053E+03  0.66835366412E+03  0.12699999809E+01 0.  1.
</event>
<event>
 5   0  0.2308362E-04  0.9003029E+03  0.7818609E-02  0.9425203E-01
        1   -1    0    0  501    0  0.00000000000E+00  0.00000000000E+00  0.10667066795E+04  0.10667066795E+04  0.50400001928E-02 0. -1.
       -1   -1    0    0    0  501  0.00000000000E+00  0.00000000000E+00 -0.18996441266E+03  0.18996441272E+03  0.50400001928E-02 0.  1.
    10030    2    1    2    0    0  0.00000000000E+00  0.00000000000E+00  0.87674226680E+03  0.12566710922E+04  0.90030285547E+03 0.  0.
        1    1    3    3  502    0  0.11718182100E+03 -0.40430153329E+03  0.66102703732E+03  0.78367598731E+03  0.50400001928E-02 0.  1.
       -1    1    3    3    0  502 -0.11718182100E+03  0.40430153329E+03  0.21571522949E+03  0.47299510489E+03  0.50400001928E-02 0. -1.
</event>
<event>
 5   0  0.4236284E-04  0.9015380E+03  0.7818609E-02  0.9423661E-01
       -2   -1    0    0    0  501  0.00000000000E+00  0.00000000000E+00  0.13058819007E+03  0.13058819009E+03  0.25500000920E-02 0. -1.
        2   -1    0    0  501    0  0.00000000000E+00  0.00000000000E+00 -0.15559804764E+04  0.15559804764E+04  0.25500000920E-02 0.  1.
    10030    2    1    2    0    0  0.00000000000E+00  0.00000000000E+00 -0.14253922864E+04  0.16865686665E+04  0.90153796197E+03 0.  0.
        2    1    3    3  502    0 -0.29888089948E+03 -0.33741239583E+03 -0.72012223892E+03  0.84956044866E+03  0.25500000920E-02 0. -1.
       -2    1    3    3    0  502  0.29888089948E+03  0.33741239583E+03 -0.70527004744E+03  0.83700821786E+03  0.25500000920E-02 0.  1.
</event>
<event>
 5   0  0.2356918E-04  0.8999446E+03  0.7818609E-02  0.9425651E-01
        1   -1    0    0  501    0  0.00000000000E+00  0.00000000000E+00  0.43278335181E+03  0.43278335184E+03  0.50400001928E-02 0.  1.
       -1   -1    0    0    0  501  0.00000000000E+00  0.00000000000E+00 -0.46784393857E+03  0.46784393860E+03  0.50400001928E-02 0. -1.
    10030    2    1    2    0    0  0.00000000000E+00  0.00000000000E+00 -0.35060586767E+02  0.90062729044E+03  0.89994459359E+03 0.  0.
        5    1    3    3  502    0 -0.27275755457E+03  0.12368821690E+03  0.31851830373E+03  0.43723158439E+03  0.46999998093E+01 0.  1.
       -5    1    3    3    0  502  0.27275755457E+03 -0.12368821690E+03 -0.35357889050E+03  0.46339570605E+03  0.46999998093E+01 0. -1.
</event>
<event>
 5   0  0.1596250E-04  0.9002934E+03  0.7818609E-02  0.9425215E-01
       -3   -1    0    0    0  501  0.00000000000E+00  0.00000000000E+00  0.81307906514E+03  0.81307907141E+03  0.10100000352E+00 0. -1.
        3   -1    0    0  501    0  0.00000000000E+00  0.00000000000E+00 -0.24921566741E+03  0.24921568787E+03  0.10100000352E+00 0.  1.
    10030    2    1    2    0    0  0.00000000000E+00  0.00000000000E+00  0.56386339773E+03  0.10622947593E+04  0.90029341012E+03 0.  0.
        4    1    3    3  502    0 -0.40271564801E+02  0.25198459483E+03 -0.15562255623E+03  0.29889467688E+03  0.12699999809E+01 0.  1.
       -4    1    3    3    0  502  0.40271564801E+02 -0.25198459483E+03  0.71948595396E+03  0.76340008240E+03  0.12699999809E+01 0. -1.
</event>
<event>
 5   0  0.2308362E-04  0.8999754E+03  0.7818609E-02  0.9425612E-01
        1   -1    0    0  501    0  0.00000000000E+00  0.00000000000E+00  0.50535522443E+03  0.50535522446E+03  0.50400001928E-02 0.  1.
       -1   -1    0    0    0  501  0.00000000000E+00  0.00000000000E+00 -0.40068629289E+03  0.40068629292E+03  0.50400001928E-02 0. -1.
    10030    2    1    2    0    0  0.00000000000E+00  0.00000000000E+00  0.10466893155E+03  0.90604151738E+03  0.89997535854E+03 0.  0.
        1    1    3    3  502    0  0.30401936141E+02 -0.44699592497E+03  0.10108016008E+02  0.44814261868E+03  0.50400001928E-02 0.  1.
       -1    1    3    3    0  502 -0.30401936141E+02  0.44699592497E+03  0.94560915537E+02  0.45789889870E+03  0.50400001928E-02 0. -1.
</event>
<event>
 5   0  0.3959804E-04  0.9000455E+03  0.7818609E-02  0.9425525E-01
        2   -1    0    0  501    0  0.00000000000E+00  0.00000000000E+00  0.12055762796E+04  0.12055762796E+04  0.25500000920E-02 0.  1.
       -2   -1    0    0    0  501  0.00000000000E+00  0.00000000000E+00 -0.16798644583E+03  0.16798644584E+03  0.25500000920E-02 0. -1.
    10030    2    1    2    0    0  0.00000000000E+00  0.00000000000E+00  0.10375898337E+04  0.13735627254E+04  0.90004549750E+03 0.  0.
        5    1    3    3  502    0  0.49798847715E+02  0.44105249446E+03  0.40570706994E+03  0.60135475777E+03  0.46999998093E+01 0. -1.
       -5    1    3    3    0  502 -0.49798847715E+02 -0.44105249446E+03  0.63188276381E+03  0.77220796764E+03  0.46999998093E+01 0.  1.
</event>
<event>
 5   0  0.2356918E-04  0.9020052E+03  0.7818609E-02  0.9423078E-01
        1   -1    0    0  501    0  0.00000000000E+00  0.00000000000E+00  0.96889716087E+03  0.96889716089E+03  0.50400001928E-02 0. -1.
       -1   -1    0    0    0  501  0.00000000000E+00  0.00000000000E+00 -0.20993285573E+03  0.20993285579E+03  0.50400001928E-02 0.  1.
    10030    2    1    2    0    0  0.00000000000E+00  0.00000000000E+00  0.75896430515E+03  0.11788300167E+04  0.90200520604E+03 0.  0.
        5    1    3    3  502    0  0.25297409704E+02 -0.26028103477E+03  0.85965888847E+03  0.89856645303E+03  0.46999998093E+01 0. -1.
       -5    1    3    3    0  502 -0.25297409704E+02  0.26028103477E+03 -0.10069458332E+03  0.28026356364E+03  0.46999998093E+01 0.  1.
</event>
<event>
 5   0  0.4110039E-04  0.9007162E+03  0.7818609E-02  0.9424687E-01
       -2   -1    0    0    0  501  0.00000000000E+00  0.00000000000E+00  0.95787628174E+02  0.95787628208E+02  0.25500000920E-02 0.  1.
        2   -1    0    0  501    0  0.00000000000E+00  0.00000000000E+00 -0.21174174752E+04  0.21174174752E+04  0.25500000920E-02 0. -1.
    10030    2    1    2    0    0  0.00000000000E+00  0.00000000000E+00 -0.20216298471E+04  0.22132051034E+04  0.90071615473E+03 0.  0.
        3    1    3    3  502    0 -0.37300615741E+03 -0.25146782917E+03 -0.95853306905E+03  0.10588462198E+04  0.10100000352E+00 0. -1.
       -3    1    3    3    0  502  0.37300615741E+03  0.25146782917E+03 -0.10630967780E+04  0.11543588836E+04  0.10100000352E+00 0.  1.
</event>
<event>
 5   0  0.2308362E-04  0.8999250E+03  0.7818609E-02  0.9425675E-01
        1   -1    0    0  501    0  0.00000000000E+00  0.00000000000E+00  0.10395770363E+04  0.10395770363E+04  0.50400001928E-02 0. -1.
       -1   -1    0    0    0  501  0.00000000000E+00  0.00000000000E+00 -0.19475829958E+03  0.19475829964E+03  0.50400001928E-02 0.  1.
    10030    2    1    2    0    0  0.00000000000E+00  0.00000000000E+00  0.84481873673E+03  0.12343353360E+04  0.89992501003E+03 0.  0.
        1    1    3    3  502    0  0.37972404054E+03 -0.55140999039E+02  0.74476518429E+03  0.83779833880E+03  0.50400001928E-02 0. -1.
       -1    1    3    3    0  502 -0.37972404054E+03  0.55140999039E+02  0.10005355245E+03  0.39653699717E+03  0.50400001928E-02 0.  1.
</event>
<event>
 5   0  0.2450427E-04  0.9001709E+03  0.7818609E-02  0.9425368E-01
        1   -1    0    0  501    0  0.00000000000E+00  0.00000000000E+00  0.78487982783E+03  0.78487982785E+03  0.50400001928E-02 0.  1.
       -1   -1    0    0    0  501  0.00000000000E+00  0.00000000000E+00 -0.25809926240E+03  0.25809926245E+03  0.50400001928E-02 0. -1.
    10030    2    1    2    0    0  0.00000000000E+00  0.00000000000E+00  0.52678056543E+03  0.10429790903E+04  0.90017088304E+03 0.  0.
        3    1    3    3  502    0 -0.44335645586E+03 -0.77040224252E+02  0.25323963682E+03  0.51636272809E+03  0.10100000352E+00 0. -1.
       -3    1    3    3    0  502  0.44335645586E+03  0.77040224252E+02  0.27354092862E+03  0.52661636220E+03  0.10100000352E+00 0.  1.
</event>
<event>
 5   0  0.4110039E-04  0.9000441E+03  0.7818609E-02  0.9425526E-01
       -2   -1    0    0    0  501  0.00000000000E+00  0.00000000000E+00  0.10008352730E+04  0.10008352730E+04  0.25500000920E-02 0. -1.
        2   -1    0    0  501    0  0.00000000000E+00  0.00000000000E+00 -0.20235084871E+03  0.20235084873E+03  0.25500000920E-02 0.  1.
    10030    2    1    2    0    0  0.00000000000E+00  0.00000000000E+00  0.79848442430E+03  0.12031861217E+04  0.90004414764E+03 0.  0.
        3    1    3    3  502    0  0.14408326088E+03  0.16258677869E+03 -0.12761175664E+03  0.25195082319E+03  0.10100000352E+00 0.  1.
       -3    1    3    3    0  502 -0.14408326088E+03 -0.16258677869E+03  0.92609618094E+03  0.95123529855E+03  0.10100000352E+00 0. -1.
</event>
<event>
 5   0  0.3959804E-04  0.8998414E+03  0.7818609E-02  0.9425780E-01
       -2   -1    0    0    0  501  0.00000000000E+00  0.00000000000E+00  0.32081524749E+03  0.32081524750E+03  0.25500000920E-02 0. -1.
        2   -1    0    0  501    0  0.00000000000E+00  0.00000000000E+00 -0.63098193641E+03  0.63098193642E+03  0.25500000920E-02 0.  1.
    10030    2    1    2    0    0  0.00000000000E+00  0.00000000000E+00 -0.31016668893E+03  0.95179718391E+03  0.89984137735E+03 0.  0.
        5    1    3    3  502    0  0.15700716782E+03 -0.95858216383E+02 -0.58935759054E+03  0.61741761226E+03  0.46999998093E+01 0.  1.
       -5    1    3    3    0  502 -0.15700716782E+03  0.95858216383E+02  0.27919090162E+03  0.33437957166E+03  0.46999998093E+01 0. -1.
</event>
<event>
 5   0  0.3959804E-04  0.9007639E+03  0.7818609E-02  0.9424627E-01
       -2   -1    0    0    0  501  0.00000000000E+00  0.00000000000E+00  0.24155985021E+03  0.24155985023E+03  0.25500000920E-02 0. -1.
        2   -1    0    0  501    0  0.00000000000E+00  0.00000000000E+00 -0.83972517131E+03  0.83972517131E+03  0.25500000920E-02 0.  1.
    10030    2    1    2    0    0  0.00000000000E+00  0.00000000000E+00 -0.59816532110E+03  0.10812850215E+04  0.90076386830E+03 0.  0.
        5    1    3    3  502    0  0.22036135733E+03  0.16573123537E+03  0.12836378400E+03  0.30417975150E+03  0.46999998093E+01 0. -1.
       -5    1    3    3    0  502 -0.22036135733E+03 -0.16573123537E+03 -0.72652910510E+03  0.77710527004E+03  0.46999998093E+01 0.  1.
</event>
<event>
 5   0  0.2351435E-04  0.8988189E+03  0.7818609E-02  0.9427059E-01
       -1   -1    0    0    0  501  0.00000000000E+00  0.00000000000E+00  0.30520383801E+03  0.30520383806E+03  0.50400001928E-02 0.  1.
        1   -1    0    0  501    0  0.00000000000E+00  0.00000000000E+00 -0.66175064768E+03  0.66175064770E+03  0.50400001928E-02 0. -1.
    10030    2    1    2    0    0  0.00000000000E+00  0.00000000000E+00 -0.35654680967E+03  0.96695448576E+03  0.89881886387E+03 0.  0.
        4    1    3    3  502    0  0.17171928081E+02  0.44902645428E+03 -0.17085168231E+03  0.48074061822E+03  0.12699999809E+01 0.  1.
       -4    1    3    3    0  502 -0.17171928081E+02 -0.44902645428E+03 -0.18569512736E+03  0.48621386754E+03  0.12699999809E+01 0. -1.
</event>
<event>
 5   0  0.2356918E-04  0.9010147E+03  0.7818609E-02  0.9424314E-01
       -1   -1    0    0    0  501  0.00000000000E+00  0.00000000000E+00  0.19124079377E+03  0.19124079384E+03  0.50400001928E-02 0.  1.
        1   -1    0    0  501    0  0.00000000000E+00  0.00000000000E+00 -0.10612634344E+04  0.10612634344E+04  0.50400001928E-02 0. -1.
    10030    2    1    2    0    0  0.00000000000E+00  0.00000000000E+00 -0.87002264059E+03  0.12525042282E+04  0.90101467609E+03 0.  0.
        5    1    3    3  502    0  0.43838185902E+03 -0.84000239812E+02 -0.35045370652E+03  0.56751615397E+03  0.46999998093E+01 0.  1.
       -5    1    3    3    0  502 -0.43838185902E+03  0.84000239812E+02 -0.51956893406E+03  0.68498807423E+03  0.46999998093E+01 0. -1.
</event>
<event>
 5   0  0.2351435E-04  0.8998624E+03  0.7818609E-02  0.9425753E-01
        1   -1    0    0  501    0  0.00000000000E+00  0.00000000000E+00  0.17076494826E+04  0.17076494826E+04  0.50400001928E-02 0.  1.
       -1   -1    0    0    0  501  0.00000000000E+00  0.00000000000E+00 -0.11854778664E+03  0.11854778675E+03  0.50400001928E-02 0. -1.
    10030    2    1    2    0    0  0.00000000000E+00  0.00000000000E+00  0.15891016959E+04  0.18261972693E+04  0.89986235975E+03 0.  0.
        4    1    3    3  502    0 -0.31015326774E+02 -0.32592360465E+03  0.16822514315E+03  0.36808892709E+03  0.12699999809E+01 0.  1.
       -4    1    3    3    0  502  0.31015326774E+02  0.32592360465E+03  0.14208765528E+04  0.14581083422E+04  0.12699999809E+01 0. -1.
</event>
<event>
 5   0  0.2308362E-04  0.9000907E+03  0.7818609E-02  0.9425468E-01
       -1   -1    0    0    0  501  0.00000000000E+00  0.00000000000E+00  0.98184632566E+03  0.98184632567E+03  0.50400001928E-02 0. -1.
        1   -1    0    0  501    0  0.00000000000E+00  0.00000000000E+00 -0.20628564872E+03  0.20628564878E+03  0.50400001928E-02 0.  1.
    10030    2    1    2    0    0  0.00000000000E+00  0.00000000000E+00  0.77556067694E+03  0.11881319745E+04  0.90009067605E+03 0.  0.
        1    1    3    3  502    0 -0.25161869293E+03  0.22780995239E+03  0.77786941934E+03  0.84869910723E+03  0.50400001928E-02 0. -1.
       -1    1    3    3    0  502  0.25161869293E+03 -0.22780995239E+03 -0.23087423992E+01  0.33943286723E+03  0.50400001928E-02 0.  1.
</event>
<event>
 5   0  0.1596250E-04  0.9001314E+03  0.7818609E-02  0.9425417E-01
       -3   -1    0    0    0  501  0.00000000000E+00  0.00000000000E+00  0.68401254924E+03  0.68401255670E+03  0.10100000352E+00 0. -1.
        3   -1    0    0  501    0  0.00000000000E+00  0.00000000000E+00 -0.29613363930E+03  0.29613365652E+03  0.10100000352E+00 0.  1.
    10030    2    1    2    0    0  0.00000000000E+00  0.00000000000E+00  0.38787890994E+03  0.98014621322E+03  0.90013140736E+03 0.  0.
        1    1    3    3  502    0 -0.13971492689E+03 -0.39619387138E+03  0.18127024266E+02  0.42049784013E+03  0.50400001928E-02 0.  1.
       -1    1    3    3    0  502  0.13971492689E+03  0.39619387138E+03  0.36975188568E+03  0.55964837309E+03  0.50400001928E-02 0. -1.
</event>
<event>
 5   0  0.2351435E-04  0.9000344E+03  0.7818609E-02  0.9425538E-01
       -1   -1    0    0    0  501  0.00000000000E+00  0.00000000000E+00  0.68740525895E+03  0.68740525896E+03  0.50400001928E-02 0.  1.
        1   -1    0    0  501    0  0.00000000000E+00  0.00000000000E+00 -0.29460854969E+03  0.29460854973E+03  0.50400001928E-02 0. -1.
    10030    2    1    2    0    0  0.00000000000E+00  0.00000000000E+00  0.39279670926E+03  0.98201380870E+03  0.90003436916E+03 0.  0.
        4    1    3    3  502    0 -0.84800849836E+02  0.78499554091E+02  0.67093932636E+03  0.68081903372E+03  0.12699999809E+01 0.  1.
       -4    1    3    3    0  502  0.84800849836E+02 -0.78499554091E+02 -0.27814261710E+03  0.30119477498E+03  0.12699999809E+01 0. -1.
</event>
<event>
 5   0  0.3959804E-04  0.8998656E+03  0.7818609E-02  0.9425749E-01
        2   -1    0    0  501    0  0.00000000000E+00  0.00000000000E+00  0.30574596665E+03  0.30574596666E+03  0.25500000920E-02 0.  1.
       -2   -1    0    0    0  501  0.00000000000E+00  0.00000000000E+00 -0.66211675670E+03  0.66211675671E+03  0.25500000920E-02 0. -1.
    10030    2    1    2    0    0  0.00000000000E+00  0.00000000000E+00 -0.35637079006E+03  0.96786272336E+03  0.89986560734E+03 0.  0.
        5    1    3    3  502    0 -0.91939046822E+02  0.28102570048E+03 -0.54290965024E+03  0.61822424005E+03  0.46999998093E+01 0. -1.
       -5    1    3    3    0  502  0.91939046822E+02 -0.28102570048E+03  0.18653886018E+03  0.34963848332E+03  0.46999998093E+01 0.  1.
</event>
<event>
 5   0  0.3959804E-04  0.9002901E+03  0.7818609E-02  0.9425219E-01
       -2   -1    0    0    0  501  0.00000000000E+00  0.00000000000E+00  0.12334345489E+03  0.12334345492E+03  0.25500000920E-02 0. -1.
        2   -1    0    0  501    0  0.00000000000E+00  0.00000000000E+00 -0.16428156998E+04  0.16428156998E+04  0.25500000920E-02 0.  1.
    10030    2    1    2    0    0  0.00000000000E+00  0.00000000000E+00 -0.15194722449E+04  0.17661591547E+04  0.90029009587E+03 0.  0.
        5    1    3    3  502    0  0.28371809495E+03 -0.17325108196E+03 -0.13550816760E+04  0.13952707025E+04  0.46999998093E+01 0.  1.
       -5    1    3    3    0  502 -0.28371809495E+03  0.17325108196E+03 -0.16439056892E+03  0.37088845217E+03  0.46999998093E+01 0. -1.
</event>
<event>
 5   0  0.3959804E-04  0.8995837E+03  0.7818609E-02  0.9426102E-01
       -2   -1    0    0    0  501  0.00000000000E+00  0.00000000000E+00  0.28618821453E+03  0.28618821454E+03  0.25500000920E-02 0.  1.
        2   -1    0    0  501    0  0.00000000000E+00  0.00000000000E+00 -0.70692185517E+03  0.70692185518E+03  0.25500000920E-02 0. -1.
    10030    2    1    2    0    0  0.00000000000E+00  0.00000000000E+00 -0.42073364064E+03  0.99311006972E+03  0.89958368939E+03 0.  0.
        5    1    3    3  502    0  0.26278235778E+03  0.35685451537E+03 -0.12563497404E+03  0.46065816980E+03  0.46999998093E+01 0.  1.
       -5    1    3    3    0  502 -0.26278235778E+03 -0.35685451537E+03 -0.29509866660E+03  0.53245189992E+03  0.46999998093E+01 0. -1.
</event>
<event>
 5   0  0.2308362E-04  0.8995959E+03  0.7818609E-02  0.9426087E-01
       -1   -1    0    0    0  501  0.00000000000E+00  0.00000000000E+00  0.10727329659E+03  0.10727329671E+03  0.50400001928E-02 0. -1.
        1   -1    0    0  501    0  0.00000000000E+00  0.00000000000E+00 -0.18860069304E+04  0.18860069304E+04  0.50400001928E-02 0.  1.
    10030    2    1    2    0    0  0.00000000000E+00  0.00000000000E+00 -0.17787336338E+04  0.19932802271E+04  0.89959586690E+03 0.  0.
        1    1    3    3  502    0  0.10023806058E+03 -0.43754331320E+03 -0.95306189359E+03  0.10534793746E+04  0.50400001928E-02 0. -1.
       -1    1    3    3    0  502 -0.10023806058E+03  0.43754331320E+03 -0.82567174018E+03  0.93980085245E+03  0.50400001928E-02 0.  1.
</event>
<event>
 5   0  0.4243516E-04  0.8998104E+03  0.7818609E-02  0.9425818E-01
        2   -1    0    0  501    0  0.00000000000E+00  0.00000000000E+00  0.16998121130E+04  0.16998121130E+04  0.25500000920E-02 0.  1.
       -2   -1    0    0    0  501  0.00000000000E+00  0.00000000000E+00 -0.11908063740E+03  0.11908063743E+03  0.25500000920E-02 0. -1.
    10030    2    1    2    0    0  0.00000000000E+00  0.00000000000E+00  0.15807314756E+04  0.18188927504E+04  0.89981044650E+03 0.  0.
        1    1    3    3  502    0 -0.13512840242E+03  0.25547358949E+03  0.93377314798E+02  0.30371987589E+03  0.50400001928E-02 0. -1.
       -1    1    3    3    0  502  0.13512840242E+03 -0.25547358949E+03  0.14873541608E+04  0.15151728745E+04  0.50400001928E-02 0.  1.
</event>
<event>
 5   0  0.4243516E-04  0.8999525E+03  0.7818609E-02  0.9425641E-01
        2   -1    0    0  501    0  0.00000000000E+00  0.00000000000E+00  0.34064966941E+03  0.34064966942E+03  0.25500000920E-02 0. -1.
       -2   -1    0    0    0  501  0.00000000000E+00  0.00000000000E+00 -0.59438960292E+03  0.59438960293E+03  0.25500000920E-02 0.  1.
    10030    2    1    2    0    0  0.00000000000E+00  0.00000000000E+00 -0.25373993351E+03  0.93503927235E+03  0.89995249151E+03 0.  0.
        1    1    3    3  502    0 -0.13830591923E+03 -0.30283724228E+03  0.18765280596E+03  0.38216815437E+03  0.50400001928E-02 0. -1.
       -1    1    3    3    0  502  0.13830591923E+03  0.30283724228E+03 -0.44139273947E+03  0.55287111798E+03  0.50400001928E-02 0.  1.
</event>
<event>
 5   0  0.2308362E-04  0.8999221E+03  0.7818609E-02  0.9425679E-01
       -1   -1    0    0    0  501  0.00000000000E+00  0.00000000000E+00  0.12191999193E+04  0.12191999193E+04  0.50400001928E-02 0.  1.
        1   -1    0    0  501    0  0.00000000000E+00  0.00000000000E+00 -0.16606376945E+03  0.16606376952E+03  0.50400001928E-02 0. -1.
    10030    2    1    2    0    0  0.00000000000E+00  0.00000000000E+00  0.10531361498E+04  0.13852636888E+04  0.89992207299E+03 0.  0.
        1    1    3    3  502    0 -0.24678535649E+03  0.58587824310E+02  0.10986662885E+04  0.11275651461E+04  0.50400001928E-02 0.  1.
       -1    1    3    3    0  502  0.24678535649E+03 -0.58587824310E+02 -0.45530138653E+02  0.25769854266E+03  0.50400001928E-02 0. -1.
</event>
<event>
 5   0  0.4033144E-04  0.8999427E+03  0.7818609E-02  0.9425653E-01
        2   -1    0    0  501    0  0.00000000000E+00  0.00000000000E+00  0.14562063048E+04  0.14562063048E+04  0.25500000920E-02 0. -1.
       -2   -1    0    0    0  501  0.00000000000E+00  0.00000000000E+00 -0.13904226271E+03  0.13904226273E+03  0.25500000920E-02 0.  1.
    10030    2    1    2    0    0  0.00000000000E+00  0.00000000000E+00  0.13171640421E+04  0.15952485676E+04  0.89994270844E+03 0.  0.
        4    1    3    3  502    0  0.26416965290E+03  0.39204466524E+02  0.13005267933E+04  0.13276649234E+04  0.12699999809E+01 0. -1.
       -4    1    3    3    0  502 -0.26416965290E+03 -0.39204466524E+02  0.16637248824E+02  0.26758364422E+03  0.12699999809E+01 0.  1.
</event>
<event>
 5   0  0.2332791E-04  0.9001642E+03  0.7818609E-02  0.9425376E-01
       -1   -1    0    0    0  501  0.00000000000E+00  0.00000000000E+00  0.26244879350E+03  0.26244879355E+03  0.50400001928E-02 0. -1.
        1   -1    0    0  501    0  0.00000000000E+00  0.00000000000E+00 -0.77186068156E+03  0.77186068158E+03  0.50400001928E-02 0.  1.
    10030    2    1    2    0    0  0.00000000000E+00  0.00000000000E+00 -0.50941188806E+03  0.10343094751E+04  0.90016421759E+03 0.  0.
        2    1    3    3  502    0 -0.98075586569E+02  0.32581112237E+03  0.83821681783E+02  0.35042514533E+03  0.25500000920E-02 0. -1.
       -2    1    3    3    0  502  0.98075586569E+02 -0.32581112237E+03 -0.59323356985E+03  0.68388432979E+03  0.25500000920E-02 0.  1.
</event>
<event>
 5   0  0.4236284E-04  0.8999303E+03  0.7818609E-02  0.9425669E-01
       -2   -1    0    0    0  501  0.00000000000E+00  0.00000000000E+00  0.10372937051E+03  0.10372937054E+03  0.25500000920E-02 0. -1.
        2   -1    0    0  501    0  0.00000000000E+00  0.00000000000E+00 -0.19518931941E+04  0.19518931941E+04  0.25500000920E-02 0.  1.
    10030    2    1    2    0    0  0.00000000000E+00  0.00000000000E+00 -0.18481638236E+04  0.20556225646E+04  0.89993033588E+03 0.  0.
        2    1    3    3  502    0 -0.43233268778E+03 -0.30101100942E+02 -0.12005649301E+04  0.12763909199E+04  0.25500000920E-02 0. -1.
       -2    1    3    3    0  502  0.43233268778E+03  0.30101100942E+02 -0.64759889353E+03  0.77923164471E+03  0.25500000920E-02 0.  1.
</event>
<event>
 5   0  0.2308362E-04  0.9000291E+03  0.7818609E-02  0.9425545E-01
       -1   -1    0    0    0  501  0.00000000000E+00  0.00000000000E+00  0.42816235209E+03  0.42816235212E+03  0.50400001928E-02 0. -1.
        1   -1    0    0  501    0  0.00000000000E+00  0.00000000000E+00 -0.47298200934E+03  0.47298200937E+03  0.50400001928E-02 0.  1.
    10030    2    1    2    0    0  0.00000000000E+00  0.00000000000E+00 -0.44819657257E+02  0.90114436149E+03  0.90002908762E+03 0.  0.
        1    1    3    3  502    0 -0.73585879821E+02  0.30774594044E+02 -0.46584816261E+03  0.47262719767E+03  0.50400001928E-02 0.  1.
       -1    1    3    3    0  502  0.73585879821E+02 -0.30774594044E+02  0.42102850535E+03  0.42851716382E+03  0.50400001928E-02 0. -1.
</event>
<event>
 5   0  0.4236284E-04  0.8997129E+03  0.7818609E-02  0.9425940E-01
       -2   -1    0    0    0  501  0.00000000000E+00  0.00000000000E+00  0.25643201260E+03  0.25643201261E+03  0.25500000920E-02 0.  1.
        2   -1    0    0  501    0  0.00000000000E+00  0.00000000000E+00 -0.78917932552E+03  0.78917932553E+03  0.25500000920E-02 0. -1.
    10030    2    1    2    0    0  0.00000000000E+00  0.00000000000E+00 -0.53274731292E+03  0.10456113381E+04  0.89971293812E+03 0.  0.
        2    1    3    3  502    0 -0.15464045548E+03  0.13016986083E+03 -0.73343081478E+03  0.76077501485E+03  0.25500000920E-02 0. -1.
       -2    1    3    3    0  502  0.15464045548E+03 -0.13016986083E+03  0.20068350186E+03  0.28483632329E+03  0.25500000920E-02 0.  1.
</event>
<event>
 5   0  0.3959804E-04  0.9003699E+03  0.7818609E-02  0.9425119E-01
        2   -1    0    0  501    0  0.00000000000E+00  0.00000000000E+00  0.12108237538E+04  0.12108237538E+04  0.25500000920E-02 0.  1.
       -2   -1    0    0    0  501  0.00000000000E+00  0.00000000000E+00 -0.16737901654E+03  0.16737901656E+03  0.25500000920E-02 0. -1.
    10030    2    1    2    0    0  0.00000000000E+00  0.00000000000E+00  0.10434447372E+04  0.13782027703E+04  0.90036989983E+03 0.  0.
        5    1    3    3  502    0 -0.32834118993E+03 -0.17393738854E+03  0.13272315223E+03  0.39458798420E+03  0.46999998093E+01 0. -1.
       -5    1    3    3    0  502  0.32834118993E+03  0.17393738854E+03  0.91072158500E+03  0.98361478614E+03  0.46999998093E+01 0.  1.
</event>
<event>
 5   0  0.3959804E-04  0.8994020E+03  0.7818609E-02  0.9426329E-01
        2   -1    0    0  501    0  0.00000000000E+00  0.00000000000E+00  0.11526561416E+04  0.11526561416E+04  0.25500000920E-02 0. -1.
       -2   -1    0    0    0  501  0.00000000000E+00  0.00000000000E+00 -0.17544780021E+03  0.17544780023E+03  0.25500000920E-02 0.  1.
    10030    2    1    2    0    0  0.00000000000E+00  0.00000000000E+00  0.97720834137E+03  0.13281039418E+04  0.89940198901E+03 0.  0.
        5    1    3    3  502    0 -0.21728212785E+03  0.14301788965E+03 -0.53033905132E+02  0.26551897283E+03  0.46999998093E+01 0.  1.
       -5    1    3    3    0  502  0.21728212785E+03 -0.14301788965E+03  0.10302422465E+04  0.10625849690E+04  0.46999998093E+01 0. -1.
</event>
<event>
 5   0  0.1596250E-04  0.8998907E+03  0.7818609E-02  0.9425718E-01
       -4   -1    0    0    0  501  0.00000000000E+00  0.00000000000E+00  0.65791771008E+03  0.65791893584E+03  0.12699999809E+01 0.  1.
        4   -1    0    0  501    0  0.00000000000E+00  0.00000000000E+00 -0.30771168996E+03  0.30771431075E+03  0.12699999809E+01 0. -1.
    10030    2    1    2    0    0  0.00000000000E+00  0.00000000000E+00  0.35020602012E+03  0.96563324659E+03  0.89989072136E+03 0.  0.
        2    1    3    3  502    0  0.22455996616E+03  0.37967533043E+03  0.79907190559E+02  0.44829197411E+03  0.25500000920E-02 0. -1.
       -2    1    3    3    0  502 -0.22455996616E+03 -0.37967533043E+03  0.27029882956E+03  0.51734127248E+03  0.25500000920E-02 0.  1.
</event>
<event>
 5   0  0.2308362E-04  0.8983020E+03  0.7818609E-02  0.9427707E-01
        1   -1    0    0  501    0  0.00000000000E+00  0.00000000000E+00  0.58810690158E+03  0.58810690160E+03  0.50400001928E-02 0. -1.
       -1   -1    0    0    0  501  0.00000000000E+00  0.00000000000E+00 -0.34302709859E+03  0.34302709862E+03  0.50400001928E-02 0.  1.
    10030    2    1    2    0    0  0.00000000000E+00  0.00000000000E+00  0.24507980299E+03  0.93113400022E+03  0.89830196289E+03 0.  0.
        1    1    3    3  502    0 -0.25746074633E+03 -0.22238808602E+02  0.50333025773E+03  0.56579320328E+03  0.50400001928E-02 0. -1.
       -1    1    3    3    0  502  0.25746074633E+03  0.22238808602E+02 -0.25825045474E+03  0.36534079694E+03  0.50400001928E-02 0.  1.
</event>
<event>
 5   0  0.2308362E-04  0.8998490E+03  0.7818609E-02  0.9425770E-01
       -1   -1    0    0    0  501  0.00000000000E+00  0.00000000000E+00  0.24400218281E+03  0.24400218286E+03  0.50400001928E-02 0.  1.
        1   -1    0    0  501    0  0.00000000000E+00  0.00000000000E+00 -0.82963214142E+03  0.82963214144E+03  0.50400001928E-02 0. -1.
    10030    2    1    2    0    0  0.00000000000E+00  0.00000000000E+00 -0.58562995862E+03  0.10736343243E+04  0.89984899504E+03 0.  0.
        1    1    3    3  502    0  0.27691068186E+03  0.29390585695E+03 -0.52955942579E+03  0.66595297427E+03  0.50400001928E-02 0. -1.
       -1    1    3    3    0  502 -0.27691068186E+03 -0.29390585695E+03 -0.56070532830E+02  0.40768135002E+03  0.50400001928E-02 0.  1.
</event>
<event>
 5   0  0.2450427E-04  0.8994997E+03  0.7818609E-02  0.9426207E-01
       -1   -1    0    0    0  501  0.00000000000E+00  0.00000000000E+00  0.37524344393E+03  0.37524344397E+03  0.50400001928E-02 0. -1.
        1   -1    0    0  501    0  0.00000000000E+00  0.00000000000E+00 -0.53904981414E+03  0.53904981416E+03  0.50400001928E-02 0.  1.
    10030    2    1    2    0    0  0.00000000000E+00  0.00000000000E+00 -0.16380637021E+03  0.91429325813E+03  0.89949965811E+03 0.  0.
        3    1    3    3  502    0  0.15216991635E+03 -0.28988444798E+03 -0.39533516831E+03  0.51330164828E+03  0.10100000352E+00 0.  1.
       -3    1    3    3    0  502 -0.15216991635E+03  0.28988444798E+03  0.23152879810E+03  0.40099160985E+03  0.10100000352E+00 0. -1.
</event>
<event>
 5   0  0.4243516E-04  0.8999160E+03  0.7818609E-02  0.9425686E-01
       -2   -1    0    0    0  501  0.00000000000E+00  0.00000000000E+00  0.11051879357E+03  0.11051879360E+03  0.25500000920E-02 0. -1.
        2   -1    0    0  501    0  0.00000000000E+00  0.00000000000E+00 -0.18319254972E+04  0.18319254972E+04  0.25500000920E-02 0.  1.
    10030    2    1    2    0    0  0.00000000000E+00  0.00000000000E+00 -0.17214067036E+04  0.19424442908E+04  0.89991598695E+03 0.  0.
        1    1    3    3  502    0  0.16882779926E+03 -0.45422775808E+01  0.39508574072E+02  0.17344850976E+03  0.50400001928E-02 0. -1.
       -1    1    3    3    0  502 -0.16882779926E+03  0.45422775808E+01 -0.17609152777E+04  0.17689957810E+04  0.50400001928E-02 0.  1.
</event>
<event>
 5   0  0.2356918E-04  0.9000265E+03  0.7818609E-02  0.9425548E-01
       -1   -1    0    0    0  501  0.00000000000E+00  0.00000000000E+00  0.12920307991E+04  0.12920307991E+04  0.50400001928E-02 0.  1.
        1   -1    0    0  501    0  0.00000000000E+00  0.00000000000E+00 -0.15673924971E+03  0.15673924980E+03  0.50400001928E-02 0. -1.
    10030    2    1    2    0    0  0.00000000000E+00  0.00000000000E+00  0.11352915494E+04  0.14487700489E+04  0.90002652878E+03 0.  0.
        5    1    3    3  502    0 -0.11462862197E+02 -0.20830777731E+03  0.12094413369E+04  0.12273116820E+04  0.46999998093E+01 0.  1.
       -5    1    3    3    0  502  0.11462862197E+02  0.20830777731E+03 -0.74149787514E+02  0.22145836694E+03  0.46999998093E+01 0. -1.
</event>
<event>
 5   0  0.4243516E-04  0.8998079E+03  0.7818609E-02  0.9425822E-01
        2   -1    0    0  501    0  0.00000000000E+00  0.00000000000E+00  0.13431665700E+04  0.13431665700E+04  0.25500000920E-02 0. -1.
       -2   -1    0    0    0  501  0.00000000000E+00  0.00000000000E+00 -0.15069878888E+03  0.15069878891E+03  0.25500000920E-02 0.  1.
    10030    2    1    2    0    0  0.00000000000E+00  0.00000000000E+00  0.11924677811E+04  0.14938653589E+04  0.89980792481E+03 0.  0.
        1    1    3    3  502    0 -0.20547255573E+03  0.25685475557E+03  0.11058389640E+04  0.11537214356E+04  0.50400001928E-02 0. -1.
       -1    1    3    3    0  502  0.20547255573E+03 -0.25685475557E+03  0.86628817162E+02  0.34014392336E+03  0.50400001928E-02 0.  1.
</event>
<event>
 5   0  0.4110039E-04  0.9000606E+03  0.7818609E-02  0.9425506E-01
        2   -1    0    0  501    0  0.00000000000E+00  0.00000000000E+00  0.10796991880E+04  0.10796991880E+04  0.25500000920E-02 0.  1.
       -2   -1    0    0    0  501  0.00000000000E+00  0.00000000000E+00 -0.18757748317E+03  0.18757748319E+03  0.25500000920E-02 0. -1.
    10030    2    1    2    0    0  0.00000000000E+00  0.00000000000E+00  0.89212170480E+03  0.12672766712E+04  0.90006056746E+03 0.  0.
        3    1    3    3  502    0 -0.41677777806E+03 -0.14499172449E+03  0.57041861069E+03  0.72118216705E+03  0.10100000352E+00 0. -1.
       -3    1    3    3    0  502  0.41677777806E+03  0.14499172449E+03  0.32170309411E+03  0.54609450411E+03  0.10100000352E+00 0.  1.
</event>
<event>
 5   0  0.4236284E-04  0.8995414E+03  0.7818609E-02  0.9426155E-01
       -2   -1    0    0    0  501  0.00000000000E+00  0.00000000000E+00  0.13114476388E+03  0.13114476391E+03  0.25500000920E-02 0.  1.
        2   -1    0    0  501    0  0.00000000000E+00  0.00000000000E+00 -0.15425220484E+04  0.15425220484E+04  0.25500000920E-02 0. -1.
    10030    2    1    2    0    0  0.00000000000E+00  0.00000000000E+00 -0.14113772845E+04  0.16736668123E+04  0.89954141615E+03 0.  0.
        2    1    3    3  502    0 -0.43755992274E+03 -0.55550862808E+02 -0.54190382997E+03  0.69871621227E+03  0.25500000920E-02 0.  1.
       -2    1    3    3    0  502  0.43755992274E+03  0.55550862808E+02 -0.86947345452E+03  0.97495060001E+03  0.25500000920E-02 0. -1.
</event>
<event>
 5   0  0.2332791E-04  0.9001795E+03  0.7818609E-02  0.9425357E-01
        1   -1    0    0  501    0  0.00000000000E+00  0.00000000000E+00  0.23578558867E+03  0.23578558872E+03  0.50400001928E-02 0.  1.
       -1   -1    0    0    0  501  0.00000000000E+00  0.00000000000E+00 -0.85917380204E+03  0.85917380206E+03  0.50400001928E-02 0. -1.
    10030    2    1    2    0    0  0.00000000000E+00  0.00000000000E+00 -0.62338821337E+03  0.10949593908E+04  0.90017953925E+03 0.  0.
        2    1    3    3  502    0 -0.27362245545E+02 -0.34063277038E+02 -0.85658813693E+03  0.85770171719E+03  0.25500000920E-02 0. -1.
       -2    1    3    3    0  502  0.27362245545E+02  0.34063277038E+02  0.23319992356E+03  0.23725767359E+03  0.25500000920E-02 0.  1.
</event>
<event>
 5   0  0.3959804E-04  0.9003903E+03  0.7818609E-02  0.9425094E-01
       -2   -1    0    0    0  501  0.00000000000E+00  0.00000000000E+00  0.16959875376E+03  0.16959875378E+03  0.25500000920E-02 0.  1.
        2   -1    0    0  501    0  0.00000000000E+00  0.00000000000E+00 -0.11950305126E+04  0.11950305126E+04  0.25500000920E-02 0. -1.
    10030    2    1    2    0    0  0.00000000000E+00  0.00000000000E+00 -0.10254317588E+04  0.13646292663E+04  0.90039032791E+03 0.  0.
        5    1    3    3  502    0 -0.26468457358E+03 -0.16744162679E+03 -0.22638659280E+02  0.31405289486E+03  0.46999998093E+01 0.  1.
       -5    1    3    3    0  502  0.26468457358E+03  0.16744162679E+03 -0.10027930995E+04  0.10505763715E+04  0.46999998093E+01 0. -1.
</event>
<event>
 5   0  0.2356918E-04  0.8998741E+03  0.7818609E-02  0.9425739E-01
       -1   -1    0    0    0  501  0.00000000000E+00  0.00000000000E+00  0.25408349489E+03  0.25408349494E+03  0.50400001928E-02 0. -1.
        1   -1    0    0  501    0  0.00000000000E+00  0.00000000000E+00 -0.79675921707E+03  0.79675921708E+03  0.50400001928E-02 0.  1.
    10030    2    1    2    0    0  0.00000000000E+00  0.00000000000E+00 -0.54267572218E+03  0.10508427120E+04  0.89987413895E+03 0.  0.
        5    1    3    3  502    0  0.35386915572E+02 -0.27300059954E+03  0.14422900044E+03  0.31081450370E+03  0.46999998093E+01 0. -1.
       -5    1    3    3    0  502 -0.35386915572E+02  0.27300059954E+03 -0.68690472262E+03  0.74002820832E+03  0.46999998093E+01 0.  1.
</event>
<event>
 5   0  0.3959804E-04  0.9000634E+03  0.7818609E-02  0.9425502E-01
        2   -1    0    0  501    0  0.00000000000E+00  0.00000000000E+00  0.14445063768E+03  0.14445063770E+03  0.25500000920E-02 0.  1.
       -2   -1    0    0    0  501  0.00000000000E+00  0.00000000000E+00 -0.14020603325E+04  0.14020603325E+04  0.25500000920E-02 0. -1.
    10030    2    1    2    0    0  0.00000000000E+00  0.00000000000E+00 -0.12576096948E+04  0.15465109702E+04  0.90006335136E+03 0.  0.
        5    1    3    3  502    0 -0.74407499845E+02 -0.20209996946E+03 -0.13077222028E+04  0.13253453600E+04  0.46999998093E+01 0. -1.
       -5    1    3    3    0  502  0.74407499845E+02  0.20209996946E+03  0.50112507935E+02  0.22116561021E+03  0.46999998093E+01 0.  1.
</event>
<event>
 5   0  0.4243516E-04  0.8996761E+03  0.7818609E-02  0.9425986E-01
       -2   -1    0    0    0  501  0.00000000000E+00  0.00000000000E+00  0.13949575946E+03  0.13949575948E+03  0.25500000920E-02 0. -1.
        2   -1    0    0  501    0  0.00000000000E+00  0.00000000000E+00 -0.14506122488E+04  0.14506122488E+04  0.25500000920E-02 0.  1.
    10030    2    1    2    0    0  0.00000000000E+00  0.00000000000E+00 -0.13111164893E+04  0.15901080083E+04  0.89967606915E+03 0.  0.
        1    1    3    3  502    0 -0.49312851798E+02  0.44634326374E+03 -0.60879025719E+03  0.75649166797E+03  0.50400001928E-02 0. -1.
       -1    1    3    3    0  502  0.49312851798E+02 -0.44634326374E+03 -0.70232623216E+03  0.83361634032E+03  0.50400001928E-02 0.  1.
</event>
<event>
 5   0  0.4033144E-04  0.9005633E+03  0.7818609E-02  0.9424878E-01
        2   -1    0    0  501    0  0.00000000000E+00  0.00000000000E+00  0.79741324994E+03  0.79741324994E+03  0.25500000920E-02 0. -1.
       -2   -1    0    0    0  501  0.00000000000E+00  0.00000000000E+00 -0.25426408520E+03  0.25426408521E+03  0.25500000920E-02 0.  1.
    10030    2    1    2    0    0  0.00000000000E+00  0.00000000000E+00  0.54314916473E+03  0.10516773352E+04  0.90056326936E+03 0.  0.
        4    1    3    3  502    0  0.34795640450E+03 -0.25400453628E+03  0.42455174247E+03  0.60484523542E+03  0.12699999809E+01 0. -1.
       -4    1    3    3    0  502 -0.34795640450E+03  0.25400453628E+03  0.11859742226E+03  0.44683209973E+03  0.12699999809E+01 0.  1.
</event>
<event>
 5   0  0.2332791E-04  0.9000296E+03  0.7818609E-02  0.9425544E-01
       -1   -1    0    0    0  501  0.00000000000E+00  0.00000000000E+00  0.15545016902E+03  0.15545016910E+03  0.50400001928E-02 0. -1.
        1   -1    0    0  501    0  0.00000000000E+00  0.00000000000E+00 -0.13027538717E+04  0.13027538718E+04  0.50400001928E-02 0.  1.
    10030    2    1    2    0    0  0.00000000000E+00  0.00000000000E+00 -0.11473037027E+04  0.14582040409E+04  0.90002957645E+03 0.  0.
        2    1    3    3  502    0  0.48458163530E+02 -0.18905778684E+03 -0.12306162492E+04  0.12459965462E+04  0.25500000920E-02 0.  1.
       -2    1    3    3    0  502 -0.48458163530E+02  0.18905778684E+03  0.83312546474E+02  0.21220749465E+03  0.25500000920E-02 0. -1.
</event>
<event>
 5   0  0.2332791E-04  0.8999032E+03  0.7818609E-02  0.9425702E-01
       -1   -1    0    0    0  501  0.00000000000E+00  0.00000000000E+00  0.86350742368E+03  0.86350742369E+03  0.50400001928E-02 0. -1.
        1   -1    0    0  501    0  0.00000000000E+00  0.00000000000E+00 -0.23445823999E+03  0.23445824004E+03  0.50400001928E-02 0.  1.
    10030    2    1    2    0    0  0.00000000000E+00  0.00000000000E+00  0.62904918369E+03  0.10979656637E+04  0.89990317436E+03 0.  0.
        2    1    3    3  502    0 -0.17183023692E+03  0.25526482666E+03  0.71506216667E+03  0.77845980260E+03  0.25500000920E-02 0. -1.
       -2    1    3    3    0  502  0.17183023692E+03 -0.25526482666E+03 -0.86012982983E+02  0.31950586113E+03  0.25500000920E-02 0.  1.
</event>
<event>
 5   0  0.3959804E-04  0.8996700E+03  0.7818609E-02  0.9425994E-01
        2   -1    0    0  501    0  0.00000000000E+00  0.00000000000E+00  0.98084336023E+03  0.98084336023E+03  0.25500000920E-02 0. -1.
       -2   -1    0    0    0  501  0.00000000000E+00  0.00000000000E+00 -0.20630360779E+03  0.20630360781E+03  0.25500000920E-02 0.  1.
    10030    2    1    2    0    0  0.00000000000E+00  0.00000000000E+00  0.77453975243E+03  0.11871469680E+04  0.89966999262E+03 0.  0.
        5    1    3    3  502    0 -0.27164865872E+03 -0.43143353381E+02  0.85691180725E+03  0.89998570996E+03  0.46999998093E+01 0. -1.
       -5    1    3    3    0  502  0.27164865872E+03  0.43143353381E+02 -0.82372054820E+02  0.28716125808E+03  0.46999998093E+01 0.  1.
</event>
<event>
 5   0  0.4110039E-04  0.8995200E+03  0.7818609E-02  0.9426182E-01
        2   -1    0    0  501    0  0.00000000000E+00  0.00000000000E+00  0.15114192378E+04  0.15114192378E+04  0.25500000920E-02 0.  1.
       -2   -1    0    0    0  501  0.00000000000E+00  0.00000000000E+00 -0.13383715481E+03  0.13383715484E+03  0.25500000920E-02 0. -1.
    10030    2    1    2    0    0  0.00000000000E+00  0.00000000000E+00  0.13775820830E+04  0.16452563927E+04  0.89951998432E+03 0.  0.
        3    1    3    3  502    0  0.33643537130E+02 -0.44606638619E+03  0.60345250539E+03  0.75117377813E+03  0.10100000352E+00 0. -1.
       -3    1    3    3    0  502 -0.33643537130E+02  0.44606638619E+03  0.77412957764E+03  0.89408261456E+03  0.10100000352E+00 0.  1.
</event>
<event>
 5   0  0.2332791E-04  0.9010736E+03  0.7818609E-02  0.9424240E-01
        1   -1    0    0  501    0  0.00000000000E+00  0.00000000000E+00  0.27986886901E+03  0.27986886906E+03  0.50400001928E-02 0. -1.
       -1   -1    0    0    0  501  0.00000000000E+00  0.00000000000E+00 -0.72528039140E+03  0.72528039141E+03  0.50400001928E-02 0.  1.
    10030    2    1    2    0    0  0.00000000000E+00  0.00000000000E+00 -0.44541152238E+03  0.10051492605E+04  0.90107358831E+03 0.  0.
        2    1    3    3  502    0 -0.19858547026E+03  0.16588349704E+02  0.22803435011E+03  0.30283828553E+03  0.25500000920E-02 0. -1.
       -2    1    3    3    0  502  0.19858547026E+03 -0.16588349704E+02 -0.67344587249E+03  0.70231097494E+03  0.25500000920E-02 0.  1.
</event>
<event>
 5   0  0.4033144E-04  0.9040000E+03  0.7818609E-02  0.9420595E-01
        2   -1    0    0  501    0  0.00000000000E+00  0.00000000000E+00  0.18847203583E+04  0.18847203583E+04  0.25500000920E-02 0. -1.
       -2   -1    0    0    0  501  0.00000000000E+00  0.00000000000E+00 -0.10840015872E+03  0.10840015875E+03  0.25500000920E-02 0.  1.
    10030    2    1    2    0    0  0.00000000000E+00  0.00000000000E+00  0.17763201996E+04  0.19931205170E+04  0.90399996905E+03 0.  0.
        4    1    3    3  502    0  0.10881369309E+02  0.76046250396E+02 -0.93897596002E+02  0.12132521515E+03  0.12699999809E+01 0.  1.
       -4    1    3    3    0  502 -0.10881369309E+02 -0.76046250396E+02  0.18702177956E+04  0.18717953019E+04  0.12699999809E+01 0. -1.
</event>
<event>
 5   0  0.2332791E-04  0.8995251E+03  0.7818609E-02  0.9426175E-01
        1   -1    0    0  501    0  0.00000000000E+00  0.00000000000E+00  0.11864722665E+04  0.11864722665E+04  0.50400001928E-02 0. -1.
       -1   -1    0    0    0  501  0.00000000000E+00  0.00000000000E+00 -0.17049394876E+03  0.17049394883E+03  0.50400001928E-02 0.  1.
    10030    2    1    2    0    0  0.00000000000E+00  0.00000000000E+00  0.10159783177E+04  0.13569662153E+04  0.89952507882E+03 0.  0.
        2    1    3    3  502    0 -0.20520557476E+03 -0.27012731641E+03  0.62502669792E+02  0.34494155841E+03  0.25500000920E-02 0.  1.
       -2    1    3    3    0  502  0.20520557476E+03  0.27012731641E+03  0.95347564792E+03  0.10120246569E+04  0.25500000920E-02 0. -1.
</event>
<event>
 5   0  0.1596250E-04  0.8996017E+03  0.7818609E-02  0.9426079E-01
        3   -1    0    0  501    0  0.00000000000E+00  0.00000000000E+00  0.77036154020E+03  0.77036154682E+03  0.10100000352E+00 0.  1.
       -3   -1    0    0    0  501  0.00000000000E+00  0.00000000000E+00 -0.26263094726E+03  0.26263096668E+03  0.10100000352E+00 0. -1.
    10030    2    1    2    0    0  0.00000000000E+00  0.00000000000E+00  0.50773059295E+03  0.10329925135E+04  0.89960167738E+03 0.  0.
        5    1    3    3  502    0  0.24936344465E+03 -0.55592952516E+02  0.67892350601E+03  0.72541844539E+03  0.46999998093E+01 0.  1.
       -5    1    3    3    0  502 -0.24936344465E+03  0.55592952516E+02 -0.17119291306E+03  0.30757406812E+03  0.46999998093E+01 0. -1.
</event>
<event>
 5   0  0.2450427E-04  0.9005211E+03  0.7818609E-02  0.9424930E-01
        1   -1    0    0  501    0  0.00000000000E+00  0.00000000000E+00  0.65499087388E+03  0.65499087390E+03  0.50400001928E-02 0. -1.
       -1   -1    0    0    0  501  0.00000000000E+00  0.00000000000E+00 -0.30952273547E+03  0.30952273552E+03  0.50400001928E-02 0.  1.
    10030    2    1    2    0    0  0.00000000000E+00  0.00000000000E+00  0.34546813841E+03  0.96451360941E+03  0.90052110919E+03 0.  0.
        3    1    3    3  502    0 -0.14573475184E+03  0.35342182468E+03 -0.82054705847E+02  0.39099691688E+03  0.10100000352E+00 0.  1.
       -3    1    3    3    0  502  0.14573475184E+03 -0.35342182468E+03  0.42752284425E+03  0.57351669253E+03  0.10100000352E+00 0. -1.
</event>
<event>
 5   0  0.4110039E-04  0.8994184E+03  0.7818609E-02  0.9426309E-01
        2   -1    0    0  501    0  0.00000000000E+00  0.00000000000E+00  0.14061708427E+04  0.14061708427E+04  0.25500000920E-02 0. -1.
       -2   -1    0    0    0  501  0.00000000000E+00  0.00000000000E+00 -0.14382204308E+03  0.14382204310E+03  0.25500000920E-02 0.  1.
    10030    2    1    2    0    0  0.00000000000E+00  0.00000000000E+00  0.12623487996E+04  0.15499928858E+04  0.89941839771E+03 0.  0.
        3    1    3    3  502    0  0.43086514865E+03  0.56502452407E+02  0.43167694935E+03  0.61252126677E+03  0.10100000352E+00 0.  1.
       -3    1    3    3    0  502 -0.43086514865E+03 -0.56502452407E+02  0.83067185028E+03  0.93747161903E+03  0.10100000352E+00 0. -1.
</event>
<event>
 5   0  0.2332791E-04  0.9005350E+03  0.7818609E-02  0.9424913E-01
       -1   -1    0    0    0  501  0.00000000000E+00  0.00000000000E+00  0.82440143035E+03  0.82440143036E+03  0.50400001928E-02 0. -1.
        1   -1    0    0  501    0  0.00000000000E+00  0.00000000000E+00 -0.24592488255E+03  0.24592488260E+03  0.50400001928E-02 0.  1.
    10030    2    1    2    0    0  0.00000000000E+00  0.00000000000E+00  0.57847654780E+03  0.10703263130E+04  0.90053500758E+03 0.  0.
        2    1    3    3  502    0  0.40204543967E+02  0.84514136978E+02 -0.23423687886E+03  0.25224186831E+03  0.25500000920E-02 0.  1.
       -2    1    3    3    0  502 -0.40204543967E+02 -0.84514136978E+02  0.81271342666E+03  0.81808444465E+03  0.25500000920E-02 0. -1.
</event>
<event>
 5   0  0.4243516E-04  0.8998859E+03  0.7818609E-02  0.9425724E-01
        2   -1    0    0  501    0  0.00000000000E+00  0.00000000000E+00  0.77910046889E+03  0.77910046890E+03  0.25500000920E-02 0.  1.
       -2   -1    0    0    0  501  0.00000000000E+00  0.00000000000E+00 -0.25984925883E+03  0.25984925884E+03  0.25500000920E-02 0. -1.
    10030    2    1    2    0    0  0.00000000000E+00  0.00000000000E+00  0.51925121006E+03  0.10389497277E+04  0.89988594701E+03 0.  0.
        1    1    3    3  502    0  0.28805402723E+03  0.15752391769E+03 -0.95588163481E+02  0.34194444617E+03  0.50400001928E-02 0. -1.
       -1    1    3    3    0  502 -0.28805402723E+03 -0.15752391769E+03  0.61483937355E+03  0.69700528157E+03  0.50400001928E-02 0.  1.
</event>
<event>
 5   0  0.4110039E-04  0.8998411E+03  0.7818609E-02  0.9425780E-01
       -2   -1    0    0    0  501  0.00000000000E+00  0.00000000000E+00  0.52983800146E+03  0.52983800146E+03  0.25500000920E-02 0. -1.
        2   -1    0    0  501    0  0.00000000000E+00  0.00000000000E+00 -0.38205738333E+03  0.38205738334E+03  0.25500000920E-02 0.  1.
    10030    2    1    2    0    0  0.00000000000E+00  0.00000000000E+00  0.14778061812E+03  0.91189538480E+03  0.89984114250E+03 0.  0.
        3    1    3    3  502    0 -0.15795302373E+03 -0.16813522492E+02  0.50047663967E+03  0.52507973613E+03  0.10100000352E+00 0. -1.
       -3    1    3    3    0  502  0.15795302373E+03  0.16813522492E+02 -0.35269602154E+03  0.38681564867E+03  0.10100000352E+00 0.  1.
</event>
<event>
 5   0  0.2308362E-04  0.9000257E+03  0.7818609E-02  0.9425549E-01
        1   -1    0    0  501    0  0.00000000000E+00  0.00000000000E+00  0.93304922586E+03  0.93304922587E+03  0.50400001928E-02 0. -1.
       -1   -1    0    0    0  501  0.00000000000E+00  0.00000000000E+00 -0.21704274215E+03  0.21704274221E+03  0.50400001928E-02 0.  1.
    10030    2    1    2    0    0  0.00000000000E+00  0.00000000000E+00  0.71600648371E+03  0.11500919681E+04  0.90002569425E+03 0.  0.
        1    1    3    3  502    0  0.18985628966E+03 -0.34394088765E+03  0.77544054430E+02  0.40044203741E+03  0.50400001928E-02 0. -1.
       -1    1    3    3    0  502 -0.18985628966E+03  0.34394088765E+03  0.63846242928E+03  0.74964993067E+03  0.50400001928E-02 0.  1.
</event>
<event>
 5   0  0.2308362E-04  0.9000543E+03  0.7818609E-02  0.9425513E-01
        1   -1    0    0  501    0  0.00000000000E+00  0.00000000000E+00  0.90904801021E+03  0.90904801023E+03  0.50400001928E-02 0. -1.
       -1   -1    0    0    0  501  0.00000000000E+00  0.00000000000E+00 -0.22278741361E+03  0.22278741366E+03  0.50400001928E-02 0.  1.
    10030    2    1    2    0    0  0.00000000000E+00  0.00000000000E+00  0.68626059660E+03  0.11318354239E+04  0.90005434298E+03 0.  0.
        1    1    3    3  502    0  0.31573061974E+03  0.28248084450E+03  0.53402152824E+03  0.68165991844E+03  0.50400001928E-02 0. -1.
       -1    1    3    3    0  502 -0.31573061974E+03 -0.28248084450E+03  0.15223906836E+03  0.45017550545E+03  0.50400001928E-02 0.  1.
</event>
<event>
 5   0  0.4243516E-04  0.8992135E+03  0.7818609E-02  0.9426565E-01
        2   -1    0    0  501    0  0.00000000000E+00  0.00000000000E+00  0.54799157233E+03  0.54799157234E+03  0.25500000920E-02 0. -1.
       -2   -1    0    0    0  501  0.00000000000E+00  0.00000000000E+00 -0.36888564328E+03  0.36888564329E+03  0.25500000920E-02 0.  1.
    10030    2    1    2    0    0  0.00000000000E+00  0.00000000000E+00  0.17910592905E+03  0.91687721563E+03  0.89921348673E+03 0.  0.
        1    1    3    3  502    0 -0.41427036674E+03 -0.11876468617E+03 -0.41109634591E+02  0.43291452912E+03  0.50400001928E-02 0.  1.
       -1    1    3    3    0  502  0.41427036674E+03  0.11876468617E+03  0.22021556364E+03  0.48396268651E+03  0.50400001928E-02 0. -1.
</event>
<event>
 5   0  0.2332791E-04  0.9002326E+03  0.7818609E-02  0.9425291E-01
       -1   -1    0    0    0  501  0.00000000000E+00  0.00000000000E+00  0.45749205957E+03  0.45749205960E+03  0.50400001928E-02 0.  1.
        1   -1    0    0  501    0  0.00000000000E+00  0.00000000000E+00 -0.44285945340E+03  0.44285945343E+03  0.50400001928E-02 0. -1.
    10030    2    1    2    0    0  0.00000000000E+00  0.00000000000E+00  0.14632606171E+02  0.90035151303E+03  0.90023259986E+03 0.  0.
        2    1    3    3  502    0  0.16290178037E+03  0.31289729126E+03 -0.27229705360E+03  0.44563145124E+03  0.25500000920E-02 0. -1.
       -2    1    3    3    0  502 -0.16290178037E+03 -0.31289729126E+03  0.28692965978E+03  0.45472006179E+03  0.25500000920E-02 0.  1.
</event>
<event>
 5   0  0.2308362E-04  0.8998832E+03  0.7818609E-02  0.9425727E-01
        1   -1    0    0  501    0  0.00000000000E+00  0.00000000000E+00  0.11285192523E+04  0.11285192523E+04  0.50400001928E-02 0.  1.
       -1   -1    0    0    0  501  0.00000000000E+00  0.00000000000E+00 -0.17939210643E+03  0.17939210650E+03  0.50400001928E-02 0. -1.
    10030    2    1    2    0    0  0.00000000000E+00  0.00000000000E+00  0.94912714589E+03  0.13079113588E+04  0.89988320548E+03 0.  0.
        1    1    3    3  502    0 -0.17471168596E+03 -0.18621026790E+03  0.10130152986E+04  0.10447001638E+04  0.50400001928E-02 0.  1.
       -1    1    3    3    0  502  0.17471168596E+03  0.18621026790E+03 -0.63888152727E+02  0.26321119499E+03  0.50400001928E-02 0. -1.
</event>
<event>
 5   0  0.4110039E-04  0.9006606E+03  0.7818609E-02  0.9424756E-01
       -2   -1    0    0    0  501  0.00000000000E+00  0.00000000000E+00  0.48310560910E+03  0.48310560911E+03  0.25500000920E-02 0. -1.
        2   -1    0    0  501    0  0.00000000000E+00  0.00000000000E+00 -0.41977859728E+03  0.41977859729E+03  0.25500000920E-02 0.  1.
    10030    2    1    2    0    0  0.00000000000E+00  0.00000000000E+00  0.63327011818E+02  0.90288420640E+03  0.90066063517E+03 0.  0.
        3    1    3    3  502    0 -0.29152496429E+03  0.24348494281E+03  0.27418154279E+03  0.46845197277E+03  0.10100000352E+00 0. -1.
       -3    1    3    3    0  502  0.29152496429E+03 -0.24348494281E+03 -0.21085453097E+03  0.43443223363E+03  0.10100000352E+00 0.  1.
</event>
<event>
 5   0  0.2351435E-04  0.8993772E+03  0.7818609E-02  0.9426360E-01
        1   -1    0    0  501    0  0.00000000000E+00  0.00000000000E+00  0.21307273096E+04  0.21307273096E+04  0.50400001928E-02 0.  1.
       -1   -1    0    0    0  501  0.00000000000E+00  0.00000000000E+00 -0.94906485291E+02  0.94906485425E+02  0.50400001928E-02 0. -1.
    10030    2    1    2    0    0  0.00000000000E+00  0.00000000000E+00  0.20358208243E+04  0.22256337951E+04  0.89937720724E+03 0.  0.
        4    1    3    3  502    0 -0.86598252560E+02 -0.36841697637E+03  0.41688435186E+03  0.56304928874E+03  0.12699999809E+01 0. -1.
       -4    1    3    3    0  502  0.86598252560E+02  0.36841697637E+03  0.16189364725E+04  0.16625845063E+04  0.12699999809E+01 0.  1.
</event>
<event>
 5   0  0.2351435E-04  0.9002150E+03  0.7818609E-02  0.9425313E-01
       -1   -1    0    0    0  501  0.00000000000E+00  0.00000000000E+00  0.22799627067E+03  0.22799627073E+03  0.50400001928E-02 0.  1.
        1   -1    0    0  501    0  0.00000000000E+00  0.00000000000E+00 -0.88859684439E+03  0.88859684440E+03  0.50400001928E-02 0. -1.
    10030    2    1    2    0    0  0.00000000000E+00  0.00000000000E+00 -0.66060057372E+03  0.11165931151E+04  0.90021501140E+03 0.  0.
        4    1    3    3  502    0 -0.43456486164E+02  0.34277264742E+03  0.27504255678E+02  0.34661167175E+03  0.12699999809E+01 0.  1.
       -4    1    3    3    0  502  0.43456486164E+02 -0.34277264742E+03 -0.68810482940E+03  0.76998144338E+03  0.12699999809E+01 0. -1.
</event>
<event>
 5   0  0.2351435E-04  0.9007692E+03  0.7818609E-02  0.9424620E-01
        1   -1    0    0  501    0  0.00000000000E+00  0.00000000000E+00  0.68238195923E+03  0.68238195925E+03  0.50400001928E-02 0.  1.
       -1   -1    0    0    0  501  0.00000000000E+00  0.00000000000E+00 -0.29726205998E+03  0.29726206002E+03  0.50400001928E-02 0. -1.
    10030    2    1    2    0    0  0.00000000000E+00  0.00000000000E+00  0.38511989926E+03  0.97964401927E+03  0.90076915338E+03 0.  0.
        4    1    3    3  502    0 -0.43069363929E+03  0.95265967510E+01  0.49691604472E+02  0.43365727876E+03  0.12699999809E+01 0. -1.
       -4    1    3    3    0  502  0.43069363929E+03 -0.95265967510E+01  0.33542829478E+03  0.54598674051E+03  0.12699999809E+01 0.  1.
</event>
<event>
 5   0  0.4236284E-04  0.8999795E+03  0.7818609E-02  0.9425607E-01
       -2   -1    0    0    0  501  0.00000000000E+00  0.00000000000E+00  0.15363024852E+03  0.15363024855E+03  0.25500000920E-02 0. -1.
        2   -1    0    0  501    0  0.00000000000E+00  0.00000000000E+00 -0.13180397325E+04  0.13180397325E+04  0.25500000920E-02 0.  1.
    10030    2    1    2    0    0  0.00000000000E+00  0.00000000000E+00 -0.11644094840E+04  0.14716699810E+04  0.89997949240E+03 0.  0.
        2    1    3    3  502    0  0.77822506458E+02  0.19698588015E+03 -0.12314348058E+04  0.12495164907E+04  0.25500000920E-02 0.  1.
       -2    1    3    3    0  502 -0.77822506458E+02 -0.19698588015E+03  0.67025321872E+02  0.22215349034E+03  0.25500000920E-02 0. -1.
</event>
<event>
 5   0  0.4033144E-04  0.9001573E+03  0.7818609E-02  0.9425385E-01
       -2   -1    0    0    0  501  0.00000000000E+00  0.00000000000E+00  0.17573226955E+03  0.17573226957E+03  0.25500000920E-02 0.  1.
        2   -1    0    0  501    0  0.00000000000E+00  0.00000000000E+00 -0.11527239239E+04  0.11527239239E+04  0.25500000920E-02 0. -1.
    10030    2    1    2    0    0  0.00000000000E+00  0.00000000000E+00 -0.97699165436E+03  0.13284561935E+04  0.90015730032E+03 0.  0.
        4    1    3    3  502    0  0.27762030454E+03  0.12787509215E+03 -0.97605684317E+03  0.10227969724E+04  0.12699999809E+01 0. -1.
       -4    1    3    3    0  502 -0.27762030454E+03 -0.12787509215E+03 -0.93481119341E+00  0.30565922112E+03  0.12699999809E+01 0.  1.
</event>
<event>
 5   0  0.4110039E-04  0.9004941E+03  0.7818609E-02  0.9424964E-01
       -2   -1    0    0    0  501  0.00000000000E+00  0.00000000000E+00  0.36099578887E+03  0.36099578888E+03  0.25500000920E-02 0. -1.
        2   -1    0    0  501    0  0.00000000000E+00  0.00000000000E+00 -0.56156441822E+03  0.56156441822E+03  0.25500000920E-02 0.  1.
    10030    2    1    2    0    0  0.00000000000E+00  0.00000000000E+00 -0.20056862934E+03  0.92256020711E+03  0.90049406475E+03 0.  0.
        3    1    3    3  502    0 -0.42572684024E+03 -0.65421897993E+02 -0.23464296186E+03  0.49049026187E+03  0.10100000352E+00 0. -1.
       -3    1    3    3    0  502  0.42572684024E+03  0.65421897993E+02  0.34074332518E+02  0.43206994523E+03  0.10100000352E+00 0.  1.
</event>
<event>
 5   0  0.2450427E-04  0.9002557E+03  0.7818609E-02  0.9425262E-01
        1   -1    0    0  501    0  0.00000000000E+00  0.00000000000E+00  0.73855805700E+03  0.73855805701E+03  0.50400001928E-02 0.  1.
       -1   -1    0    0    0  501  0.00000000000E+00  0.00000000000E+00 -0.27433872329E+03  0.27433872334E+03  0.50400001928E-02 0. -1.
    10030    2    1    2    0    0  0.00000000000E+00  0.00000000000E+00  0.46421933370E+03  0.10128967804E+04  0.90025568472E+03 0.  0.
        3    1    3    3  502    0  0.10847332262E+03 -0.18395130507E+03  0.67793392345E+03  0.71077349355E+03  0.10100000352E+00 0.  1.
       -3    1    3    3    0  502 -0.10847332262E+03  0.18395130507E+03 -0.21371458975E+03  0.30212328681E+03  0.10100000352E+00 0. -1.
</event>
<event>
 5   0  0.3959804E-04  0.8957386E+03  0.7818609E-02  0.9430924E-01
        2   -1    0    0  501    0  0.00000000000E+00  0.00000000000E+00  0.21257180816E+03  0.21257180818E+03  0.25500000920E-02 0. -1.
       -2   -1    0    0    0  501  0.00000000000E+00  0.00000000000E+00 -0.94361943506E+03  0.94361943507E+03  0.25500000920E-02 0.  1.
    10030    2    1    2    0    0  0.00000000000E+00  0.00000000000E+00 -0.73104762690E+03  0.11561912432E+04  0.89573855458E+03 0.  0.
        5    1    3    3  502    0  0.11366555189E+03 -0.26038211142E+03  0.81324741007E+02  0.29555795562E+03  0.46999998093E+01 0. -1.
       -5    1    3    3    0  502 -0.11366555189E+03  0.26038211142E+03 -0.81237236791E+03  0.86063328763E+03  0.46999998093E+01 0.  1.
</event>
<event>
 5   0  0.1596250E-04  0.8994286E+03  0.7818609E-02  0.9426296E-01
       -3   -1    0    0    0  501  0.00000000000E+00  0.00000000000E+00  0.32994444770E+03  0.32994446316E+03  0.10100000352E+00 0. -1.
        3   -1    0    0  501    0  0.00000000000E+00  0.00000000000E+00 -0.61296061325E+03  0.61296062157E+03  0.10100000352E+00 0.  1.
    10030    2    1    2    0    0  0.00000000000E+00  0.00000000000E+00 -0.28301616554E+03  0.94290508473E+03  0.89942862354E+03 0.  0.
        1    1    3    3  502    0 -0.28760673262E+03 -0.25953020414E+03 -0.38095497533E+03  0.54332334090E+03  0.50400001928E-02 0. -1.
       -1    1    3    3    0  502  0.28760673262E+03  0.25953020414E+03  0.97938809790E+02  0.39958174383E+03  0.50400001928E-02 0.  1.
</event>
<event>
 5   0  0.4236284E-04  0.8997634E+03  0.7818609E-02  0.9425877E-01
        2   -1    0    0  501    0  0.00000000000E+00  0.00000000000E+00  0.21512837765E+04  0.21512837765E+04  0.25500000920E-02 0. -1.
       -2   -1    0    0    0  501  0.00000000000E+00  0.00000000000E+00 -0.94080348116E+02  0.94080348151E+02  0.25500000920E-02 0.  1.
    10030    2    1    2    0    0  0.00000000000E+00  0.00000000000E+00  0.20572034284E+04  0.22453641247E+04  0.89976336141E+03 0.  0.
        2    1    3    3  502    0  0.31493516909E+03  0.49681539259E+02  0.18206685725E+04  0.18483740062E+04  0.25500000920E-02 0. -1.
       -2    1    3    3    0  502 -0.31493516909E+03 -0.49681539259E+02  0.23653485593E+03  0.39699011845E+03  0.25500000920E-02 0.  1.
</event>
<event>
 5   0  0.2450427E-04  0.8998892E+03  0.7818609E-02  0.9425720E-01
        1   -1    0    0  501    0  0.00000000000E+00  0.00000000000E+00  0.31854047951E+03  0.31854047955E+03  0.50400001928E-02 0. -1.
       -1   -1    0    0    0  501  0.00000000000E+00  0.00000000000E+00 -0.63555542181E+03  0.63555542183E+03  0.50400001928E-02 0.  1.
    10030    2    1    2    0    0  0.00000000000E+00  0.00000000000E+00 -0.31701494230E+03  0.95409590138E+03  0.89988916840E+03 0.  0.
        3    1    3    3  502    0 -0.41942074702E+03  0.55988744401E+02  0.36832225003E+01  0.42315727438E+03  0.10100000352E+00 0. -1.
       -3    1    3    3    0  502  0.41942074702E+03 -0.55988744401E+02 -0.32069816480E+03  0.53093862700E+03  0.10100000352E+00 0.  1.
</event>
<event>
 5   0  0.3959804E-04  0.8997396E+03  0.7818609E-02  0.9425907E-01
        2   -1    0    0  501    0  0.00000000000E+00  0.00000000000E+00  0.35307851074E+03  0.35307851075E+03  0.25500000920E-02 0.  1.
       -2   -1    0    0    0  501  0.00000000000E+00  0.00000000000E+00 -0.57319498659E+03  0.57319498659E+03  0.25500000920E-02 0. -1.
    10030    2    1    2    0    0  0.00000000000E+00  0.00000000000E+00 -0.22011647584E+03  0.92627349734E+03  0.89973958952E+03 0.  0.
        5    1    3    3  502    0  0.13331698752E+03 -0.48225059131E+02 -0.54956956943E+03  0.56758072301E+03  0.46999998093E+01 0. -1.
       -5    1    3    3    0  502 -0.13331698752E+03  0.48225059131E+02  0.32945309359E+03  0.35869277434E+03  0.46999998093E+01 0.  1.
</event>
<event>
 5   0  0.2356918E-04  0.9000678E+03  0.7818609E-02  0.9425497E-01
       -1   -1    0    0    0  501  0.00000000000E+00  0.00000000000E+00  0.13109113491E+03  0.13109113501E+03  0.50400001928E-02 0. -1.
        1   -1    0    0  501    0  0.00000000000E+00  0.00000000000E+00 -0.15449595192E+04  0.15449595192E+04  0.50400001928E-02 0.  1.
    10030    2    1    2    0    0  0.00000000000E+00  0.00000000000E+00 -0.14138683843E+04  0.16760506543E+04  0.90006776824E+03 0.  0.
        5    1    3    3  502    0 -0.87770897286E+02  0.23854659848E+03 -0.15430707202E+02  0.25469276939E+03  0.46999998093E+01 0. -1.
       -5    1    3    3    0  502  0.87770897286E+02 -0.23854659848E+03 -0.13984376771E+04  0.14213578849E+04  0.46999998093E+01 0.  1.
</event>
<event>
 5   0  0.3959804E-04  0.9002402E+03  0.7818609E-02  0.9425281E-01
        2   -1    0    0  501    0  0.00000000000E+00  0.00000000000E+00  0.40151056524E+03  0.40151056525E+03  0.25500000920E-02 0.  1.
       -2   -1    0    0    0  501  0.00000000000E+00  0.00000000000E+00 -0.50461459538E+03  0.50461459539E+03  0.25500000920E-02 0. -1.
    10030    2    1    2    0    0  0.00000000000E+00  0.00000000000E+00 -0.10310403014E+03  0.90612516064E+03  0.90024017112E+03 0.  0.
        5    1    3    3  502    0  0.43330725486E+03  0.12164058294E+03 -0.45649131828E+02  0.45239091698E+03  0.46999998093E+01 0.  1.
       -5    1    3    3    0  502 -0.43330725486E+03 -0.12164058294E+03 -0.57454898312E+02  0.45373424366E+03  0.46999998093E+01 0. -1.
</event>
<event>
 5   0  0.4243516E-04  0.8997018E+03  0.7818609E-02  0.9425954E-01
       -2   -1    0    0    0  501  0.00000000000E+00  0.00000000000E+00  0.38980145216E+03  0.38980145217E+03  0.25500000920E-02 0. -1.
        2   -1    0    0  501    0  0.00000000000E+00  0.00000000000E+00 -0.51915108256E+03  0.51915108257E+03  0.25500000920E-02 0.  1.
    10030    2    1    2    0    0  0.00000000000E+00  0.00000000000E+00 -0.12934963040E+03  0.90895253473E+03  0.89970183034E+03 0.  0.
        1    1    3    3  502    0  0.21797404978E+03 -0.26863601115E+03  0.22583677180E+03  0.41313465164E+03  0.50400001928E-02 0. -1.
       -1    1    3    3    0  502 -0.21797404978E+03  0.26863601115E+03 -0.35518640220E+03  0.49581788309E+03  0.50400001928E-02 0.  1.
</event>
<event>
 5   0  0.4033144E-04  0.9006642E+03  0.7818609E-02  0.9424752E-01
       -2   -1    0    0    0  501  0.00000000000E+00  0.00000000000E+00  0.20524215289E+03  0.20524215290E+03  0.25500000920E-02 0.  1.
        2   -1    0    0  501    0  0.00000000000E+00  0.00000000000E+00 -0.98809618847E+03  0.98809618847E+03  0.25500000920E-02 0. -1.
    10030    2    1    2    0    0  0.00000000000E+00  0.00000000000E+00 -0.78285403558E+03  0.11933383414E+04  0.90066417491E+03 0.  0.
        4    1    3    3  502    0  0.86076857116E+02  0.10762292960E+03  0.17661427235E+03  0.22402262030E+03  0.12699999809E+01 0.  1.
       -4    1    3    3    0  502 -0.86076857116E+02 -0.10762292960E+03 -0.95946830794E+03  0.96931572108E+03  0.12699999809E+01 0. -1.
</event>
<event>
 5   0  0.2450427E-04  0.9011541E+03  0.7818609E-02  0.9424140E-01
        1   -1    0    0  501    0  0.00000000000E+00  0.00000000000E+00  0.70131575372E+03  0.70131575374E+03  0.50400001928E-02 0. -1.
       -1   -1    0    0    0  501  0.00000000000E+00  0.00000000000E+00 -0.28948395535E+03  0.28948395539E+03  0.50400001928E-02 0.  1.
    10030    2    1    2    0    0  0.00000000000E+00  0.00000000000E+00  0.41183179837E+03  0.99079970913E+03  0.90115405645E+03 0.  0.
        3    1    3    3  502    0  0.26738258270E+03  0.19165586090E+01 -0.19282143843E+03  0.32966230608E+03  0.10100000352E+00 0.  1.
       -3    1    3    3    0  502 -0.26738258270E+03 -0.19165586090E+01  0.60465323681E+03  0.66113740305E+03  0.10100000352E+00 0. -1.
</event>
<event>
 5   0  0.2351435E-04  0.9003195E+03  0.7818609E-02  0.9425182E-01
       -1   -1    0    0    0  501  0.00000000000E+00  0.00000000000E+00  0.10958566480E+03  0.10958566492E+03  0.50400001928E-02 0.  1.
        1   -1    0    0  501    0  0.00000000000E+00  0.00000000000E+00 -0.18491816302E+04  0.18491816302E+04  0.50400001928E-02 0. -1.
    10030    2    1    2    0    0  0.00000000000E+00  0.00000000000E+00 -0.17395959654E+04  0.19587672951E+04  0.90031949531E+03 0.  0.
        4    1    3    3  502    0  0.32347876732E+02  0.35851542833E+02 -0.18435267747E+04  0.18441595105E+04  0.12699999809E+01 0. -1.
       -4    1    3    3    0  502 -0.32347876732E+02 -0.35851542833E+02  0.10393080935E+03  0.11460778457E+03  0.12699999809E+01 0.  1.
</event>
<event>
 5   0  0.4243516E-04  0.8997413E+03  0.7818609E-02  0.9425905E-01
       -2   -1    0    0    0  501  0.00000000000E+00  0.00000000000E+00  0.11350789625E+03  0.11350789628E+03  0.25500000920E-02 0. -1.
        2   -1    0    0  501    0  0.00000000000E+00  0.00000000000E+00 -0.17829915196E+04  0.17829915197E+04  0.25500000920E-02 0.  1.
    10030    2    1    2    0    0  0.00000000000E+00  0.00000000000E+00 -0.16694836234E+04  0.18964994159E+04  0.89974133274E+03 0.  0.
        1    1    3    3  502    0  0.29523969785E+03 -0.23959185711E+03 -0.32792928450E+03  0.50210392633E+03  0.50400001928E-02 0. -1.
       -1    1    3    3    0  502 -0.29523969785E+03  0.23959185711E+03 -0.13415543389E+04  0.13943954896E+04  0.50400001928E-02 0.  1.
</event>
<event>
 5   0  0.2351435E-04  0.9002657E+03  0.7818609E-02  0.9425249E-01
       -1   -1    0    0    0  501  0.00000000000E+00  0.00000000000E+00  0.45098140035E+03  0.45098140037E+03  0.50400001928E-02 0.  1.
        1   -1    0    0  501    0  0.00000000000E+00  0.00000000000E+00 -0.44928590408E+03  0.44928590411E+03  0.50400001928E-02 0. -1.
    10030    2    1    2    0    0  0.00000000000E+00  0.00000000000E+00  0.16954962678E+01  0.90026730448E+03  0.90026570789E+03 0.  0.
        4    1    3    3  502    0 -0.49210151918E+02 -0.43013982138E+03 -0.12234365637E+03  0.44990164274E+03  0.12699999809E+01 0.  1.
       -4    1    3    3    0  502  0.49210151918E+02  0.43013982138E+03  0.12403915264E+03  0.45036566174E+03  0.12699999809E+01 0. -1.
</event>
<event>
 5   0  0.4033144E-04  0.8995499E+03  0.7818609E-02  0.9426144E-01
        2   -1    0    0  501    0  0.00000000000E+00  0.00000000000E+00  0.76164587287E+03  0.76164587287E+03  0.25500000920E-02 0.  1.
       -2   -1    0    0    0  501  0.00000000000E+00  0.00000000000E+00 -0.26560572551E+03  0.26560572552E+03  0.25500000920E-02 0. -1.
    10030    2    1    2    0    0  0.00000000000E+00  0.00000000000E+00  0.49604014736E+03  0.10272515984E+04  0.89954989778E+03 0.  0.
        4    1    3    3  502    0  0.24811624141E+03  0.40272930359E+02 -0.17790612456E+03  0.30795418528E+03  0.12699999809E+01 0. -1.
       -4    1    3    3    0  502 -0.24811624141E+03 -0.40272930359E+02  0.67394627193E+03  0.71929741311E+03  0.12699999809E+01 0.  1.
</event>
<event>
 5   0  0.3959804E-04  0.9003863E+03  0.7818609E-02  0.9425099E-01
        2   -1    0    0  501    0  0.00000000000E+00  0.00000000000E+00  0.20097230454E+04  0.20097230454E+04  0.25500000920E-02 0. -1.
       -2   -1    0    0    0  501  0.00000000000E+00  0.00000000000E+00 -0.10084667658E+03  0.10084667661E+03  0.25500000920E-02 0.  1.
    10030    2    1    2    0    0  0.00000000000E+00  0.00000000000E+00  0.19088763688E+04  0.21105697220E+04  0.90038633930E+03 0.  0.
        5    1    3    3  502    0  0.70020875171E+01  0.32253059038E+03  0.21847152560E+03  0.38964972534E+03  0.46999998093E+01 0.  1.
       -5    1    3    3    0  502 -0.70020875171E+01 -0.32253059038E+03  0.16904048432E+04  0.17209199966E+04  0.46999998093E+01 0. -1.
</event>
<event>
 5   0  0.3959804E-04  0.9001096E+03  0.7818609E-02  0.9425444E-01
       -2   -1    0    0    0  501  0.00000000000E+00  0.00000000000E+00  0.30364598416E+03  0.30364598417E+03  0.25500000920E-02 0.  1.
        2   -1    0    0  501    0  0.00000000000E+00  0.00000000000E+00 -0.66705745312E+03  0.66705745313E+03  0.25500000920E-02 0. -1.
    10030    2    1    2    0    0  0.00000000000E+00  0.00000000000E+00 -0.36341146897E+03  0.97070343730E+03  0.90010958633E+03 0.  0.
        5    1    3    3  502    0 -0.91501882442E+02 -0.13647579483E+03 -0.63352589666E+03  0.65450392574E+03  0.46999998093E+01 0. -1.
       -5    1    3    3    0  502  0.91501882442E+02  0.13647579483E+03  0.27011442769E+03  0.31619951156E+03  0.46999998093E+01 0.  1.
</event>
<event>
 5   0  0.2351435E-04  0.8994861E+03  0.7818609E-02  0.9426224E-01
        1   -1    0    0  501    0  0.00000000000E+00  0.00000000000E+00  0.55876360077E+03  0.55876360079E+03  0.50400001928E-02 0.  1.
       -1   -1    0    0    0  501  0.00000000000E+00  0.00000000000E+00 -0.36199352673E+03  0.36199352676E+03  0.50400001928E-02 0. -1.
    10030    2    1    2    0    0  0.00000000000E+00  0.00000000000E+00  0.19677007404E+03  0.92075712755E+03  0.89948608989E+03 0.  0.
        4    1    3    3  502    0  0.42617590015E+03  0.45473910586E+02 -0.41122145507E+02  0.43056523102E+03  0.12699999809E+01 0.  1.
       -4    1    3    3    0  502 -0.42617590015E+03 -0.45473910586E+02  0.23789221954E+03  0.49019189654E+03  0.12699999809E+01 0. -1.
</event>
<event>
 5   0  0.2351435E-04  0.9000630E+03  0.7818609E-02  0.9425503E-01
       -1   -1    0    0    0  501  0.00000000000E+00  0.00000000000E+00  0.23748061297E+03  0.23748061303E+03  0.50400001928E-02 0. -1.
        1   -1    0    0  501    0  0.00000000000E+00  0.00000000000E+00 -0.85282064942E+03  0.85282064944E+03  0.50400001928E-02 0.  1.
    10030    2    1    2    0    0  0.00000000000E+00  0.00000000000E+00 -0.61534003645E+03  0.10903012625E+04  0.90006304361E+03 0.  0.
        4    1    3    3  502    0 -0.16137184942E+03  0.21379827632E+03  0.13039433059E+03  0.29791755754E+03  0.12699999809E+01 0. -1.
       -4    1    3    3    0  502  0.16137184942E+03 -0.21379827632E+03 -0.74573436704E+03  0.79238370492E+03  0.12699999809E+01 0.  1.
</event>
<event>
 5   0  0.1596250E-04  0.8984778E+03  0.7818609E-02  0.9427486E-01
        3   -1    0    0  501    0  0.00000000000E+00  0.00000000000E+00  0.24110787639E+03  0.24110789754E+03  0.10100000352E+00 0.  1.
       -3   -1    0    0    0  501  0.00000000000E+00  0.00000000000E+00 -0.83703436192E+03  0.83703436801E+03  0.10100000352E+00 0. -1.
    10030    2    1    2    0    0  0.00000000000E+00  0.00000000000E+00 -0.59592648553E+03  0.10781422656E+04  0.89847780642E+03 0.  0.
        1    1    3    3  502    0  0.33380474503E+03  0.22910760408E+03 -0.53157061651E+03  0.66819400058E+03  0.50400001928E-02 0. -1.
       -1    1    3    3    0  502 -0.33380474503E+03 -0.22910760408E+03 -0.64355869020E+02  0.40994826497E+03  0.50400001928E-02 0.  1.
</event>
<event>
 5   0  0.2308362E-04  0.9007802E+03  0.7818609E-02  0.9424607E-01
        1   -1    0    0  501    0  0.00000000000E+00  0.00000000000E+00  0.88417810207E+03  0.88417810209E+03  0.50400001928E-02 0.  1.
       -1   -1    0    0    0  501  0.00000000000E+00  0.00000000000E+00 -0.22942352332E+03  0.22942352337E+03  0.50400001928E-02 0. -1.
    10030    2    1    2    0    0  0.00000000000E+00  0.00000000000E+00  0.65475457875E+03  0.11136016255E+04  0.90078022948E+03 0.  0.
        1    1    3    3  502    0  0.23791566563E+03 -0.35617812474E+03  0.49950020880E+03  0.65800241573E+03  0.50400001928E-02 0.  1.
       -1    1    3    3    0  502 -0.23791566563E+03  0.35617812474E+03  0.15525436996E+03  0.45559920973E+03  0.50400001928E-02 0. -1.
</event>
<event>
 5   0  0.3959804E-04  0.8993852E+03  0.7818609E-02  0.9426350E-01
        2   -1    0    0  501    0  0.00000000000E+00  0.00000000000E+00  0.18717761196E+04  0.18717761196E+04  0.25500000920E-02 0. -1.
       -2   -1    0    0    0  501  0.00000000000E+00  0.00000000000E+00 -0.10803826590E+03  0.10803826593E+03  0.25500000920E-02 0.  1.
    10030    2    1    2    0    0  0.00000000000E+00  0.00000000000E+00  0.17637378537E+04  0.19798143855E+04  0.89938522589E+03 0.  0.
        5    1    3    3  502    0  0.67784475576E+02  0.19134974816E+03 -0.13751474398E+01  0.20306019373E+03  0.46999998093E+01 0.  1.
       -5    1    3    3    0  502 -0.67784475576E+02 -0.19134974816E+03  0.17651130012E+04  0.17767541918E+04  0.46999998093E+01 0. -1.
</event>
<event>
 5   0  0.4243516E-04  0.9016322E+03  0.7818609E-02  0.9423543E-01
       -2   -1    0    0    0  501  0.00000000000E+00  0.00000000000E+00  0.10239343235E+04  0.10239343235E+04  0.25500000920E-02 0. -1.
        2   -1    0    0  501    0  0.00000000000E+00  0.00000000000E+00 -0.19848456199E+03  0.19848456200E+03  0.25500000920E-02 0.  1.
    10030    2    1    2    0    0  0.00000000000E+00  0.00000000000E+00  0.82544976148E+03  0.12224188855E+04  0.90163219931E+03 0.  0.
        1    1    3    3  502    0 -0.40383307732E+03 -0.10674060475E+03  0.64265106703E+03  0.76646924597E+03  0.50400001928E-02 0. -1.
       -1    1    3    3    0  502  0.40383307732E+03  0.10674060475E+03  0.18279869445E+03  0.45594963950E+03  0.50400001928E-02 0.  1.
</event>
<event>
 5   0  0.4243516E-04  0.9004190E+03  0.7818609E-02  0.9425058E-01
       -2   -1    0    0    0  501  0.00000000000E+00  0.00000000000E+00  0.32056794253E+03  0.32056794254E+03  0.25500000920E-02 0.  1.
        2   -1    0    0  501    0  0.00000000000E+00  0.00000000000E+00 -0.63227962181E+03  0.63227962182E+03  0.25500000920E-02 0. -1.
    10030    2    1    2    0    0  0.00000000000E+00  0.00000000000E+00 -0.31171167928E+03  0.95284756436E+03  0.90041896354E+03 0.  0.
        1    1    3    3  502    0 -0.30880453065E+03 -0.40635172083E+02 -0.49986442710E+03  0.58896171427E+03  0.50400001928E-02 0. -1.
       -1    1    3    3    0  502  0.30880453065E+03  0.40635172083E+02  0.18815274783E+03  0.36388585010E+03  0.50400001928E-02 0.  1.
</event>
<event>
 5   0  0.4243516E-04  0.9002761E+03  0.7818609E-02  0.9425236E-01
       -2   -1    0    0    0  501  0.00000000000E+00  0.00000000000E+00  0.14556659685E+03  0.14556659688E+03  0.25500000920E-02 0.  1.
        2   -1    0    0  501    0  0.00000000000E+00  0.00000000000E+00 -0.13919695451E+04  0.13919695451E+04  0.25500000920E-02 0. -1.
    10030    2    1    2    0    0  0.00000000000E+00  0.00000000000E+00 -0.12464029482E+04  0.15375361419E+04  0.90027611235E+03 0.  0.
        1    1    3    3  502    0  0.26890929086E+03  0.25416355429E+03 -0.10610008017E+04  0.11236698894E+04  0.50400001928E-02 0. -1.
       -1    1    3    3    0  502 -0.26890929086E+03 -0.25416355429E+03 -0.18540214646E+03  0.41386625253E+03  0.50400001928E-02 0.  1.
</event>
<event>
 5   0  0.2332791E-04  0.9001062E+03  0.7818609E-02  0.9425449E-01
       -1   -1    0    0    0  501  0.00000000000E+00  0.00000000000E+00  0.25101770234E+03  0.25101770239E+03  0.50400001928E-02 0. -1.
        1   -1    0    0  501    0  0.00000000000E+00  0.00000000000E+00 -0.80690649860E+03  0.80690649862E+03  0.50400001928E-02 0.  1.
    10030    2    1    2    0    0  0.00000000000E+00  0.00000000000E+00 -0.55588879626E+03  0.10579242010E+04  0.90010625000E+03 0.  0.
        2    1    3    3  502    0 -0.42738590000E+03 -0.13893481364E+03 -0.24948713860E+03  0.51400916557E+03  0.25500000920E-02 0. -1.
       -2    1    3    3    0  502  0.42738590000E+03  0.13893481364E+03 -0.30640165766E+03  0.54391503544E+03  0.25500000920E-02 0.  1.
</event>
<event>
 5   0  0.2356918E-04  0.9001030E+03  0.7818609E-02  0.9425453E-01
       -1   -1    0    0    0  501  0.00000000000E+00  0.00000000000E+00  0.44476395403E+03  0.44476395406E+03  0.50400001928E-02 0. -1.
        1   -1    0    0  501    0  0.00000000000E+00  0.00000000000E+00 -0.45540186439E+03  0.45540186441E+03  0.50400001928E-02 0.  1.
    10030    2    1    2    0    0  0.00000000000E+00  0.00000000000E+00 -0.10637910358E+02  0.90016581847E+03  0.90010295834E+03 0.  0.
        5    1    3    3  502    0  0.33644898446E+03 -0.10873112980E+03 -0.28373355926E+03  0.45337313593E+03  0.46999998093E+01 0.  1.
       -5    1    3    3    0  502 -0.33644898446E+03  0.10873112980E+03  0.27309564890E+03  0.44679268255E+03  0.46999998093E+01 0. -1.
</event>
<event>
 5   0  0.3959804E-04  0.9000616E+03  0.7818609E-02  0.9425504E-01
        2   -1    0    0  501    0  0.00000000000E+00  0.00000000000E+00  0.16846652466E+04  0.16846652466E+04  0.25500000920E-02 0.  1.
       -2   -1    0    0    0  501  0.00000000000E+00  0.00000000000E+00 -0.12021838177E+03  0.12021838180E+03  0.25500000920E-02 0. -1.
    10030    2    1    2    0    0  0.00000000000E+00  0.00000000000E+00  0.15644468648E+04  0.18048836284E+04  0.90006161967E+03 0.  0.
        5    1    3    3  502    0  0.42070060190E+03 -0.68928323528E+02  0.10711905781E+04  0.11529143311E+04  0.46999998093E+01 0.  1.
       -5    1    3    3    0  502 -0.42070060190E+03  0.68928323528E+02  0.49325628665E+03  0.65196929724E+03  0.46999998093E+01 0. -1.
</event>
<event>
 5   0  0.2351435E-04  0.8999646E+03  0.7818609E-02  0.9425626E-01
        1   -1    0    0  501    0  0.00000000000E+00  0.00000000000E+00  0.79277493417E+03  0.79277493418E+03  0.50400001928E-02 0.  1.
       -1   -1    0    0    0  501  0.00000000000E+00  0.00000000000E+00 -0.25541178068E+03  0.25541178073E+03  0.50400001928E-02 0. -1.
    10030    2    1    2    0    0  0.00000000000E+00  0.00000000000E+00  0.53736315349E+03  0.10481867149E+04  0.89996457185E+03 0.  0.
        4    1    3    3  502    0 -0.16622182338E+03 -0.15448657939E+03  0.72124818586E+03  0.75610604830E+03  0.12699999809E+01 0.  1.
       -4    1    3    3    0  502  0.16622182338E+03  0.15448657939E+03 -0.18388503237E+03  0.29208066661E+03  0.12699999809E+01 0. -1.
</event>
<event>
 5   0  0.4236284E-04  0.8993449E+03  0.7818609E-02  0.9426401E-01
       -2   -1    0    0    0  501  0.00000000000E+00  0.00000000000E+00  0.11387692073E+03  0.11387692076E+03  0.25500000920E-02 0.  1.
        2   -1    0    0  501    0  0.00000000000E+00  0.00000000000E+00 -0.17756477080E+04  0.17756477080E+04  0.25500000920E-02 0. -1.
    10030    2    1    2    0    0  0.00000000000E+00  0.00000000000E+00 -0.16617707873E+04  0.18895246288E+04  0.89934485782E+03 0.  0.
        2    1    3    3  502    0  0.37056317436E+03 -0.62837639289E+02 -0.31223309350E+03  0.48862576659E+03  0.25500000920E-02 0.  1.
       -2    1    3    3    0  502 -0.37056317436E+03  0.62837639289E+02 -0.13495376938E+04  0.14008988622E+04  0.25500000920E-02 0. -1.
</event>
<event>
 5   0  0.2308362E-04  0.8998942E+03  0.7818609E-02  0.9425714E-01
        1   -1    0    0  501    0  0.00000000000E+00  0.00000000000E+00  0.70030702786E+03  0.70030702788E+03  0.50400001928E-02 0.  1.
       -1   -1    0    0    0  501  0.00000000000E+00  0.00000000000E+00 -0.28909088872E+03  0.28909088877E+03  0.50400001928E-02 0. -1.
    10030    2    1    2    0    0  0.00000000000E+00  0.00000000000E+00  0.41121613914E+03  0.98939791664E+03  0.89989417398E+03 0.  0.
        1    1    3    3  502    0  0.30618930455E+03  0.16751877457E+03 -0.10660371622E+03  0.36493668271E+03  0.50400001928E-02 0. -1.
       -1    1    3    3    0  502 -0.30618930455E+03 -0.16751877457E+03  0.51781985536E+03  0.62446123393E+03  0.50400001928E-02 0.  1.
</event>
<event>
 5   0  0.4110039E-04  0.8992535E+03  0.7818609E-02  0.9426515E-01
        2   -1    0    0  501    0  0.00000000000E+00  0.00000000000E+00  0.10691435586E+04  0.10691435586E+04  0.25500000920E-02 0.  1.
       -2   -1    0    0    0  501  0.00000000000E+00  0.00000000000E+00 -0.18908986265E+03  0.18908986267E+03  0.25500000920E-02 0. -1.
    10030    2    1    2    0    0  0.00000000000E+00  0.00000000000E+00  0.88005369598E+03  0.12582334213E+04  0.89925348745E+03 0.  0.
        3    1    3    3  502    0 -0.60687320686E+02 -0.21117826796E+03  0.98890660203E+03  0.10130229462E+04  0.10100000352E+00 0.  1.
       -3    1    3    3    0  502  0.60687320686E+02  0.21117826796E+03 -0.10885290606E+03  0.24521047512E+03  0.10100000352E+00 0. -1.
</event>
<event>
 5   0  0.3959804E-04  0.9010482E+03  0.7818609E-02  0.9424272E-01
       -2   -1    0    0    0  501  0.00000000000E+00  0.00000000000E+00  0.61516166290E+03  0.61516166291E+03  0.25500000920E-02 0. -1.
        2   -1    0    0  501    0  0.00000000000E+00  0.00000000000E+00 -0.32994898062E+03  0.32994898063E+03  0.25500000920E-02 0.  1.
    10030    2    1    2    0    0  0.00000000000E+00  0.00000000000E+00  0.28521268228E+03  0.94511064354E+03  0.90104819760E+03 0.  0.
        5    1    3    3  502    0 -0.37407840173E+03 -0.23495181009E+03  0.49893491922E+02  0.44457671356E+03  0.46999998093E+01 0.  1.
       -5    1    3    3    0  502  0.37407840173E+03  0.23495181009E+03  0.23531919036E+03  0.50053392998E+03  0.46999998093E+01 0. -1.
</event>
<event>
 5   0  0.2308362E-04  0.8997345E+03  0.7818609E-02  0.9425913E-01
       -1   -1    0    0    0  501  0.00000000000E+00  0.00000000000E+00  0.25159175229E+03  0.25159175234E+03  0.50400001928E-02 0. -1.
        1   -1    0    0  501    0  0.00000000000E+00  0.00000000000E+00 -0.80440059530E+03  0.80440059532E+03  0.50400001928E-02 0.  1.
    10030    2    1    2    0    0  0.00000000000E+00  0.00000000000E+00 -0.55280884302E+03  0.10559923477E+04  0.89973452828E+03 0.  0.
        1    1    3    3  502    0 -0.34366394699E+03 -0.19432080986E+03 -0.23274653078E+02  0.39548349537E+03  0.50400001928E-02 0. -1.
       -1    1    3    3    0  502  0.34366394699E+03  0.19432080986E+03 -0.52953418994E+03  0.66050885229E+03  0.50400001928E-02 0.  1.
</event>
<event>
 5   0  0.2351435E-04  0.8998322E+03  0.7818609E-02  0.9425791E-01
       -1   -1    0    0    0  501  0.00000000000E+00  0.00000000000E+00  0.12256116396E+03  0.12256116406E+03  0.50400001928E-02 0. -1.
        1   -1    0    0  501    0  0.00000000000E+00  0.00000000000E+00 -0.16516201826E+04  0.16516201826E+04  0.50400001928E-02 0.  1.
    10030    2    1    2    0    0  0.00000000000E+00  0.00000000000E+00 -0.15290590186E+04  0.17741813467E+04  0.89983218901E+03 0.  0.
        4    1    3    3  502    0  0.28170252701E+03 -0.16174858371E+03 -0.15075725937E+03  0.35811769324E+03  0.12699999809E+01 0. -1.
       -4    1    3    3    0  502 -0.28170252701E+03  0.16174858371E+03 -0.13783017593E+04  0.14160636534E+04  0.12699999809E+01 0.  1.
</event>
<event>
 5   0  0.2356918E-04  0.9004433E+03  0.7818609E-02  0.9425028E-01
       -1   -1    0    0    0  501  0.00000000000E+00  0.00000000000E+00  0.19560560924E+03  0.19560560931E+03  0.50400001928E-02 0.  1.
        1   -1    0    0  501    0  0.00000000000E+00  0.00000000000E+00 -0.10362663611E+04  0.10362663611E+04  0.50400001928E-02 0. -1.
    10030    2    1    2    0    0  0.00000000000E+00  0.00000000000E+00 -0.84066075184E+03  0.12318719704E+04  0.90044325295E+03 0.  0.
        5    1    3    3  502    0 -0.27561856034E+02  0.43178149146E+03 -0.59055795365E+03  0.73210361213E+03  0.46999998093E+01 0. -1.
       -5    1    3    3    0  502  0.27561856034E+02 -0.43178149146E+03 -0.25010279819E+03  0.49976835827E+03  0.46999998093E+01 0.  1.
</event>
<event>
 5   0  0.2356918E-04  0.9011520E+03  0.7818609E-02  0.9424143E-01
       -1   -1    0    0    0  501  0.00000000000E+00  0.00000000000E+00  0.19950296669E+04  0.19950296669E+04  0.50400001928E-02 0. -1.
        1   -1    0    0  501    0  0.00000000000E+00  0.00000000000E+00 -0.10176225735E+03  0.10176225747E+03  0.50400001928E-02 0.  1.
    10030    2    1    2    0    0  0.00000000000E+00  0.00000000000E+00  0.18932674095E+04  0.20967919243E+04  0.90115197944E+03 0.  0.
        5    1    3    3  502    0  0.12277806822E+03  0.96908666957E+02  0.19297705618E+04  0.19361049183E+04  0.46999998093E+01 0. -1.
       -5    1    3    3    0  502 -0.12277806822E+03 -0.96908666957E+02 -0.36503152268E+02  0.16068700598E+03  0.46999998093E+01 0.  1.
</event>
<event>
 5   0  0.3959804E-04  0.8997831E+03  0.7818609E-02  0.9425853E-01
       -2   -1    0    0    0  501  0.00000000000E+00  0.00000000000E+00  0.25349010802E+03  0.25349010804E+03  0.25500000920E-02 0. -1.
        2   -1    0    0  501    0  0.00000000000E+00  0.00000000000E+00 -0.79846275425E+03  0.79846275425E+03  0.25500000920E-02 0.  1.
    10030    2    1    2    0    0  0.00000000000E+00  0.00000000000E+00 -0.54497264623E+03  0.10519528623E+04  0.89978310683E+03 0.  0.
        5    1    3    3  502    0 -0.24533439810E+03 -0.37694403545E+03 -0.26053229140E+03  0.51978354881E+03  0.46999998093E+01 0. -1.
       -5    1    3    3    0  502  0.24533439810E+03  0.37694403545E+03 -0.28444035483E+03  0.53216931348E+03  0.46999998093E+01 0.  1.
</event>
<event>
 5   0  0.3959804E-04  0.9003263E+03  0.7818609E-02  0.9425174E-01
        2   -1    0    0  501    0  0.00000000000E+00  0.00000000000E+00  0.12156999077E+04  0.12156999077E+04  0.25500000920E-02 0.  1.
       -2   -1    0    0    0  501  0.00000000000E+00  0.00000000000E+00 -0.16669150179E+03  0.16669150181E+03  0.25500000920E-02 0. -1.
    10030    2    1    2    0    0  0.00000000000E+00  0.00000000000E+00  0.10490084059E+04  0.13823914095E+04  0.90032625942E+03 0.  0.
        5    1    3    3  502    0 -0.23341485995E+03  0.34890338525E+03  0.27498470305E+03  0.50185131861E+03  0.46999998093E+01 0. -1.
       -5    1    3    3    0  502  0.23341485995E+03 -0.34890338525E+03  0.77402370284E+03  0.88054009088E+03  0.46999998093E+01 0.  1.
</event>
<event>
 5   0  0.3959804E-04  0.8999737E+03  0.7818609E-02  0.9425614E-01
        2   -1    0    0  501    0  0.00000000000E+00  0.00000000000E+00  0.12530474969E+04  0.12530474969E+04  0.25500000920E-02 0.  1.
       -2   -1    0    0    0  501  0.00000000000E+00  0.00000000000E+00 -0.16159654295E+03  0.16159654298E+03  0.25500000920E-02 0. -1.
    10030    2    1    2    0    0  0.00000000000E+00  0.00000000000E+00  0.10914509539E+04  0.14146440398E+04  0.89997365221E+03 0.  0.
        5    1    3    3  502    0  0.22364166318E+02  0.10514213575E+03 -0.14107863755E+03  0.17742687682E+03  0.46999998093E+01 0. -1.
       -5    1    3    3    0  502 -0.22364166318E+02 -0.10514213575E+03  0.12325295915E+04  0.12372171630E+04  0.46999998093E+01 0.  1.
</event>
<event>
 5   0  0.3959804E-04  0.9002387E+03  0.7818609E-02  0.9425283E-01
       -2   -1    0    0    0  501  0.00000000000E+00  0.00000000000E+00  0.27429496744E+03  0.27429496745E+03  0.25500000920E-02 0. -1.
        2   -1    0    0  501    0  0.00000000000E+00  0.00000000000E+00 -0.73864804437E+03  0.73864804437E+03  0.25500000920E-02 0.  1.
    10030    2    1    2    0    0  0.00000000000E+00  0.00000000000E+00 -0.46435307693E+03  0.10129430118E+04  0.90023872676E+03 0.  0.
        5    1    3    3  502    0  0.15444824255E+03  0.41154257488E+03 -0.12329521222E+03  0.45655815613E+03  0.46999998093E+01 0. -1.
       -5    1    3    3    0  502 -0.15444824255E+03 -0.41154257488E+03 -0.34105786471E+03  0.55638485570E+03  0.46999998093E+01 0.  1.
</event>
<event>
 5   0  0.2332791E-04  0.9000282E+03  0.7818609E-02  0.9425546E-01
        1   -1    0    0  501    0  0.00000000000E+00  0.00000000000E+00  0.14974273300E+04  0.14974273300E+04  0.50400001928E-02 0.  1.
       -1   -1    0    0    0  501  0.00000000000E+00  0.00000000000E+00 -0.13524039939E+03  0.13524039949E+03  0.50400001928E-02 0. -1.
    10030    2    1    2    0    0  0.00000000000E+00  0.00000000000E+00  0.13621869306E+04  0.16326677295E+04  0.90002815567E+03 0.  0.
        2    1    3    3  502    0  0.21180874979E+03 -0.39675324517E+03  0.70899553513E+03  0.83961345444E+03  0.25500000920E-02 0. -1.
       -2    1    3    3    0  502 -0.21180874979E+03  0.39675324517E+03  0.65319139546E+03  0.79305427504E+03  0.25500000920E-02 0.  1.
</event>
<event>
 5   0  0.4110039E-04  0.8993286E+03  0.7818609E-02  0.9426421E-01
       -2   -1    0    0    0  501  0.00000000000E+00  0.00000000000E+00  0.23314577643E+03  0.23314577645E+03  0.25500000920E-02 0. -1.
        2   -1    0    0  501    0  0.00000000000E+00  0.00000000000E+00 -0.86725985108E+03  0.86725985108E+03  0.25500000920E-02 0.  1.
    10030    2    1    2    0    0  0.00000000000E+00  0.00000000000E+00 -0.63411407464E+03  0.11004056275E+04  0.89932857479E+03 0.  0.
        3    1    3    3  502    0  0.21264470820E+03 -0.22405503132E+03 -0.71688983608E+03  0.78060840135E+03  0.10100000352E+00 0.  1.
       -3    1    3    3    0  502 -0.21264470820E+03  0.22405503132E+03  0.82775761431E+02  0.31979722618E+03  0.10100000352E+00 0. -1.
</event>
<event>
 5   0  0.4033144E-04  0.8998435E+03  0.7818609E-02  0.9425777E-01
        2   -1    0    0  501    0  0.00000000000E+00  0.00000000000E+00  0.27722023983E+03  0.27722023984E+03  0.25500000920E-02 0.  1.
       -2   -1    0    0    0  501  0.00000000000E+00  0.00000000000E+00 -0.73021211708E+03  0.73021211709E+03  0.25500000920E-02 0. -1.
    10030    2    1    2    0    0  0.00000000000E+00  0.00000000000E+00 -0.45299187726E+03  0.10074323569E+04  0.89984349357E+03 0.  0.
        4    1    3    3  502    0  0.87386134406E+02 -0.23338791358E+02  0.26693456764E+03  0.28184519150E+03  0.12699999809E+01 0.  1.
       -4    1    3    3    0  502 -0.87386134406E+02  0.23338791358E+02 -0.71992644490E+03  0.72558716543E+03  0.12699999809E+01 0. -1.
</event>
<event>
 5   0  0.4110039E-04  0.8998951E+03  0.7818609E-02  0.9425713E-01
       -2   -1    0    0    0  501  0.00000000000E+00  0.00000000000E+00  0.11749260988E+03  0.11749260990E+03  0.25500000920E-02 0.  1.
        2   -1    0    0  501    0  0.00000000000E+00  0.00000000000E+00 -0.17231107964E+04  0.17231107964E+04  0.25500000920E-02 0. -1.
    10030    2    1    2    0    0  0.00000000000E+00  0.00000000000E+00 -0.16056181866E+04  0.18406034063E+04  0.89989507079E+03 0.  0.
        3    1    3    3  502    0  0.32718519146E+03 -0.18650581942E+03 -0.29922746040E+03  0.48101107414E+03  0.10100000352E+00 0.  1.
       -3    1    3    3    0  502 -0.32718519146E+03  0.18650581942E+03 -0.13063907262E+04  0.13595923322E+04  0.10100000352E+00 0. -1.
</event>
<event>
 5   0  0.2332791E-04  0.8998893E+03  0.7818609E-02  0.9425720E-01
       -1   -1    0    0    0  501  0.00000000000E+00  0.00000000000E+00  0.34454968518E+03  0.34454968522E+03  0.50400001928E-02 0. -1.
        1   -1    0    0  501    0  0.00000000000E+00  0.00000000000E+00 -0.58757904203E+03  0.58757904205E+03  0.50400001928E-02 0.  1.
    10030    2    1    2    0    0  0.00000000000E+00  0.00000000000E+00 -0.24302935685E+03  0.93212872727E+03  0.89988926869E+03 0.  0.
        2    1    3    3  502    0  0.14166595153E+03  0.39447162839E+03  0.47972121005E+02  0.42187490068E+03  0.25500000920E-02 0. -1.
       -2    1    3    3    0  502 -0.14166595153E+03 -0.39447162839E+03 -0.29100147786E+03  0.51025382659E+03  0.25500000920E-02 0.  1.
</event>
<event>
 5   0  0.4236284E-04  0.8999526E+03  0.7818609E-02  0.9425641E-01
       -2   -1    0    0    0  501  0.00000000000E+00  0.00000000000E+00  0.64595486564E+03  0.64595486565E+03  0.25500000920E-02 0. -1.
        2   -1    0    0  501    0  0.00000000000E+00  0.00000000000E+00 -0.31345639706E+03  0.31345639707E+03  0.25500000920E-02 0.  1.
    10030    2    1    2    0    0  0.00000000000E+00  0.00000000000E+00  0.33249846858E+03  0.95941126272E+03  0.89995263177E+03 0.  0.
        2    1    3    3  502    0  0.14163435225E+03  0.50480237036E+02 -0.28588219597E+03  0.32301265307E+03  0.25500000920E-02 0.  1.
       -2    1    3    3    0  502 -0.14163435225E+03 -0.50480237036E+02  0.61838066455E+03  0.63639860965E+03  0.25500000920E-02 0. -1.
</event>
<event>
 5   0  0.2351435E-04  0.9003379E+03  0.7818609E-02  0.9425159E-01
       -1   -1    0    0    0  501  0.00000000000E+00  0.00000000000E+00  0.70566439046E+03  0.70566439048E+03  0.50400001928E-02 0.  1.
        1   -1    0    0  501    0  0.00000000000E+00  0.00000000000E+00 -0.28717912508E+03  0.28717912513E+03  0.50400001928E-02 0. -1.
    10030    2    1    2    0    0  0.00000000000E+00  0.00000000000E+00  0.41848526538E+03  0.99284351561E+03  0.90033789720E+03 0.  0.
        4    1    3    3  502    0 -0.41766629750E+03 -0.16511872211E+03  0.24307267974E+03  0.51068118136E+03  0.12699999809E+01 0. -1.
       -4    1    3    3    0  502  0.41766629750E+03  0.16511872211E+03  0.17541258564E+03  0.48216233424E+03  0.12699999809E+01 0.  1.
</event>
<event>
 5   0  0.2351435E-04  0.8995258E+03  0.7818609E-02  0.9426174E-01
        1   -1    0    0  501    0  0.00000000000E+00  0.00000000000E+00  0.10293298178E+04  0.10293298178E+04  0.50400001928E-02 0. -1.
       -1   -1    0    0    0  501  0.00000000000E+00  0.00000000000E+00 -0.19652268298E+03  0.19652268304E+03  0.50400001928E-02 0.  1.
    10030    2    1    2    0    0  0.00000000000E+00  0.00000000000E+00  0.83280713486E+03  0.12258525009E+04  0.89952578065E+03 0.  0.
        4    1    3    3  502    0 -0.23784173705E+03 -0.75475207697E+02 -0.93536808745E+02  0.26648817300E+03  0.12699999809E+01 0.  1.
       -4    1    3    3    0  502  0.23784173705E+03  0.75475207697E+02  0.92634394360E+03  0.95936432788E+03  0.12699999809E+01 0. -1.
</event>
<event>
 5   0  0.4033144E-04  0.9003852E+03  0.7818609E-02  0.9425100E-01
       -2   -1    0    0    0  501  0.00000000000E+00  0.00000000000E+00  0.39268142493E+03  0.39268142494E+03  0.25500000920E-02 0. -1.
        2   -1    0    0  501    0  0.00000000000E+00  0.00000000000E+00 -0.51612670266E+03  0.51612670267E+03  0.25500000920E-02 0.  1.
    10030    2    1    2    0    0  0.00000000000E+00  0.00000000000E+00 -0.12344527773E+03  0.90880812761E+03  0.90038518214E+03 0.  0.
        4    1    3    3  502    0 -0.17776374676E+03 -0.71269151495E+02 -0.47295578772E+03  0.51026270847E+03  0.12699999809E+01 0.  1.
       -4    1    3    3    0  502  0.17776374676E+03  0.71269151495E+02  0.34951050999E+03  0.39854541913E+03  0.12699999809E+01 0. -1.
</event>
<event>
 5   0  0.2450427E-04  0.8997466E+03  0.7818609E-02  0.9425898E-01
        1   -1    0    0  501    0  0.00000000000E+00  0.00000000000E+00  0.21018081947E+03  0.21018081953E+03  0.50400001928E-02 0.  1.
       -1   -1    0    0    0  501  0.00000000000E+00  0.00000000000E+00 -0.96291374692E+03  0.96291374693E+03  0.50400001928E-02 0. -1.
    10030    2    1    2    0    0  0.00000000000E+00  0.00000000000E+00 -0.75273292745E+03  0.11730945665E+04  0.89974663201E+03 0.  0.
        3    1    3    3  502    0  0.92897258067E+01  0.24435529310E+03  0.11596501569E+03  0.27063573921E+03  0.10100000352E+00 0.  1.
       -3    1    3    3    0  502 -0.92897258067E+01 -0.24435529310E+03 -0.86869794314E+03  0.90245882725E+03  0.10100000352E+00 0. -1.
</event>
<event>
 5   0  0.1596250E-04  0.9030965E+03  0.7818609E-02  0.9421719E-01
       -4   -1    0    0    0  501  0.00000000000E+00  0.00000000000E+00  0.15848393248E+03  0.15848902092E+03  0.12699999809E+01 0.  1.
        4   -1    0    0  501    0  0.00000000000E+00  0.00000000000E+00 -0.12865132169E+04  0.12865138437E+04  0.12699999809E+01 0. -1.
    10030    2    1    2    0    0  0.00000000000E+00  0.00000000000E+00 -0.11280292844E+04  0.14450028646E+04  0.90309645795E+03 0.  0.
        3    1    3    3  502    0  0.53616058109E+02  0.18769852477E+03 -0.12155143512E+04  0.12310891788E+04  0.10100000352E+00 0. -1.
       -3    1    3    3    0  502 -0.53616058109E+02 -0.18769852477E+03  0.87485066808E+02  0.21391368588E+03  0.10100000352E+00 0.  1.
</event>
<event>
 5   0  0.4110039E-04  0.8999209E+03  0.7818609E-02  0.9425680E-01
        2   -1    0    0  501    0  0.00000000000E+00  0.00000000000E+00  0.75845441838E+03  0.75845441838E+03  0.25500000920E-02 0. -1.
       -2   -1    0    0    0  501  0.00000000000E+00  0.00000000000E+00 -0.26694338715E+03  0.26694338716E+03  0.25500000920E-02 0.  1.
    10030    2    1    2    0    0  0.00000000000E+00  0.00000000000E+00  0.49151103123E+03  0.10253978055E+04  0.89992086641E+03 0.  0.
        3    1    3    3  502    0 -0.98151935292E+02  0.27857781867E+03 -0.14102214147E+03  0.32730208988E+03  0.10100000352E+00 0.  1.
       -3    1    3    3    0  502  0.98151935292E+02 -0.27857781867E+03  0.63253317270E+03  0.69809571566E+03  0.10100000352E+00 0. -1.
</event>
<event>
 5   0  0.4110039E-04  0.8997709E+03  0.7818609E-02  0.9425868E-01
       -2   -1    0    0    0  501  0.00000000000E+00  0.00000000000E+00  0.18636565776E+03  0.18636565778E+03  0.25500000920E-02 0.  1.
        2   -1    0    0  501    0  0.00000000000E+00  0.00000000000E+00 -0.10860204068E+04  0.10860204068E+04  0.25500000920E-02 0. -1.
    10030    2    1    2    0    0  0.00000000000E+00  0.00000000000E+00 -0.89965474903E+03  0.12723860646E+04  0.89977087631E+03 0.  0.
        3    1    3    3  502    0  0.30461069476E+02 -0.36050531232E+03 -0.71685305332E+02  0.36882346748E+03  0.10100000352E+00 0.  1.
       -3    1    3    3    0  502 -0.30461069476E+02  0.36050531232E+03 -0.82796944369E+03  0.90356259709E+03  0.10100000352E+00 0. -1.
</event>
<event>
 5   0  0.4033144E-04  0.8999819E+03  0.7818609E-02  0.9425604E-01
        2   -1    0    0  501    0  0.00000000000E+00  0.00000000000E+00  0.48199739387E+03  0.48199739388E+03  0.25500000920E-02 0.  1.
       -2   -1    0    0    0  501  0.00000000000E+00  0.00000000000E+00 -0.42010983040E+03  0.42010983041E+03  0.25500000920E-02 0. -1.
    10030    2    1    2    0    0  0.00000000000E+00  0.00000000000E+00  0.61887563469E+02  0.90210722429E+03  0.89998187404E+03 0.  0.
        4    1    3    3  502    0 -0.24200918053E+03  0.21212558699E+03  0.34620923189E+03  0.47268187321E+03  0.12699999809E+01 0.  1.
       -4    1    3    3    0  502  0.24200918053E+03 -0.21212558699E+03 -0.28432166842E+03  0.42942535108E+03  0.12699999809E+01 0. -1.
</event>
<event>
 5   0  0.2308362E-04  0.9005045E+03  0.7818609E-02  0.9424951E-01
        1   -1    0    0  501    0  0.00000000000E+00  0.00000000000E+00  0.75945185160E+03  0.75945185162E+03  0.50400001928E-02 0.  1.
       -1   -1    0    0    0  501  0.00000000000E+00  0.00000000000E+00 -0.26693870951E+03  0.26693870956E+03  0.50400001928E-02 0. -1.
    10030    2    1    2    0    0  0.00000000000E+00  0.00000000000E+00  0.49251314209E+03  0.10263905612E+04  0.90050451911E+03 0.  0.
        1    1    3    3  502    0 -0.19043088620E+03 -0.38941339898E+03  0.10749908751E+03  0.44661255195E+03  0.50400001928E-02 0. -1.
       -1    1    3    3    0  502  0.19043088620E+03  0.38941339898E+03  0.38501405459E+03  0.57977800922E+03  0.50400001928E-02 0.  1.
</event>
<event>
 5   0  0.4033144E-04  0.8999898E+03  0.7818609E-02  0.9425594E-01
        2   -1    0    0  501    0  0.00000000000E+00  0.00000000000E+00  0.31265650284E+03  0.31265650285E+03  0.25500000920E-02 0.  1.
       -2   -1    0    0    0  501  0.00000000000E+00  0.00000000000E+00 -0.64766097384E+03  0.64766097385E+03  0.25500000920E-02 0. -1.
    10030    2    1    2    0    0  0.00000000000E+00  0.00000000000E+00 -0.33500447101E+03  0.96031747669E+03  0.89998981130E+03 0.  0.
        4    1    3    3  502    0 -0.18878662255E+03  0.17023045217E+03 -0.56370729098E+03  0.61837393097E+03  0.12699999809E+01 0. -1.
       -4    1    3    3    0  502  0.18878662255E+03 -0.17023045217E+03  0.22870281997E+03  0.34194354572E+03  0.12699999809E+01 0.  1.
</event>
<event>
 5   0  0.2450427E-04  0.9001777E+03  0.7818609E-02  0.9425359E-01
        1   -1    0    0  501    0  0.00000000000E+00  0.00000000000E+00  0.51679869162E+03  0.51679869165E+03  0.50400001928E-02 0.  1.
       -1   -1    0    0    0  501  0.00000000000E+00  0.00000000000E+00 -0.39199013615E+03  0.39199013618E+03  0.50400001928E-02 0. -1.
    10030    2    1    2    0    0  0.00000000000E+00  0.00000000000E+00  0.12480855548E+03  0.90878882783E+03  0.90017773693E+03 0.  0.
        3    1    3    3  502    0 -0.38495049171E+03 -0.22962164546E+02 -0.17190604318E+03  0.42221539521E+03  0.10100000352E+00 0. -1.
       -3    1    3    3    0  502  0.38495049171E+03  0.22962164546E+02  0.29671459866E+03  0.48657343262E+03  0.10100000352E+00 0.  1.
</event>
<event>
 5   0  0.4110039E-04  0.8994126E+03  0.7818609E-02  0.9426316E-01
       -2   -1    0    0    0  501  0.00000000000E+00  0.00000000000E+00  0.18235800692E+03  0.18235800694E+03  0.25500000920E-02 0.  1.
        2   -1    0    0  501    0  0.00000000000E+00  0.00000000000E+00 -0.11090039674E+04  0.11090039674E+04  0.25500000920E-02 0. -1.
    10030    2    1    2    0    0  0.00000000000E+00  0.00000000000E+00 -0.92664596047E+03  0.12913619743E+04  0.89941259314E+03 0.  0.
        3    1    3    3  502    0 -0.35299487893E+02 -0.44831467657E+03 -0.46058371748E+03  0.64371536729E+03  0.10100000352E+00 0. -1.
       -3    1    3    3    0  502  0.35299487893E+02  0.44831467657E+03 -0.46606224299E+03  0.64764660705E+03  0.10100000352E+00 0.  1.
</event>
<event>
 5   0  0.3959804E-04  0.9019523E+03  0.7818609E-02  0.9423144E-01
        2   -1    0    0  501    0  0.00000000000E+00  0.00000000000E+00  0.65853230877E+03  0.65853230878E+03  0.25500000920E-02 0. -1.
       -2   -1    0    0    0  501  0.00000000000E+00  0.00000000000E+00 -0.30883750364E+03  0.30883750365E+03  0.25500000920E-02 0.  1.
    10030    2    1    2    0    0  0.00000000000E+00  0.00000000000E+00  0.34969480513E+03  0.96736981243E+03  0.90195226995E+03 0.  0.
        5    1    3    3  502    0  0.33209892104E+03  0.20259286898E+03  0.41947761683E+03  0.57211635612E+03  0.46999998093E+01 0. -1.
       -5    1    3    3    0  502 -0.33209892104E+03 -0.20259286898E+03 -0.69782811707E+02  0.39525345631E+03  0.46999998093E+01 0.  1.
</event>
<event>
 5   0  0.2351435E-04  0.9004200E+03  0.7818609E-02  0.9425057E-01
        1   -1    0    0  501    0  0.00000000000E+00  0.00000000000E+00  0.18894146827E+03  0.18894146834E+03  0.50400001928E-02 0. -1.
       -1   -1    0    0    0  501  0.00000000000E+00  0.00000000000E+00 -0.10727611102E+04  0.10727611102E+04  0.50400001928E-02 0.  1.
    10030    2    1    2    0    0  0.00000000000E+00  0.00000000000E+00 -0.88381964188E+03  0.12617025785E+04  0.90042003378E+03 0.  0.
        4    1    3    3  502    0 -0.37310113922E+03 -0.66394620755E+02 -0.78248481149E+03  0.86942325646E+03  0.12699999809E+01 0.  1.
       -4    1    3    3    0  502  0.37310113922E+03  0.66394620755E+02 -0.10133483039E+03  0.39227932205E+03  0.12699999809E+01 0. -1.
</event>
<event>
 5   0  0.2308362E-04  0.9002747E+03  0.7818609E-02  0.9425238E-01
       -1   -1    0    0    0  501  0.00000000000E+00  0.00000000000E+00  0.93605218646E+03  0.93605218647E+03  0.50400001928E-02 0. -1.
        1   -1    0    0  501    0  0.00000000000E+00  0.00000000000E+00 -0.21646619001E+03  0.21646619007E+03  0.50400001928E-02 0.  1.
    10030    2    1    2    0    0  0.00000000000E+00  0.00000000000E+00  0.71958599644E+03  0.11525183765E+04  0.90027473695E+03 0.  0.
        1    1    3    3  502    0 -0.18292140464E+03 -0.38220849144E+03  0.55428038612E+03  0.69768927014E+03  0.50400001928E-02 0. -1.
       -1    1    3    3    0  502  0.18292140464E+03  0.38220849144E+03  0.16530561032E+03  0.45482910640E+03  0.50400001928E-02 0.  1.
</event>
<event>
 5   0  0.4243516E-04  0.8994538E+03  0.7818609E-02  0.9426264E-01
       -2   -1    0    0    0  501  0.00000000000E+00  0.00000000000E+00  0.26909921189E+03  0.26909921191E+03  0.25500000920E-02 0.  1.
        2   -1    0    0  501    0  0.00000000000E+00  0.00000000000E+00 -0.75159742379E+03  0.75159742379E+03  0.25500000920E-02 0. -1.
    10030    2    1    2    0    0  0.00000000000E+00  0.00000000000E+00 -0.48249821190E+03  0.10206966357E+04  0.89945377738E+03 0.  0.
        1    1    3    3  502    0  0.19538161680E+03  0.28359684569E+03  0.86966271030E+02  0.35519611398E+03  0.50400001928E-02 0.  1.
       -1    1    3    3    0  502 -0.19538161680E+03 -0.28359684569E+03 -0.56946448293E+03  0.66550052172E+03  0.50400001928E-02 0. -1.
</event>
<event>
 5   0  0.2351435E-04  0.8997909E+03  0.7818609E-02  0.9425843E-01
        1   -1    0    0  501    0  0.00000000000E+00  0.00000000000E+00  0.84331969891E+03  0.84331969893E+03  0.50400001928E-02 0.  1.
       -1   -1    0    0    0  501  0.00000000000E+00  0.00000000000E+00 -0.24001087936E+03  0.24001087942E+03  0.50400001928E-02 0. -1.
    10030    2    1    2    0    0  0.00000000000E+00  0.00000000000E+00  0.60330881955E+03  0.10833305783E+04  0.89979087028E+03 0.  0.
        4    1    3    3  502    0 -0.74498143318E+02 -0.23674358480E+03  0.75343879918E+03  0.79326485823E+03  0.12699999809E+01 0.  1.
       -4    1    3    3    0  502  0.74498143318E+02  0.23674358480E+03 -0.15012997963E+03  0.29006572011E+03  0.12699999809E+01 0. -1.
</event>
<event>
 5   0  0.3959804E-04  0.9000787E+03  0.7818609E-02  0.9425483E-01
        2   -1    0    0  501    0  0.00000000000E+00  0.00000000000E+00  0.33930813667E+03  0.33930813668E+03  0.25500000920E-02 0. -1.
       -2   -1    0    0    0  501  0.00000000000E+00  0.00000000000E+00 -0.59690701064E+03  0.59690701064E+03  0.25500000920E-02 0.  1.
    10030    2    1    2    0    0  0.00000000000E+00  0.00000000000E+00 -0.25759887397E+03  0.93621514732E+03  0.90007867557E+03 0.  0.
        5    1    3    3  502    0 -0.25845471167E+03 -0.24544634271E+03 -0.41454796839E+03  0.54673106116E+03  0.46999998093E+01 0.  1.
       -5    1    3    3    0  502  0.25845471167E+03  0.24544634271E+03  0.15694909443E+03  0.38948408617E+03  0.46999998093E+01 0. -1.
</event>
<event>
 5   0  0.2332791E-04  0.9006247E+03  0.7818609E-02  0.9424801E-01
        1   -1    0    0  501    0  0.00000000000E+00  0.00000000000E+00  0.29779189480E+03  0.29779189484E+03  0.50400001928E-02 0. -1.
       -1   -1    0    0    0  501  0.00000000000E+00  0.00000000000E+00 -0.68094941534E+03  0.68094941536E+03  0.50400001928E-02 0.  1.
    10030    2    1    2    0    0  0.00000000000E+00  0.00000000000E+00 -0.38315752055E+03  0.97874131020E+03  0.90062470915E+03 0.  0.
        2    1    3    3  502    0  0.14566295157E+03 -0.15847976105E+03 -0.62142054820E+03  0.65764506221E+03  0.25500000920E-02 0.  1.
       -2    1    3    3    0  502 -0.14566295157E+03  0.15847976105E+03  0.23826302765E+03  0.32109624799E+03  0.25500000920E-02 0. -1.
</event>
<event>
 5   0  0.2356918E-04  0.8990074E+03  0.7818609E-02  0.9426823E-01
       -1   -1    0    0    0  501  0.00000000000E+00  0.00000000000E+00  0.37416347088E+03  0.37416347092E+03  0.50400001928E-02 0.  1.
        1   -1    0    0  501    0  0.00000000000E+00  0.00000000000E+00 -0.54001420295E+03  0.54001420297E+03  0.50400001928E-02 0. -1.
    10030    2    1    2    0    0  0.00000000000E+00  0.00000000000E+00 -0.16585073207E+03  0.91417767389E+03  0.89900742717E+03 0.  0.
        5    1    3    3  502    0 -0.72599663265E+01  0.16194291032E+03  0.34337828966E+03  0.37974853932E+03  0.46999998093E+01 0.  1.
       -5    1    3    3    0  502  0.72599663265E+01 -0.16194291032E+03 -0.50922902172E+03  0.53442913457E+03  0.46999998093E+01 0. -1.
</event>
<event>
 5   0  0.2308362E-04  0.9000114E+03  0.7818609E-02  0.9425567E-01
       -1   -1    0    0    0  501  0.00000000000E+00  0.00000000000E+00  0.24210630497E+03  0.24210630503E+03  0.50400001928E-02 0.  1.
        1   -1    0    0  501    0  0.00000000000E+00  0.00000000000E+00 -0.83643058330E+03  0.83643058331E+03  0.50400001928E-02 0. -1.
    10030    2    1    2    0    0  0.00000000000E+00  0.00000000000E+00 -0.59432427832E+03  0.10785368883E+04  0.90001137310E+03 0.  0.
        1    1    3    3  502    0  0.40772946466E+02 -0.44649484253E+03 -0.25098190500E+03  0.51382097488E+03  0.50400001928E-02 0. -1.
       -1    1    3    3    0  502 -0.40772946466E+02  0.44649484253E+03 -0.34334237332E+03  0.56471591346E+03  0.50400001928E-02 0.  1.
</event>
<event>
 5   0  0.3959804E-04  0.8997025E+03  0.7818609E-02  0.9425953E-01
        2   -1    0    0  501    0  0.00000000000E+00  0.00000000000E+00  0.78467232628E+03  0.78467232629E+03  0.25500000920E-02 0.  1.
       -2   -1    0    0    0  501  0.00000000000E+00  0.00000000000E+00 -0.25789893655E+03  0.25789893656E+03  0.25500000920E-02 0. -1.
    10030    2    1    2    0    0  0.00000000000E+00  0.00000000000E+00  0.52677338974E+03  0.10425712628E+04  0.89970252527E+03 0.  0.
        5    1    3    3  502    0 -0.12550986510E+03 -0.28128985070E+03 -0.11649214676E+03  0.32934665111E+03  0.46999998093E+01 0. -1.
       -5    1    3    3    0  502  0.12550986510E+03  0.28128985070E+03  0.64326553649E+03  0.71322461173E+03  0.46999998093E+01 0.  1.
</event>
<event>
 5   0  0.2332791E-04  0.8994235E+03  0.7818609E-02  0.9426302E-01
        1   -1    0    0  501    0  0.00000000000E+00  0.00000000000E+00  0.89042702259E+03  0.89042702261E+03  0.50400001928E-02 0.  1.
       -1   -1    0    0    0  501  0.00000000000E+00  0.00000000000E+00 -0.22712773884E+03  0.22712773889E+03  0.50400001928E-02 0. -1.
    10030    2    1    2    0    0  0.00000000000E+00  0.00000000000E+00  0.66329928375E+03  0.11175547615E+04  0.89942354045E+03 0.  0.
        2    1    3    3  502    0 -0.39789144983E+03 -0.19975510021E+03  0.41043944211E+03  0.60554127981E+03  0.25500000920E-02 0.  1.
       -2    1    3    3    0  502  0.39789144983E+03  0.19975510021E+03  0.25285984165E+03  0.51201348169E+03  0.25500000920E-02 0. -1.
</event>
<event>
 5   0  0.2450427E-04  0.8990880E+03  0.7818609E-02  0.9426722E-01
       -1   -1    0    0    0  501  0.00000000000E+00  0.00000000000E+00  0.20334609387E+04  0.20334609387E+04  0.50400001928E-02 0. -1.
        1   -1    0    0  501    0  0.00000000000E+00  0.00000000000E+00 -0.99382183668E+02  0.99382183796E+02  0.50400001928E-02 0.  1.
    10030    2    1    2    0    0  0.00000000000E+00  0.00000000000E+00  0.19340787551E+04  0.21328431225E+04  0.89908795707E+03 0.  0.
        3    1    3    3  502    0  0.23091959529E+02  0.11437347575E+03 -0.62834147689E+02  0.13252422747E+03  0.10100000352E+00 0.  1.
       -3    1    3    3    0  502 -0.23091959529E+02 -0.11437347575E+03  0.19969129027E+04  0.20003188950E+04  0.10100000352E+00 0. -1.
</event>
<event>
 5   0  0.4110039E-04  0.9002307E+03  0.7818609E-02  0.9425293E-01
        2   -1    0    0  501    0  0.00000000000E+00  0.00000000000E+00  0.14774055661E+04  0.14774055661E+04  0.25500000920E-02 0. -1.
       -2   -1    0    0    0  501  0.00000000000E+00  0.00000000000E+00 -0.13713487724E+03  0.13713487726E+03  0.25500000920E-02 0.  1.
    10030    2    1    2    0    0  0.00000000000E+00  0.00000000000E+00  0.13402706889E+04  0.16145404434E+04  0.90023070592E+03 0.  0.
        3    1    3    3  502    0  0.40018869489E+03  0.20588995476E+03  0.65599578518E+03  0.79553261741E+03  0.10100000352E+00 0. -1.
       -3    1    3    3    0  502 -0.40018869489E+03 -0.20588995476E+03  0.68427490373E+03  0.81900782600E+03  0.10100000352E+00 0.  1.
</event>
<event>
 5   0  0.3959804E-04  0.9000422E+03  0.7818609E-02  0.9425529E-01
        2   -1    0    0  501    0  0.00000000000E+00  0.00000000000E+00  0.90645703211E+03  0.90645703211E+03  0.25500000920E-02 0. -1.
       -2   -1    0    0    0  501  0.00000000000E+00  0.00000000000E+00 -0.22341820683E+03  0.22341820685E+03  0.25500000920E-02 0.  1.
    10030    2    1    2    0    0  0.00000000000E+00  0.00000000000E+00  0.68303882528E+03  0.11298752390E+04  0.90004223166E+03 0.  0.
        5    1    3    3  502    0  0.34513254135E+03 -0.23639579815E+03  0.13335141078E+03  0.43909467457E+03  0.46999998093E+01 0.  1.
       -5    1    3    3    0  502 -0.34513254135E+03  0.23639579815E+03  0.54968741450E+03  0.69078056439E+03  0.46999998093E+01 0. -1.
</event>
<event>
 5   0  0.4243516E-04  0.8997326E+03  0.7818609E-02  0.9425916E-01
       -2   -1    0    0    0  501  0.00000000000E+00  0.00000000000E+00  0.29987638027E+03  0.29987638028E+03  0.25500000920E-02 0.  1.
        2   -1    0    0  501    0  0.00000000000E+00  0.00000000000E+00 -0.67487709634E+03  0.67487709635E+03  0.25500000920E-02 0. -1.
    10030    2    1    2    0    0  0.00000000000E+00  0.00000000000E+00 -0.37500071607E+03  0.97475347663E+03  0.89973262869E+03 0.  0.
        1    1    3    3  502    0 -0.12025535207E+03 -0.28659539647E+03  0.16485918561E+03  0.35181930317E+03  0.50400001928E-02 0.  1.
       -1    1    3    3    0  502  0.12025535207E+03  0.28659539647E+03 -0.53985990169E+03  0.62293417345E+03  0.50400001928E-02 0. -1.
</event>
<event>
 5   0  0.2351435E-04  0.9000471E+03  0.7818609E-02  0.9425523E-01
       -1   -1    0    0    0  501  0.00000000000E+00  0.00000000000E+00  0.25695935575E+03  0.25695935580E+03  0.50400001928E-02 0. -1.
        1   -1    0    0  501    0  0.00000000000E+00  0.00000000000E+00 -0.78814477869E+03  0.78814477871E+03  0.50400001928E-02 0.  1.
    10030    2    1    2    0    0  0.00000000000E+00  0.00000000000E+00 -0.53118542294E+03  0.10451041345E+04  0.90004705346E+03 0.  0.
        4    1    3    3  502    0  0.27150037608E+03  0.22408115935E+03 -0.59112277007E+03  0.68800622264E+03  0.12699999809E+01 0.  1.
       -4    1    3    3    0  502 -0.27150037608E+03 -0.22408115935E+03  0.59937347131E+02  0.35709791188E+03  0.12699999809E+01 0. -1.
</event>
<event>
 5   0  0.2450427E-04  0.9002771E+03  0.7818609E-02  0.9425235E-01
        1   -1    0    0  501    0  0.00000000000E+00  0.00000000000E+00  0.11330978846E+04  0.11330978846E+04  0.50400001928E-02 0. -1.
       -1   -1    0    0    0  501  0.00000000000E+00  0.00000000000E+00 -0.17882366673E+03  0.17882366680E+03  0.50400001928E-02 0.  1.
    10030    2    1    2    0    0  0.00000000000E+00  0.00000000000E+00  0.95427421789E+03  0.13119215514E+04  0.90027710967E+03 0.  0.
        3    1    3    3  502    0 -0.22670103706E+02 -0.70100344639E+02  0.11242521555E+04  0.11266636194E+04  0.10100000352E+00 0. -1.
       -3    1    3    3    0  502  0.22670103706E+02  0.70100344639E+02 -0.16997793759E+03  0.18525793206E+03  0.10100000352E+00 0.  1.
</event>
<event>
 5   0  0.2308362E-04  0.8952235E+03  0.7818609E-02  0.9431572E-01
       -1   -1    0    0    0  501  0.00000000000E+00  0.00000000000E+00  0.40448377507E+03  0.40448377510E+03  0.50400001928E-02 0.  1.
        1   -1    0    0  501    0  0.00000000000E+00  0.00000000000E+00 -0.49533821722E+03  0.49533821725E+03  0.50400001928E-02 0. -1.
    10030    2    1    2    0    0  0.00000000000E+00  0.00000000000E+00 -0.90854442154E+02  0.89982199235E+03  0.89522348509E+03 0.  0.
        1    1    3    3  502    0  0.48102127092E+02 -0.40269308375E+03  0.14496790135E+03  0.43068692432E+03  0.50400001928E-02 0.  1.
       -1    1    3    3    0  502 -0.48102127092E+02  0.40269308375E+03 -0.23582234350E+03  0.46913506803E+03  0.50400001928E-02 0. -1.
</event>
<event>
 5   0  0.4236284E-04  0.9022339E+03  0.7818609E-02  0.9422793E-01
       -2   -1    0    0    0  501  0.00000000000E+00  0.00000000000E+00  0.17340627089E+03  0.17340627091E+03  0.25500000920E-02 0.  1.
        2   -1    0    0  501    0  0.00000000000E+00  0.00000000000E+00 -0.11735821644E+04  0.11735821644E+04  0.25500000920E-02 0. -1.
    10030    2    1    2    0    0  0.00000000000E+00  0.00000000000E+00 -0.10001758935E+04  0.13469884353E+04  0.90223390920E+03 0.  0.
        2    1    3    3  502    0  0.20457486277E+03  0.39978093302E+03 -0.56396864593E+03  0.72092739057E+03  0.25500000920E-02 0. -1.
       -2    1    3    3    0  502 -0.20457486277E+03 -0.39978093302E+03 -0.43620724761E+03  0.62606104475E+03  0.25500000920E-02 0.  1.
</event>
<event>
 5   0  0.2308362E-04  0.8999881E+03  0.7818609E-02  0.9425596E-01
        1   -1    0    0  501    0  0.00000000000E+00  0.00000000000E+00  0.45036733230E+03  0.45036733233E+03  0.50400001928E-02 0. -1.
       -1   -1    0    0    0  501  0.00000000000E+00  0.00000000000E+00 -0.44962106105E+03  0.44962106108E+03  0.50400001928E-02 0.  1.
    10030    2    1    2    0    0  0.00000000000E+00  0.00000000000E+00  0.74627124918E+00  0.89998839341E+03  0.89998808401E+03 0.  0.
        1    1    3    3  502    0  0.13545618275E+03  0.42793995681E+03  0.32211075777E+02  0.45002059676E+03  0.50400001928E-02 0.  1.
       -1    1    3    3    0  502 -0.13545618275E+03 -0.42793995681E+03 -0.31464804528E+02  0.44996779666E+03  0.50400001928E-02 0. -1.
</event>
<event>
 5   0  0.1596250E-04  0.8997835E+03  0.7818609E-02  0.9425852E-01
        4   -1    0    0  501    0  0.00000000000E+00  0.00000000000E+00  0.47344443206E+03  0.47344613542E+03  0.12699999809E+01 0. -1.
       -4   -1    0    0    0  501  0.00000000000E+00  0.00000000000E+00 -0.42750732163E+03  0.42750920803E+03  0.12699999809E+01 0.  1.
    10030    2    1    2    0    0  0.00000000000E+00  0.00000000000E+00  0.45937110426E+02  0.90095534345E+03  0.89978348105E+03 0.  0.
        1    1    3    3  502    0 -0.92894668901E+02 -0.29912934525E+03  0.34633620021E+03  0.46696525385E+03  0.50400001928E-02 0. -1.
       -1    1    3    3    0  502  0.92894668901E+02  0.29912934525E+03 -0.30039908979E+03  0.43399008960E+03  0.50400001928E-02 0.  1.
</event>
<event>
 5   0  0.2351435E-04  0.9001055E+03  0.7818609E-02  0.9425450E-01
        1   -1    0    0  501    0  0.00000000000E+00  0.00000000000E+00  0.61981826502E+03  0.61981826504E+03  0.50400001928E-02 0.  1.
       -1   -1    0    0    0  501  0.00000000000E+00  0.00000000000E+00 -0.32678526811E+03  0.32678526814E+03  0.50400001928E-02 0. -1.
    10030    2    1    2    0    0  0.00000000000E+00  0.00000000000E+00  0.29303299692E+03  0.94660353319E+03  0.90010550035E+03 0.  0.
        4    1    3    3  502    0 -0.21288372035E+03 -0.37263715154E+03  0.39869428911E+01  0.42917995492E+03  0.12699999809E+01 0. -1.
       -4    1    3    3    0  502  0.21288372035E+03  0.37263715154E+03  0.28904605403E+03  0.51742357826E+03  0.12699999809E+01 0.  1.
</event>
<event>
 5   0  0.4110039E-04  0.9002599E+03  0.7818609E-02  0.9425257E-01
        2   -1    0    0  501    0  0.00000000000E+00  0.00000000000E+00  0.35159920910E+03  0.35159920911E+03  0.25500000920E-02 0.  1.
       -2   -1    0    0    0  501  0.00000000000E+00  0.00000000000E+00 -0.57627259998E+03  0.57627259999E+03  0.25500000920E-02 0. -1.
    10030    2    1    2    0    0  0.00000000000E+00  0.00000000000E+00 -0.22467339088E+03  0.92787180909E+03  0.90025994110E+03 0.  0.
        3    1    3    3  502    0  0.44345021265E+01 -0.62305375327E+02 -0.57178406389E+03  0.57518575306E+03  0.10100000352E+00 0. -1.
       -3    1    3    3    0  502 -0.44345021265E+01  0.62305375327E+02  0.34711067301E+03  0.35268605603E+03  0.10100000352E+00 0.  1.
</event>
<event>
 5   0  0.4110039E-04  0.9000394E+03  0.7818609E-02  0.9425532E-01
        2   -1    0    0  501    0  0.00000000000E+00  0.00000000000E+00  0.15949433879E+04  0.15949433879E+04  0.25500000920E-02 0.  1.
       -2   -1    0    0    0  501  0.00000000000E+00  0.00000000000E+00 -0.12697485828E+03  0.12697485830E+03  0.25500000920E-02 0. -1.
    10030    2    1    2    0    0  0.00000000000E+00  0.00000000000E+00  0.14679685296E+04  0.17219182462E+04  0.90003935616E+03 0.  0.
        3    1    3    3  502    0  0.21494829147E+03  0.32351839625E+03  0.29918433150E+03  0.49028379041E+03  0.10100000352E+00 0. -1.
       -3    1    3    3    0  502 -0.21494829147E+03 -0.32351839625E+03  0.11687841981E+04  0.12316344558E+04  0.10100000352E+00 0.  1.
</event>
<event>
 5   0  0.2332791E-04  0.9000768E+03  0.7818609E-02  0.9425485E-01
        1   -1    0    0  501    0  0.00000000000E+00  0.00000000000E+00  0.94295547970E+03  0.94295547972E+03  0.50400001928E-02 0. -1.
       -1   -1    0    0    0  501  0.00000000000E+00  0.00000000000E+00 -0.21478696246E+03  0.21478696252E+03  0.50400001928E-02 0.  1.
    10030    2    1    2    0    0  0.00000000000E+00  0.00000000000E+00  0.72816851725E+03  0.11577424422E+04  0.90007675953E+03 0.  0.
        2    1    3    3  502    0 -0.89195765989E+02  0.44109743788E+03  0.35968286647E+03  0.57610294116E+03  0.25500000920E-02 0.  1.
       -2    1    3    3    0  502  0.89195765989E+02 -0.44109743788E+03  0.36848565078E+03  0.58163950108E+03  0.25500000920E-02 0. -1.
</event>
<event>
 5   0  0.1596250E-04  0.8999192E+03  0.7818609E-02  0.9425682E-01
        3   -1    0    0  501    0  0.00000000000E+00  0.00000000000E+00  0.41518707003E+03  0.41518708232E+03  0.10100000352E+00 0. -1.
       -3   -1    0    0    0  501  0.00000000000E+00  0.00000000000E+00 -0.48764434988E+03  0.48764436034E+03  0.10100000352E+00 0.  1.
    10030    2    1    2    0    0  0.00000000000E+00  0.00000000000E+00 -0.72457279852E+02  0.90283144266E+03  0.89991919440E+03 0.  0.
        2    1    3    3  502    0 -0.25315914100E+03  0.36220566764E+03  0.48787217887E+02  0.44459272258E+03  0.25500000920E-02 0.  1.
       -2    1    3    3    0  502  0.25315914100E+03 -0.36220566764E+03 -0.12124449774E+03  0.45823872008E+03  0.25500000920E-02 0. -1.
</event>
<event>
 5   0  0.2356918E-04  0.9005925E+03  0.7818609E-02  0.9424841E-01
       -1   -1    0    0    0  501  0.00000000000E+00  0.00000000000E+00  0.23113452873E+03  0.23113452878E+03  0.50400001928E-02 0. -1.
        1   -1    0    0  501    0  0.00000000000E+00  0.00000000000E+00 -0.87726702144E+03  0.87726702146E+03  0.50400001928E-02 0.  1.
    10030    2    1    2    0    0  0.00000000000E+00  0.00000000000E+00 -0.64613249272E+03  0.11084015502E+04  0.90059247078E+03 0.  0.
        5    1    3    3  502    0  0.55322845831E+02 -0.36598858340E+03 -0.75137624843E+01  0.37025235594E+03  0.46999998093E+01 0. -1.
       -5    1    3    3    0  502 -0.55322845831E+02  0.36598858340E+03 -0.63861873023E+03  0.73814919431E+03  0.46999998093E+01 0.  1.
</event>
<event>
 5   0  0.3959804E-04  0.9000187E+03  0.7818609E-02  0.9425558E-01
        2   -1    0    0  501    0  0.00000000000E+00  0.00000000000E+00  0.35081507658E+03  0.35081507659E+03  0.25500000920E-02 0. -1.
       -2   -1    0    0    0  501  0.00000000000E+00  0.00000000000E+00 -0.57725120801E+03  0.57725120801E+03  0.25500000920E-02 0.  1.
    10030    2    1    2    0    0  0.00000000000E+00  0.00000000000E+00 -0.22643613143E+03  0.92806628460E+03  0.90001872591E+03 0.  0.
        5    1    3    3  502    0 -0.16260092817E+03  0.27782751792E+03  0.21099900345E+03  0.38492838426E+03  0.46999998093E+01 0. -1.
       -5    1    3    3    0  502  0.16260092817E+03 -0.27782751792E+03 -0.43743513488E+03  0.54313790034E+03  0.46999998093E+01 0.  1.
</event>
<event>
 5   0  0.4243516E-04  0.8998053E+03  0.7818609E-02  0.9425825E-01
        2   -1    0    0  501    0  0.00000000000E+00  0.00000000000E+00  0.16460449343E+03  0.16460449345E+03  0.25500000920E-02 0. -1.
       -2   -1    0    0    0  501  0.00000000000E+00  0.00000000000E+00 -0.12296892297E+04  0.12296892297E+04  0.25500000920E-02 0.  1.
    10030    2    1    2    0    0  0.00000000000E+00  0.00000000000E+00 -0.10650847363E+04  0.13942937232E+04  0.89980525171E+03 0.  0.
        1    1    3    3  502    0 -0.40947904441E+02 -0.11457509312E+02  0.16148395146E+03  0.16698823911E+03  0.50400001928E-02 0. -1.
       -1    1    3    3    0  502  0.40947904441E+02  0.11457509312E+02 -0.12265686878E+04  0.12273054841E+04  0.50400001928E-02 0.  1.
</event>
<event>
 5   0  0.2356918E-04  0.8998300E+03  0.7818609E-02  0.9425794E-01
       -1   -1    0    0    0  501  0.00000000000E+00  0.00000000000E+00  0.30737993528E+03  0.30737993532E+03  0.50400001928E-02 0. -1.
        1   -1    0    0  501    0  0.00000000000E+00  0.00000000000E+00 -0.65854498529E+03  0.65854498531E+03  0.50400001928E-02 0.  1.
    10030    2    1    2    0    0  0.00000000000E+00  0.00000000000E+00 -0.35116505001E+03  0.96592492063E+03  0.89983001725E+03 0.  0.
        5    1    3    3  502    0 -0.36109364858E+03  0.17936107986E+02  0.11183649892E+03  0.37847036806E+03  0.46999998093E+01 0. -1.
       -5    1    3    3    0  502  0.36109364858E+03 -0.17936107986E+02 -0.46300154893E+03  0.58745455256E+03  0.46999998093E+01 0.  1.
</event>
<event>
 5   0  0.2332791E-04  0.8989363E+03  0.7818609E-02  0.9426912E-01
        1   -1    0    0  501    0  0.00000000000E+00  0.00000000000E+00  0.23280115554E+03  0.23280115560E+03  0.50400001928E-02 0.  1.
       -1   -1    0    0    0  501  0.00000000000E+00  0.00000000000E+00 -0.86778612826E+03  0.86778612828E+03  0.50400001928E-02 0. -1.
    10030    2    1    2    0    0  0.00000000000E+00  0.00000000000E+00 -0.63498497272E+03  0.11005872839E+04  0.89893629020E+03 0.  0.
        2    1    3    3  502    0  0.83379445534E+02 -0.15135415425E+03  0.19050723269E+03  0.25720267817E+03  0.25500000920E-02 0.  1.
       -2    1    3    3    0  502 -0.83379445534E+02  0.15135415425E+03 -0.82549220541E+03  0.84338460571E+03  0.25500000920E-02 0. -1.
</event>
<event>
 5   0  0.4033144E-04  0.8999107E+03  0.7818609E-02  0.9425693E-01
        2   -1    0    0  501    0  0.00000000000E+00  0.00000000000E+00  0.19551953676E+03  0.19551953677E+03  0.25500000920E-02 0.  1.
       -2   -1    0    0    0  501  0.00000000000E+00  0.00000000000E+00 -0.10354966237E+04  0.10354966238E+04  0.25500000920E-02 0. -1.
    10030    2    1    2    0    0  0.00000000000E+00  0.00000000000E+00 -0.83997708699E+03  0.12310161605E+04  0.89991070713E+03 0.  0.
        4    1    3    3  502    0  0.44787294020E+03  0.42848108443E+02 -0.41224112978E+03  0.61022167525E+03  0.12699999809E+01 0.  1.
       -4    1    3    3    0  502 -0.44787294020E+03 -0.42848108443E+02 -0.42773595721E+03  0.62079448528E+03  0.12699999809E+01 0. -1.
</event>
<event>
 5   0  0.4110039E-04  0.9007895E+03  0.7818609E-02  0.9424595E-01
        2   -1    0    0  501    0  0.00000000000E+00  0.00000000000E+00  0.75654181721E+03  0.75654181722E+03  0.25500000920E-02 0.  1.
       -2   -1    0    0    0  501  0.00000000000E+00  0.00000000000E+00 -0.26813509491E+03  0.26813509492E+03  0.25500000920E-02 0. -1.
    10030    2    1    2    0    0  0.00000000000E+00  0.00000000000E+00  0.48840672231E+03  0.10246769121E+04  0.90078945813E+03 0.  0.
        3    1    3    3  502    0 -0.21446673158E+03 -0.21848435705E+02  0.69404238983E+03  0.72675180232E+03  0.10100000352E+00 0.  1.
       -3    1    3    3    0  502  0.21446673158E+03  0.21848435705E+02 -0.20563566752E+03  0.29792510981E+03  0.10100000352E+00 0. -1.
</event>
<event>
 5   0  0.3959804E-04  0.9010652E+03  0.7818609E-02  0.9424251E-01
        2   -1    0    0  501    0  0.00000000000E+00  0.00000000000E+00  0.52166264617E+03  0.52166264617E+03  0.25500000920E-02 0.  1.
       -2   -1    0    0    0  501  0.00000000000E+00  0.00000000000E+00 -0.38910133953E+03  0.38910133954E+03  0.25500000920E-02 0. -1.
    10030    2    1    2    0    0  0.00000000000E+00  0.00000000000E+00  0.13256130664E+03  0.91076398571E+03  0.90106522386E+03 0.  0.
        5    1    3    3  502    0 -0.12146150578E+03  0.20917578357E+03 -0.31787621453E+03  0.39946812587E+03  0.46999998093E+01 0. -1.
       -5    1    3    3    0  502  0.12146150578E+03 -0.20917578357E+03  0.45043752117E+03  0.51129585984E+03  0.46999998093E+01 0.  1.
</event>
<event>
 5   0  0.3959804E-04  0.9000443E+03  0.7818609E-02  0.9425526E-01
       -2   -1    0    0    0  501  0.00000000000E+00  0.00000000000E+00  0.38955506443E+03  0.38955506443E+03  0.25500000920E-02 0.  1.
        2   -1    0    0  501    0  0.00000000000E+00  0.00000000000E+00 -0.51987494860E+03  0.51987494860E+03  0.25500000920E-02 0. -1.
    10030    2    1    2    0    0  0.00000000000E+00  0.00000000000E+00 -0.13031988417E+03  0.90943001304E+03  0.90004426358E+03 0.  0.
        5    1    3    3  502    0  0.29828488029E+03 -0.27538170706E+03  0.13100075664E+03  0.42660548828E+03  0.46999998093E+01 0.  1.
       -5    1    3    3    0  502 -0.29828488029E+03  0.27538170706E+03 -0.26132064081E+03  0.48282452476E+03  0.46999998093E+01 0. -1.
</event>
<event>
 5   0  0.3959804E-04  0.8981889E+03  0.7818609E-02  0.9427848E-01
        2   -1    0    0  501    0  0.00000000000E+00  0.00000000000E+00  0.14274106281E+04  0.14274106281E+04  0.25500000920E-02 0. -1.
       -2   -1    0    0    0  501  0.00000000000E+00  0.00000000000E+00 -0.14129489149E+03  0.14129489151E+03  0.25500000920E-02 0.  1.
    10030    2    1    2    0    0  0.00000000000E+00  0.00000000000E+00  0.12861157366E+04  0.15687055196E+04  0.89818891070E+03 0.  0.
        5    1    3    3  502    0  0.34339937424E+03  0.27672718228E+03  0.79087044738E+03  0.90553808213E+03  0.46999998093E+01 0.  1.
       -5    1    3    3    0  502 -0.34339937424E+03 -0.27672718228E+03  0.49524528923E+03  0.66316743749E+03  0.46999998093E+01 0. -1.
</event>
<event>
 5   0  0.2356918E-04  0.8999572E+03  0.7818609E-02  0.9425635E-01
       -1   -1    0    0    0  501  0.00000000000E+00  0.00000000000E+00  0.28311697952E+03  0.28311697957E+03  0.50400001928E-02 0. -1.
        1   -1    0    0  501    0  0.00000000000E+00  0.00000000000E+00 -0.71518406731E+03  0.71518406733E+03  0.50400001928E-02 0.  1.
    10030    2    1    2    0    0  0.00000000000E+00  0.00000000000E+00 -0.43206708779E+03  0.99830104689E+03  0.89995722781E+03 0.  0.
        5    1    3    3  502    0  0.35869972657E+02  0.17963379984E+03  0.23985559601E+03  0.30184061012E+03  0.46999998093E+01 0. -1.
       -5    1    3    3    0  502 -0.35869972657E+02 -0.17963379984E+03 -0.67192268380E+03  0.69646043677E+03  0.46999998093E+01 0.  1.
</event>
<event>
 5   0  0.4243516E-04  0.8999192E+03  0.7818609E-02  0.9425682E-01
       -2   -1    0    0    0  501  0.00000000000E+00  0.00000000000E+00  0.25091625949E+03  0.25091625950E+03  0.25500000920E-02 0. -1.
        2   -1    0    0  501    0  0.00000000000E+00  0.00000000000E+00 -0.80689726660E+03  0.80689726660E+03  0.25500000920E-02 0.  1.
    10030    2    1    2    0    0  0.00000000000E+00  0.00000000000E+00 -0.55598100711E+03  0.10578135261E+04  0.89991920511E+03 0.  0.
        1    1    3    3  502    0  0.26166453474E+03 -0.33430158394E+03 -0.45327809563E+03  0.62103696329E+03  0.50400001928E-02 0.  1.
       -1    1    3    3    0  502 -0.26166453474E+03  0.33430158394E+03 -0.10270291148E+03  0.43677656281E+03  0.50400001928E-02 0. -1.
</event>
<event>
 5   0  0.2332791E-04  0.8998833E+03  0.7818609E-02  0.9425727E-01
        1   -1    0    0  501    0  0.00000000000E+00  0.00000000000E+00  0.16791875412E+04  0.16791875412E+04  0.50400001928E-02 0.  1.
       -1   -1    0    0    0  501  0.00000000000E+00  0.00000000000E+00 -0.12056277169E+03  0.12056277179E+03  0.50400001928E-02 0. -1.
    10030    2    1    2    0    0  0.00000000000E+00  0.00000000000E+00  0.15586247695E+04  0.17997503130E+04  0.89988333522E+03 0.  0.
        2    1    3    3  502    0 -0.43507439543E+03  0.10866484737E+03  0.85278894149E+03  0.96350752843E+03  0.25500000920E-02 0.  1.
       -2    1    3    3    0  502  0.43507439543E+03 -0.10866484737E+03  0.70583582799E+03  0.83624278454E+03  0.25500000920E-02 0. -1.
</event>
<event>
 5   0  0.2332791E-04  0.9001948E+03  0.7818609E-02  0.9425338E-01
       -1   -1    0    0    0  501  0.00000000000E+00  0.00000000000E+00  0.61552308696E+03  0.61552308698E+03  0.50400001928E-02 0.  1.
        1   -1    0    0  501    0  0.00000000000E+00  0.00000000000E+00 -0.32913088794E+03  0.32913088798E+03  0.50400001928E-02 0. -1.
    10030    2    1    2    0    0  0.00000000000E+00  0.00000000000E+00  0.28639219902E+03  0.94465397495E+03  0.90019477933E+03 0.  0.
        2    1    3    3  502    0  0.78218480219E+02 -0.44491541623E+02  0.60598713794E+03  0.61263205864E+03  0.25500000920E-02 0.  1.
       -2    1    3    3    0  502 -0.78218480219E+02  0.44491541623E+02 -0.31959493892E+03  0.33202191631E+03  0.25500000920E-02 0. -1.
</event>
<event>
 5   0  0.2450427E-04  0.8992765E+03  0.7818609E-02  0.9426486E-01
       -1   -1    0    0    0  501  0.00000000000E+00  0.00000000000E+00  0.12627567739E+04  0.12627567739E+04  0.50400001928E-02 0. -1.
        1   -1    0    0  501    0  0.00000000000E+00  0.00000000000E+00 -0.16010569336E+03  0.16010569344E+03  0.50400001928E-02 0.  1.
    10030    2    1    2    0    0  0.00000000000E+00  0.00000000000E+00  0.11026510806E+04  0.14228624674E+04  0.89927648450E+03 0.  0.
        3    1    3    3  502    0 -0.16561020052E+03 -0.25224241449E+03  0.10787604365E+04  0.11201683193E+04  0.10100000352E+00 0. -1.
       -3    1    3    3    0  502  0.16561020052E+03  0.25224241449E+03  0.23890644121E+02  0.30269414804E+03  0.10100000352E+00 0.  1.
</event>
<event>
 5   0  0.4243516E-04  0.8986811E+03  0.7818609E-02  0.9427232E-01
        2   -1    0    0  501    0  0.00000000000E+00  0.00000000000E+00  0.78689539978E+03  0.78689539978E+03  0.25500000920E-02 0.  1.
       -2   -1    0    0    0  501  0.00000000000E+00  0.00000000000E+00 -0.25658675657E+03  0.25658675658E+03  0.25500000920E-02 0. -1.
    10030    2    1    2    0    0  0.00000000000E+00  0.00000000000E+00  0.53030864321E+03  0.10434821564E+04  0.89868111897E+03 0.  0.
        1    1    3    3  502    0  0.18308269190E+03 -0.39766331006E+03  0.38271832023E+03  0.58148834288E+03  0.50400001928E-02 0.  1.
       -1    1    3    3    0  502 -0.18308269190E+03  0.39766331006E+03  0.14759032298E+03  0.46199381349E+03  0.50400001928E-02 0. -1.
</event>
<event>
 5   0  0.2351435E-04  0.8997725E+03  0.7818609E-02  0.9425866E-01
       -1   -1    0    0    0  501  0.00000000000E+00  0.00000000000E+00  0.26072644715E+03  0.26072644720E+03  0.50400001928E-02 0.  1.
        1   -1    0    0  501    0  0.00000000000E+00  0.00000000000E+00 -0.77628348845E+03  0.77628348846E+03  0.50400001928E-02 0. -1.
    10030    2    1    2    0    0  0.00000000000E+00  0.00000000000E+00 -0.51555704130E+03  0.10370099357E+04  0.89977249560E+03 0.  0.
        4    1    3    3  502    0 -0.30225120197E+02 -0.80842453017E+02 -0.76665038684E+03  0.77149432185E+03  0.12699999809E+01 0. -1.
       -4    1    3    3    0  502  0.30225120197E+02  0.80842453017E+02  0.25109334555E+03  0.26551561381E+03  0.12699999809E+01 0.  1.
</event>
<event>
 5   0  0.2351435E-04  0.8998631E+03  0.7818609E-02  0.9425753E-01
       -1   -1    0    0    0  501  0.00000000000E+00  0.00000000000E+00  0.45788289724E+03  0.45788289726E+03  0.50400001928E-02 0. -1.
        1   -1    0    0  501    0  0.00000000000E+00  0.00000000000E+00 -0.44211826198E+03  0.44211826200E+03  0.50400001928E-02 0.  1.
    10030    2    1    2    0    0  0.00000000000E+00  0.00000000000E+00  0.15764635259E+02  0.90000115927E+03  0.89986308012E+03 0.  0.
        4    1    3    3  502    0  0.25006013568E+02 -0.42549940406E+03  0.15199375477E+03  0.45252486999E+03  0.12699999809E+01 0. -1.
       -4    1    3    3    0  502 -0.25006013568E+02  0.42549940406E+03 -0.13622911951E+03  0.44747628928E+03  0.12699999809E+01 0.  1.
</event>
<event>
 5   0  0.2356918E-04  0.9000225E+03  0.7818609E-02  0.9425553E-01
        1   -1    0    0  501    0  0.00000000000E+00  0.00000000000E+00  0.72077561109E+03  0.72077561110E+03  0.50400001928E-02 0. -1.
       -1   -1    0    0    0  501  0.00000000000E+00  0.00000000000E+00 -0.28096138923E+03  0.28096138928E+03  0.50400001928E-02 0.  1.
    10030    2    1    2    0    0  0.00000000000E+00  0.00000000000E+00  0.43981422185E+03  0.10017370004E+04  0.90002248205E+03 0.  0.
        5    1    3    3  502    0  0.39074266002E+03  0.21913278873E+03  0.26698404255E+03  0.52153770183E+03  0.46999998093E+01 0.  1.
       -5    1    3    3    0  502 -0.39074266002E+03 -0.21913278873E+03  0.17283017930E+03  0.48019929855E+03  0.46999998093E+01 0. -1.
</event>
<event>
 5   0  0.4236284E-04  0.9000133E+03  0.7818609E-02  0.9425565E-01
       -2   -1    0    0    0  501  0.00000000000E+00  0.00000000000E+00  0.39180410276E+03  0.39180410277E+03  0.25500000920E-02 0.  1.
        2   -1    0    0  501    0  0.00000000000E+00  0.00000000000E+00 -0.51685513830E+03  0.51685513831E+03  0.25500000920E-02 0. -1.
    10030    2    1    2    0    0  0.00000000000E+00  0.00000000000E+00 -0.12505103554E+03  0.90865924108E+03  0.90001325263E+03 0.  0.
        2    1    3    3  502    0 -0.39714299619E+03  0.30755088402E+02  0.14885997348E+03  0.42523843499E+03  0.25500000920E-02 0. -1.
       -2    1    3    3    0  502  0.39714299619E+03 -0.30755088402E+02 -0.27391100902E+03  0.48342080608E+03  0.25500000920E-02 0.  1.
</event>
<event>
 5   0  0.4033144E-04  0.8993588E+03  0.7818609E-02  0.9426383E-01
        2   -1    0    0  501    0  0.00000000000E+00  0.00000000000E+00  0.21312024952E+04  0.21312024952E+04  0.25500000920E-02 0. -1.
       -2   -1    0    0    0  501  0.00000000000E+00  0.00000000000E+00 -0.94881436590E+02  0.94881436624E+02  0.25500000920E-02 0.  1.
    10030    2    1    2    0    0  0.00000000000E+00  0.00000000000E+00  0.20363210586E+04  0.22260839318E+04  0.89935878146E+03 0.  0.
        4    1    3    3  502    0  0.26768466609E+03  0.17663831225E+03  0.17983511517E+04  0.18267251166E+04  0.12699999809E+01 0. -1.
       -4    1    3    3    0  502 -0.26768466609E+03 -0.17663831225E+03  0.23796990690E+03  0.39935881524E+03  0.12699999809E+01 0.  1.
</event>
<event>
 5   0  0.3959804E-04  0.8997826E+03  0.7818609E-02  0.9425853E-01
       -2   -1    0    0    0  501  0.00000000000E+00  0.00000000000E+00  0.33385431206E+03  0.33385431207E+03  0.25500000920E-02 0. -1.
        2   -1    0    0  501    0  0.00000000000E+00  0.00000000000E+00 -0.60625893490E+03  0.60625893490E+03  0.25500000920E-02 0.  1.
    10030    2    1    2    0    0  0.00000000000E+00  0.00000000000E+00 -0.27240462284E+03  0.94011324697E+03  0.89978255073E+03 0.  0.
        5    1    3    3  502    0 -0.20452688975E+03 -0.19894886296E+03 -0.49959665467E+03  0.57535276662E+03  0.46999998093E+01 0.  1.
       -5    1    3    3    0  502  0.20452688975E+03  0.19894886296E+03  0.22719203183E+03  0.36476048035E+03  0.46999998093E+01 0. -1.
</event>
<event>
 5   0  0.4110039E-04  0.9001051E+03  0.7818609E-02  0.9425450E-01
       -2   -1    0    0    0  501  0.00000000000E+00  0.00000000000E+00  0.83990976758E+02  0.83990976796E+02  0.25500000920E-02 0.  1.
        2   -1    0    0  501    0  0.00000000000E+00  0.00000000000E+00 -0.24115366404E+04  0.24115366404E+04  0.25500000920E-02 0. -1.
    10030    2    1    2    0    0  0.00000000000E+00  0.00000000000E+00 -0.23275456637E+04  0.24955276172E+04  0.90010514489E+03 0.  0.
        3    1    3    3  502    0  0.17849236359E+03  0.27566495923E+03 -0.20169443759E+04  0.20435056446E+04  0.10100000352E+00 0. -1.
       -3    1    3    3    0  502 -0.17849236359E+03 -0.27566495923E+03 -0.31060128771E+03  0.45202197263E+03  0.10100000352E+00 0.  1.
</event>
<event>
 5   0  0.3959804E-04  0.9000367E+03  0.7818609E-02  0.9425535E-01
        2   -1    0    0  501    0  0.00000000000E+00  0.00000000000E+00  0.14232575037E+04  0.14232575037E+04  0.25500000920E-02 0. -1.
       -2   -1    0    0    0  501  0.00000000000E+00  0.00000000000E+00 -0.14229086056E+03  0.14229086059E+03  0.25500000920E-02 0.  1.
    10030    2    1    2    0    0  0.00000000000E+00  0.00000000000E+00  0.12809666431E+04  0.15655483643E+04  0.90003674375E+03 0.  0.
        5    1    3    3  502    0 -0.16110745061E+02 -0.36254490047E+03  0.17766465458E+03  0.40408561030E+03  0.46999998093E+01 0.  1.
       -5    1    3    3    0  502  0.16110745061E+02  0.36254490047E+03  0.11033019886E+04  0.11614627540E+04  0.46999998093E+01 0. -1.
</event>
<event>
 5   0  0.4236284E-04  0.8995670E+03  0.7818609E-02  0.9426123E-01
        2   -1    0    0  501    0  0.00000000000E+00  0.00000000000E+00  0.27873806423E+04  0.27873806423E+04  0.25500000920E-02 0. -1.
       -2   -1    0    0    0  501  0.00000000000E+00  0.00000000000E+00 -0.72578970795E+02  0.72578970839E+02  0.25500000920E-02 0.  1.
    10030    2    1    2    0    0  0.00000000000E+00  0.00000000000E+00  0.27148016715E+04  0.28599596132E+04  0.89956704764E+03 0.  0.
        2    1    3    3  502    0  0.89652913783E+02  0.36148627566E+03  0.21591503165E+04  0.21910362986E+04  0.25500000920E-02 0. -1.
       -2    1    3    3    0  502 -0.89652913783E+02 -0.36148627566E+03  0.55565135499E+03  0.66892331455E+03  0.25500000920E-02 0.  1.
</event>
<event>
 5   0  0.2308362E-04  0.8994238E+03  0.7818609E-02  0.9426302E-01
       -1   -1    0    0    0  501  0.00000000000E+00  0.00000000000E+00  0.52214054304E+03  0.52214054307E+03  0.50400001928E-02 0.  1.
        1   -1    0    0  501    0  0.00000000000E+00  0.00000000000E+00 -0.38733017524E+03  0.38733017527E+03  0.50400001928E-02 0. -1.
    10030    2    1    2    0    0  0.00000000000E+00  0.00000000000E+00  0.13481036780E+03  0.90947071834E+03  0.89942378902E+03 0.  0.
        1    1    3    3  502    0  0.31774151422E+03 -0.10219456827E+02 -0.25423075128E+03  0.40705943311E+03  0.50400001928E-02 0. -1.
       -1    1    3    3    0  502 -0.31774151422E+03  0.10219456827E+02  0.38904111909E+03  0.50241128523E+03  0.50400001928E-02 0.  1.
</event>
<event>
 5   0  0.2351435E-04  0.9000010E+03  0.7818609E-02  0.9425580E-01
        1   -1    0    0  501    0  0.00000000000E+00  0.00000000000E+00  0.79730437954E+03  0.79730437955E+03  0.50400001928E-02 0. -1.
       -1   -1    0    0    0  501  0.00000000000E+00  0.00000000000E+00 -0.25398138013E+03  0.25398138018E+03  0.50400001928E-02 0.  1.
    10030    2    1    2    0    0  0.00000000000E+00  0.00000000000E+00  0.54332299941E+03  0.10512857597E+04  0.90000103718E+03 0.  0.
        4    1    3    3  502    0  0.44923274264E+03 -0.25701378754E+02  0.26545454415E+03  0.52243501590E+03  0.12699999809E+01 0. -1.
       -4    1    3    3    0  502 -0.44923274264E+03  0.25701378754E+02  0.27786845526E+03  0.52885074384E+03  0.12699999809E+01 0.  1.
</event>
<event>
 5   0  0.4033144E-04  0.8999527E+03  0.7818609E-02  0.9425641E-01
       -2   -1    0    0    0  501  0.00000000000E+00  0.00000000000E+00  0.17409897475E+03  0.17409897477E+03  0.25500000920E-02 0.  1.
        2   -1    0    0  501    0  0.00000000000E+00  0.00000000000E+00 -0.11630093382E+04  0.11630093382E+04  0.25500000920E-02 0. -1.
    10030    2    1    2    0    0  0.00000000000E+00  0.00000000000E+00 -0.98891036347E+03  0.13371083130E+04  0.89995273969E+03 0.  0.
        4    1    3    3  502    0  0.13796243571E+03  0.20625960645E+03  0.63247963071E+02  0.25608314402E+03  0.12699999809E+01 0.  1.
       -4    1    3    3    0  502 -0.13796243571E+03 -0.20625960645E+03 -0.10521583265E+04  0.10810251690E+04  0.12699999809E+01 0. -1.
</event>
<event>
 5   0  0.4033144E-04  0.8965464E+03  0.7818609E-02  0.9429909E-01
        2   -1    0    0  501    0  0.00000000000E+00  0.00000000000E+00  0.72849477736E+03  0.72849477736E+03  0.25500000920E-02 0.  1.
       -2   -1    0    0    0  501  0.00000000000E+00  0.00000000000E+00 -0.27584116119E+03  0.27584116120E+03  0.25500000920E-02 0. -1.
    10030    2    1    2    0    0  0.00000000000E+00  0.00000000000E+00  0.45265361617E+03  0.10043359386E+04  0.89654636314E+03 0.  0.
        4    1    3    3  502    0  0.25891250741E+03  0.16427681189E+03  0.59263380961E+03  0.66726231919E+03  0.12699999809E+01 0.  1.
       -4    1    3    3    0  502 -0.25891250741E+03 -0.16427681189E+03 -0.13998019344E+03  0.33707361937E+03  0.12699999809E+01 0. -1.
</event>
<event>
 5   0  0.2332791E-04  0.8996345E+03  0.7818609E-02  0.9426038E-01
       -1   -1    0    0    0  501  0.00000000000E+00  0.00000000000E+00  0.23687024223E+03  0.23687024229E+03  0.50400001928E-02 0. -1.
        1   -1    0    0  501    0  0.00000000000E+00  0.00000000000E+00 -0.85420416899E+03  0.85420416900E+03  0.50400001928E-02 0.  1.
    10030    2    1    2    0    0  0.00000000000E+00  0.00000000000E+00 -0.61733392675E+03  0.10910744113E+04  0.89963447791E+03 0.  0.
        2    1    3    3  502    0 -0.16401972150E+03  0.14862095141E+03 -0.78358967265E+03  0.81425022649E+03  0.25500000920E-02 0.  1.
       -2    1    3    3    0  502  0.16401972150E+03 -0.14862095141E+03  0.16625574590E+03  0.27682418480E+03  0.25500000920E-02 0. -1.
</event>
<event>
 5   0  0.2332791E-04  0.8999815E+03  0.7818609E-02  0.9425605E-01
       -1   -1    0    0    0  501  0.00000000000E+00  0.00000000000E+00  0.25401496487E+03  0.25401496492E+03  0.50400001928E-02 0.  1.
        1   -1    0    0  501    0  0.00000000000E+00  0.00000000000E+00 -0.79716435898E+03  0.79716435900E+03  0.50400001928E-02 0. -1.
    10030    2    1    2    0    0  0.00000000000E+00  0.00000000000E+00 -0.54314939411E+03  0.10511793239E+04  0.89998150353E+03 0.  0.
        2    1    3    3  502    0  0.54125435121E+02  0.21547092005E+03 -0.72864141842E+03  0.76175822723E+03  0.25500000920E-02 0. -1.
       -2    1    3    3    0  502 -0.54125435121E+02 -0.21547092005E+03  0.18549202431E+03  0.28942109668E+03  0.25500000920E-02 0.  1.
</event>
<event>
 5   0  0.4236284E-04  0.8999716E+03  0.7818609E-02  0.9425617E-01
       -2   -1    0    0    0  501  0.00000000000E+00  0.00000000000E+00  0.27768708321E+03  0.27768708323E+03  0.25500000920E-02 0.  1.
        2   -1    0    0  501    0  0.00000000000E+00  0.00000000000E+00 -0.72919211171E+03  0.72919211172E+03  0.25500000920E-02 0. -1.
    10030    2    1    2    0    0  0.00000000000E+00  0.00000000000E+00 -0.45150502850E+03  0.10068791949E+04  0.89997162313E+03 0.  0.
        2    1    3    3  502    0  0.10534690716E+03  0.31698010353E+02  0.26240990250E+03  0.28453768054E+03  0.25500000920E-02 0.  1.
       -2    1    3    3    0  502 -0.10534690716E+03 -0.31698010353E+02 -0.71391493100E+03  0.72234151440E+03  0.25500000920E-02 0. -1.
</event>
<event>
 5   0  0.4110039E-04  0.9005229E+03  0.7818609E-02  0.9424928E-01
       -2   -1    0    0    0  501  0.00000000000E+00  0.00000000000E+00  0.69121465425E+03  0.69121465425E+03  0.25500000920E-02 0. -1.
        2   -1    0    0  501    0  0.00000000000E+00  0.00000000000E+00 -0.29330307705E+03  0.29330307706E+03  0.25500000920E-02 0.  1.
    10030    2    1    2    0    0  0.00000000000E+00  0.00000000000E+00  0.39791157720E+03  0.98451773131E+03  0.90052292586E+03 0.  0.
        3    1    3    3  502    0  0.44610753815E+03 -0.14450338466E+02  0.13414185430E+03  0.46606308065E+03  0.10100000352E+00 0. -1.
       -3    1    3    3    0  502 -0.44610753815E+03  0.14450338466E+02  0.26376972289E+03  0.51845465066E+03  0.10100000352E+00 0.  1.
</event>
<event>
 5   0  0.1596250E-04  0.8998666E+03  0.7818609E-02  0.9425748E-01
       -3   -1    0    0    0  501  0.00000000000E+00  0.00000000000E+00  0.36677363075E+03  0.36677364465E+03  0.10100000352E+00 0. -1.
        3   -1    0    0  501    0  0.00000000000E+00  0.00000000000E+00 -0.55194798684E+03  0.55194799608E+03  0.10100000352E+00 0.  1.
    10030    2    1    2    0    0  0.00000000000E+00  0.00000000000E+00 -0.18517435609E+03  0.91872164073E+03  0.89986660734E+03 0.  0.
        3    1    3    3  502    0 -0.13418430846E+03 -0.42886444561E+03 -0.11563961726E+03  0.46400719028E+03  0.10100000352E+00 0. -1.
       -3    1    3    3    0  502  0.13418430846E+03  0.42886444561E+03 -0.69534738837E+02  0.45471445046E+03  0.10100000352E+00 0.  1.
</event>
<event>
 5   0  0.4236284E-04  0.9019239E+03  0.7818609E-02  0.9423180E-01
       -2   -1    0    0    0  501  0.00000000000E+00  0.00000000000E+00  0.28732871349E+03  0.28732871350E+03  0.25500000920E-02 0.  1.
        2   -1    0    0  501    0  0.00000000000E+00  0.00000000000E+00 -0.70778403010E+03  0.70778403011E+03  0.25500000920E-02 0. -1.
    10030    2    1    2    0    0  0.00000000000E+00  0.00000000000E+00 -0.42045531662E+03  0.99511274361E+03  0.90192388771E+03 0.  0.
        2    1    3    3  502    0 -0.21840671541E+03 -0.21966481269E+03  0.15137358496E+03  0.34477251268E+03  0.25500000920E-02 0.  1.
       -2    1    3    3    0  502  0.21840671541E+03  0.21966481269E+03 -0.57182890158E+03  0.65034023092E+03  0.25500000920E-02 0. -1.
</event>
<event>
 5   0  0.4243516E-04  0.9022836E+03  0.7818609E-02  0.9422731E-01
        2   -1    0    0  501    0  0.00000000000E+00  0.00000000000E+00  0.72185707365E+03  0.72185707365E+03  0.25500000920E-02 0. -1.
       -2   -1    0    0    0  501  0.00000000000E+00  0.00000000000E+00 -0.28195181927E+03  0.28195181928E+03  0.25500000920E-02 0.  1.
    10030    2    1    2    0    0  0.00000000000E+00  0.00000000000E+00  0.43990525438E+03  0.10038088929E+04  0.90228358109E+03 0.  0.
        1    1    3    3  502    0 -0.16146747547E+03  0.27988370678E+03  0.57021511359E+03  0.65540209853E+03  0.50400001928E-02 0. -1.
       -1    1    3    3    0  502  0.16146747547E+03 -0.27988370678E+03 -0.13030985921E+03  0.34840679441E+03  0.50400001928E-02 0.  1.
</event>
<event>
 5   0  0.2450427E-04  0.9001590E+03  0.7818609E-02  0.9425383E-01
       -1   -1    0    0    0  501  0.00000000000E+00  0.00000000000E+00  0.23307638853E+03  0.23307638858E+03  0.50400001928E-02 0.  1.
        1   -1    0    0  501    0  0.00000000000E+00  0.00000000000E+00 -0.86912078917E+03  0.86912078918E+03  0.50400001928E-02 0. -1.
    10030    2    1    2    0    0  0.00000000000E+00  0.00000000000E+00 -0.63604440064E+03  0.11021971778E+04  0.90015895212E+03 0.  0.
        3    1    3    3  502    0 -0.43262863154E+03 -0.12316045029E+03 -0.33681238920E+03  0.56194183423E+03  0.10100000352E+00 0.  1.
       -3    1    3    3    0  502  0.43262863154E+03  0.12316045029E+03 -0.29923201144E+03  0.54025534353E+03  0.10100000352E+00 0. -1.
</event>
<event>
 5   0  0.3959804E-04  0.8997772E+03  0.7818609E-02  0.9425860E-01
        2   -1    0    0  501    0  0.00000000000E+00  0.00000000000E+00  0.42588675478E+03  0.42588675479E+03  0.25500000920E-02 0.  1.
       -2   -1    0    0    0  501  0.00000000000E+00  0.00000000000E+00 -0.47524317619E+03  0.47524317620E+03  0.25500000920E-02 0. -1.
    10030    2    1    2    0    0  0.00000000000E+00  0.00000000000E+00 -0.49356421407E+02  0.90112993099E+03  0.89977724809E+03 0.  0.
        5    1    3    3  502    0 -0.44863640803E+03 -0.13840921361E+01 -0.57911552768E+02  0.45238521225E+03  0.46999998093E+01 0.  1.
       -5    1    3    3    0  502  0.44863640803E+03  0.13840921361E+01  0.85551313610E+01  0.44874471874E+03  0.46999998093E+01 0. -1.
</event>
<event>
 5   0  0.4033144E-04  0.8999757E+03  0.7818609E-02  0.9425612E-01
       -2   -1    0    0    0  501  0.00000000000E+00  0.00000000000E+00  0.10568689956E+03  0.10568689959E+03  0.25500000920E-02 0. -1.
        2   -1    0    0  501    0  0.00000000000E+00  0.00000000000E+00 -0.19159334848E+04  0.19159334848E+04  0.25500000920E-02 0.  1.
    10030    2    1    2    0    0  0.00000000000E+00  0.00000000000E+00 -0.18102465853E+04  0.20216203844E+04  0.89997571037E+03 0.  0.
        4    1    3    3  502    0 -0.28729981134E+03 -0.34622070941E+03 -0.88534869679E+03  0.99310316132E+03  0.12699999809E+01 0. -1.
       -4    1    3    3    0  502  0.28729981134E+03  0.34622070941E+03 -0.92489788848E+03  0.10285172231E+04  0.12699999809E+01 0.  1.
</event>
<event>
 5   0  0.4236284E-04  0.8983331E+03  0.7818609E-02  0.9427668E-01
        2   -1    0    0  501    0  0.00000000000E+00  0.00000000000E+00  0.10115219543E+04  0.10115219543E+04  0.25500000920E-02 0.  1.
       -2   -1    0    0    0  501  0.00000000000E+00  0.00000000000E+00 -0.19945249437E+03  0.19945249439E+03  0.25500000920E-02 0. -1.
    10030    2    1    2    0    0  0.00000000000E+00  0.00000000000E+00  0.81206945992E+03  0.12109744487E+04  0.89833307166E+03 0.  0.
        2    1    3    3  502    0 -0.35478620772E+03 -0.15128100515E+03  0.71634790226E+03  0.81358067380E+03  0.25500000920E-02 0.  1.
       -2    1    3    3    0  502  0.35478620772E+03  0.15128100515E+03  0.95721557657E+02  0.39739377488E+03  0.25500000920E-02 0. -1.
</event>
<event>
 5   0  0.2450427E-04  0.9003120E+03  0.7818609E-02  0.9425191E-01
       -1   -1    0    0    0  501  0.00000000000E+00  0.00000000000E+00  0.23502222227E+03  0.23502222232E+03  0.50400001928E-02 0.  1.
        1   -1    0    0  501    0  0.00000000000E+00  0.00000000000E+00 -0.86221817020E+03  0.86221817021E+03  0.50400001928E-02 0. -1.
    10030    2    1    2    0    0  0.00000000000E+00  0.00000000000E+00 -0.62719594793E+03  0.10972403925E+04  0.90031201364E+03 0.  0.
        3    1    3    3  502    0  0.11831603980E+03 -0.32803795731E+03  0.33329947626E+02  0.35031197855E+03  0.10100000352E+00 0.  1.
       -3    1    3    3    0  502 -0.11831603980E+03  0.32803795731E+03 -0.66052589556E+03  0.74692841398E+03  0.10100000352E+00 0. -1.
</event>
<event>
 5   0  0.2356918E-04  0.8995234E+03  0.7818609E-02  0.9426177E-01
        1   -1    0    0  501    0  0.00000000000E+00  0.00000000000E+00  0.92211237426E+03  0.92211237427E+03  0.50400001928E-02 0.  1.
       -1   -1    0    0    0  501  0.00000000000E+00  0.00000000000E+00 -0.21937196708E+03  0.21937196714E+03  0.50400001928E-02 0. -1.
    10030    2    1    2    0    0  0.00000000000E+00  0.00000000000E+00  0.70274040718E+03  0.11414843414E+04  0.89952344149E+03 0.  0.
        5    1    3    3  502    0  0.73990964213E+02 -0.32478944756E+02  0.91279368913E+03  0.91637544355E+03  0.46999998093E+01 0.  1.
       -5    1    3    3    0  502 -0.73990964213E+02  0.32478944756E+02 -0.21005328195E+03  0.22510889786E+03  0.46999998093E+01 0. -1.
</event>
<event>
 5   0  0.4243516E-04  0.9002090E+03  0.7818609E-02  0.9425320E-01
        2   -1    0    0  501    0  0.00000000000E+00  0.00000000000E+00  0.13466721854E+04  0.13466721854E+04  0.25500000920E-02 0. -1.
       -2   -1    0    0    0  501  0.00000000000E+00  0.00000000000E+00 -0.15044051783E+03  0.15044051785E+03  0.25500000920E-02 0.  1.
    10030    2    1    2    0    0  0.00000000000E+00  0.00000000000E+00  0.11962316676E+04  0.14971127033E+04  0.90020900005E+03 0.  0.
        1    1    3    3  502    0  0.38713416156E+03  0.22601606768E+03  0.66542279904E+03  0.80233635303E+03  0.50400001928E-02 0.  1.
       -1    1    3    3    0  502 -0.38713416156E+03 -0.22601606768E+03  0.53080886856E+03  0.69477635025E+03  0.50400001928E-02 0. -1.
</event>
<event>
 5   0  0.3959804E-04  0.9000423E+03  0.7818609E-02  0.9425529E-01
       -2   -1    0    0    0  501  0.00000000000E+00  0.00000000000E+00  0.19401941654E+03  0.19401941656E+03  0.25500000920E-02 0.  1.
        2   -1    0    0  501    0  0.00000000000E+00  0.00000000000E+00 -0.10438080520E+04  0.10438080520E+04  0.25500000920E-02 0. -1.
    10030    2    1    2    0    0  0.00000000000E+00  0.00000000000E+00 -0.84978863546E+03  0.12378274686E+04  0.90004228621E+03 0.  0.
        5    1    3    3  502    0 -0.33454192697E+00  0.44353952447E+03 -0.32043024558E+03  0.54719745428E+03  0.46999998093E+01 0.  1.
       -5    1    3    3    0  502  0.33454192697E+00 -0.44353952447E+03 -0.52935838988E+03  0.69063001428E+03  0.46999998093E+01 0. -1.
</event>
<event>
 5   0  0.3959804E-04  0.9003437E+03  0.7818609E-02  0.9425152E-01
       -2   -1    0    0    0  501  0.00000000000E+00  0.00000000000E+00  0.79088959548E+03  0.79088959548E+03  0.25500000920E-02 0. -1.
        2   -1    0    0  501    0  0.00000000000E+00  0.00000000000E+00 -0.25623636703E+03  0.25623636704E+03  0.25500000920E-02 0.  1.
    10030    2    1    2    0    0  0.00000000000E+00  0.00000000000E+00  0.53465322845E+03  0.10471259625E+04  0.90034366033E+03 0.  0.
        5    1    3    3  502    0  0.41270034121E+01  0.82059430569E+01 -0.25609882849E+03  0.25630659300E+03  0.46999998093E+01 0.  1.
       -5    1    3    3    0  502 -0.41270034121E+01 -0.82059430569E+01  0.79075205695E+03  0.79081936953E+03  0.46999998093E+01 0. -1.
</event>
<event>
 5   0  0.2351435E-04  0.9005844E+03  0.7818609E-02  0.9424851E-01
        1   -1    0    0  501    0  0.00000000000E+00  0.00000000000E+00  0.44830978925E+03  0.44830978928E+03  0.50400001928E-02 0.  1.
       -1   -1    0    0    0  501  0.00000000000E+00  0.00000000000E+00 -0.45228334690E+03  0.45228334693E+03  0.50400001928E-02 0. -1.
    10030    2    1    2    0    0  0.00000000000E+00  0.00000000000E+00 -0.39735576431E+01  0.90059313621E+03  0.90058437019E+03 0.  0.
        4    1    3    3  502    0  0.15668894890E+03  0.26996724239E+03 -0.32653223149E+03  0.45172851335E+03  0.12699999809E+01 0. -1.
       -4    1    3    3    0  502 -0.15668894890E+03 -0.26996724239E+03  0.32255867385E+03  0.44886462285E+03  0.12699999809E+01 0.  1.
</event>
<event>
 5   0  0.2351435E-04  0.8998226E+03  0.7818609E-02  0.9425803E-01
        1   -1    0    0  501    0  0.00000000000E+00  0.00000000000E+00  0.66937624707E+03  0.66937624709E+03  0.50400001928E-02 0.  1.
       -1   -1    0    0    0  501  0.00000000000E+00  0.00000000000E+00 -0.30240122106E+03  0.30240122110E+03  0.50400001928E-02 0. -1.
    10030    2    1    2    0    0  0.00000000000E+00  0.00000000000E+00  0.36697502601E+03  0.97177746819E+03  0.89982263695E+03 0.  0.
        4    1    3    3  502    0 -0.23604791528E+03 -0.32250714176E+03 -0.39647871028E+02  0.40162549890E+03  0.12699999809E+01 0.  1.
       -4    1    3    3    0  502  0.23604791528E+03  0.32250714176E+03  0.40662289703E+03  0.57015196929E+03  0.12699999809E+01 0. -1.
</event>
<event>
 5   0  0.2332791E-04  0.8994180E+03  0.7818609E-02  0.9426309E-01
        1   -1    0    0  501    0  0.00000000000E+00  0.00000000000E+00  0.32962955661E+03  0.32962955664E+03  0.50400001928E-02 0. -1.
       -1   -1    0    0    0  501  0.00000000000E+00  0.00000000000E+00 -0.61353166631E+03  0.61353166633E+03  0.50400001928E-02 0.  1.
    10030    2    1    2    0    0  0.00000000000E+00  0.00000000000E+00 -0.28390210970E+03  0.94316122297E+03  0.89941796993E+03 0.  0.
        2    1    3    3  502    0  0.37400865888E+03 -0.52134146138E+02 -0.39803650892E+03  0.54866520626E+03  0.25500000920E-02 0.  1.
       -2    1    3    3    0  502 -0.37400865888E+03  0.52134146138E+02  0.11413439922E+03  0.39449601672E+03  0.25500000920E-02 0. -1.
</event>
<event>
 5   0  0.4243516E-04  0.8998330E+03  0.7818609E-02  0.9425790E-01
       -2   -1    0    0    0  501  0.00000000000E+00  0.00000000000E+00  0.19120224514E+03  0.19120224516E+03  0.25500000920E-02 0. -1.
        2   -1    0    0  501    0  0.00000000000E+00  0.00000000000E+00 -0.10586950313E+04  0.10586950313E+04  0.25500000920E-02 0.  1.
    10030    2    1    2    0    0  0.00000000000E+00  0.00000000000E+00 -0.86749278618E+03  0.12498972765E+04  0.89983302211E+03 0.  0.
        1    1    3    3  502    0 -0.34707089569E+02 -0.10399974227E+02 -0.10566653141E+04  0.10572863036E+04  0.50400001928E-02 0.  1.
       -1    1    3    3    0  502  0.34707089569E+02  0.10399974227E+02  0.18917252797E+03  0.19261097293E+03  0.50400001928E-02 0. -1.
</event>
<event>
 5   0  0.3959804E-04  0.8997788E+03  0.7818609E-02  0.9425858E-01
       -2   -1    0    0    0  501  0.00000000000E+00  0.00000000000E+00  0.19436266476E+03  0.19436266478E+03  0.25500000920E-02 0. -1.
        2   -1    0    0  501    0  0.00000000000E+00  0.00000000000E+00 -0.10413547036E+04  0.10413547036E+04  0.25500000920E-02 0.  1.
    10030    2    1    2    0    0  0.00000000000E+00  0.00000000000E+00 -0.84699203882E+03  0.12357173684E+04  0.89977880651E+03 0.  0.
        5    1    3    3  502    0 -0.90926810306E+02  0.41885449507E+02  0.17883691384E+03  0.20500440840E+03  0.46999998093E+01 0. -1.
       -5    1    3    3    0  502  0.90926810306E+02 -0.41885449507E+02 -0.10258289527E+04  0.10307129600E+04  0.46999998093E+01 0.  1.
</event>
<event>
 5   0  0.4110039E-04  0.8999723E+03  0.7818609E-02  0.9425616E-01
        2   -1    0    0  501    0  0.00000000000E+00  0.00000000000E+00  0.93600843823E+03  0.93600843824E+03  0.25500000920E-02 0. -1.
       -2   -1    0    0    0  501  0.00000000000E+00  0.00000000000E+00 -0.21633087485E+03  0.21633087487E+03  0.25500000920E-02 0.  1.
    10030    2    1    2    0    0  0.00000000000E+00  0.00000000000E+00  0.71967756338E+03  0.11523393131E+04  0.89997227585E+03 0.  0.
        3    1    3    3  502    0 -0.23705266386E+03 -0.14285908127E+03  0.81413377349E+03  0.85989330377E+03  0.10100000352E+00 0. -1.
       -3    1    3    3    0  502  0.23705266386E+03  0.14285908127E+03 -0.94456210104E+02  0.29244600933E+03  0.10100000352E+00 0.  1.
</event>
<event>
 5   0  0.2351435E-04  0.9001482E+03  0.7818609E-02  0.9425396E-01
       -1   -1    0    0    0  501  0.00000000000E+00  0.00000000000E+00  0.27580983701E+03  0.27580983706E+03  0.50400001928E-02 0.  1.
        1   -1    0    0  501    0  0.00000000000E+00  0.00000000000E+00 -0.73444334356E+03  0.73444334357E+03  0.50400001928E-02 0. -1.
    10030    2    1    2    0    0  0.00000000000E+00  0.00000000000E+00 -0.45863350654E+03  0.10102531806E+04  0.90014820760E+03 0.  0.
        4    1    3    3  502    0  0.12953800094E+02 -0.19370770613E+03  0.22639800729E+03  0.29824175924E+03  0.12699999809E+01 0.  1.
       -4    1    3    3    0  502 -0.12953800094E+02  0.19370770613E+03 -0.68503151383E+03  0.71201142139E+03  0.12699999809E+01 0. -1.
</event>
<event>
 5   0  0.4243516E-04  0.8998892E+03  0.7818609E-02  0.9425720E-01
        2   -1    0    0  501    0  0.00000000000E+00  0.00000000000E+00  0.30341637735E+04  0.30341637735E+04  0.25500000920E-02 0. -1.
       -2   -1    0    0    0  501  0.00000000000E+00  0.00000000000E+00 -0.66723536336E+02  0.66723536385E+02  0.25500000920E-02 0.  1.
    10030    2    1    2    0    0  0.00000000000E+00  0.00000000000E+00  0.29674402372E+04  0.31008873099E+04  0.89988918622E+03 0.  0.
        1    1    3    3  502    0  0.42993549493E+03 -0.11013374373E+03  0.17387172146E+04  0.17944669191E+04  0.50400001928E-02 0. -1.
       -1    1    3    3    0  502 -0.42993549493E+03  0.11013374373E+03  0.12287230226E+04  0.13064203908E+04  0.50400001928E-02 0.  1.
</event>
<event>
 5   0  0.2351435E-04  0.9007105E+03  0.7818609E-02  0.9424694E-01
        1   -1    0    0  501    0  0.00000000000E+00  0.00000000000E+00  0.46158884325E+03  0.46158884327E+03  0.50400001928E-02 0.  1.
       -1   -1    0    0    0  501  0.00000000000E+00  0.00000000000E+00 -0.43939507645E+03  0.43939507648E+03  0.50400001928E-02 0. -1.
    10030    2    1    2    0    0  0.00000000000E+00  0.00000000000E+00  0.22193766794E+02  0.90098391975E+03  0.90071053084E+03 0.  0.
        4    1    3    3  502    0 -0.18824038074E+03  0.77420157107E+02 -0.39075870935E+03  0.44059312693E+03  0.12699999809E+01 0. -1.
       -4    1    3    3    0  502  0.18824038074E+03 -0.77420157107E+02  0.41295247614E+03  0.46039079282E+03  0.12699999809E+01 0.  1.
</event>
<event>
 5   0  0.4110039E-04  0.8967459E+03  0.7818609E-02  0.9429658E-01
       -2   -1    0    0    0  501  0.00000000000E+00  0.00000000000E+00  0.31619806378E+03  0.31619806379E+03  0.25500000920E-02 0.  1.
        2   -1    0    0  501    0  0.00000000000E+00  0.00000000000E+00 -0.63579858806E+03  0.63579858807E+03  0.25500000920E-02 0. -1.
    10030    2    1    2    0    0  0.00000000000E+00  0.00000000000E+00 -0.31960052428E+03  0.95199665186E+03  0.89674585587E+03 0.  0.
        3    1    3    3  502    0  0.19937850958E+02 -0.23286582964E+03 -0.56601692192E+03  0.61237176504E+03  0.10100000352E+00 0. -1.
       -3    1    3    3    0  502 -0.19937850958E+02  0.23286582964E+03  0.24641639764E+03  0.33962488681E+03  0.10100000352E+00 0.  1.
</event>
<event>
 5   0  0.4033144E-04  0.8986875E+03  0.7818609E-02  0.9427224E-01
       -2   -1    0    0    0  501  0.00000000000E+00  0.00000000000E+00  0.26009049431E+03  0.26009049433E+03  0.25500000920E-02 0.  1.
        2   -1    0    0  501    0  0.00000000000E+00  0.00000000000E+00 -0.77630604590E+03  0.77630604590E+03  0.25500000920E-02 0. -1.
    10030    2    1    2    0    0  0.00000000000E+00  0.00000000000E+00 -0.51621555159E+03  0.10363965402E+04  0.89868753908E+03 0.  0.
        4    1    3    3  502    0 -0.26000429894E+02  0.43464623436E+03 -0.13013087092E+03  0.45445464885E+03  0.12699999809E+01 0. -1.
       -4    1    3    3    0  502  0.26000429894E+02 -0.43464623436E+03 -0.38608468067E+03  0.58194189138E+03  0.12699999809E+01 0.  1.
</event>
<event>
 5   0  0.2308362E-04  0.8998571E+03  0.7818609E-02  0.9425760E-01
       -1   -1    0    0    0  501  0.00000000000E+00  0.00000000000E+00  0.11661170367E+03  0.11661170378E+03  0.50400001928E-02 0. -1.
        1   -1    0    0  501    0  0.00000000000E+00  0.00000000000E+00 -0.17359811204E+04  0.17359811205E+04  0.50400001928E-02 0.  1.
    10030    2    1    2    0    0  0.00000000000E+00  0.00000000000E+00 -0.16193694168E+04  0.18525928242E+04  0.89985713556E+03 0.  0.
        1    1    3    3  502    0  0.19244705722E+03 -0.20838583108E+03 -0.15287066894E+04  0.15548005232E+04  0.50400001928E-02 0.  1.
       -1    1    3    3    0  502 -0.19244705722E+03  0.20838583108E+03 -0.90662727330E+02  0.29779230108E+03  0.50400001928E-02 0. -1.
</event>
<event>
 5   0  0.4110039E-04  0.8997456E+03  0.7818609E-02  0.9425899E-01
       -2   -1    0    0    0  501  0.00000000000E+00  0.00000000000E+00  0.38215771535E+03  0.38215771536E+03  0.25500000920E-02 0.  1.
        2   -1    0    0  501    0  0.00000000000E+00  0.00000000000E+00 -0.52958642386E+03  0.52958642387E+03  0.25500000920E-02 0. -1.
    10030    2    1    2    0    0  0.00000000000E+00  0.00000000000E+00 -0.14742870851E+03  0.91174413923E+03  0.89974560367E+03 0.  0.
        3    1    3    3  502    0  0.21115283794E+03 -0.39528996516E+03 -0.11355596950E+03  0.46231444487E+03  0.10100000352E+00 0. -1.
       -3    1    3    3    0  502 -0.21115283794E+03  0.39528996516E+03 -0.33872739014E+02  0.44942969436E+03  0.10100000352E+00 0.  1.
</event>
<event>
 5   0  0.2450427E-04  0.9003962E+03  0.7818609E-02  0.9425086E-01
       -1   -1    0    0    0  501  0.00000000000E+00  0.00000000000E+00  0.72577725163E+03  0.72577725164E+03  0.50400001928E-02 0.  1.
        1   -1    0    0  501    0  0.00000000000E+00  0.00000000000E+00 -0.27925691123E+03  0.27925691128E+03  0.50400001928E-02 0. -1.
    10030    2    1    2    0    0  0.00000000000E+00  0.00000000000E+00  0.44652034039E+03  0.10050341629E+04  0.90039616517E+03 0.  0.
        3    1    3    3  502    0 -0.36280784196E+03  0.13404342162E+03 -0.33908041693E+02  0.38826142554E+03  0.10100000352E+00 0. -1.
       -3    1    3    3    0  502  0.36280784196E+03 -0.13404342162E+03  0.48042838209E+03  0.61677273738E+03  0.10100000352E+00 0.  1.
</event>
<event>
 5   0  0.2356918E-04  0.8985480E+03  0.7818609E-02  0.9427398E-01
        1   -1    0    0  501    0  0.00000000000E+00  0.00000000000E+00  0.11761787310E+04  0.11761787310E+04  0.50400001928E-02 0.  1.
       -1   -1    0    0    0  501  0.00000000000E+00  0.00000000000E+00 -0.17161261284E+03  0.17161261292E+03  0.50400001928E-02 0. -1.
    10030    2    1    2    0    0  0.00000000000E+00  0.00000000000E+00  0.10045661181E+04  0.13477913439E+04  0.89854795142E+03 0.  0.
        5    1    3    3  502    0  0.19230416254E+03 -0.10637561450E+03 -0.85444018537E+02  0.23583772512E+03  0.46999998093E+01 0. -1.
       -5    1    3    3    0  502 -0.19230416254E+03  0.10637561450E+03  0.10900101367E+04  0.11119536188E+04  0.46999998093E+01 0.  1.
</event>
<event>
 5   0  0.2351435E-04  0.8998100E+03  0.7818609E-02  0.9425819E-01
        1   -1    0    0  501    0  0.00000000000E+00  0.00000000000E+00  0.58445424512E+03  0.58445424514E+03  0.50400001928E-02 0.  1.
       -1   -1    0    0    0  501  0.00000000000E+00  0.00000000000E+00 -0.34633081788E+03  0.34633081792E+03  0.50400001928E-02 0. -1.
    10030    2    1    2    0    0  0.00000000000E+00  0.00000000000E+00  0.23812342724E+03  0.93078506306E+03  0.89981001718E+03 0.  0.
        4    1    3    3  502    0  0.26186215365E+03 -0.91995114223E+02 -0.24721497311E+03  0.37168769738E+03  0.12699999809E+01 0. -1.
       -4    1    3    3    0  502 -0.26186215365E+03  0.91995114223E+02  0.48533840035E+03  0.55909736568E+03  0.12699999809E+01 0.  1.
</event>
<event>
 5   0  0.2450427E-04  0.9002798E+03  0.7818609E-02  0.9425232E-01
       -1   -1    0    0    0  501  0.00000000000E+00  0.00000000000E+00  0.66909644391E+03  0.66909644393E+03  0.50400001928E-02 0. -1.
        1   -1    0    0  501    0  0.00000000000E+00  0.00000000000E+00 -0.30283517697E+03  0.30283517702E+03  0.50400001928E-02 0.  1.
    10030    2    1    2    0    0  0.00000000000E+00  0.00000000000E+00  0.36626126694E+03  0.97193162095E+03  0.90027982325E+03 0.  0.
        3    1    3    3  502    0 -0.37297192139E+03  0.91491065656E+01  0.45503728023E+03  0.58843070696E+03  0.10100000352E+00 0. -1.
       -3    1    3    3    0  502  0.37297192139E+03 -0.91491065656E+01 -0.88776013288E+02  0.38350091399E+03  0.10100000352E+00 0.  1.
</event>
<event>
 5   0  0.2450427E-04  0.9001038E+03  0.7818609E-02  0.9425452E-01
        1   -1    0    0  501    0  0.00000000000E+00  0.00000000000E+00  0.11656683589E+04  0.11656683589E+04  0.50400001928E-02 0. -1.
       -1   -1    0    0    0  501  0.00000000000E+00  0.00000000000E+00 -0.17376013900E+03  0.17376013907E+03  0.50400001928E-02 0.  1.
    10030    2    1    2    0    0  0.00000000000E+00  0.00000000000E+00  0.99190821993E+03  0.13394284980E+04  0.90010376320E+03 0.  0.
        3    1    3    3  502    0 -0.31318707774E+03  0.32126781926E+03  0.44339449097E+03  0.63079144111E+03  0.10100000352E+00 0.  1.
       -3    1    3    3    0  502  0.31318707774E+03 -0.32126781926E+03  0.54851372896E+03  0.70863705690E+03  0.10100000352E+00 0. -1.
</event>
<event>
 5   0  0.2351435E-04  0.9001488E+03  0.7818609E-02  0.9425395E-01
       -1   -1    0    0    0  501  0.00000000000E+00  0.00000000000E+00  0.33907215190E+03  0.33907215194E+03  0.50400001928E-02 0. -1.
        1   -1    0    0  501    0  0.00000000000E+00  0.00000000000E+00 -0.59741546576E+03  0.59741546578E+03  0.50400001928E-02 0.  1.
    10030    2    1    2    0    0  0.00000000000E+00  0.00000000000E+00 -0.25834331386E+03  0.93648761772E+03  0.90014876011E+03 0.  0.
        4    1    3    3  502    0  0.52782321633E+02 -0.32863640487E+02  0.33458052580E+03  0.34031123033E+03  0.12699999809E+01 0. -1.
       -4    1    3    3    0  502 -0.52782321633E+02  0.32863640487E+02 -0.59292383966E+03  0.59617638739E+03  0.12699999809E+01 0.  1.
</event>
<event>
 5   0  0.2450427E-04  0.8996340E+03  0.7818609E-02  0.9426039E-01
       -1   -1    0    0    0  501  0.00000000000E+00  0.00000000000E+00  0.14532616063E+03  0.14532616072E+03  0.50400001928E-02 0.  1.
        1   -1    0    0  501    0  0.00000000000E+00  0.00000000000E+00 -0.13922844361E+04  0.13922844361E+04  0.50400001928E-02 0. -1.
    10030    2    1    2    0    0  0.00000000000E+00  0.00000000000E+00 -0.12469582755E+04  0.15376105968E+04  0.89963404044E+03 0.  0.
        3    1    3    3  502    0  0.11886147456E+03 -0.35719580604E+02  0.11548202863E+03  0.16952889934E+03  0.10100000352E+00 0.  1.
       -3    1    3    3    0  502 -0.11886147456E+03  0.35719580604E+02 -0.13624403041E+04  0.13680816975E+04  0.10100000352E+00 0. -1.
</event>
<event>
 5   0  0.2308362E-04  0.9000895E+03  0.7818609E-02  0.9425470E-01
        1   -1    0    0  501    0  0.00000000000E+00  0.00000000000E+00  0.45215183239E+03  0.45215183241E+03  0.50400001928E-02 0.  1.
       -1   -1    0    0    0  501  0.00000000000E+00  0.00000000000E+00 -0.44794746418E+03  0.44794746421E+03  0.50400001928E-02 0. -1.
    10030    2    1    2    0    0  0.00000000000E+00  0.00000000000E+00  0.42043682051E+01  0.90009929663E+03  0.90008947726E+03 0.  0.
        1    1    3    3  502    0 -0.44360475710E+03  0.75853147096E+02  0.92476026990E+00  0.45004414856E+03  0.50400001928E-02 0. -1.
       -1    1    3    3    0  502  0.44360475710E+03 -0.75853147096E+02  0.32796079352E+01  0.45005514807E+03  0.50400001928E-02 0.  1.
</event>
<event>
 5   0  0.2356918E-04  0.9002756E+03  0.7818609E-02  0.9425237E-01
        1   -1    0    0  501    0  0.00000000000E+00  0.00000000000E+00  0.53839151905E+03  0.53839151908E+03  0.50400001928E-02 0.  1.
       -1   -1    0    0    0  501  0.00000000000E+00  0.00000000000E+00 -0.37635071044E+03  0.37635071047E+03  0.50400001928E-02 0. -1.
    10030    2    1    2    0    0  0.00000000000E+00  0.00000000000E+00  0.16204080861E+03  0.91474222955E+03  0.90027558162E+03 0.  0.
        5    1    3    3  502    0  0.19413939095E+03 -0.76133077827E+02  0.48632322639E+03  0.52916794989E+03  0.46999998093E+01 0.  1.
       -5    1    3    3    0  502 -0.19413939095E+03  0.76133077827E+02 -0.32428241778E+03  0.38557427966E+03  0.46999998093E+01 0. -1.
</event>
<event>
 5   0  0.4110039E-04  0.9002317E+03  0.7818609E-02  0.9425292E-01
       -2   -1    0    0    0  501  0.00000000000E+00  0.00000000000E+00  0.64684896674E+03  0.64684896675E+03  0.25500000920E-02 0. -1.
        2   -1    0    0  501    0  0.00000000000E+00  0.00000000000E+00 -0.31321728173E+03  0.31321728175E+03  0.25500000920E-02 0.  1.
    10030    2    1    2    0    0  0.00000000000E+00  0.00000000000E+00  0.33363168501E+03  0.96006624849E+03  0.90023169254E+03 0.  0.
        3    1    3    3  502    0  0.12301321169E+03 -0.90706153599E+01  0.62847324814E+03  0.64046323871E+03  0.10100000352E+00 0. -1.
       -3    1    3    3    0  502 -0.12301321169E+03  0.90706153599E+01 -0.29484156313E+03  0.31960300978E+03  0.10100000352E+00 0.  1.
</event>
<event>
 5   0  0.4236284E-04  0.9001598E+03  0.7818609E-02  0.9425382E-01
       -2   -1    0    0    0  501  0.00000000000E+00  0.00000000000E+00  0.37111387445E+03  0.37111387446E+03  0.25500000920E-02 0. -1.
        2   -1    0    0  501    0  0.00000000000E+00  0.00000000000E+00 -0.54584837138E+03  0.54584837138E+03  0.25500000920E-02 0.  1.
    10030    2    1    2    0    0  0.00000000000E+00  0.00000000000E+00 -0.17473449692E+03  0.91696224584E+03  0.90015977242E+03 0.  0.
        2    1    3    3  502    0 -0.37486759656E+03 -0.94857840361E+02 -0.32198836372E+03  0.50319005475E+03  0.25500000920E-02 0.  1.
       -2    1    3    3    0  502  0.37486759656E+03  0.94857840361E+02  0.14725386679E+03  0.41377219109E+03  0.25500000920E-02 0. -1.
</event>
<event>
 5   0  0.2356918E-04  0.8999050E+03  0.7818609E-02  0.9425700E-01
       -1   -1    0    0    0  501  0.00000000000E+00  0.00000000000E+00  0.35164741221E+03  0.35164741225E+03  0.50400001928E-02 0. -1.
        1   -1    0    0  501    0  0.00000000000E+00  0.00000000000E+00 -0.57573934947E+03  0.57573934950E+03  0.50400001928E-02 0.  1.
    10030    2    1    2    0    0  0.00000000000E+00  0.00000000000E+00 -0.22409193726E+03  0.92738676174E+03  0.89990500027E+03 0.  0.
        5    1    3    3  502    0 -0.32703530648E+03  0.30572659994E+03 -0.65794224666E+02  0.45251719922E+03  0.46999998093E+01 0. -1.
       -5    1    3    3    0  502  0.32703530648E+03 -0.30572659994E+03 -0.15829771260E+03  0.47486956252E+03  0.46999998093E+01 0.  1.
</event>
<event>
 5   0  0.4110039E-04  0.8999703E+03  0.7818609E-02  0.9425619E-01
       -2   -1    0    0    0  501  0.00000000000E+00  0.00000000000E+00  0.42786857122E+03  0.42786857122E+03  0.25500000920E-02 0.  1.
        2   -1    0    0  501    0  0.00000000000E+00  0.00000000000E+00 -0.47324489101E+03  0.47324489101E+03  0.25500000920E-02 0. -1.
    10030    2    1    2    0    0  0.00000000000E+00  0.00000000000E+00 -0.45376319789E+02  0.90111346224E+03  0.89997025586E+03 0.  0.
        3    1    3    3  502    0  0.91319639772E+02  0.43643902202E+03 -0.83331659297E+02  0.45361048510E+03  0.10100000352E+00 0.  1.
       -3    1    3    3    0  502 -0.91319639772E+02 -0.43643902202E+03  0.37955339508E+02  0.44750297714E+03  0.10100000352E+00 0. -1.
</event>
<event>
 5   0  0.4243516E-04  0.8989120E+03  0.7818609E-02  0.9426943E-01
       -2   -1    0    0    0  501  0.00000000000E+00  0.00000000000E+00  0.19256884475E+03  0.19256884477E+03  0.25500000920E-02 0.  1.
        2   -1    0    0  501    0  0.00000000000E+00  0.00000000000E+00 -0.10490310051E+04  0.10490310051E+04  0.25500000920E-02 0. -1.
    10030    2    1    2    0    0  0.00000000000E+00  0.00000000000E+00 -0.85646216031E+03  0.12415998498E+04  0.89891198404E+03 0.  0.
        1    1    3    3  502    0  0.13053029196E+03 -0.30705209411E+03 -0.12274616995E+02  0.33387095091E+03  0.50400001928E-02 0.  1.
       -1    1    3    3    0  502 -0.13053029196E+03  0.30705209411E+03 -0.84418754332E+03  0.90772889892E+03  0.50400001928E-02 0. -1.
</event>
<event>
 5   0  0.4033144E-04  0.8997498E+03  0.7818609E-02  0.9425894E-01
       -2   -1    0    0    0  501  0.00000000000E+00  0.00000000000E+00  0.70844860278E+02  0.70844860324E+02  0.25500000920E-02 0. -1.
        2   -1    0    0  501    0  0.00000000000E+00  0.00000000000E+00 -0.28567695512E+04  0.28567695512E+04  0.25500000920E-02 0.  1.
    10030    2    1    2    0    0  0.00000000000E+00  0.00000000000E+00 -0.27859246909E+04  0.29276144115E+04  0.89974983138E+03 0.  0.
        4    1    3    3  502    0  0.23027691742E+03 -0.40208971807E+01 -0.26503910657E+04  0.26603793038E+04  0.12699999809E+01 0.  1.
       -4    1    3    3    0  502 -0.23027691742E+03  0.40208971807E+01 -0.13553362524E+03  0.26723510769E+03  0.12699999809E+01 0. -1.
</event>
<event>
 5   0  0.4236284E-04  0.8995672E+03  0.7818609E-02  0.9426123E-01
        2   -1    0    0  501    0  0.00000000000E+00  0.00000000000E+00  0.13073779723E+04  0.13073779723E+04  0.25500000920E-02 0. -1.
       -2   -1    0    0    0  501  0.00000000000E+00  0.00000000000E+00 -0.15474124327E+03  0.15474124329E+03  0.25500000920E-02 0.  1.
    10030    2    1    2    0    0  0.00000000000E+00  0.00000000000E+00  0.11526367290E+04  0.14621192156E+04  0.89956721343E+03 0.  0.
        2    1    3    3  502    0  0.38873172304E+03  0.12753003572E+02  0.20915170982E+03  0.44161004215E+03  0.25500000920E-02 0.  1.
       -2    1    3    3    0  502 -0.38873172304E+03 -0.12753003572E+02  0.94348501919E+03  0.10205091734E+04  0.25500000920E-02 0. -1.
</event>
<event>
 5   0  0.2356918E-04  0.8998489E+03  0.7818609E-02  0.9425770E-01
        1   -1    0    0  501    0  0.00000000000E+00  0.00000000000E+00  0.62995050564E+03  0.62995050566E+03  0.50400001928E-02 0. -1.
       -1   -1    0    0    0  501  0.00000000000E+00  0.00000000000E+00 -0.32134592192E+03  0.32134592196E+03  0.50400001928E-02 0.  1.
    10030    2    1    2    0    0  0.00000000000E+00  0.00000000000E+00  0.30860458372E+03  0.95129642762E+03  0.89984893405E+03 0.  0.
        5    1    3    3  502    0 -0.13651744786E+03  0.10617138894E+03  0.59338012496E+03  0.61808691953E+03  0.46999998093E+01 0. -1.
       -5    1    3    3    0  502  0.13651744786E+03 -0.10617138894E+03 -0.28477554124E+03  0.33320950809E+03  0.46999998093E+01 0.  1.
</event>
<event>
 5   0  0.4236284E-04  0.9008221E+03  0.7818609E-02  0.9424554E-01
        2   -1    0    0  501    0  0.00000000000E+00  0.00000000000E+00  0.12710399640E+04  0.12710399640E+04  0.25500000920E-02 0. -1.
       -2   -1    0    0    0  501  0.00000000000E+00  0.00000000000E+00 -0.15960954281E+03  0.15960954283E+03  0.25500000920E-02 0.  1.
    10030    2    1    2    0    0  0.00000000000E+00  0.00000000000E+00  0.11114304212E+04  0.14306495068E+04  0.90082208580E+03 0.  0.
        2    1    3    3  502    0  0.57125873721E+02 -0.36552706418E+03  0.96371069719E+03  0.10322847030E+04  0.25500000920E-02 0. -1.
       -2    1    3    3    0  502 -0.57125873721E+02  0.36552706418E+03  0.14771972400E+03  0.39836480387E+03  0.25500000920E-02 0.  1.
</event>
<event>
 5   0  0.2356918E-04  0.9007316E+03  0.7818609E-02  0.9424667E-01
        1   -1    0    0  501    0  0.00000000000E+00  0.00000000000E+00  0.46866888918E+03  0.46866888921E+03  0.50400001928E-02 0.  1.
       -1   -1    0    0    0  501  0.00000000000E+00  0.00000000000E+00 -0.43277749163E+03  0.43277749166E+03  0.50400001928E-02 0. -1.
    10030    2    1    2    0    0  0.00000000000E+00  0.00000000000E+00  0.35891397550E+02  0.90144638087E+03  0.90073158331E+03 0.  0.
        5    1    3    3  502    0 -0.23299862619E+03  0.20504719900E+03  0.34450901679E+03  0.46372542121E+03  0.46999998093E+01 0.  1.
       -5    1    3    3    0  502  0.23299862619E+03 -0.20504719900E+03 -0.30861761924E+03  0.43772095966E+03  0.46999998093E+01 0. -1.
</event>
<event>
 5   0  0.2332791E-04  0.9011305E+03  0.7818609E-02  0.9424169E-01
        1   -1    0    0  501    0  0.00000000000E+00  0.00000000000E+00  0.40574537891E+03  0.40574537894E+03  0.50400001928E-02 0. -1.
       -1   -1    0    0    0  501  0.00000000000E+00  0.00000000000E+00 -0.50033609081E+03  0.50033609084E+03  0.50400001928E-02 0.  1.
    10030    2    1    2    0    0  0.00000000000E+00  0.00000000000E+00 -0.94590711904E+02  0.90608146977E+03  0.90113052722E+03 0.  0.
        2    1    3    3  502    0 -0.11803871685E+03 -0.40809651404E+03  0.10363984326E+03  0.43728379865E+03  0.25500000920E-02 0.  1.
       -2    1    3    3    0  502  0.11803871685E+03  0.40809651404E+03 -0.19823055517E+03  0.46879767112E+03  0.25500000920E-02 0. -1.
</event>
<event>
 5   0  0.2332791E-04  0.8995557E+03  0.7818609E-02  0.9426137E-01
        1   -1    0    0  501    0  0.00000000000E+00  0.00000000000E+00  0.10068791348E+04  0.10068791348E+04  0.50400001928E-02 0. -1.
       -1   -1    0    0    0  501  0.00000000000E+00  0.00000000000E+00 -0.20091798092E+03  0.20091798098E+03  0.50400001928E-02 0.  1.
    10030    2    1    2    0    0  0.00000000000E+00  0.00000000000E+00  0.80596115387E+03  0.12077971158E+04  0.89955571886E+03 0.  0.
        2    1    3    3  502    0  0.40167330748E+03  0.76088552765E+02  0.65477564526E+03  0.77192101891E+03  0.25500000920E-02 0. -1.
       -2    1    3    3    0  502 -0.40167330748E+03 -0.76088552765E+02  0.15118550861E+03  0.43587609687E+03  0.25500000920E-02 0.  1.
</event>
<event>
 5   0  0.2332791E-04  0.8996843E+03  0.7818609E-02  0.9425976E-01
        1   -1    0    0  501    0  0.00000000000E+00  0.00000000000E+00  0.32401743612E+03  0.32401743616E+03  0.50400001928E-02 0.  1.
       -1   -1    0    0    0  501  0.00000000000E+00  0.00000000000E+00 -0.62452794033E+03  0.62452794035E+03  0.50400001928E-02 0. -1.
    10030    2    1    2    0    0  0.00000000000E+00  0.00000000000E+00 -0.30051050422E+03  0.94854537651E+03  0.89968426025E+03 0.  0.
        2    1    3    3  502    0 -0.39958104301E+03 -0.18105758783E+03 -0.25521638830E+03  0.50752562980E+03  0.25500000920E-02 0. -1.
       -2    1    3    3    0  502  0.39958104301E+03  0.18105758783E+03 -0.45294115915E+02  0.44101974671E+03  0.25500000920E-02 0.  1.
</event>
<event>
 5   0  0.4243516E-04  0.9002710E+03  0.7818609E-02  0.9425243E-01
       -2   -1    0    0    0  501  0.00000000000E+00  0.00000000000E+00  0.23508929272E+03  0.23508929273E+03  0.25500000920E-02 0. -1.
        2   -1    0    0  501    0  0.00000000000E+00  0.00000000000E+00 -0.86189363797E+03  0.86189363797E+03  0.25500000920E-02 0.  1.
    10030    2    1    2    0    0  0.00000000000E+00  0.00000000000E+00 -0.62680434525E+03  0.10969829307E+04  0.90027099422E+03 0.  0.
        1    1    3    3  502    0  0.37393606142E+03 -0.75144393388E+02 -0.22113403671E+02  0.38205216991E+03  0.50400001928E-02 0. -1.
       -1    1    3    3    0  502 -0.37393606142E+03  0.75144393388E+02 -0.60469094157E+03  0.71493076080E+03  0.50400001928E-02 0.  1.
</event>
<event>
 5   0  0.4033144E-04  0.9002191E+03  0.7818609E-02  0.9425308E-01
       -2   -1    0    0    0  501  0.00000000000E+00  0.00000000000E+00  0.12691511380E+03  0.12691511383E+03  0.25500000920E-02 0.  1.
        2   -1    0    0  501    0  0.00000000000E+00  0.00000000000E+00 -0.15963317118E+04  0.15963317118E+04  0.25500000920E-02 0. -1.
    10030    2    1    2    0    0  0.00000000000E+00  0.00000000000E+00 -0.14694165980E+04  0.17232468256E+04  0.90021913086E+03 0.  0.
        4    1    3    3  502    0  0.11180174102E+02 -0.59990069922E+02  0.11895651960E+03  0.13370142572E+03  0.12699999809E+01 0.  1.
       -4    1    3    3    0  502 -0.11180174102E+02  0.59990069922E+02 -0.15883731176E+04  0.15895453999E+04  0.12699999809E+01 0. -1.
</event>
<event>
 5   0  0.2450427E-04  0.9000989E+03  0.7818609E-02  0.9425458E-01
        1   -1    0    0  501    0  0.00000000000E+00  0.00000000000E+00  0.77918992628E+03  0.77918992630E+03  0.50400001928E-02 0.  1.
       -1   -1    0    0    0  501  0.00000000000E+00  0.00000000000E+00 -0.25994241657E+03  0.25994241662E+03  0.50400001928E-02 0. -1.
    10030    2    1    2    0    0  0.00000000000E+00  0.00000000000E+00  0.51924750971E+03  0.10391323429E+04  0.90009891110E+03 0.  0.
        3    1    3    3  502    0 -0.51655801035E+02 -0.14623167652E+03 -0.22811872789E+03  0.27584450187E+03  0.10100000352E+00 0. -1.
       -3    1    3    3    0  502  0.51655801035E+02  0.14623167652E+03  0.74736623760E+03  0.76328784105E+03  0.10100000352E+00 0.  1.
</event>
<event>
 5   0  0.4110039E-04  0.8999899E+03  0.7818609E-02  0.9425594E-01
       -2   -1    0    0    0  501  0.00000000000E+00  0.00000000000E+00  0.10879073723E+03  0.10879073726E+03  0.25500000920E-02 0. -1.
        2   -1    0    0  501    0  0.00000000000E+00  0.00000000000E+00 -0.18613299927E+04  0.18613299927E+04  0.25500000920E-02 0.  1.
    10030    2    1    2    0    0  0.00000000000E+00  0.00000000000E+00 -0.17525392555E+04  0.19701207300E+04  0.89998991587E+03 0.  0.
        3    1    3    3  502    0  0.87291225256E+02  0.16906229183E+03  0.16404630459E+02  0.19097365952E+03  0.10100000352E+00 0. -1.
       -3    1    3    3    0  502 -0.87291225256E+02 -0.16906229183E+03 -0.17689438859E+04  0.17791470704E+04  0.10100000352E+00 0.  1.
</event>
<event>
 5   0  0.2450427E-04  0.8998980E+03  0.7818609E-02  0.9425709E-01
       -1   -1    0    0    0  501  0.00000000000E+00  0.00000000000E+00  0.19624186272E+03  0.19624186278E+03  0.50400001928E-02 0.  1.
        1   -1    0    0  501    0  0.00000000000E+00  0.00000000000E+00 -0.10316561177E+04  0.10316561177E+04  0.50400001928E-02 0. -1.
    10030    2    1    2    0    0  0.00000000000E+00  0.00000000000E+00 -0.83541425499E+03  0.12278979805E+04  0.89989803482E+03 0.  0.
        3    1    3    3  502    0 -0.34117722228E+03  0.27467887216E+03 -0.27720002552E+03  0.51835339698E+03  0.10100000352E+00 0.  1.
       -3    1    3    3    0  502  0.34117722228E+03 -0.27467887216E+03 -0.55821422947E+03  0.70954458351E+03  0.10100000352E+00 0. -1.
</event>
<event>
 5   0  0.2332791E-04  0.8998787E+03  0.7818609E-02  0.9425733E-01
        1   -1    0    0  501    0  0.00000000000E+00  0.00000000000E+00  0.22695196488E+03  0.22695196493E+03  0.50400001928E-02 0.  1.
       -1   -1    0    0    0  501  0.00000000000E+00  0.00000000000E+00 -0.89201879774E+03  0.89201879775E+03  0.50400001928E-02 0. -1.
    10030    2    1    2    0    0  0.00000000000E+00  0.00000000000E+00 -0.66506683286E+03  0.11189707627E+04  0.89987870047E+03 0.  0.
        2    1    3    3  502    0  0.22946473061E+03  0.57579345738E+02 -0.80843589397E+03  0.84234080889E+03  0.25500000920E-02 0. -1.
       -2    1    3    3    0  502 -0.22946473061E+03 -0.57579345738E+02  0.14336906111E+03  0.27662995380E+03  0.25500000920E-02 0.  1.
</event>
<event>
 5   0  0.4236284E-04  0.8996809E+03  0.7818609E-02  0.9425980E-01
        2   -1    0    0  501    0  0.00000000000E+00  0.00000000000E+00  0.84307072425E+03  0.84307072426E+03  0.25500000920E-02 0. -1.
       -2   -1    0    0    0  501  0.00000000000E+00  0.00000000000E+00 -0.24002305248E+03  0.24002305249E+03  0.25500000920E-02 0.  1.
    10030    2    1    2    0    0  0.00000000000E+00  0.00000000000E+00  0.60304767177E+03  0.10830937768E+04  0.89968085164E+03 0.  0.
        2    1    3    3  502    0 -0.19472797210E+03 -0.11909348402E+03  0.76817338087E+03  0.80136919340E+03  0.25500000920E-02 0. -1.
       -2    1    3    3    0  502  0.19472797210E+03  0.11909348402E+03 -0.16512570909E+03  0.28172458335E+03  0.25500000920E-02 0.  1.
</event>
<event>
 5   0  0.2356918E-04  0.9000080E+03  0.7818609E-02  0.9425571E-01
       -1   -1    0    0    0  501  0.00000000000E+00  0.00000000000E+00  0.59346872136E+03  0.59346872138E+03  0.50400001928E-02 0.  1.
        1   -1    0    0  501    0  0.00000000000E+00  0.00000000000E+00 -0.34122032069E+03  0.34122032072E+03  0.50400001928E-02 0. -1.
    10030    2    1    2    0    0  0.00000000000E+00  0.00000000000E+00  0.25224840068E+03  0.93468904211E+03  0.90000797207E+03 0.  0.
        5    1    3    3  502    0 -0.62413939412E+02  0.14699943789E+03  0.56302154904E+03  0.58525181696E+03  0.46999998093E+01 0.  1.
       -5    1    3    3    0  502  0.62413939412E+02 -0.14699943789E+03 -0.31077314836E+03  0.34943722514E+03  0.46999998093E+01 0. -1.
</event>
<event>
 5   0  0.2308362E-04  0.9003261E+03  0.7818609E-02  0.9425174E-01
        1   -1    0    0  501    0  0.00000000000E+00  0.00000000000E+00  0.20208083335E+03  0.20208083341E+03  0.50400001928E-02 0.  1.
       -1   -1    0    0    0  501  0.00000000000E+00  0.00000000000E+00 -0.10028005633E+04  0.10028005633E+04  0.50400001928E-02 0. -1.
    10030    2    1    2    0    0  0.00000000000E+00  0.00000000000E+00 -0.80071972995E+03  0.12048813967E+04  0.90032610439E+03 0.  0.
        1    1    3    3  502    0 -0.19047367048E+03  0.38197042929E+03 -0.59180832412E+03  0.72967028206E+03  0.50400001928E-02 0. -1.
       -1    1    3    3    0  502  0.19047367048E+03 -0.38197042929E+03 -0.20891140582E+03  0.47521111467E+03  0.50400001928E-02 0.  1.
</event>
<event>
 5   0  0.4033144E-04  0.8999931E+03  0.7818609E-02  0.9425590E-01
       -2   -1    0    0    0  501  0.00000000000E+00  0.00000000000E+00  0.42155175390E+03  0.42155175391E+03  0.25500000920E-02 0. -1.
        2   -1    0    0  501    0  0.00000000000E+00  0.00000000000E+00 -0.48036069635E+03  0.48036069635E+03  0.25500000920E-02 0.  1.
    10030    2    1    2    0    0  0.00000000000E+00  0.00000000000E+00 -0.58808942448E+02  0.90191245026E+03  0.89999309787E+03 0.  0.
        4    1    3    3  502    0 -0.24037673137E+03  0.18789236840E+03  0.30207392787E+03  0.42934227126E+03  0.12699999809E+01 0. -1.
       -4    1    3    3    0  502  0.24037673137E+03 -0.18789236840E+03 -0.36088287032E+03  0.47257017900E+03  0.12699999809E+01 0.  1.
</event>
<event>
 5   0  0.2308362E-04  0.9004772E+03  0.7818609E-02  0.9424985E-01
       -1   -1    0    0    0  501  0.00000000000E+00  0.00000000000E+00  0.10389848743E+04  0.10389848743E+04  0.50400001928E-02 0.  1.
        1   -1    0    0  501    0  0.00000000000E+00  0.00000000000E+00 -0.19510850932E+03  0.19510850939E+03  0.50400001928E-02 0. -1.
    10030    2    1    2    0    0  0.00000000000E+00  0.00000000000E+00  0.84387636496E+03  0.12340933837E+04  0.90047718478E+03 0.  0.
        1    1    3    3  502    0  0.44904978375E+03  0.24399564223E+01  0.37725252359E+03  0.58649051847E+03  0.50400001928E-02 0.  1.
       -1    1    3    3    0  502 -0.44904978375E+03 -0.24399564223E+01  0.46662384137E+03  0.64760286522E+03  0.50400001928E-02 0. -1.
</event>
<event>
 5   0  0.4033144E-04  0.8993127E+03  0.7818609E-02  0.9426441E-01
       -2   -1    0    0    0  501  0.00000000000E+00  0.00000000000E+00  0.14546200284E+03  0.14546200286E+03  0.25500000920E-02 0.  1.
        2   -1    0    0  501    0  0.00000000000E+00  0.00000000000E+00 -0.13899906114E+04  0.13899906114E+04  0.25500000920E-02 0. -1.
    10030    2    1    2    0    0  0.00000000000E+00  0.00000000000E+00 -0.12445286085E+04  0.15354526142E+04  0.89931266703E+03 0.  0.
        4    1    3    3  502    0  0.36703661865E+03  0.10347562123E+03 -0.10290543525E+04  0.10974413683E+04  0.12699999809E+01 0. -1.
       -4    1    3    3    0  502 -0.36703661865E+03 -0.10347562123E+03 -0.21547425603E+03  0.43801124590E+03  0.12699999809E+01 0.  1.
</event>
<event>
 5   0  0.3959804E-04  0.9018708E+03  0.7818609E-02  0.9423246E-01
        2   -1    0    0  501    0  0.00000000000E+00  0.00000000000E+00  0.81521963976E+03  0.81521963976E+03  0.25500000920E-02 0. -1.
       -2   -1    0    0    0  501  0.00000000000E+00  0.00000000000E+00 -0.24943306028E+03  0.24943306030E+03  0.25500000920E-02 0.  1.
    10030    2    1    2    0    0  0.00000000000E+00  0.00000000000E+00  0.56578657947E+03  0.10646527001E+04  0.90187078799E+03 0.  0.
        5    1    3    3  502    0  0.27021912651E+03  0.34324157694E+03  0.15097618950E+03  0.46222186909E+03  0.46999998093E+01 0.  1.
       -5    1    3    3    0  502 -0.27021912651E+03 -0.34324157694E+03  0.41481038998E+03  0.60243083097E+03  0.46999998093E+01 0. -1.
</event>
<event>
 5   0  0.2351435E-04  0.9001929E+03  0.7818609E-02  0.9425340E-01
       -1   -1    0    0    0  501  0.00000000000E+00  0.00000000000E+00  0.71671153102E+03  0.71671153104E+03  0.50400001928E-02 0.  1.
        1   -1    0    0  501    0  0.00000000000E+00  0.00000000000E+00 -0.28266157369E+03  0.28266157373E+03  0.50400001928E-02 0. -1.
    10030    2    1    2    0    0  0.00000000000E+00  0.00000000000E+00  0.43404995733E+03  0.99937310477E+03  0.90019288882E+03 0.  0.
        4    1    3    3  502    0 -0.78638162124E+02 -0.38498397127E+03  0.46072980705E+03  0.60553297736E+03  0.12699999809E+01 0.  1.
       -4    1    3    3    0  502  0.78638162124E+02  0.38498397127E+03 -0.26679849712E+02  0.39384012741E+03  0.12699999809E+01 0. -1.
</event>
<event>
 5   0  0.3959804E-04  0.9000045E+03  0.7818609E-02  0.9425576E-01
        2   -1    0    0  501    0  0.00000000000E+00  0.00000000000E+00  0.10689525034E+04  0.10689525034E+04  0.25500000920E-02 0.  1.
       -2   -1    0    0    0  501  0.00000000000E+00  0.00000000000E+00 -0.18943969596E+03  0.18943969598E+03  0.25500000920E-02 0. -1.
    10030    2    1    2    0    0  0.00000000000E+00  0.00000000000E+00  0.87951280741E+03  0.12583921994E+04  0.90000452721E+03 0.  0.
        5    1    3    3  502    0 -0.26949900658E+03  0.30837722687E+03  0.70041494704E+03  0.81137501603E+03  0.46999998093E+01 0. -1.
       -5    1    3    3    0  502  0.26949900658E+03 -0.30837722687E+03  0.17909786037E+03  0.44701718332E+03  0.46999998093E+01 0.  1.
</event>
<event>
 5   0  0.1596250E-04  0.9000447E+03  0.7818609E-02  0.9425526E-01
        4   -1    0    0  501    0  0.00000000000E+00  0.00000000000E+00  0.28950137119E+03  0.28950415683E+03  0.12699999809E+01 0. -1.
       -4   -1    0    0    0  501  0.00000000000E+00  0.00000000000E+00 -0.69954128627E+03  0.69954243910E+03  0.12699999809E+01 0.  1.
    10030    2    1    2    0    0  0.00000000000E+00  0.00000000000E+00 -0.41003991508E+03  0.98904659592E+03  0.90004468608E+03 0.  0.
        5    1    3    3  502    0  0.27755236483E+03  0.23614312384E+03 -0.49513240048E+03  0.61479840124E+03  0.46999998093E+01 0.  1.
       -5    1    3    3    0  502 -0.27755236483E+03 -0.23614312384E+03  0.85092485395E+02  0.37424819469E+03  0.46999998093E+01 0. -1.
</event>
<event>
 5   0  0.4236284E-04  0.9001334E+03  0.7818609E-02  0.9425415E-01
       -2   -1    0    0    0  501  0.00000000000E+00  0.00000000000E+00  0.55922041614E+03  0.55922041615E+03  0.25500000920E-02 0. -1.
        2   -1    0    0  501    0  0.00000000000E+00  0.00000000000E+00 -0.36221860309E+03  0.36221860310E+03  0.25500000920E-02 0.  1.
    10030    2    1    2    0    0  0.00000000000E+00  0.00000000000E+00  0.19700181305E+03  0.92143901925E+03  0.90013340781E+03 0.  0.
        2    1    3    3  502    0 -0.15995712827E+03  0.30773475935E+03  0.39212289658E+03  0.52349530182E+03  0.25500000920E-02 0. -1.
       -2    1    3    3    0  502  0.15995712827E+03 -0.30773475935E+03 -0.19512108353E+03  0.39794371743E+03  0.25500000920E-02 0.  1.
</event>
<event>
 5   0  0.2450427E-04  0.8997555E+03  0.7818609E-02  0.9425887E-01
        1   -1    0    0  501    0  0.00000000000E+00  0.00000000000E+00  0.96700983915E+03  0.96700983916E+03  0.50400001928E-02 0. -1.
       -1   -1    0    0    0  501  0.00000000000E+00  0.00000000000E+00 -0.20929464436E+03  0.20929464442E+03  0.50400001928E-02 0.  1.
    10030    2    1    2    0    0  0.00000000000E+00  0.00000000000E+00  0.75771519479E+03  0.11763044836E+04  0.89975547883E+03 0.  0.
        3    1    3    3  502    0  0.68652524714E+02 -0.32887816393E+02 -0.20081357012E+03  0.21475771875E+03  0.10100000352E+00 0.  1.
       -3    1    3    3    0  502 -0.68652524714E+02  0.32887816393E+02  0.95852876491E+03  0.96154676484E+03  0.10100000352E+00 0. -1.
</event>
</LesHouchesEvents>
